<event>
 5    1  0.1325832E-009  0.9118800E+02  0.7818608E-02  0.1130116E+00
         25   -1    0    0    0    0  0.00000000000E+00  0.00000000000E+00  0.99999998245E-14  0.12500000000E+03  0.12500000000E+03 0.  0.
        -13    1    3    3    0    0 -0.36205683911E+01 -0.55366339946E+02 -0.21764339947E+02  0.59600652445E+02  0.10566000000E+00 0. -1.
         23    2    1    0    0    0  0.10496235949E+02 -0.27880157581E+02 -0.48798321360E+01  0.94812470828E+02  0.89878349490E+02 0.  0.
         13    1    3    3    0    0  0.14116804340E+02  0.27486182365E+02  0.16884507811E+02  0.35211818383E+02  0.10566000000E+00 0.  1.
         22    1    1    0    0    0 -0.10496235949E+02  0.27880157581E+02  0.48798321360E+01  0.30187529172E+02  0.00000000000E+00 0. -1.
</event>
<event>
 5    1  0.1325832E-009  0.9118800E+02  0.7818608E-02  0.1130116E+00
         25   -1    0    0    0    0  0.00000000000E+00  0.00000000000E+00  0.99999998245E-14  0.12500000000E+03  0.12500000000E+03 0.  0.
        -13    1    3    3    0    0  0.26984437578E+02 -0.39426927872E+02  0.20484753529E+02  0.51983447404E+02  0.10566000000E+00 0. -1.
         23    2    1    0    0    0 -0.38009238728E+01 -0.10072349665E+02  0.27838887771E+02  0.95152003042E+02  0.90349326287E+02 0.  0.
         13    1    3    3    0    0 -0.30785361451E+02  0.29354578206E+02  0.73541342419E+01  0.43168555638E+02  0.10566000000E+00 0.  1.
         22    1    1    0    0    0  0.38009238728E+01  0.10072349665E+02 -0.27838887771E+02  0.29847996958E+02  0.00000000000E+00 0. -1.
</event>
<event>
 5    1  0.1325832E-009  0.9118800E+02  0.7818608E-02  0.1130116E+00
         25   -1    0    0    0    0  0.00000000000E+00  0.00000000000E+00  0.99999998245E-14  0.12500000000E+03  0.12500000000E+03 0.  0.
        -13    1    3    3    0    0  0.37642003162E+02  0.84382216927E+01 -0.46579410296E+02  0.60479555346E+02  0.10566000000E+00 0. -1.
         23    2    1    0    0    0  0.74383858751E+01  0.39443364219E+01 -0.26912926542E+02  0.96800833536E+02  0.92602421048E+02 0.  0.
         13    1    3    3    0    0 -0.30203617286E+02 -0.44938852708E+01  0.19666483754E+02  0.36321278189E+02  0.10566000000E+00 0.  1.
         22    1    1    0    0    0 -0.74383858751E+01 -0.39443364219E+01  0.26912926542E+02  0.28199166464E+02  0.00000000000E+00 0. -1.
</event>
<event>
 5    1  0.1325832E-009  0.9118800E+02  0.7818608E-02  0.1130116E+00
         25   -1    0    0    0    0  0.00000000000E+00  0.00000000000E+00  0.99999998245E-14  0.12500000000E+03  0.12500000000E+03 0.  0.
        -13    1    3    3    0    0  0.47646991070E+02  0.97580416278E+01 -0.12762042241E+02  0.50282561794E+02  0.10566000000E+00 0.  1.
         23    2    1    0    0    0  0.76298005268E+01  0.28217819542E+02 -0.85005117637E+01  0.94557958412E+02  0.89523681800E+02 0.  0.
         13    1    3    3    0    0 -0.40017190543E+02  0.18459777915E+02  0.42615304773E+01  0.44275396618E+02  0.10566000000E+00 0. -1.
         22    1    1    0    0    0 -0.76298005268E+01 -0.28217819542E+02  0.85005117637E+01  0.30442041588E+02  0.00000000000E+00 0.  1.
</event>
<event>
 5    1  0.1325832E-009  0.9118800E+02  0.7818608E-02  0.1130116E+00
         25   -1    0    0    0    0  0.00000000000E+00  0.00000000000E+00  0.99999998245E-14  0.12500000000E+03  0.12500000000E+03 0.  0.
        -13    1    3    3    0    0 -0.24203873726E+02 -0.10381801199E+02 -0.21968186440E+02  0.34296088392E+02  0.10566000000E+00 0.  1.
         23    2    1    0    0    0  0.12490092157E+02 -0.85554162861E+00  0.26418387519E+02  0.95765336453E+02  0.91193936823E+02 0.  0.
         13    1    3    3    0    0  0.36693965883E+02  0.95262595706E+01  0.48386573959E+02  0.61469248061E+02  0.10566000000E+00 0. -1.
         22    1    1    0    0    0 -0.12490092157E+02  0.85554162861E+00 -0.26418387519E+02  0.29234663547E+02  0.00000000000E+00 0. -1.
</event>
<event>
 5    1  0.1325832E-009  0.9118800E+02  0.7818608E-02  0.1130116E+00
         25   -1    0    0    0    0  0.00000000000E+00  0.00000000000E+00  0.99999998245E-14  0.12500000000E+03  0.12500000000E+03 0.  0.
        -13    1    3    3    0    0 -0.11498762714E+02  0.77337677899E+01 -0.51855861385E+02  0.53675639094E+02  0.10566000000E+00 0.  1.
         23    2    1    0    0    0 -0.20411226356E+02 -0.13020856461E+02 -0.16250938345E+02  0.95840887163E+02  0.91297435839E+02 0.  0.
         13    1    3    3    0    0 -0.89124636423E+01 -0.20754624251E+02  0.35604923041E+02  0.42165248069E+02  0.10566000000E+00 0. -1.
         22    1    1    0    0    0  0.20411226356E+02  0.13020856461E+02  0.16250938345E+02  0.29159112837E+02  0.00000000000E+00 0.  1.
</event>
<event>
 5    1  0.1325832E-009  0.9118800E+02  0.7818608E-02  0.1130116E+00
         25   -1    0    0    0    0  0.00000000000E+00  0.00000000000E+00  0.99999998245E-14  0.12500000000E+03  0.12500000000E+03 0.  0.
        -13    1    3    3    0    0 -0.18152516537E+02 -0.94399395448E+01 -0.31077463110E+02  0.37208146858E+02  0.10566000000E+00 0. -1.
         23    2    1    0    0    0  0.20696523142E+02 -0.21197887278E+02  0.87853848427E+01  0.94098875715E+02  0.88880363010E+02 0.  0.
         13    1    3    3    0    0  0.38849039679E+02 -0.11757947733E+02  0.39862847953E+02  0.56890728857E+02  0.10566000000E+00 0.  1.
         22    1    1    0    0    0 -0.20696523142E+02  0.21197887278E+02 -0.87853848427E+01  0.30901124285E+02  0.00000000000E+00 0.  1.
</event>
<event>
 5    1  0.1325832E-009  0.9118800E+02  0.7818608E-02  0.1130116E+00
         25   -1    0    0    0    0  0.00000000000E+00  0.00000000000E+00  0.99999998245E-14  0.12500000000E+03  0.12500000000E+03 0.  0.
        -13    1    3    3    0    0  0.29894723212E+02  0.94376543879E+01 -0.28758335605E+02  0.42541941976E+02  0.10566000000E+00 0.  1.
         23    2    1    0    0    0  0.16396157157E+02 -0.14785741357E+01  0.22761989950E+02  0.96908571815E+02  0.92747738268E+02 0.  0.
         13    1    3    3    0    0 -0.13498566055E+02 -0.10916228524E+02  0.51520325555E+02  0.54366629839E+02  0.10566000000E+00 0. -1.
         22    1    1    0    0    0 -0.16396157157E+02  0.14785741357E+01 -0.22761989950E+02  0.28091428185E+02  0.00000000000E+00 0. -1.
</event>
<event>
 5    1  0.1325832E-009  0.9118800E+02  0.7818608E-02  0.1130116E+00
         25   -1    0    0    0    0  0.00000000000E+00  0.00000000000E+00  0.99999998245E-14  0.12500000000E+03  0.12500000000E+03 0.  0.
        -13    1    3    3    0    0 -0.16599551449E+02  0.59299208437E+00 -0.59895809217E+02  0.62156382405E+02  0.10566000000E+00 0.  1.
         23    2    1    0    0    0 -0.34960046915E+01 -0.16602575746E+01 -0.28309732307E+02  0.96426945432E+02  0.92096342805E+02 0.  0.
         13    1    3    3    0    0  0.13103546757E+02 -0.22532496589E+01  0.31586076909E+02  0.34270563027E+02  0.10566000000E+00 0. -1.
         22    1    1    0    0    0  0.34960046915E+01  0.16602575746E+01  0.28309732307E+02  0.28573054568E+02  0.00000000000E+00 0.  1.
</event>
<event>
 5    1  0.1325832E-009  0.9118800E+02  0.7818608E-02  0.1130116E+00
         25   -1    0    0    0    0  0.00000000000E+00  0.00000000000E+00  0.99999998245E-14  0.12500000000E+03  0.12500000000E+03 0.  0.
        -13    1    3    3    0    0 -0.27422224947E+02  0.43704998843E+01 -0.26410086994E+02  0.38322102622E+02  0.10566000000E+00 0.  1.
         23    2    1    0    0    0  0.23731289204E+02 -0.14590538867E+02 -0.65216916020E+01  0.96388981614E+02  0.92044801068E+02 0.  0.
         13    1    3    3    0    0  0.51153514152E+02 -0.18961038751E+02  0.19888395392E+02  0.58066878992E+02  0.10566000000E+00 0. -1.
         22    1    1    0    0    0 -0.23731289204E+02  0.14590538867E+02  0.65216916020E+01  0.28611018386E+02  0.00000000000E+00 0. -1.
</event>
<event>
 5    1  0.1325832E-009  0.9118800E+02  0.7818608E-02  0.1130116E+00
         25   -1    0    0    0    0  0.00000000000E+00  0.00000000000E+00  0.99999998245E-14  0.12500000000E+03  0.12500000000E+03 0.  0.
        -13    1    3    3    0    0  0.29691871131E+02  0.42193751132E+01 -0.39522543246E+02  0.49613031819E+02  0.10566000000E+00 0.  1.
         23    2    1    0    0    0 -0.45367057582E+00 -0.23083698348E+02 -0.18603109525E+02  0.95349727988E+02  0.90622469603E+02 0.  0.
         13    1    3    3    0    0 -0.30145541707E+02 -0.27303073461E+02  0.20919433721E+02  0.45736696169E+02  0.10566000000E+00 0. -1.
         22    1    1    0    0    0  0.45367057582E+00  0.23083698348E+02  0.18603109525E+02  0.29650272012E+02  0.00000000000E+00 0. -1.
</event>
<event>
 5    1  0.1325832E-009  0.9118800E+02  0.7818608E-02  0.1130116E+00
         25   -1    0    0    0    0  0.00000000000E+00  0.00000000000E+00  0.99999998245E-14  0.12500000000E+03  0.12500000000E+03 0.  0.
        -13    1    3    3    0    0  0.23290502448E+02 -0.13230836960E+01 -0.46161022778E+02  0.51720878209E+02  0.10566000000E+00 0. -1.
         23    2    1    0    0    0 -0.10330923559E+02 -0.15034284610E+02 -0.25959582739E+02  0.93272131630E+02  0.87709936196E+02 0.  0.
         13    1    3    3    0    0 -0.33621426006E+02 -0.13711200914E+02  0.20201440039E+02  0.41551253421E+02  0.10566000000E+00 0.  1.
         22    1    1    0    0    0  0.10330923559E+02  0.15034284610E+02  0.25959582739E+02  0.31727868370E+02  0.00000000000E+00 0. -1.
</event>
<event>
 5    1  0.1325832E-009  0.9118800E+02  0.7818608E-02  0.1130116E+00
         25   -1    0    0    0    0  0.00000000000E+00  0.00000000000E+00  0.99999998245E-14  0.12500000000E+03  0.12500000000E+03 0.  0.
        -13    1    3    3    0    0 -0.10160473718E+02 -0.13913736680E+02 -0.30217430366E+02  0.34784070442E+02  0.10566000000E+00 0.  1.
         23    2    1    0    0    0 -0.72919189592E+01  0.24246168715E+02  0.16199807573E+02  0.94942013626E+02  0.90058333354E+02 0.  0.
         13    1    3    3    0    0  0.28685547587E+01  0.38159905395E+02  0.46417237939E+02  0.60157943184E+02  0.10566000000E+00 0. -1.
         22    1    1    0    0    0  0.72919189592E+01 -0.24246168715E+02 -0.16199807573E+02  0.30057986374E+02  0.00000000000E+00 0. -1.
</event>
<event>
 5    1  0.1325832E-009  0.9118800E+02  0.7818608E-02  0.1130116E+00
         25   -1    0    0    0    0  0.00000000000E+00  0.00000000000E+00  0.99999998245E-14  0.12500000000E+03  0.12500000000E+03 0.  0.
        -13    1    3    3    0    0  0.22314260758E+02 -0.31000990542E+02  0.36928074903E+02  0.53128914235E+02  0.10566000000E+00 0.  1.
         23    2    1    0    0    0 -0.10774134619E+02 -0.11700637206E+02  0.28516420468E+02  0.92347693434E+02  0.86382425055E+02 0.  0.
         13    1    3    3    0    0 -0.33088395376E+02  0.19300353336E+02 -0.84116544349E+01  0.39218779199E+02  0.10566000000E+00 0. -1.
         22    1    1    0    0    0  0.10774134619E+02  0.11700637206E+02 -0.28516420468E+02  0.32652306566E+02  0.00000000000E+00 0.  1.
</event>
<event>
 5    1  0.1325832E-009  0.9118800E+02  0.7818608E-02  0.1130116E+00
         25   -1    0    0    0    0  0.00000000000E+00  0.00000000000E+00  0.99999998245E-14  0.12500000000E+03  0.12500000000E+03 0.  0.
        -13    1    3    3    0    0  0.27475003089E+02 -0.45319286686E+02 -0.59182455080E+01  0.53326825655E+02  0.10566000000E+00 0. -1.
         23    2    1    0    0    0 -0.54101419288E+01 -0.26706402051E+02  0.12094257592E+02  0.95187710371E+02  0.90398714553E+02 0.  0.
         13    1    3    3    0    0 -0.32885145018E+02  0.18612884635E+02  0.18012503100E+02  0.41860884716E+02  0.10566000000E+00 0.  1.
         22    1    1    0    0    0  0.54101419288E+01  0.26706402051E+02 -0.12094257592E+02  0.29812289629E+02  0.00000000000E+00 0. -1.
</event>
<event>
 5    1  0.1325832E-009  0.9118800E+02  0.7818608E-02  0.1130116E+00
         25   -1    0    0    0    0  0.00000000000E+00  0.00000000000E+00  0.99999998245E-14  0.12500000000E+03  0.12500000000E+03 0.  0.
        -13    1    3    3    0    0 -0.29802095950E+02  0.65428136800E+01  0.20761287079E+02  0.36905494701E+02  0.10566000000E+00 0.  1.
         23    2    1    0    0    0  0.21756820882E+02 -0.12144536753E+02  0.22000164662E+02  0.91760621652E+02  0.85528681815E+02 0.  0.
         13    1    3    3    0    0  0.51558916832E+02 -0.18687350433E+02  0.12388775826E+01  0.54855126951E+02  0.10566000000E+00 0. -1.
         22    1    1    0    0    0 -0.21756820882E+02  0.12144536753E+02 -0.22000164662E+02  0.33239378348E+02  0.00000000000E+00 0. -1.
</event>
<event>
 5    1  0.1325832E-009  0.9118800E+02  0.7818608E-02  0.1130116E+00
         25   -1    0    0    0    0  0.00000000000E+00  0.00000000000E+00  0.99999998245E-14  0.12500000000E+03  0.12500000000E+03 0.  0.
        -13    1    3    3    0    0 -0.43592510077E+02  0.38690005774E+02 -0.10195395439E+01  0.58294717655E+02  0.10566000000E+00 0.  1.
         23    2    1    0    0    0 -0.26160285409E+02  0.83216261600E+01  0.11156741457E+02  0.95367536813E+02  0.90647030857E+02 0.  0.
         13    1    3    3    0    0  0.17432224668E+02 -0.30368379614E+02  0.12176281001E+02  0.37072819158E+02  0.10566000000E+00 0. -1.
         22    1    1    0    0    0  0.26160285409E+02 -0.83216261600E+01 -0.11156741457E+02  0.29632463187E+02  0.00000000000E+00 0.  1.
</event>
<event>
 5    1  0.1325832E-009  0.9118800E+02  0.7818608E-02  0.1130116E+00
         25   -1    0    0    0    0  0.00000000000E+00  0.00000000000E+00  0.99999998245E-14  0.12500000000E+03  0.12500000000E+03 0.  0.
        -13    1    3    3    0    0 -0.36990613602E+02 -0.14112722545E+02 -0.87702448648E+01  0.40551236619E+02  0.10566000000E+00 0.  1.
         23    2    1    0    0    0  0.12760942345E+01  0.18162961888E+02 -0.25793751369E+02  0.93427239419E+02  0.87930710532E+02 0.  0.
         13    1    3    3    0    0  0.38266707837E+02  0.32275684433E+02 -0.17023506504E+02  0.52876002799E+02  0.10566000000E+00 0. -1.
         22    1    1    0    0    0 -0.12760942345E+01 -0.18162961888E+02  0.25793751369E+02  0.31572760581E+02  0.00000000000E+00 0. -1.
</event>
<event>
 5    1  0.1325832E-009  0.9118800E+02  0.7818608E-02  0.1130116E+00
         25   -1    0    0    0    0  0.00000000000E+00  0.00000000000E+00  0.99999998245E-14  0.12500000000E+03  0.12500000000E+03 0.  0.
        -13    1    3    3    0    0  0.16642465484E+02 -0.48588846077E+02  0.33470835227E+02  0.61303797560E+02  0.10566000000E+00 0.  1.
         23    2    1    0    0    0 -0.22874696894E+00 -0.21874085018E+02  0.18869555756E+02  0.96110762299E+02  0.91666191012E+02 0.  0.
         13    1    3    3    0    0 -0.16871212453E+02  0.26714761059E+02 -0.14601279470E+02  0.34806964738E+02  0.10566000000E+00 0. -1.
         22    1    1    0    0    0  0.22874696894E+00  0.21874085018E+02 -0.18869555756E+02  0.28889237701E+02  0.00000000000E+00 0.  1.
</event>
<event>
 5    1  0.1325832E-009  0.9118800E+02  0.7818608E-02  0.1130116E+00
         25   -1    0    0    0    0  0.00000000000E+00  0.00000000000E+00  0.99999998245E-14  0.12500000000E+03  0.12500000000E+03 0.  0.
        -13    1    3    3    0    0 -0.29584482572E+02  0.15561499613E+02  0.16037597113E+02  0.37075835317E+02  0.10566000000E+00 0. -1.
         23    2    1    0    0    0 -0.19015873455E+02  0.23674658155E+00 -0.31542495802E+02  0.88168104399E+02  0.80106342443E+02 0.  0.
         13    1    3    3    0    0  0.10568609117E+02 -0.15324753031E+02 -0.47580092915E+02  0.51092269082E+02  0.10566000000E+00 0.  1.
         22    1    1    0    0    0  0.19015873455E+02 -0.23674658155E+00  0.31542495802E+02  0.36831895601E+02  0.00000000000E+00 0.  1.
</event>
<event>
 5    1  0.1325832E-009  0.9118800E+02  0.7818608E-02  0.1130116E+00
         25   -1    0    0    0    0  0.00000000000E+00  0.00000000000E+00  0.99999998245E-14  0.12500000000E+03  0.12500000000E+03 0.  0.
        -13    1    3    3    0    0 -0.47726167575E+02 -0.17243079564E+02 -0.71567039749E+01  0.51247833515E+02  0.10566000000E+00 0. -1.
         23    2    1    0    0    0 -0.53405754300E+01 -0.27798594975E+02  0.42070685947E+01  0.96382120018E+02  0.92035482313E+02 0.  0.
         13    1    3    3    0    0  0.42385592145E+02 -0.10555515411E+02  0.11363772570E+02  0.45134286503E+02  0.10566000000E+00 0.  1.
         22    1    1    0    0    0  0.53405754300E+01  0.27798594975E+02 -0.42070685947E+01  0.28617879982E+02  0.00000000000E+00 0. -1.
</event>
<event>
 5    1  0.1325832E-009  0.9118800E+02  0.7818608E-02  0.1130116E+00
         25   -1    0    0    0    0  0.00000000000E+00  0.00000000000E+00  0.99999998245E-14  0.12500000000E+03  0.12500000000E+03 0.  0.
        -13    1    3    3    0    0 -0.46814156240E+02  0.12005839258E+02 -0.28716091395E+02  0.56216816610E+02  0.10566000000E+00 0.  1.
         23    2    1    0    0    0 -0.34547042897E+02  0.39131196804E+00  0.10412161830E+01  0.90435054909E+02  0.83568916035E+02 0.  0.
         13    1    3    3    0    0  0.12267113343E+02 -0.11614527290E+02  0.29757307578E+02  0.34218238299E+02  0.10566000000E+00 0. -1.
         22    1    1    0    0    0  0.34547042897E+02 -0.39131196804E+00 -0.10412161830E+01  0.34564945091E+02  0.00000000000E+00 0.  1.
</event>
<event>
 5    1  0.1325832E-009  0.9118800E+02  0.7818608E-02  0.1130116E+00
         25   -1    0    0    0    0  0.00000000000E+00  0.00000000000E+00  0.99999998245E-14  0.12500000000E+03  0.12500000000E+03 0.  0.
        -13    1    3    3    0    0 -0.42908807116E+02  0.11964086289E+02 -0.30730313552E+02  0.54117173096E+02  0.10566000000E+00 0.  1.
         23    2    1    0    0    0 -0.20427577519E+02 -0.17425894126E+02 -0.12004579419E+02  0.95588137828E+02  0.90950725435E+02 0.  0.
         13    1    3    3    0    0  0.22481229597E+02 -0.29389980415E+02  0.18725734133E+02  0.41470964733E+02  0.10566000000E+00 0. -1.
         22    1    1    0    0    0  0.20427577519E+02  0.17425894126E+02  0.12004579419E+02  0.29411862172E+02  0.00000000000E+00 0.  1.
</event>
<event>
 5    1  0.1325832E-009  0.9118800E+02  0.7818608E-02  0.1130116E+00
         25   -1    0    0    0    0  0.00000000000E+00  0.00000000000E+00  0.99999998245E-14  0.12500000000E+03  0.12500000000E+03 0.  0.
        -13    1    3    3    0    0 -0.69566788908E+01  0.35218053496E+02 -0.41232269917E+02  0.54670082493E+02  0.10566000000E+00 0. -1.
         23    2    1    0    0    0  0.18433547347E+02  0.10016902539E+02 -0.18279415074E+02  0.97174274139E+02  0.93105147735E+02 0.  0.
         13    1    3    3    0    0  0.25390226238E+02 -0.25201150957E+02  0.22952854843E+02  0.42504191646E+02  0.10566000000E+00 0.  1.
         22    1    1    0    0    0 -0.18433547347E+02 -0.10016902539E+02  0.18279415074E+02  0.27825725861E+02  0.00000000000E+00 0. -1.
</event>
<event>
 5    1  0.1325832E-009  0.9118800E+02  0.7818608E-02  0.1130116E+00
         25   -1    0    0    0    0  0.00000000000E+00  0.00000000000E+00  0.99999998245E-14  0.12500000000E+03  0.12500000000E+03 0.  0.
        -13    1    3    3    0    0  0.26631604796E+02 -0.27947776548E+02 -0.86018907945E+01  0.39551539505E+02  0.10566000000E+00 0. -1.
         23    2    1    0    0    0  0.57338069998E+01  0.24048259482E+02 -0.15202399989E+02  0.95977452003E+02  0.91484222687E+02 0.  0.
         13    1    3    3    0    0 -0.20897797796E+02  0.51996036030E+02 -0.66005091945E+01  0.56425912498E+02  0.10566000000E+00 0.  1.
         22    1    1    0    0    0 -0.57338069998E+01 -0.24048259482E+02  0.15202399989E+02  0.29022547997E+02  0.00000000000E+00 0.  1.
</event>
<event>
 5    1  0.1325832E-009  0.9118800E+02  0.7818608E-02  0.1130116E+00
         25   -1    0    0    0    0  0.00000000000E+00  0.00000000000E+00  0.99999998245E-14  0.12500000000E+03  0.12500000000E+03 0.  0.
        -13    1    3    3    0    0  0.19779594435E+02 -0.34438026984E+02  0.37707131709E+02  0.54763573700E+02  0.10566000000E+00 0.  1.
         23    2    1    0    0    0 -0.11934160587E+02 -0.22117388229E+02  0.13996714875E+02  0.96233507717E+02  0.91833419458E+02 0.  0.
         13    1    3    3    0    0 -0.31713755022E+02  0.12320638755E+02 -0.23710416835E+02  0.41469934018E+02  0.10566000000E+00 0. -1.
         22    1    1    0    0    0  0.11934160587E+02  0.22117388229E+02 -0.13996714875E+02  0.28766492283E+02  0.00000000000E+00 0. -1.
</event>
<event>
 5    1  0.1325832E-009  0.9118800E+02  0.7818608E-02  0.1130116E+00
         25   -1    0    0    0    0  0.00000000000E+00  0.00000000000E+00  0.99999998245E-14  0.12500000000E+03  0.12500000000E+03 0.  0.
        -13    1    3    3    0    0  0.50201131719E+02  0.15311388645E+02  0.32334485585E+02  0.61645132575E+02  0.10566000000E+00 0.  1.
         23    2    1    0    0    0  0.22231264024E+02  0.64186546817E+01  0.22826494844E+02  0.92496506420E+02  0.86597497683E+02 0.  0.
         13    1    3    3    0    0 -0.27969867694E+02 -0.88927339635E+01 -0.95079907408E+01  0.30851373845E+02  0.10566000000E+00 0. -1.
         22    1    1    0    0    0 -0.22231264024E+02 -0.64186546817E+01 -0.22826494844E+02  0.32503493580E+02  0.00000000000E+00 0.  1.
</event>
<event>
 5    1  0.1325832E-009  0.9118800E+02  0.7818608E-02  0.1130116E+00
         25   -1    0    0    0    0  0.00000000000E+00  0.00000000000E+00  0.99999998245E-14  0.12500000000E+03  0.12500000000E+03 0.  0.
        -13    1    3    3    0    0 -0.50998128474E+02 -0.28114063903E+02  0.14961013803E+02  0.60125309106E+02  0.10566000000E+00 0.  1.
         23    2    1    0    0    0 -0.25385106144E+02 -0.17382355992E+02 -0.43186711521E+01  0.93932318492E+02  0.88645809957E+02 0.  0.
         13    1    3    3    0    0  0.25613022330E+02  0.10731707912E+02 -0.19279684956E+02  0.33807009386E+02  0.10566000000E+00 0. -1.
         22    1    1    0    0    0  0.25385106144E+02  0.17382355992E+02  0.43186711521E+01  0.31067681508E+02  0.00000000000E+00 0.  1.
</event>
<event>
 5    1  0.1325832E-009  0.9118800E+02  0.7818608E-02  0.1130116E+00
         25   -1    0    0    0    0  0.00000000000E+00  0.00000000000E+00  0.99999998245E-14  0.12500000000E+03  0.12500000000E+03 0.  0.
        -13    1    3    3    0    0  0.35275726890E+02  0.20653851072E+01  0.24340725024E+02  0.42908329984E+02  0.10566000000E+00 0.  1.
         23    2    1    0    0    0  0.45872942248E+01  0.32289660755E+02 -0.58005982501E-02  0.92386115017E+02  0.86438005266E+02 0.  0.
         13    1    3    3    0    0 -0.30688432666E+02  0.30224275648E+02 -0.24346525622E+02  0.49477785034E+02  0.10566000000E+00 0. -1.
         22    1    1    0    0    0 -0.45872942248E+01 -0.32289660755E+02  0.58005982501E-02  0.32613884983E+02  0.00000000000E+00 0.  1.
</event>
<event>
 5    1  0.1325832E-009  0.9118800E+02  0.7818608E-02  0.1130116E+00
         25   -1    0    0    0    0  0.00000000000E+00  0.00000000000E+00  0.99999998245E-14  0.12500000000E+03  0.12500000000E+03 0.  0.
        -13    1    3    3    0    0 -0.24308068907E+01  0.71743819465E+00 -0.38257957527E+02  0.38341961581E+02  0.10566000000E+00 0. -1.
         23    2    1    0    0    0 -0.84940187005E+01  0.14690725221E+02  0.20122774753E+02  0.98677161533E+02  0.95101474138E+02 0.  0.
         13    1    3    3    0    0 -0.60632118099E+01  0.13973287026E+02  0.58380732280E+02  0.60335199952E+02  0.10566000000E+00 0.  1.
         22    1    1    0    0    0  0.84940187005E+01 -0.14690725221E+02 -0.20122774753E+02  0.26322838467E+02  0.00000000000E+00 0.  1.
</event>
<event>
 5    1  0.1325832E-009  0.9118800E+02  0.7818608E-02  0.1130116E+00
         25   -1    0    0    0    0  0.00000000000E+00  0.00000000000E+00  0.99999998245E-14  0.12500000000E+03  0.12500000000E+03 0.  0.
        -13    1    3    3    0    0 -0.25992221802E+02  0.94841415632E+00 -0.54537247414E+02  0.60421996021E+02  0.10566000000E+00 0. -1.
         23    2    1    0    0    0 -0.15637735560E+02 -0.10401665217E+02 -0.24830268776E+02  0.93866807741E+02  0.88553384663E+02 0.  0.
         13    1    3    3    0    0  0.10354486242E+02 -0.11350079374E+02  0.29706978639E+02  0.33444811720E+02  0.10566000000E+00 0.  1.
         22    1    1    0    0    0  0.15637735560E+02  0.10401665217E+02  0.24830268776E+02  0.31133192259E+02  0.00000000000E+00 0. -1.
</event>
<event>
 5    1  0.1325832E-009  0.9118800E+02  0.7818608E-02  0.1130116E+00
         25   -1    0    0    0    0  0.00000000000E+00  0.00000000000E+00  0.99999998245E-14  0.12500000000E+03  0.12500000000E+03 0.  0.
        -13    1    3    3    0    0  0.32726669415E+02  0.21449359839E+01  0.96037137271E+01  0.34174231853E+02  0.10566000000E+00 0.  1.
         23    2    1    0    0    0 -0.15289088067E+02 -0.24252446430E+02  0.20129226327E+02  0.89969682783E+02  0.82869902231E+02 0.  0.
         13    1    3    3    0    0 -0.48015757483E+02 -0.26397382414E+02  0.10525512600E+02  0.55795450930E+02  0.10566000000E+00 0. -1.
         22    1    1    0    0    0  0.15289088067E+02  0.24252446430E+02 -0.20129226327E+02  0.35030317217E+02  0.00000000000E+00 0. -1.
</event>
<event>
 5    1  0.1325832E-009  0.9118800E+02  0.7818608E-02  0.1130116E+00
         25   -1    0    0    0    0  0.00000000000E+00  0.00000000000E+00  0.99999998245E-14  0.12500000000E+03  0.12500000000E+03 0.  0.
        -13    1    3    3    0    0 -0.27947802387E+02  0.49506941684E+02  0.21265927596E+02  0.60698169443E+02  0.10566000000E+00 0. -1.
         23    2    1    0    0    0 -0.98213564348E+01  0.34160534985E+02  0.19360138050E+02  0.84525117196E+02  0.74204307820E+02 0.  0.
         13    1    3    3    0    0  0.18126445952E+02 -0.15346406699E+02 -0.19057895460E+01  0.23826947753E+02  0.10566000000E+00 0.  1.
         22    1    1    0    0    0  0.98213564348E+01 -0.34160534985E+02 -0.19360138050E+02  0.40474882804E+02  0.00000000000E+00 0. -1.
</event>
<event>
 5    1  0.1325832E-009  0.9118800E+02  0.7818608E-02  0.1130116E+00
         25   -1    0    0    0    0  0.00000000000E+00  0.00000000000E+00  0.99999998245E-14  0.12500000000E+03  0.12500000000E+03 0.  0.
        -13    1    3    3    0    0 -0.64050860360E+01  0.66504602524E+01 -0.32478935879E+02  0.33766050829E+02  0.10566000000E+00 0. -1.
         23    2    1    0    0    0  0.86046062598E+01 -0.69208609835E+01  0.26591732684E+02  0.96206635960E+02  0.91796835402E+02 0.  0.
         13    1    3    3    0    0  0.15009692296E+02 -0.13571321236E+02  0.59070668563E+02  0.62440585131E+02  0.10566000000E+00 0.  1.
         22    1    1    0    0    0 -0.86046062598E+01  0.69208609835E+01 -0.26591732684E+02  0.28793364040E+02  0.00000000000E+00 0.  1.
</event>
<event>
 5    1  0.1325832E-009  0.9118800E+02  0.7818608E-02  0.1130116E+00
         25   -1    0    0    0    0  0.00000000000E+00  0.00000000000E+00  0.99999998245E-14  0.12500000000E+03  0.12500000000E+03 0.  0.
        -13    1    3    3    0    0 -0.54147468399E+02 -0.21752346722E+02  0.71469546479E+01  0.58789480749E+02  0.10566000000E+00 0. -1.
         23    2    1    0    0    0 -0.28079412398E+02 -0.14105867259E+02 -0.11277144892E+02  0.91614331088E+02  0.85314610543E+02 0.  0.
         13    1    3    3    0    0  0.26068056002E+02  0.76464794629E+01 -0.18424099540E+02  0.32824850339E+02  0.10566000000E+00 0.  1.
         22    1    1    0    0    0  0.28079412398E+02  0.14105867259E+02  0.11277144892E+02  0.33385668912E+02  0.00000000000E+00 0. -1.
</event>
<event>
 5    1  0.1325832E-009  0.9118800E+02  0.7818608E-02  0.1130116E+00
         25   -1    0    0    0    0  0.00000000000E+00  0.00000000000E+00  0.99999998245E-14  0.12500000000E+03  0.12500000000E+03 0.  0.
        -13    1    3    3    0    0 -0.22347487774E+02  0.23456523995E+02  0.18926003921E+02  0.37520974350E+02  0.10566000000E+00 0. -1.
         23    2    1    0    0    0 -0.12103758172E+02 -0.26857191227E+02 -0.65231321765E+01  0.94827811881E+02  0.89899682815E+02 0.  0.
         13    1    3    3    0    0  0.10243729602E+02 -0.50313715222E+02 -0.25449136098E+02  0.57306837531E+02  0.10566000000E+00 0.  1.
         22    1    1    0    0    0  0.12103758172E+02  0.26857191227E+02  0.65231321765E+01  0.30172188119E+02  0.00000000000E+00 0.  1.
</event>
<event>
 5    1  0.1325832E-009  0.9118800E+02  0.7818608E-02  0.1130116E+00
         25   -1    0    0    0    0  0.00000000000E+00  0.00000000000E+00  0.99999998245E-14  0.12500000000E+03  0.12500000000E+03 0.  0.
        -13    1    3    3    0    0 -0.46464140148E+01  0.34100171038E+01  0.14871415594E+02  0.15949531205E+02  0.10566000000E+00 0.  1.
         23    2    1    0    0    0  0.23377663656E+00 -0.22330952313E+02 -0.41366170296E+02  0.77990574056E+02  0.62230567360E+02 0.  0.
         13    1    3    3    0    0  0.48801906514E+01 -0.25740969416E+02 -0.56237585890E+02  0.62041042851E+02  0.10566000000E+00 0. -1.
         22    1    1    0    0    0 -0.23377663656E+00  0.22330952313E+02  0.41366170296E+02  0.47009425944E+02  0.00000000000E+00 0. -1.
</event>
<event>
 5    1  0.1325832E-009  0.9118800E+02  0.7818608E-02  0.1130116E+00
         25   -1    0    0    0    0  0.00000000000E+00  0.00000000000E+00  0.99999998245E-14  0.12500000000E+03  0.12500000000E+03 0.  0.
        -13    1    3    3    0    0  0.55912686666E+02 -0.23312012119E+02  0.64785757326E+01  0.60923407216E+02  0.10566000000E+00 0.  1.
         23    2    1    0    0    0  0.31529523762E+02 -0.11970770774E+02  0.13429365018E+02  0.88699062459E+02  0.80930622231E+02 0.  0.
         13    1    3    3    0    0 -0.24383162904E+02  0.11341241345E+02  0.69507892859E+01  0.27775655243E+02  0.10566000000E+00 0. -1.
         22    1    1    0    0    0 -0.31529523762E+02  0.11970770774E+02 -0.13429365018E+02  0.36300937541E+02  0.00000000000E+00 0.  1.
</event>
<event>
 5    1  0.1325832E-009  0.9118800E+02  0.7818608E-02  0.1130116E+00
         25   -1    0    0    0    0  0.00000000000E+00  0.00000000000E+00  0.99999998245E-14  0.12500000000E+03  0.12500000000E+03 0.  0.
        -13    1    3    3    0    0 -0.15536275907E+02 -0.12396646161E+02  0.39765880468E+02  0.44456598144E+02  0.10566000000E+00 0.  1.
         23    2    1    0    0    0  0.12787597585E+02  0.21735550307E+02  0.18968863009E+02  0.93444104149E+02  0.87954681724E+02 0.  0.
         13    1    3    3    0    0  0.28323873492E+02  0.34132196468E+02 -0.20797017459E+02  0.48987506005E+02  0.10566000000E+00 0. -1.
         22    1    1    0    0    0 -0.12787597585E+02 -0.21735550307E+02 -0.18968863009E+02  0.31555895851E+02  0.00000000000E+00 0.  1.
</event>
<event>
 5    1  0.1325832E-009  0.9118800E+02  0.7818608E-02  0.1130116E+00
         25   -1    0    0    0    0  0.00000000000E+00  0.00000000000E+00  0.99999998245E-14  0.12500000000E+03  0.12500000000E+03 0.  0.
        -13    1    3    3    0    0 -0.29333499037E+02  0.46861477573E+02 -0.89227366756E+01  0.56000702137E+02  0.10566000000E+00 0. -1.
         23    2    1    0    0    0 -0.19095141884E+02  0.15042071250E+02  0.14388400898E+02  0.96752620803E+02  0.92537317882E+02 0.  0.
         13    1    3    3    0    0  0.10238357152E+02 -0.31819406323E+02  0.23311137574E+02  0.40751918666E+02  0.10566000000E+00 0.  1.
         22    1    1    0    0    0  0.19095141884E+02 -0.15042071250E+02 -0.14388400898E+02  0.28247379197E+02  0.00000000000E+00 0. -1.
</event>
<event>
 5    1  0.1325832E-009  0.9118800E+02  0.7818608E-02  0.1130116E+00
         25   -1    0    0    0    0  0.00000000000E+00  0.00000000000E+00  0.99999998245E-14  0.12500000000E+03  0.12500000000E+03 0.  0.
        -13    1    3    3    0    0  0.28986821510E+02 -0.13262157217E+02 -0.32508954851E+02  0.45529813802E+02  0.10566000000E+00 0.  1.
         23    2    1    0    0    0  0.28943780719E+02  0.20177770155E+02 -0.39663291194E+01  0.89494836750E+02  0.82150527616E+02 0.  0.
         13    1    3    3    0    0 -0.43040791512E-01  0.33439927371E+02  0.28542625732E+02  0.43965022948E+02  0.10566000000E+00 0. -1.
         22    1    1    0    0    0 -0.28943780719E+02 -0.20177770155E+02  0.39663291194E+01  0.35505163250E+02  0.00000000000E+00 0.  1.
</event>
<event>
 5    1  0.1325832E-009  0.9118800E+02  0.7818608E-02  0.1130116E+00
         25   -1    0    0    0    0  0.00000000000E+00  0.00000000000E+00  0.99999998245E-14  0.12500000000E+03  0.12500000000E+03 0.  0.
        -13    1    3    3    0    0  0.39202125785E+02  0.92623120027E+01  0.29778852652E+02  0.50093795214E+02  0.10566000000E+00 0.  1.
         23    2    1    0    0    0 -0.36123765886E+01 -0.74741848181E+01  0.27669819984E+02  0.96111738694E+02  0.91667522458E+02 0.  0.
         13    1    3    3    0    0 -0.42814502373E+02 -0.16736496821E+02 -0.21090326681E+01  0.46017943480E+02  0.10566000000E+00 0. -1.
         22    1    1    0    0    0  0.36123765886E+01  0.74741848181E+01 -0.27669819984E+02  0.28888261306E+02  0.00000000000E+00 0.  1.
</event>
<event>
 5    1  0.1325832E-009  0.9118800E+02  0.7818608E-02  0.1130116E+00
         25   -1    0    0    0    0  0.00000000000E+00  0.00000000000E+00  0.99999998245E-14  0.12500000000E+03  0.12500000000E+03 0.  0.
        -13    1    3    3    0    0 -0.26156377858E+02  0.45065261885E+02  0.15710889968E+02  0.54423130735E+02  0.10566000000E+00 0. -1.
         23    2    1    0    0    0  0.13378371696E+01  0.30409955545E+02 -0.79431162562E+01  0.93541323924E+02  0.88092740797E+02 0.  0.
         13    1    3    3    0    0  0.27494215028E+02 -0.14655306339E+02 -0.23654006224E+02  0.39118193189E+02  0.10566000000E+00 0.  1.
         22    1    1    0    0    0 -0.13378371696E+01 -0.30409955545E+02  0.79431162562E+01  0.31458676076E+02  0.00000000000E+00 0. -1.
</event>
<event>
 5    1  0.1325832E-009  0.9118800E+02  0.7818608E-02  0.1130116E+00
         25   -1    0    0    0    0  0.00000000000E+00  0.00000000000E+00  0.99999998245E-14  0.12500000000E+03  0.12500000000E+03 0.  0.
        -13    1    3    3    0    0  0.18592588895E+02 -0.17343493466E+02  0.21521563222E+02  0.33311709277E+02  0.10566000000E+00 0.  1.
         23    2    1    0    0    0  0.26479442500E+02  0.22997713678E+02 -0.13605365121E+02  0.87381365394E+02  0.78869140660E+02 0.  0.
         13    1    3    3    0    0  0.78868536053E+01  0.40341207144E+02 -0.35126928344E+02  0.54069656116E+02  0.10566000000E+00 0. -1.
         22    1    1    0    0    0 -0.26479442500E+02 -0.22997713678E+02  0.13605365121E+02  0.37618634606E+02  0.00000000000E+00 0. -1.
</event>
<event>
 5    1  0.1325832E-009  0.9118800E+02  0.7818608E-02  0.1130116E+00
         25   -1    0    0    0    0  0.00000000000E+00  0.00000000000E+00  0.99999998245E-14  0.12500000000E+03  0.12500000000E+03 0.  0.
        -13    1    3    3    0    0  0.20106139032E+02 -0.93758393987E+01 -0.28584498046E+02  0.36183530561E+02  0.10566000000E+00 0.  1.
         23    2    1    0    0    0 -0.31259407302E+02  0.14733783002E+01 -0.70867308620E+01  0.92913505290E+02  0.87197341258E+02 0.  0.
         13    1    3    3    0    0 -0.51365546334E+02  0.10849217699E+02  0.21497767185E+02  0.56729974730E+02  0.10566000000E+00 0. -1.
         22    1    1    0    0    0  0.31259407302E+02 -0.14733783002E+01  0.70867308620E+01  0.32086494710E+02  0.00000000000E+00 0. -1.
</event>
<event>
 5    1  0.1325832E-009  0.9118800E+02  0.7818608E-02  0.1130116E+00
         25   -1    0    0    0    0  0.00000000000E+00  0.00000000000E+00  0.99999998245E-14  0.12500000000E+03  0.12500000000E+03 0.  0.
        -13    1    3    3    0    0 -0.26084889366E+01 -0.14328921199E+02 -0.59909472591E+02  0.61654507276E+02  0.10566000000E+00 0. -1.
         23    2    1    0    0    0 -0.66568452230E+01 -0.17690588273E+01 -0.27563655177E+02  0.96588765529E+02  0.92315715792E+02 0.  0.
         13    1    3    3    0    0 -0.40483562864E+01  0.12559862372E+02  0.32345817415E+02  0.34934258253E+02  0.10566000000E+00 0.  1.
         22    1    1    0    0    0  0.66568452230E+01  0.17690588273E+01  0.27563655177E+02  0.28411234471E+02  0.00000000000E+00 0. -1.
</event>
<event>
 5    1  0.1325832E-009  0.9118800E+02  0.7818608E-02  0.1130116E+00
         25   -1    0    0    0    0  0.00000000000E+00  0.00000000000E+00  0.99999998245E-14  0.12500000000E+03  0.12500000000E+03 0.  0.
        -13    1    3    3    0    0  0.31100172301E+02 -0.33729556157E+02  0.20607919558E+02  0.50295140801E+02  0.10566000000E+00 0. -1.
         23    2    1    0    0    0  0.24679779068E+02 -0.35704599585E+01 -0.13801164754E+02  0.96498915323E+02  0.92193973940E+02 0.  0.
         13    1    3    3    0    0 -0.64203932323E+01  0.30159096198E+02 -0.34409084313E+02  0.46203774522E+02  0.10566000000E+00 0.  1.
         22    1    1    0    0    0 -0.24679779068E+02  0.35704599585E+01  0.13801164754E+02  0.28501084677E+02  0.00000000000E+00 0. -1.
</event>
<event>
 5    1  0.1325832E-009  0.9118800E+02  0.7818608E-02  0.1130116E+00
         25   -1    0    0    0    0  0.00000000000E+00  0.00000000000E+00  0.99999998245E-14  0.12500000000E+03  0.12500000000E+03 0.  0.
        -13    1    3    3    0    0  0.28920595256E+02  0.93117797798E+01  0.12107497234E+02  0.32706463061E+02  0.10566000000E+00 0.  1.
         23    2    1    0    0    0 -0.20467967315E+02 -0.38867438633E+01 -0.22418839628E+02  0.94395280851E+02  0.89296249713E+02 0.  0.
         13    1    3    3    0    0 -0.49388562572E+02 -0.13198523643E+02 -0.34526336862E+02  0.61688817791E+02  0.10566000000E+00 0. -1.
         22    1    1    0    0    0  0.20467967315E+02  0.38867438633E+01  0.22418839628E+02  0.30604719149E+02  0.00000000000E+00 0. -1.
</event>
<event>
 5    1  0.1325832E-009  0.9118800E+02  0.7818608E-02  0.1130116E+00
         25   -1    0    0    0    0  0.00000000000E+00  0.00000000000E+00  0.99999998245E-14  0.12500000000E+03  0.12500000000E+03 0.  0.
        -13    1    3    3    0    0  0.39289576650E+02  0.50315413778E+01  0.82299194981E+01  0.40456519635E+02  0.10566000000E+00 0.  1.
         23    2    1    0    0    0 -0.59630496137E+01  0.20472922843E+02 -0.19816661850E+02  0.95889888057E+02  0.91364500843E+02 0.  0.
         13    1    3    3    0    0 -0.45252626263E+02  0.15441381465E+02 -0.28046581348E+02  0.55433368423E+02  0.10566000000E+00 0. -1.
         22    1    1    0    0    0  0.59630496137E+01 -0.20472922843E+02  0.19816661850E+02  0.29110111943E+02  0.00000000000E+00 0. -1.
</event>
<event>
 5    1  0.1325832E-009  0.9118800E+02  0.7818608E-02  0.1130116E+00
         25   -1    0    0    0    0  0.00000000000E+00  0.00000000000E+00  0.99999998245E-14  0.12500000000E+03  0.12500000000E+03 0.  0.
        -13    1    3    3    0    0  0.39457226747E+02  0.30943414783E+02 -0.91860958447E+01  0.50978065694E+02  0.10566000000E+00 0. -1.
         23    2    1    0    0    0 -0.53307282432E+01  0.24674758725E+02  0.66493005545E+01  0.98894951071E+02  0.95387304017E+02 0.  0.
         13    1    3    3    0    0 -0.44787954991E+02 -0.62686560584E+01  0.15835396399E+02  0.47916885376E+02  0.10566000000E+00 0.  1.
         22    1    1    0    0    0  0.53307282432E+01 -0.24674758725E+02 -0.66493005545E+01  0.26105048929E+02  0.00000000000E+00 0.  1.
</event>
<event>
 5    1  0.1325832E-009  0.9118800E+02  0.7818608E-02  0.1130116E+00
         25   -1    0    0    0    0  0.00000000000E+00  0.00000000000E+00  0.99999998245E-14  0.12500000000E+03  0.12500000000E+03 0.  0.
        -13    1    3    3    0    0  0.31896796934E+02  0.33563585070E+02 -0.48027476444E+01  0.46551019820E+02  0.10566000000E+00 0. -1.
         23    2    1    0    0    0 -0.72249431283E+01  0.16082801573E+02 -0.25389133586E+02  0.94089412592E+02  0.88867053220E+02 0.  0.
         13    1    3    3    0    0 -0.39121740062E+02 -0.17480783497E+02 -0.20586385942E+02  0.47538392772E+02  0.10566000000E+00 0.  1.
         22    1    1    0    0    0  0.72249431283E+01 -0.16082801573E+02  0.25389133586E+02  0.30910587408E+02  0.00000000000E+00 0. -1.
</event>
<event>
 5    1  0.1325832E-009  0.9118800E+02  0.7818608E-02  0.1130116E+00
         25   -1    0    0    0    0  0.00000000000E+00  0.00000000000E+00  0.99999998245E-14  0.12500000000E+03  0.12500000000E+03 0.  0.
        -13    1    3    3    0    0  0.45586376132E+02 -0.12951686163E+02  0.20905053458E+02  0.51796682205E+02  0.10566000000E+00 0.  1.
         23    2    1    0    0    0  0.16191777460E+02 -0.20694246140E+02 -0.11579765560E+02  0.96285605508E+02  0.91904305542E+02 0.  0.
         13    1    3    3    0    0 -0.29394598672E+02 -0.77425599767E+01 -0.32484819017E+02  0.44488923304E+02  0.10566000000E+00 0. -1.
         22    1    1    0    0    0 -0.16191777460E+02  0.20694246140E+02  0.11579765560E+02  0.28714394492E+02  0.00000000000E+00 0.  1.
</event>
<event>
 5    1  0.1325832E-009  0.9118800E+02  0.7818608E-02  0.1130116E+00
         25   -1    0    0    0    0  0.00000000000E+00  0.00000000000E+00  0.99999998245E-14  0.12500000000E+03  0.12500000000E+03 0.  0.
        -13    1    3    3    0    0  0.97107534216E+01 -0.46102558880E+02  0.78086983701E+01  0.47757005785E+02  0.10566000000E+00 0.  1.
         23    2    1    0    0    0 -0.14596368842E+02 -0.12261210251E+02  0.25616168039E+02  0.93069147754E+02  0.87420174665E+02 0.  0.
         13    1    3    3    0    0 -0.24307122263E+02  0.33841348629E+02  0.17807469669E+02  0.45312141969E+02  0.10566000000E+00 0. -1.
         22    1    1    0    0    0  0.14596368842E+02  0.12261210251E+02 -0.25616168039E+02  0.31930852246E+02  0.00000000000E+00 0.  1.
</event>
<event>
 5    1  0.1325832E-009  0.9118800E+02  0.7818608E-02  0.1130116E+00
         25   -1    0    0    0    0  0.00000000000E+00  0.00000000000E+00  0.99999998245E-14  0.12500000000E+03  0.12500000000E+03 0.  0.
        -13    1    3    3    0    0  0.32631525530E+02  0.55652537565E+01  0.46040775144E+02  0.56705843153E+02  0.10566000000E+00 0.  1.
         23    2    1    0    0    0 -0.17692950797E+01  0.23874009642E+01  0.30100066944E+02  0.94753609827E+02  0.89796450135E+02 0.  0.
         13    1    3    3    0    0 -0.34400820610E+02 -0.31778527923E+01 -0.15940708200E+02  0.38047766675E+02  0.10566000000E+00 0. -1.
         22    1    1    0    0    0  0.17692950797E+01 -0.23874009642E+01 -0.30100066944E+02  0.30246390173E+02  0.00000000000E+00 0.  1.
</event>
<event>
 5    1  0.1325832E-009  0.9118800E+02  0.7818608E-02  0.1130116E+00
         25   -1    0    0    0    0  0.00000000000E+00  0.00000000000E+00  0.99999998245E-14  0.12500000000E+03  0.12500000000E+03 0.  0.
        -13    1    3    3    0    0  0.65644147231E+01  0.37772491882E+02  0.23014698493E+02  0.44716218472E+02  0.10566000000E+00 0. -1.
         23    2    1    0    0    0 -0.24773115890E+02  0.14051005770E+02 -0.87008983649E+01  0.95220079477E+02  0.90443462280E+02 0.  0.
         13    1    3    3    0    0 -0.31337530613E+02 -0.23721486112E+02 -0.31715596858E+02  0.50503861005E+02  0.10566000000E+00 0.  1.
         22    1    1    0    0    0  0.24773115890E+02 -0.14051005770E+02  0.87008983649E+01  0.29779920523E+02  0.00000000000E+00 0.  1.
</event>
<event>
 5    1  0.1325832E-009  0.9118800E+02  0.7818608E-02  0.1130116E+00
         25   -1    0    0    0    0  0.00000000000E+00  0.00000000000E+00  0.99999998245E-14  0.12500000000E+03  0.12500000000E+03 0.  0.
        -13    1    3    3    0    0 -0.49557440330E+02 -0.18217445054E+02 -0.20694487988E+02  0.56710565096E+02  0.10566000000E+00 0. -1.
         23    2    1    0    0    0 -0.26329709829E+02 -0.92669528561E+01  0.91980795741E+01  0.95610636231E+02  0.90981641323E+02 0.  0.
         13    1    3    3    0    0  0.23227730502E+02  0.89504921980E+01  0.29892567562E+02  0.38900071135E+02  0.10566000000E+00 0.  1.
         22    1    1    0    0    0  0.26329709829E+02  0.92669528561E+01 -0.91980795741E+01  0.29389363769E+02  0.00000000000E+00 0. -1.
</event>
<event>
 5    1  0.1325832E-009  0.9118800E+02  0.7818608E-02  0.1130116E+00
         25   -1    0    0    0    0  0.00000000000E+00  0.00000000000E+00  0.99999998245E-14  0.12500000000E+03  0.12500000000E+03 0.  0.
        -13    1    3    3    0    0  0.29361031840E+02 -0.41026326664E+02 -0.78794143357E+01  0.51061981988E+02  0.10566000000E+00 0. -1.
         23    2    1    0    0    0  0.20942923264E+02 -0.10851179931E+02  0.20812801987E+02  0.93543254026E+02  0.88095479489E+02 0.  0.
         13    1    3    3    0    0 -0.84181085763E+01  0.30175146733E+02  0.28692216323E+02  0.42481272037E+02  0.10566000000E+00 0.  1.
         22    1    1    0    0    0 -0.20942923264E+02  0.10851179931E+02 -0.20812801987E+02  0.31456745974E+02  0.00000000000E+00 0.  1.
</event>
<event>
 5    1  0.1325832E-009  0.9118800E+02  0.7818608E-02  0.1130116E+00
         25   -1    0    0    0    0  0.00000000000E+00  0.00000000000E+00  0.99999998245E-14  0.12500000000E+03  0.12500000000E+03 0.  0.
        -13    1    3    3    0    0 -0.25871319034E+02  0.26301233366E+02  0.23294570619E+02  0.43631733973E+02  0.10566000000E+00 0.  1.
         23    2    1    0    0    0 -0.38869105080E+01 -0.21916505699E+02 -0.25585204902E+01  0.10259492641E+03  0.10011858770E+03 0.  0.
         13    1    3    3    0    0  0.21984408526E+02 -0.48217739065E+02 -0.25853091109E+02  0.58963192440E+02  0.10566000000E+00 0. -1.
         22    1    1    0    0    0  0.38869105080E+01  0.21916505699E+02  0.25585204902E+01  0.22405073587E+02  0.00000000000E+00 0. -1.
</event>
<event>
 5    1  0.1325832E-009  0.9118800E+02  0.7818608E-02  0.1130116E+00
         25   -1    0    0    0    0  0.00000000000E+00  0.00000000000E+00  0.99999998245E-14  0.12500000000E+03  0.12500000000E+03 0.  0.
        -13    1    3    3    0    0  0.36530341407E+02  0.25922646440E+02  0.10514845070E+01  0.44805872667E+02  0.10566000000E+00 0. -1.
         23    2    1    0    0    0 -0.12924336558E+02  0.18971327084E+02 -0.15366313143E+02  0.97376218463E+02  0.93375878126E+02 0.  0.
         13    1    3    3    0    0 -0.49454677965E+02 -0.69513193566E+01 -0.16417797650E+02  0.52570345796E+02  0.10566000000E+00 0.  1.
         22    1    1    0    0    0  0.12924336558E+02 -0.18971327084E+02  0.15366313143E+02  0.27623781537E+02  0.00000000000E+00 0.  1.
</event>
<event>
 5    1  0.1325832E-009  0.9118800E+02  0.7818608E-02  0.1130116E+00
         25   -1    0    0    0    0  0.00000000000E+00  0.00000000000E+00  0.99999998245E-14  0.12500000000E+03  0.12500000000E+03 0.  0.
        -13    1    3    3    0    0 -0.80385997874E+01  0.39136523578E+02  0.58355241296E+01  0.40377606048E+02  0.10566000000E+00 0.  1.
         23    2    1    0    0    0 -0.10906314418E+02 -0.12294247160E+02  0.24783254135E+02  0.95262718804E+02  0.90502374008E+02 0.  0.
         13    1    3    3    0    0 -0.28677146303E+01 -0.51430770738E+02  0.18947730005E+02  0.54885112756E+02  0.10566000000E+00 0. -1.
         22    1    1    0    0    0  0.10906314418E+02  0.12294247160E+02 -0.24783254135E+02  0.29737281196E+02  0.00000000000E+00 0.  1.
</event>
<event>
 5    1  0.1325832E-009  0.9118800E+02  0.7818608E-02  0.1130116E+00
         25   -1    0    0    0    0  0.00000000000E+00  0.00000000000E+00  0.99999998245E-14  0.12500000000E+03  0.12500000000E+03 0.  0.
        -13    1    3    3    0    0 -0.54202603831E+01 -0.27242622315E+01 -0.61352830620E+02  0.61652103098E+02  0.10566000000E+00 0. -1.
         23    2    1    0    0    0  0.11956540457E+00  0.55018182595E+01 -0.28666886383E+02  0.95809681829E+02  0.91254701015E+02 0.  0.
         13    1    3    3    0    0  0.55398257877E+01  0.82260804910E+01  0.32685944238E+02  0.34157578731E+02  0.10566000000E+00 0.  1.
         22    1    1    0    0    0 -0.11956540457E+00 -0.55018182595E+01  0.28666886383E+02  0.29190318171E+02  0.00000000000E+00 0. -1.
</event>
<event>
 5    1  0.1325832E-009  0.9118800E+02  0.7818608E-02  0.1130116E+00
         25   -1    0    0    0    0  0.00000000000E+00  0.00000000000E+00  0.99999998245E-14  0.12500000000E+03  0.12500000000E+03 0.  0.
        -13    1    3    3    0    0 -0.22915644714E+02  0.18292424704E+02  0.33906269016E+02  0.44826173346E+02  0.10566000000E+00 0. -1.
         23    2    1    0    0    0 -0.83316798429E+01 -0.25310797212E+02  0.11394511238E+02  0.96019174773E+02  0.91541213086E+02 0.  0.
         13    1    3    3    0    0  0.14583964871E+02 -0.43603221916E+02 -0.22511757778E+02  0.51193001427E+02  0.10566000000E+00 0.  1.
         22    1    1    0    0    0  0.83316798429E+01  0.25310797212E+02 -0.11394511238E+02  0.28980825227E+02  0.00000000000E+00 0.  1.
</event>
<event>
 5    1  0.1325832E-009  0.9118800E+02  0.7818608E-02  0.1130116E+00
         25   -1    0    0    0    0  0.00000000000E+00  0.00000000000E+00  0.99999998245E-14  0.12500000000E+03  0.12500000000E+03 0.  0.
        -13    1    3    3    0    0  0.27062712299E+02  0.17572818787E+01 -0.31124950900E+02  0.41282589177E+02  0.10566000000E+00 0.  1.
         23    2    1    0    0    0  0.14069806798E+02 -0.17766337915E+02  0.18222789863E+02  0.95919554738E+02  0.91405080190E+02 0.  0.
         13    1    3    3    0    0 -0.12992905501E+02 -0.19523619794E+02  0.49347740763E+02  0.54636965561E+02  0.10566000000E+00 0. -1.
         22    1    1    0    0    0 -0.14069806798E+02  0.17766337915E+02 -0.18222789863E+02  0.29080445262E+02  0.00000000000E+00 0. -1.
</event>
<event>
 5    1  0.1325832E-009  0.9118800E+02  0.7818608E-02  0.1130116E+00
         25   -1    0    0    0    0  0.00000000000E+00  0.00000000000E+00  0.99999998245E-14  0.12500000000E+03  0.12500000000E+03 0.  0.
        -13    1    3    3    0    0 -0.26054555858E+02 -0.49305285346E+02 -0.91286875431E+00  0.55773609686E+02  0.10566000000E+00 0. -1.
         23    2    1    0    0    0  0.29018864141E+01 -0.25456520028E+02  0.13595695752E+02  0.95994857358E+02  0.91508001505E+02 0.  0.
         13    1    3    3    0    0  0.28956442272E+02  0.23848765318E+02  0.14508564506E+02  0.40221247672E+02  0.10566000000E+00 0.  1.
         22    1    1    0    0    0 -0.29018864141E+01  0.25456520028E+02 -0.13595695752E+02  0.29005142642E+02  0.00000000000E+00 0. -1.
</event>
<event>
 5    1  0.1325832E-009  0.9118800E+02  0.7818608E-02  0.1130116E+00
         25   -1    0    0    0    0  0.00000000000E+00  0.00000000000E+00  0.99999998245E-14  0.12500000000E+03  0.12500000000E+03 0.  0.
        -13    1    3    3    0    0  0.48933158003E+02 -0.16814008921E+02  0.33501693291E+02  0.61640404489E+02  0.10566000000E+00 0. -1.
         23    2    1    0    0    0  0.19118938104E+02 -0.10142070582E+02  0.21583640975E+02  0.94434513783E+02  0.89351152459E+02 0.  0.
         13    1    3    3    0    0 -0.29814219899E+02  0.66719383387E+01 -0.11918052316E+02  0.32794109294E+02  0.10566000000E+00 0.  1.
         22    1    1    0    0    0 -0.19118938104E+02  0.10142070582E+02 -0.21583640975E+02  0.30565486217E+02  0.00000000000E+00 0. -1.
</event>
<event>
 5    1  0.1325832E-009  0.9118800E+02  0.7818608E-02  0.1130116E+00
         25   -1    0    0    0    0  0.00000000000E+00  0.00000000000E+00  0.99999998245E-14  0.12500000000E+03  0.12500000000E+03 0.  0.
        -13    1    3    3    0    0 -0.75750818760E+01  0.34036811874E+02  0.35050687367E+01  0.35045443340E+02  0.10566000000E+00 0.  1.
         23    2    1    0    0    0 -0.31896202266E+02  0.73683736316E+01  0.30609294945E+02  0.80182708850E+02  0.66488173478E+02 0.  0.
         13    1    3    3    0    0 -0.24321120390E+02 -0.26668438243E+02  0.27104226208E+02  0.45137265510E+02  0.10566000000E+00 0. -1.
         22    1    1    0    0    0  0.31896202266E+02 -0.73683736316E+01 -0.30609294945E+02  0.44817291150E+02  0.00000000000E+00 0. -1.
</event>
<event>
 5    1  0.1325832E-009  0.9118800E+02  0.7818608E-02  0.1130116E+00
         25   -1    0    0    0    0  0.00000000000E+00  0.00000000000E+00  0.99999998245E-14  0.12500000000E+03  0.12500000000E+03 0.  0.
        -13    1    3    3    0    0 -0.16271533321E+02 -0.39747681240E+02  0.57831398142E+01  0.43337014557E+02  0.10566000000E+00 0. -1.
         23    2    1    0    0    0 -0.25552440931E+02  0.12090371324E+02 -0.23934745061E+01  0.96630420579E+02  0.92372101550E+02 0.  0.
         13    1    3    3    0    0 -0.92809076097E+01  0.51838052564E+02 -0.81766143204E+01  0.53293406022E+02  0.10566000000E+00 0.  1.
         22    1    1    0    0    0  0.25552440931E+02 -0.12090371324E+02  0.23934745061E+01  0.28369579421E+02  0.00000000000E+00 0.  1.
</event>
<event>
 5    1  0.1325832E-009  0.9118800E+02  0.7818608E-02  0.1130116E+00
         25   -1    0    0    0    0  0.00000000000E+00  0.00000000000E+00  0.99999998245E-14  0.12500000000E+03  0.12500000000E+03 0.  0.
        -13    1    3    3    0    0  0.39619652555E+02 -0.27183986673E+02  0.10660877856E+01  0.48060729367E+02  0.10566000000E+00 0. -1.
         23    2    1    0    0    0  0.24814546667E+02  0.17146325623E+02  0.15074918471E+01  0.94800153306E+02  0.89861217032E+02 0.  0.
         13    1    3    3    0    0 -0.14805105888E+02  0.44330312296E+02  0.44140406150E+00  0.46739423939E+02  0.10566000000E+00 0.  1.
         22    1    1    0    0    0 -0.24814546667E+02 -0.17146325623E+02 -0.15074918471E+01  0.30199846694E+02  0.00000000000E+00 0. -1.
</event>
<event>
 5    1  0.1325832E-009  0.9118800E+02  0.7818608E-02  0.1130116E+00
         25   -1    0    0    0    0  0.00000000000E+00  0.00000000000E+00  0.99999998245E-14  0.12500000000E+03  0.12500000000E+03 0.  0.
        -13    1    3    3    0    0 -0.26835989818E+02 -0.67309861594E+01 -0.98796934009E+01  0.29378496046E+02  0.10566000000E+00 0.  1.
         23    2    1    0    0    0  0.26453931540E+02 -0.38230698512E+01  0.20973969250E+02  0.91024512614E+02  0.84446007327E+02 0.  0.
         13    1    3    3    0    0  0.53289921359E+02  0.29079163082E+01  0.30853662651E+02  0.61646016568E+02  0.10566000000E+00 0. -1.
         22    1    1    0    0    0 -0.26453931540E+02  0.38230698512E+01 -0.20973969250E+02  0.33975487386E+02  0.00000000000E+00 0. -1.
</event>
<event>
 5    1  0.1325832E-009  0.9118800E+02  0.7818608E-02  0.1130116E+00
         25   -1    0    0    0    0  0.00000000000E+00  0.00000000000E+00  0.99999998245E-14  0.12500000000E+03  0.12500000000E+03 0.  0.
        -13    1    3    3    0    0 -0.17266832905E+02  0.31136747771E+02 -0.40495844856E+01  0.35833655672E+02  0.10566000000E+00 0. -1.
         23    2    1    0    0    0  0.20358555187E+02 -0.52527466833E+01  0.22228278706E+02  0.94403292803E+02  0.89307464419E+02 0.  0.
         13    1    3    3    0    0  0.37625388092E+02 -0.36389494454E+02  0.26277863192E+02  0.58569637131E+02  0.10566000000E+00 0.  1.
         22    1    1    0    0    0 -0.20358555187E+02  0.52527466833E+01 -0.22228278706E+02  0.30596707197E+02  0.00000000000E+00 0.  1.
</event>
<event>
 5    1  0.1325832E-009  0.9118800E+02  0.7818608E-02  0.1130116E+00
         25   -1    0    0    0    0  0.00000000000E+00  0.00000000000E+00  0.99999998245E-14  0.12500000000E+03  0.12500000000E+03 0.  0.
        -13    1    3    3    0    0 -0.29664071893E+02  0.41349241382E+02  0.19511899584E+02  0.54501764316E+02  0.10566000000E+00 0.  1.
         23    2    1    0    0    0 -0.20888105743E+02  0.18053725786E+02 -0.12198559522E+02  0.94816315157E+02  0.89883695903E+02 0.  0.
         13    1    3    3    0    0  0.87759661496E+01 -0.23295515596E+02 -0.31710459106E+02  0.40314550841E+02  0.10566000000E+00 0. -1.
         22    1    1    0    0    0  0.20888105743E+02 -0.18053725786E+02  0.12198559522E+02  0.30183684843E+02  0.00000000000E+00 0.  1.
</event>
<event>
 5    1  0.1325832E-009  0.9118800E+02  0.7818608E-02  0.1130116E+00
         25   -1    0    0    0    0  0.00000000000E+00  0.00000000000E+00  0.99999998245E-14  0.12500000000E+03  0.12500000000E+03 0.  0.
        -13    1    3    3    0    0  0.20422063887E+02 -0.13631264339E+02 -0.53692203514E+02  0.59040121469E+02  0.10566000000E+00 0.  1.
         23    2    1    0    0    0 -0.46231573922E+01 -0.11165793050E+02 -0.25178138845E+02  0.97071749170E+02  0.92967399085E+02 0.  0.
         13    1    3    3    0    0 -0.25045221279E+02  0.24654712886E+01  0.28514064669E+02  0.38031627701E+02  0.10566000000E+00 0. -1.
         22    1    1    0    0    0  0.46231573922E+01  0.11165793050E+02  0.25178138845E+02  0.27928250830E+02  0.00000000000E+00 0.  1.
</event>
<event>
 5    1  0.1325832E-009  0.9118800E+02  0.7818608E-02  0.1130116E+00
         25   -1    0    0    0    0  0.00000000000E+00  0.00000000000E+00  0.99999998245E-14  0.12500000000E+03  0.12500000000E+03 0.  0.
        -13    1    3    3    0    0 -0.33934692945E+02 -0.59914309393E+01 -0.16311858090E+02  0.38125431254E+02  0.10566000000E+00 0.  1.
         23    2    1    0    0    0  0.10942924628E+02 -0.18153848754E+02  0.19018195274E+02  0.96521910607E+02  0.92225146526E+02 0.  0.
         13    1    3    3    0    0  0.44877617573E+02 -0.12162417814E+02  0.35330053364E+02  0.58396479353E+02  0.10566000000E+00 0. -1.
         22    1    1    0    0    0 -0.10942924628E+02  0.18153848754E+02 -0.19018195274E+02  0.28478089393E+02  0.00000000000E+00 0. -1.
</event>
<event>
 5    1  0.1325832E-009  0.9118800E+02  0.7818608E-02  0.1130116E+00
         25   -1    0    0    0    0  0.00000000000E+00  0.00000000000E+00  0.99999998245E-14  0.12500000000E+03  0.12500000000E+03 0.  0.
        -13    1    3    3    0    0  0.16922156137E+01  0.18467321341E+02  0.34755419683E+02  0.39393602432E+02  0.10566000000E+00 0.  1.
         23    2    1    0    0    0  0.23350637166E+02 -0.10608249457E+02 -0.10418376966E+02  0.97317337715E+02  0.93297022614E+02 0.  0.
         13    1    3    3    0    0  0.21658421552E+02 -0.29075570798E+02 -0.45173796649E+02  0.57923735283E+02  0.10566000000E+00 0. -1.
         22    1    1    0    0    0 -0.23350637166E+02  0.10608249457E+02  0.10418376966E+02  0.27682662285E+02  0.00000000000E+00 0. -1.
</event>
<event>
 5    1  0.1325832E-009  0.9118800E+02  0.7818608E-02  0.1130116E+00
         25   -1    0    0    0    0  0.00000000000E+00  0.00000000000E+00  0.99999998245E-14  0.12500000000E+03  0.12500000000E+03 0.  0.
        -13    1    3    3    0    0 -0.18926651524E+02 -0.34921813301E+02 -0.22563602794E+02  0.45682365496E+02  0.10566000000E+00 0.  1.
         23    2    1    0    0    0  0.10741598084E+02  0.62314368400E+01 -0.25642878503E+02  0.96508423132E+02  0.92206864078E+02 0.  0.
         13    1    3    3    0    0  0.29668249608E+02  0.41153250141E+02 -0.30792757086E+01  0.50826057637E+02  0.10566000000E+00 0. -1.
         22    1    1    0    0    0 -0.10741598084E+02 -0.62314368400E+01  0.25642878503E+02  0.28491576868E+02  0.00000000000E+00 0. -1.
</event>
<event>
 5    1  0.1325832E-009  0.9118800E+02  0.7818608E-02  0.1130116E+00
         25   -1    0    0    0    0  0.00000000000E+00  0.00000000000E+00  0.99999998245E-14  0.12500000000E+03  0.12500000000E+03 0.  0.
        -13    1    3    3    0    0  0.29122878925E+02  0.14542369668E+02 -0.44486522441E+02  0.55124263581E+02  0.10566000000E+00 0.  1.
         23    2    1    0    0    0  0.18977513492E+02  0.20560229333E+02 -0.46930874715E+01  0.96629344058E+02  0.92370644767E+02 0.  0.
         13    1    3    3    0    0 -0.10145365433E+02  0.60178596647E+01  0.39793434970E+02  0.41505080477E+02  0.10566000000E+00 0. -1.
         22    1    1    0    0    0 -0.18977513492E+02 -0.20560229333E+02  0.46930874715E+01  0.28370655942E+02  0.00000000000E+00 0.  1.
</event>
<event>
 5    1  0.1325832E-009  0.9118800E+02  0.7818608E-02  0.1130116E+00
         25   -1    0    0    0    0  0.00000000000E+00  0.00000000000E+00  0.99999998245E-14  0.12500000000E+03  0.12500000000E+03 0.  0.
        -13    1    3    3    0    0  0.23946305869E+02  0.34905595202E+02 -0.37103076316E+02  0.56289213685E+02  0.10566000000E+00 0. -1.
         23    2    1    0    0    0 -0.63204494531E+01  0.12650423066E+02 -0.25897354828E+02  0.95493148726E+02  0.90820081378E+02 0.  0.
         13    1    3    3    0    0 -0.30266755323E+02 -0.22255172136E+02  0.11205721488E+02  0.39203935041E+02  0.10566000000E+00 0.  1.
         22    1    1    0    0    0  0.63204494531E+01 -0.12650423066E+02  0.25897354828E+02  0.29506851274E+02  0.00000000000E+00 0. -1.
</event>
<event>
 5    1  0.1325832E-009  0.9118800E+02  0.7818608E-02  0.1130116E+00
         25   -1    0    0    0    0  0.00000000000E+00  0.00000000000E+00  0.99999998245E-14  0.12500000000E+03  0.12500000000E+03 0.  0.
        -13    1    3    3    0    0 -0.22565705356E+02 -0.14759848252E+02  0.25653881455E+02  0.37218234461E+02  0.10566000000E+00 0.  1.
         23    2    1    0    0    0  0.28558940487E+02 -0.88712294052E+01 -0.80450037374E+00  0.95084134415E+02  0.90255379915E+02 0.  0.
         13    1    3    3    0    0  0.51124645843E+02  0.58886188465E+01 -0.26458381828E+02  0.57865899954E+02  0.10566000000E+00 0. -1.
         22    1    1    0    0    0 -0.28558940487E+02  0.88712294052E+01  0.80450037374E+00  0.29915865585E+02  0.00000000000E+00 0. -1.
</event>
<event>
 5    1  0.1325832E-009  0.9118800E+02  0.7818608E-02  0.1130116E+00
         25   -1    0    0    0    0  0.00000000000E+00  0.00000000000E+00  0.99999998245E-14  0.12500000000E+03  0.12500000000E+03 0.  0.
        -13    1    3    3    0    0  0.68517814119E+01 -0.23589326636E+02  0.31476018540E+02  0.39926859967E+02  0.10566000000E+00 0.  1.
         23    2    1    0    0    0 -0.16756024153E+02 -0.79622224928E+01 -0.19404780482E+02  0.98154016352E+02  0.94411355716E+02 0.  0.
         13    1    3    3    0    0 -0.23607805565E+02  0.15627104143E+02 -0.50880799022E+02  0.58227156385E+02  0.10566000000E+00 0. -1.
         22    1    1    0    0    0  0.16756024153E+02  0.79622224928E+01  0.19404780482E+02  0.26845983648E+02  0.00000000000E+00 0. -1.
</event>
<event>
 5    1  0.1325832E-009  0.9118800E+02  0.7818608E-02  0.1130116E+00
         25   -1    0    0    0    0  0.00000000000E+00  0.00000000000E+00  0.99999998245E-14  0.12500000000E+03  0.12500000000E+03 0.  0.
        -13    1    3    3    0    0 -0.36585124073E+02 -0.26661436452E+02 -0.14428856273E+02  0.47513225048E+02  0.10566000000E+00 0. -1.
         23    2    1    0    0    0 -0.21670793099E+02  0.17721167661E+01  0.20611933498E+02  0.95039768461E+02  0.90193913959E+02 0.  0.
         13    1    3    3    0    0  0.14914330974E+02  0.28433553218E+02  0.35040789770E+02  0.47526543413E+02  0.10566000000E+00 0.  1.
         22    1    1    0    0    0  0.21670793099E+02 -0.17721167661E+01 -0.20611933498E+02  0.29960231539E+02  0.00000000000E+00 0.  1.
</event>
<event>
 5    1  0.1325832E-009  0.9118800E+02  0.7818608E-02  0.1130116E+00
         25   -1    0    0    0    0  0.00000000000E+00  0.00000000000E+00  0.99999998245E-14  0.12500000000E+03  0.12500000000E+03 0.  0.
        -13    1    3    3    0    0 -0.23909244187E+02 -0.18111363286E+02  0.53298110504E+02  0.61158590443E+02  0.10566000000E+00 0. -1.
         23    2    1    0    0    0 -0.62756992772E+01 -0.16080911703E+02  0.23530870650E+02  0.95816408786E+02  0.91263915084E+02 0.  0.
         13    1    3    3    0    0  0.17633544910E+02  0.20304515834E+01 -0.29767239854E+02  0.34657818343E+02  0.10566000000E+00 0.  1.
         22    1    1    0    0    0  0.62756992772E+01  0.16080911703E+02 -0.23530870650E+02  0.29183591214E+02  0.00000000000E+00 0. -1.
</event>
<event>
 5    1  0.1325832E-009  0.9118800E+02  0.7818608E-02  0.1130116E+00
         25   -1    0    0    0    0  0.00000000000E+00  0.00000000000E+00  0.99999998245E-14  0.12500000000E+03  0.12500000000E+03 0.  0.
        -13    1    3    3    0    0 -0.31941381531E+02 -0.20794703890E+02  0.20385094133E+02  0.43223081690E+02  0.10566000000E+00 0. -1.
         23    2    1    0    0    0 -0.31595159099E+01  0.23213880781E+02  0.17259883944E+02  0.95900680498E+02  0.91379265288E+02 0.  0.
         13    1    3    3    0    0  0.28781865621E+02  0.44008584671E+02 -0.31252101895E+01  0.52677598808E+02  0.10566000000E+00 0.  1.
         22    1    1    0    0    0  0.31595159099E+01 -0.23213880781E+02 -0.17259883944E+02  0.29099319502E+02  0.00000000000E+00 0.  1.
</event>
<event>
 5    1  0.1325832E-009  0.9118800E+02  0.7818608E-02  0.1130116E+00
         25   -1    0    0    0    0  0.00000000000E+00  0.00000000000E+00  0.99999998245E-14  0.12500000000E+03  0.12500000000E+03 0.  0.
        -13    1    3    3    0    0 -0.29309181306E+02 -0.23064232859E+02 -0.12104939403E+02  0.39211320664E+02  0.10566000000E+00 0. -1.
         23    2    1    0    0    0  0.45293777397E+01 -0.10677625948E+02  0.28935541367E+02  0.93826413220E+02  0.88496346280E+02 0.  0.
         13    1    3    3    0    0  0.33838559046E+02  0.12386606911E+02  0.41040480769E+02  0.54615092556E+02  0.10566000000E+00 0.  1.
         22    1    1    0    0    0 -0.45293777397E+01  0.10677625948E+02 -0.28935541367E+02  0.31173586780E+02  0.00000000000E+00 0.  1.
</event>
<event>
 5    1  0.1325832E-009  0.9118800E+02  0.7818608E-02  0.1130116E+00
         25   -1    0    0    0    0  0.00000000000E+00  0.00000000000E+00  0.99999998245E-14  0.12500000000E+03  0.12500000000E+03 0.  0.
        -13    1    3    3    0    0  0.14938119000E+02  0.33916018278E+02 -0.19161325026E+02  0.41720633216E+02  0.10566000000E+00 0.  1.
         23    2    1    0    0    0  0.91469613837E+00  0.37763663612E+01  0.26508751551E+02  0.98207995209E+02  0.94482796330E+02 0.  0.
         13    1    3    3    0    0 -0.14023422862E+02 -0.30139651917E+02  0.45670076577E+02  0.56487361994E+02  0.10566000000E+00 0. -1.
         22    1    1    0    0    0 -0.91469613837E+00 -0.37763663612E+01 -0.26508751551E+02  0.26792004791E+02  0.00000000000E+00 0.  1.
</event>
<event>
 5    1  0.1325832E-009  0.9118800E+02  0.7818608E-02  0.1130116E+00
         25   -1    0    0    0    0  0.00000000000E+00  0.00000000000E+00  0.99999998245E-14  0.12500000000E+03  0.12500000000E+03 0.  0.
        -13    1    3    3    0    0 -0.35747430007E+02  0.32532098108E+01 -0.44430974055E+02  0.57119040132E+02  0.10566000000E+00 0.  1.
         23    2    1    0    0    0 -0.26608796252E+02 -0.11077612287E+01 -0.49067080816E+01  0.97919915859E+02  0.94100897789E+02 0.  0.
         13    1    3    3    0    0  0.91386337548E+01 -0.43609710395E+01  0.39524265973E+02  0.40800875726E+02  0.10566000000E+00 0. -1.
         22    1    1    0    0    0  0.26608796252E+02  0.11077612287E+01  0.49067080816E+01  0.27080084141E+02  0.00000000000E+00 0.  1.
</event>
<event>
 5    1  0.1325832E-009  0.9118800E+02  0.7818608E-02  0.1130116E+00
         25   -1    0    0    0    0  0.00000000000E+00  0.00000000000E+00  0.99999998245E-14  0.12500000000E+03  0.12500000000E+03 0.  0.
        -13    1    3    3    0    0 -0.15953410751E+02  0.96474754775E+00  0.36214853061E+02  0.39584956722E+02  0.10566000000E+00 0. -1.
         23    2    1    0    0    0  0.39815940937E+01 -0.29090500665E+02 -0.59200571681E+01  0.95047414180E+02  0.90204509560E+02 0.  0.
         13    1    3    3    0    0  0.19935004845E+02 -0.30055248212E+02 -0.42134910229E+02  0.55462457458E+02  0.10566000000E+00 0.  1.
         22    1    1    0    0    0 -0.39815940937E+01  0.29090500665E+02  0.59200571681E+01  0.29952585820E+02  0.00000000000E+00 0.  1.
</event>
<event>
 5    1  0.1325832E-009  0.9118800E+02  0.7818608E-02  0.1130116E+00
         25   -1    0    0    0    0  0.00000000000E+00  0.00000000000E+00  0.99999998245E-14  0.12500000000E+03  0.12500000000E+03 0.  0.
        -13    1    3    3    0    0  0.24227519025E+02  0.94127873834E+01  0.22492232718E+02  0.34372735432E+02  0.10566000000E+00 0. -1.
         23    2    1    0    0    0 -0.28605927059E+02 -0.88855225947E+01 -0.10216028475E+01  0.95028426016E+02  0.90178193062E+02 0.  0.
         13    1    3    3    0    0 -0.52833446084E+02 -0.18298309978E+02 -0.23513835565E+02  0.60655690584E+02  0.10566000000E+00 0.  1.
         22    1    1    0    0    0  0.28605927059E+02  0.88855225947E+01  0.10216028475E+01  0.29971573984E+02  0.00000000000E+00 0.  1.
</event>
<event>
 5    1  0.1325832E-009  0.9118800E+02  0.7818608E-02  0.1130116E+00
         25   -1    0    0    0    0  0.00000000000E+00  0.00000000000E+00  0.99999998245E-14  0.12500000000E+03  0.12500000000E+03 0.  0.
        -13    1    3    3    0    0  0.28866420618E+01  0.19844243559E+02 -0.78779156316E+01  0.21545287734E+02  0.10566000000E+00 0.  1.
         23    2    1    0    0    0  0.18548311660E+02 -0.33429010777E+02 -0.24603209943E+02  0.79537305772E+02  0.65263515404E+02 0.  0.
         13    1    3    3    0    0  0.15661669599E+02 -0.53273254336E+02 -0.16725294312E+02  0.57992018037E+02  0.10566000000E+00 0. -1.
         22    1    1    0    0    0 -0.18548311660E+02  0.33429010777E+02  0.24603209943E+02  0.45462694228E+02  0.00000000000E+00 0. -1.
</event>
<event>
 5    1  0.1325832E-009  0.9118800E+02  0.7818608E-02  0.1130116E+00
         25   -1    0    0    0    0  0.00000000000E+00  0.00000000000E+00  0.99999998245E-14  0.12500000000E+03  0.12500000000E+03 0.  0.
        -13    1    3    3    0    0  0.68768450616E+01 -0.33356810968E+02 -0.14422593153E+02  0.36986351446E+02  0.10566000000E+00 0. -1.
         23    2    1    0    0    0 -0.16145096143E+02  0.69735038498E+01  0.22590511619E+02  0.96370904649E+02  0.92020248653E+02 0.  0.
         13    1    3    3    0    0 -0.23021941205E+02  0.40330314818E+02  0.37013104772E+02  0.59384553203E+02  0.10566000000E+00 0.  1.
         22    1    1    0    0    0  0.16145096143E+02 -0.69735038498E+01 -0.22590511619E+02  0.28629095351E+02  0.00000000000E+00 0.  1.
</event>
<event>
 5    1  0.1325832E-009  0.9118800E+02  0.7818608E-02  0.1130116E+00
         25   -1    0    0    0    0  0.00000000000E+00  0.00000000000E+00  0.99999998245E-14  0.12500000000E+03  0.12500000000E+03 0.  0.
        -13    1    3    3    0    0 -0.13197224446E+02 -0.32154945937E+02 -0.96649889749E+01  0.36076730134E+02  0.10566000000E+00 0.  1.
         23    2    1    0    0    0 -0.10361171634E+01  0.13369868930E+02  0.26382563271E+02  0.95404956856E+02  0.90698617486E+02 0.  0.
         13    1    3    3    0    0  0.12161107283E+02  0.45524814866E+02  0.36047552246E+02  0.59328226721E+02  0.10566000000E+00 0. -1.
         22    1    1    0    0    0  0.10361171634E+01 -0.13369868930E+02 -0.26382563271E+02  0.29595043144E+02  0.00000000000E+00 0. -1.
</event>
<event>
 5    1  0.1325832E-009  0.9118800E+02  0.7818608E-02  0.1130116E+00
         25   -1    0    0    0    0  0.00000000000E+00  0.00000000000E+00  0.99999998245E-14  0.12500000000E+03  0.12500000000E+03 0.  0.
        -13    1    3    3    0    0  0.49709554866E+02 -0.25594305826E+02  0.22907941724E+02  0.60422622368E+02  0.10566000000E+00 0.  1.
         23    2    1    0    0    0  0.30302825608E+02 -0.28670985283E+01  0.10196401007E+02  0.92899406745E+02  0.87177128230E+02 0.  0.
         13    1    3    3    0    0 -0.19406729258E+02  0.22727207298E+02 -0.12711540717E+02  0.32476784378E+02  0.10566000000E+00 0. -1.
         22    1    1    0    0    0 -0.30302825608E+02  0.28670985283E+01 -0.10196401007E+02  0.32100593255E+02  0.00000000000E+00 0.  1.
</event>
<event>
 5    1  0.1325832E-009  0.9118800E+02  0.7818608E-02  0.1130116E+00
         25   -1    0    0    0    0  0.00000000000E+00  0.00000000000E+00  0.99999998245E-14  0.12500000000E+03  0.12500000000E+03 0.  0.
        -13    1    3    3    0    0  0.27732033724E+02 -0.30805259566E+02 -0.14556993509E+01  0.41474810862E+02  0.10566000000E+00 0.  1.
         23    2    1    0    0    0 -0.24195968449E+02 -0.16612320774E+02 -0.40606138860E+01  0.95370577532E+02  0.90651223836E+02 0.  0.
         13    1    3    3    0    0 -0.51928002173E+02  0.14192938792E+02 -0.26049145351E+01  0.53895766670E+02  0.10566000000E+00 0. -1.
         22    1    1    0    0    0  0.24195968449E+02  0.16612320774E+02  0.40606138860E+01  0.29629422468E+02  0.00000000000E+00 0.  1.
</event>
<event>
 5    1  0.1325832E-009  0.9118800E+02  0.7818608E-02  0.1130116E+00
         25   -1    0    0    0    0  0.00000000000E+00  0.00000000000E+00  0.99999998245E-14  0.12500000000E+03  0.12500000000E+03 0.  0.
        -13    1    3    3    0    0 -0.87652077725E+01  0.12818649649E+02 -0.31789065472E+02  0.35379407764E+02  0.10566000000E+00 0. -1.
         23    2    1    0    0    0  0.11701460773E+02 -0.18362647971E+02  0.17411996296E+02  0.97120103304E+02  0.93032391274E+02 0.  0.
         13    1    3    3    0    0  0.20466668545E+02 -0.31181297621E+02  0.49201061768E+02  0.61740695540E+02  0.10566000000E+00 0.  1.
         22    1    1    0    0    0 -0.11701460773E+02  0.18362647971E+02 -0.17411996296E+02  0.27879896696E+02  0.00000000000E+00 0.  1.
</event>
<event>
 5    1  0.1325832E-009  0.9118800E+02  0.7818608E-02  0.1130116E+00
         25   -1    0    0    0    0  0.00000000000E+00  0.00000000000E+00  0.99999998245E-14  0.12500000000E+03  0.12500000000E+03 0.  0.
        -13    1    3    3    0    0 -0.25077681455E+02 -0.47255820362E+02  0.15223190550E+01  0.53519447723E+02  0.10566000000E+00 0. -1.
         23    2    1    0    0    0  0.12718880641E+02 -0.23776074869E+02  0.20231103117E+00  0.98034974677E+02  0.94253613561E+02 0.  0.
         13    1    3    3    0    0  0.37796562096E+02  0.23479745494E+02 -0.13200080238E+01  0.44515526954E+02  0.10566000000E+00 0.  1.
         22    1    1    0    0    0 -0.12718880641E+02  0.23776074869E+02 -0.20231103117E+00  0.26965025323E+02  0.00000000000E+00 0. -1.
</event>
<event>
 5    1  0.1325832E-009  0.9118800E+02  0.7818608E-02  0.1130116E+00
         25   -1    0    0    0    0  0.00000000000E+00  0.00000000000E+00  0.99999998245E-14  0.12500000000E+03  0.12500000000E+03 0.  0.
        -13    1    3    3    0    0  0.10579327656E+02 -0.15110608028E+02  0.14907459898E+02  0.23717001777E+02  0.10566000000E+00 0. -1.
         23    2    1    0    0    0  0.53129976027E+01 -0.18462832263E+02 -0.40868306604E+02  0.79841140367E+02  0.65842881861E+02 0.  0.
         13    1    3    3    0    0 -0.52663300536E+01 -0.33522242344E+01 -0.55775766502E+02  0.56124138590E+02  0.10566000000E+00 0.  1.
         22    1    1    0    0    0 -0.53129976027E+01  0.18462832263E+02  0.40868306604E+02  0.45158859633E+02  0.00000000000E+00 0.  1.
</event>
<event>
 5    1  0.1325832E-009  0.9118800E+02  0.7818608E-02  0.1130116E+00
         25   -1    0    0    0    0  0.00000000000E+00  0.00000000000E+00  0.99999998245E-14  0.12500000000E+03  0.12500000000E+03 0.  0.
        -13    1    3    3    0    0 -0.11951418855E+02  0.25113245094E+02  0.42028552851E+02  0.50397637947E+02  0.10566000000E+00 0.  1.
         23    2    1    0    0    0 -0.21261120187E+02 -0.71931344611E+01  0.32787926198E+02  0.85265575136E+02  0.75441326764E+02 0.  0.
         13    1    3    3    0    0 -0.93097013316E+01 -0.32306379555E+02 -0.92406266538E+01  0.34867937189E+02  0.10566000000E+00 0. -1.
         22    1    1    0    0    0  0.21261120187E+02  0.71931344611E+01 -0.32787926198E+02  0.39734424864E+02  0.00000000000E+00 0.  1.
</event>
<event>
 5    1  0.1325832E-009  0.9118800E+02  0.7818608E-02  0.1130116E+00
         25   -1    0    0    0    0  0.00000000000E+00  0.00000000000E+00  0.99999998245E-14  0.12500000000E+03  0.12500000000E+03 0.  0.
        -13    1    3    3    0    0 -0.10717776467E+02 -0.72307190247E+01  0.50118415027E+02  0.51759257326E+02  0.10566000000E+00 0.  1.
         23    2    1    0    0    0  0.68619519337E+01  0.19780847284E+02  0.16384808156E+02  0.98413720795E+02  0.94754578775E+02 0.  0.
         13    1    3    3    0    0  0.17579728400E+02  0.27011566309E+02 -0.33733606871E+02  0.46654463470E+02  0.10566000000E+00 0. -1.
         22    1    1    0    0    0 -0.68619519337E+01 -0.19780847284E+02 -0.16384808156E+02  0.26586279205E+02  0.00000000000E+00 0.  1.
</event>
<event>
 5    1  0.1325832E-009  0.9118800E+02  0.7818608E-02  0.1130116E+00
         25   -1    0    0    0    0  0.00000000000E+00  0.00000000000E+00  0.99999998245E-14  0.12500000000E+03  0.12500000000E+03 0.  0.
        -13    1    3    3    0    0  0.21255033225E+02  0.23857856627E+02 -0.85774048217E+01  0.33084086775E+02  0.10566000000E+00 0. -1.
         23    2    1    0    0    0 -0.13883768485E+02 -0.25486791542E+02  0.59364278037E+01  0.95376078154E+02  0.90658808390E+02 0.  0.
         13    1    3    3    0    0 -0.35138801710E+02 -0.49344648169E+02  0.14513832625E+02  0.62291991380E+02  0.10566000000E+00 0.  1.
         22    1    1    0    0    0  0.13883768485E+02  0.25486791542E+02 -0.59364278037E+01  0.29623921846E+02  0.00000000000E+00 0.  1.
</event>
<event>
 5    1  0.1325832E-009  0.9118800E+02  0.7818608E-02  0.1130116E+00
         25   -1    0    0    0    0  0.00000000000E+00  0.00000000000E+00  0.99999998245E-14  0.12500000000E+03  0.12500000000E+03 0.  0.
        -13    1    3    3    0    0 -0.37896344103E+02 -0.49378039966E+01 -0.18283877363E+02  0.42365388469E+02  0.10566000000E+00 0.  1.
         23    2    1    0    0    0  0.94469874851E+01  0.19787448494E+02 -0.19304356732E+02  0.95786186841E+02  0.91222512080E+02 0.  0.
         13    1    3    3    0    0  0.47343331588E+02  0.24725252490E+02 -0.10204793695E+01  0.53420798372E+02  0.10566000000E+00 0. -1.
         22    1    1    0    0    0 -0.94469874851E+01 -0.19787448494E+02  0.19304356732E+02  0.29213813159E+02  0.00000000000E+00 0. -1.
</event>
<event>
 5    1  0.1325832E-009  0.9118800E+02  0.7818608E-02  0.1130116E+00
         25   -1    0    0    0    0  0.00000000000E+00  0.00000000000E+00  0.99999998245E-14  0.12500000000E+03  0.12500000000E+03 0.  0.
        -13    1    3    3    0    0  0.12122901680E+02 -0.49941342082E+02 -0.18491356259E+02  0.54617248324E+02  0.10566000000E+00 0.  1.
         23    2    1    0    0    0  0.20357879197E+02 -0.28692564355E+02  0.73370314013E+01  0.89062018359E+02  0.81489291258E+02 0.  0.
         13    1    3    3    0    0  0.82349775163E+01  0.21248777727E+02  0.25828387661E+02  0.34444770035E+02  0.10566000000E+00 0. -1.
         22    1    1    0    0    0 -0.20357879197E+02  0.28692564355E+02 -0.73370314013E+01  0.35937981641E+02  0.00000000000E+00 0.  1.
</event>
<event>
 5    1  0.1325832E-009  0.9118800E+02  0.7818608E-02  0.1130116E+00
         25   -1    0    0    0    0  0.00000000000E+00  0.00000000000E+00  0.99999998245E-14  0.12500000000E+03  0.12500000000E+03 0.  0.
        -13    1    3    3    0    0  0.21781588118E+02  0.56112287991E+02 -0.71858862082E+01  0.60619094097E+02  0.10566000000E+00 0. -1.
         23    2    1    0    0    0  0.29474617602E+00  0.29461651323E+02 -0.31709880628E+00  0.95535167985E+02  0.90877896082E+02 0.  0.
         13    1    3    3    0    0 -0.21486841942E+02 -0.26650636667E+02  0.68687874020E+01  0.34916073889E+02  0.10566000000E+00 0.  1.
         22    1    1    0    0    0 -0.29474617602E+00 -0.29461651323E+02  0.31709880628E+00  0.29464832015E+02  0.00000000000E+00 0. -1.
</event>
<event>
 5    1  0.1325832E-009  0.9118800E+02  0.7818608E-02  0.1130116E+00
         25   -1    0    0    0    0  0.00000000000E+00  0.00000000000E+00  0.99999998245E-14  0.12500000000E+03  0.12500000000E+03 0.  0.
        -13    1    3    3    0    0 -0.15621765301E+02 -0.13507804231E+02 -0.43775201165E+02  0.48402269857E+02  0.10566000000E+00 0. -1.
         23    2    1    0    0    0  0.14932757135E+02 -0.23602045885E+02 -0.92970294917E+01  0.95563992068E+02  0.90917534156E+02 0.  0.
         13    1    3    3    0    0  0.30554522436E+02 -0.10094241654E+02  0.34478171673E+02  0.47161722210E+02  0.10566000000E+00 0.  1.
         22    1    1    0    0    0 -0.14932757135E+02  0.23602045885E+02  0.92970294917E+01  0.29436007932E+02  0.00000000000E+00 0.  1.
</event>
<event>
 5    1  0.1325832E-009  0.9118800E+02  0.7818608E-02  0.1130116E+00
         25   -1    0    0    0    0  0.00000000000E+00  0.00000000000E+00  0.99999998245E-14  0.12500000000E+03  0.12500000000E+03 0.  0.
        -13    1    3    3    0    0  0.40942075963E+02  0.56614810283E+01 -0.47178450891E+01  0.41600182426E+02  0.10566000000E+00 0. -1.
         23    2    1    0    0    0 -0.71565619865E+01 -0.21945183568E+02 -0.14252028381E+02  0.97872011238E+02  0.94037241610E+02 0.  0.
         13    1    3    3    0    0 -0.48098637950E+02 -0.27606664596E+02 -0.95341832915E+01  0.56271828812E+02  0.10566000000E+00 0.  1.
         22    1    1    0    0    0  0.71565619865E+01  0.21945183568E+02  0.14252028381E+02  0.27127988762E+02  0.00000000000E+00 0.  1.
</event>
<event>
 5    1  0.1325832E-009  0.9118800E+02  0.7818608E-02  0.1130116E+00
         25   -1    0    0    0    0  0.00000000000E+00  0.00000000000E+00  0.99999998245E-14  0.12500000000E+03  0.12500000000E+03 0.  0.
        -13    1    3    3    0    0  0.38127286842E+02 -0.39217342125E+02 -0.18013325532E+02  0.57586291650E+02  0.10566000000E+00 0. -1.
         23    2    1    0    0    0  0.27580823952E+02 -0.11393271847E+02  0.43957565940E+01  0.94836592213E+02  0.89911890500E+02 0.  0.
         13    1    3    3    0    0 -0.10546462889E+02  0.27824070277E+02  0.22409082126E+02  0.37250300563E+02  0.10566000000E+00 0.  1.
         22    1    1    0    0    0 -0.27580823952E+02  0.11393271847E+02 -0.43957565940E+01  0.30163407787E+02  0.00000000000E+00 0. -1.
</event>
<event>
 5    1  0.1325832E-009  0.9118800E+02  0.7818608E-02  0.1130116E+00
         25   -1    0    0    0    0  0.00000000000E+00  0.00000000000E+00  0.99999998245E-14  0.12500000000E+03  0.12500000000E+03 0.  0.
        -13    1    3    3    0    0  0.10585498232E+02 -0.38423984103E+02 -0.22837609963E+02  0.45934985795E+02  0.10566000000E+00 0. -1.
         23    2    1    0    0    0  0.25646452431E+02 -0.57293482603E+01  0.12073571276E+02  0.96080506969E+02  0.91624924242E+02 0.  0.
         13    1    3    3    0    0  0.15060954199E+02  0.32694635842E+02  0.34911181239E+02  0.50145521174E+02  0.10566000000E+00 0.  1.
         22    1    1    0    0    0 -0.25646452431E+02  0.57293482603E+01 -0.12073571276E+02  0.28919493031E+02  0.00000000000E+00 0.  1.
</event>
<event>
 5    1  0.1325832E-009  0.9118800E+02  0.7818608E-02  0.1130116E+00
         25   -1    0    0    0    0  0.00000000000E+00  0.00000000000E+00  0.99999998245E-14  0.12500000000E+03  0.12500000000E+03 0.  0.
        -13    1    3    3    0    0  0.26338011337E+01  0.40655581242E+02 -0.42081119161E+02  0.58571707747E+02  0.10566000000E+00 0.  1.
         23    2    1    0    0    0  0.72032994938E+01  0.26604164663E+02 -0.71110729355E+01  0.96535347195E+02  0.92243356394E+02 0.  0.
         13    1    3    3    0    0  0.45694983601E+01 -0.14051416579E+02  0.34970046225E+02  0.37963639449E+02  0.10566000000E+00 0. -1.
         22    1    1    0    0    0 -0.72032994938E+01 -0.26604164663E+02  0.71110729355E+01  0.28464652805E+02  0.00000000000E+00 0.  1.
</event>
<event>
 5    1  0.1325832E-009  0.9118800E+02  0.7818608E-02  0.1130116E+00
         25   -1    0    0    0    0  0.00000000000E+00  0.00000000000E+00  0.99999998245E-14  0.12500000000E+03  0.12500000000E+03 0.  0.
        -13    1    3    3    0    0  0.23593326023E+02 -0.61645943422E+01  0.32446695817E+02  0.40588748314E+02  0.10566000000E+00 0.  1.
         23    2    1    0    0    0 -0.26777635365E+02 -0.43696337305E+01  0.73718307816E+01  0.96884535505E+02  0.92715337869E+02 0.  0.
         13    1    3    3    0    0 -0.50370961388E+02  0.17949606118E+01 -0.25074865036E+02  0.56295787190E+02  0.10566000000E+00 0. -1.
         22    1    1    0    0    0  0.26777635365E+02  0.43696337305E+01 -0.73718307816E+01  0.28115464495E+02  0.00000000000E+00 0. -1.
</event>
<event>
 5    1  0.1325832E-009  0.9118800E+02  0.7818608E-02  0.1130116E+00
         25   -1    0    0    0    0  0.00000000000E+00  0.00000000000E+00  0.99999998245E-14  0.12500000000E+03  0.12500000000E+03 0.  0.
        -13    1    3    3    0    0 -0.75609879706E+01  0.45787744542E+01 -0.55707488307E+02  0.56404513402E+02  0.10566000000E+00 0.  1.
         23    2    1    0    0    0 -0.22190757781E+02  0.23050964167E+01 -0.20087050223E+02  0.94979460581E+02  0.90110294335E+02 0.  0.
         13    1    3    3    0    0 -0.14629769810E+02 -0.22736780375E+01  0.35620438084E+02  0.38574947179E+02  0.10566000000E+00 0. -1.
         22    1    1    0    0    0  0.22190757781E+02 -0.23050964167E+01  0.20087050223E+02  0.30020539419E+02  0.00000000000E+00 0. -1.
</event>
<event>
 5    1  0.1325832E-009  0.9118800E+02  0.7818608E-02  0.1130116E+00
         25   -1    0    0    0    0  0.00000000000E+00  0.00000000000E+00  0.99999998245E-14  0.12500000000E+03  0.12500000000E+03 0.  0.
        -13    1    3    3    0    0  0.17696539130E+02 -0.31274901309E+02  0.30207809009E+02  0.46944753042E+02  0.10566000000E+00 0.  1.
         23    2    1    0    0    0  0.27426439618E+02  0.93078534910E+01  0.52680709701E+01  0.95561958311E+02  0.90914737957E+02 0.  0.
         13    1    3    3    0    0  0.97299004877E+01  0.40582754800E+02 -0.24939738039E+02  0.48617205269E+02  0.10566000000E+00 0. -1.
         22    1    1    0    0    0 -0.27426439618E+02 -0.93078534910E+01 -0.52680709701E+01  0.29438041689E+02  0.00000000000E+00 0. -1.
</event>
<event>
 5    1  0.1325832E-009  0.9118800E+02  0.7818608E-02  0.1130116E+00
         25   -1    0    0    0    0  0.00000000000E+00  0.00000000000E+00  0.99999998245E-14  0.12500000000E+03  0.12500000000E+03 0.  0.
        -13    1    3    3    0    0  0.23074019412E+02 -0.41731775391E+01  0.28437671736E+02  0.36858352111E+02  0.10566000000E+00 0. -1.
         23    2    1    0    0    0  0.50744577488E+01  0.13116476543E+02 -0.25268885607E+02  0.96080998320E+02  0.91625594569E+02 0.  0.
         13    1    3    3    0    0 -0.17999561663E+02  0.17289654082E+02 -0.53706557342E+02  0.59222646209E+02  0.10566000000E+00 0.  1.
         22    1    1    0    0    0 -0.50744577488E+01 -0.13116476543E+02  0.25268885607E+02  0.28919001680E+02  0.00000000000E+00 0.  1.
</event>
<event>
 5    1  0.1325832E-009  0.9118800E+02  0.7818608E-02  0.1130116E+00
         25   -1    0    0    0    0  0.00000000000E+00  0.00000000000E+00  0.99999998245E-14  0.12500000000E+03  0.12500000000E+03 0.  0.
        -13    1    3    3    0    0 -0.45250232191E+02  0.25698338026E+02  0.33874443673E+02  0.62092488989E+02  0.10566000000E+00 0.  1.
         23    2    1    0    0    0 -0.21919554344E+02  0.67038572771E+01  0.14435648483E+02  0.97911321329E+02  0.94089480454E+02 0.  0.
         13    1    3    3    0    0  0.23330677847E+02 -0.18994480749E+02 -0.19438795190E+02  0.35818832340E+02  0.10566000000E+00 0. -1.
         22    1    1    0    0    0  0.21919554344E+02 -0.67038572771E+01 -0.14435648483E+02  0.27088678671E+02  0.00000000000E+00 0.  1.
</event>
<event>
 5    1  0.1325832E-009  0.9118800E+02  0.7818608E-02  0.1130116E+00
         25   -1    0    0    0    0  0.00000000000E+00  0.00000000000E+00  0.99999998245E-14  0.12500000000E+03  0.12500000000E+03 0.  0.
        -13    1    3    3    0    0 -0.40272711784E+02 -0.89004696163E+01 -0.38235976439E+02  0.56241539205E+02  0.10566000000E+00 0. -1.
         23    2    1    0    0    0 -0.17886600345E+02  0.15644636177E+02 -0.13405092982E+02  0.97716641869E+02  0.93830487942E+02 0.  0.
         13    1    3    3    0    0  0.22386111439E+02  0.24545105793E+02  0.24830883457E+02  0.41475102664E+02  0.10566000000E+00 0.  1.
         22    1    1    0    0    0  0.17886600345E+02 -0.15644636177E+02  0.13405092982E+02  0.27283358131E+02  0.00000000000E+00 0. -1.
</event>
<event>
 5    1  0.1325832E-009  0.9118800E+02  0.7818608E-02  0.1130116E+00
         25   -1    0    0    0    0  0.00000000000E+00  0.00000000000E+00  0.99999998245E-14  0.12500000000E+03  0.12500000000E+03 0.  0.
        -13    1    3    3    0    0  0.52487142259E+02  0.15010444922E+01 -0.62877009846E+01  0.52883831034E+02  0.10566000000E+00 0.  1.
         23    2    1    0    0    0  0.33671563292E+02 -0.23038647467E+02 -0.56350832821E+01  0.83813744826E+02  0.72996138299E+02 0.  0.
         13    1    3    3    0    0 -0.18815578967E+02 -0.24539691959E+02  0.65261770256E+00  0.30929913793E+02  0.10566000000E+00 0. -1.
         22    1    1    0    0    0 -0.33671563292E+02  0.23038647467E+02  0.56350832821E+01  0.41186255174E+02  0.00000000000E+00 0.  1.
</event>
<event>
 5    1  0.1325832E-009  0.9118800E+02  0.7818608E-02  0.1130116E+00
         25   -1    0    0    0    0  0.00000000000E+00  0.00000000000E+00  0.99999998245E-14  0.12500000000E+03  0.12500000000E+03 0.  0.
        -13    1    3    3    0    0  0.22868430167E+02  0.23165418136E+02 -0.29348353563E+02  0.43828514880E+02  0.10566000000E+00 0.  1.
         23    2    1    0    0    0 -0.10924813336E+02  0.15254250042E+02 -0.40567314059E+02  0.80303795903E+02  0.66715432815E+02 0.  0.
         13    1    3    3    0    0 -0.33793243503E+02 -0.79111680937E+01 -0.11218960496E+02  0.36475281023E+02  0.10566000000E+00 0. -1.
         22    1    1    0    0    0  0.10924813336E+02 -0.15254250042E+02  0.40567314059E+02  0.44696204097E+02  0.00000000000E+00 0. -1.
</event>
<event>
 5    1  0.1325832E-009  0.9118800E+02  0.7818608E-02  0.1130116E+00
         25   -1    0    0    0    0  0.00000000000E+00  0.00000000000E+00  0.99999998245E-14  0.12500000000E+03  0.12500000000E+03 0.  0.
        -13    1    3    3    0    0 -0.33769077715E+02 -0.14855782003E+02  0.98168785789E+01  0.38176264062E+02  0.10566000000E+00 0. -1.
         23    2    1    0    0    0  0.68842551612E+01  0.58018931254E+00 -0.28218076663E+02  0.95948503664E+02  0.91444660402E+02 0.  0.
         13    1    3    3    0    0  0.40653332876E+02  0.15435971316E+02 -0.38034955242E+02  0.57772239603E+02  0.10566000000E+00 0.  1.
         22    1    1    0    0    0 -0.68842551612E+01 -0.58018931254E+00  0.28218076663E+02  0.29051496336E+02  0.00000000000E+00 0.  1.
</event>
<event>
 5    1  0.1325832E-009  0.9118800E+02  0.7818608E-02  0.1130116E+00
         25   -1    0    0    0    0  0.00000000000E+00  0.00000000000E+00  0.99999998245E-14  0.12500000000E+03  0.12500000000E+03 0.  0.
        -13    1    3    3    0    0 -0.25114230986E+02 -0.52654421174E+02 -0.87558027262E+01  0.58990574778E+02  0.10566000000E+00 0. -1.
         23    2    1    0    0    0 -0.18051440198E+02 -0.23590167415E+02  0.92331693518E+01  0.93893699864E+02  0.88591336856E+02 0.  0.
         13    1    3    3    0    0  0.70627907872E+01  0.29064253760E+02  0.17988972078E+02  0.34903125086E+02  0.10566000000E+00 0.  1.
         22    1    1    0    0    0  0.18051440198E+02  0.23590167415E+02 -0.92331693518E+01  0.31106300136E+02  0.00000000000E+00 0. -1.
</event>
<event>
 5    1  0.1325832E-009  0.9118800E+02  0.7818608E-02  0.1130116E+00
         25   -1    0    0    0    0  0.00000000000E+00  0.00000000000E+00  0.99999998245E-14  0.12500000000E+03  0.12500000000E+03 0.  0.
        -13    1    3    3    0    0  0.13059199569E+02  0.56252538498E+01  0.34827313057E+02  0.37618334268E+02  0.10566000000E+00 0.  1.
         23    2    1    0    0    0 -0.28469683399E+02  0.19377204921E+02  0.59110825302E+01  0.90058050426E+02  0.83003087933E+02 0.  0.
         13    1    3    3    0    0 -0.41528882968E+02  0.13751951071E+02 -0.28916230527E+02  0.52439716158E+02  0.10566000000E+00 0. -1.
         22    1    1    0    0    0  0.28469683399E+02 -0.19377204921E+02 -0.59110825302E+01  0.34941949574E+02  0.00000000000E+00 0. -1.
</event>
<event>
 5    1  0.1325832E-009  0.9118800E+02  0.7818608E-02  0.1130116E+00
         25   -1    0    0    0    0  0.00000000000E+00  0.00000000000E+00  0.99999998245E-14  0.12500000000E+03  0.12500000000E+03 0.  0.
        -13    1    3    3    0    0 -0.38277857409E+02  0.30502121409E+01 -0.12507037884E+02  0.40384840257E+02  0.10566000000E+00 0. -1.
         23    2    1    0    0    0 -0.80427787290E+01  0.73140935439E+01  0.30210346310E+02  0.92893189535E+02  0.87168213150E+02 0.  0.
         13    1    3    3    0    0  0.30235078680E+02  0.42638814031E+01  0.42717384195E+02  0.52508349278E+02  0.10566000000E+00 0.  1.
         22    1    1    0    0    0  0.80427787290E+01 -0.73140935439E+01 -0.30210346310E+02  0.32106810465E+02  0.00000000000E+00 0.  1.
</event>
<event>
 5    1  0.1325832E-009  0.9118800E+02  0.7818608E-02  0.1130116E+00
         25   -1    0    0    0    0  0.00000000000E+00  0.00000000000E+00  0.99999998245E-14  0.12500000000E+03  0.12500000000E+03 0.  0.
        -13    1    3    3    0    0  0.41221498208E+01 -0.34934315631E+02  0.40139510528E+02  0.53372183740E+02  0.10566000000E+00 0.  1.
         23    2    1    0    0    0 -0.17912745320E+02 -0.38815770372E+01  0.24181036970E+02  0.94657692340E+02  0.89662830007E+02 0.  0.
         13    1    3    3    0    0 -0.22034895141E+02  0.31052738594E+02 -0.15958473557E+02  0.41285508600E+02  0.10566000000E+00 0. -1.
         22    1    1    0    0    0  0.17912745320E+02  0.38815770372E+01 -0.24181036970E+02  0.30342307660E+02  0.00000000000E+00 0. -1.
</event>
<event>
 5    1  0.1325832E-009  0.9118800E+02  0.7818608E-02  0.1130116E+00
         25   -1    0    0    0    0  0.00000000000E+00  0.00000000000E+00  0.99999998245E-14  0.12500000000E+03  0.12500000000E+03 0.  0.
        -13    1    3    3    0    0  0.39643451144E+02  0.71323877086E+00 -0.96612678252E+01  0.40810086844E+02  0.10566000000E+00 0.  1.
         23    2    1    0    0    0 -0.40466739406E+01  0.29270253261E+02  0.50135997489E+01  0.95029022732E+02  0.90179020194E+02 0.  0.
         13    1    3    3    0    0 -0.43690125085E+02  0.28557014490E+02  0.14674867574E+02  0.54218935888E+02  0.10566000000E+00 0. -1.
         22    1    1    0    0    0  0.40466739406E+01 -0.29270253261E+02 -0.50135997489E+01  0.29970977268E+02  0.00000000000E+00 0. -1.
</event>
<event>
 5    1  0.1325832E-009  0.9118800E+02  0.7818608E-02  0.1130116E+00
         25   -1    0    0    0    0  0.00000000000E+00  0.00000000000E+00  0.99999998245E-14  0.12500000000E+03  0.12500000000E+03 0.  0.
        -13    1    3    3    0    0  0.34116043177E+02 -0.51268105990E+02  0.85706751586E+01  0.62175483356E+02  0.10566000000E+00 0. -1.
         23    2    1    0    0    0  0.14386348427E+02 -0.22568539007E+02  0.82120474896E+01  0.97004577196E+02  0.92877038600E+02 0.  0.
         13    1    3    3    0    0 -0.19729694750E+02  0.28699566982E+02 -0.35862766904E+00  0.34829093840E+02  0.10566000000E+00 0.  1.
         22    1    1    0    0    0 -0.14386348427E+02  0.22568539007E+02 -0.82120474896E+01  0.27995422804E+02  0.00000000000E+00 0. -1.
</event>
<event>
 5    1  0.1325832E-009  0.9118800E+02  0.7818608E-02  0.1130116E+00
         25   -1    0    0    0    0  0.00000000000E+00  0.00000000000E+00  0.99999998245E-14  0.12500000000E+03  0.12500000000E+03 0.  0.
        -13    1    3    3    0    0  0.29902418619E+02  0.26709714967E+02 -0.25395343028E+02  0.47460490141E+02  0.10566000000E+00 0.  1.
         23    2    1    0    0    0  0.18382311535E+02  0.10672699843E+02  0.19278493600E+02  0.96303724722E+02  0.91928946369E+02 0.  0.
         13    1    3    3    0    0 -0.11520107084E+02 -0.16037015123E+02  0.44673836628E+02  0.48843234581E+02  0.10566000000E+00 0. -1.
         22    1    1    0    0    0 -0.18382311535E+02 -0.10672699843E+02 -0.19278493600E+02  0.28696275278E+02  0.00000000000E+00 0.  1.
</event>
<event>
 5    1  0.1325832E-009  0.9118800E+02  0.7818608E-02  0.1130116E+00
         25   -1    0    0    0    0  0.00000000000E+00  0.00000000000E+00  0.99999998245E-14  0.12500000000E+03  0.12500000000E+03 0.  0.
        -13    1    3    3    0    0 -0.12288057878E+02  0.17044309213E+02 -0.35343442522E+02  0.41117817748E+02  0.10566000000E+00 0. -1.
         23    2    1    0    0    0 -0.22681783147E+02  0.15219835648E+01  0.16947258749E+02  0.96645294927E+02  0.92392227659E+02 0.  0.
         13    1    3    3    0    0 -0.10393725268E+02 -0.15522325648E+02  0.52290701271E+02  0.55527477179E+02  0.10566000000E+00 0.  1.
         22    1    1    0    0    0  0.22681783147E+02 -0.15219835648E+01 -0.16947258749E+02  0.28354705073E+02  0.00000000000E+00 0.  1.
</event>
<event>
 5    1  0.1325832E-009  0.9118800E+02  0.7818608E-02  0.1130116E+00
         25   -1    0    0    0    0  0.00000000000E+00  0.00000000000E+00  0.99999998245E-14  0.12500000000E+03  0.12500000000E+03 0.  0.
        -13    1    3    3    0    0 -0.37283413631E+02 -0.21033028528E+02  0.18647070621E+02  0.46692243765E+02  0.10566000000E+00 0. -1.
         23    2    1    0    0    0  0.13398730371E+02 -0.19339766650E+02  0.14016137683E+02  0.97613786951E+02  0.93693365494E+02 0.  0.
         13    1    3    3    0    0  0.50682144002E+02  0.16932618781E+01 -0.46309329380E+01  0.50921543185E+02  0.10566000000E+00 0.  1.
         22    1    1    0    0    0 -0.13398730371E+02  0.19339766650E+02 -0.14016137683E+02  0.27386213049E+02  0.00000000000E+00 0. -1.
</event>
<event>
 5    1  0.1325832E-009  0.9118800E+02  0.7818608E-02  0.1130116E+00
         25   -1    0    0    0    0  0.00000000000E+00  0.00000000000E+00  0.99999998245E-14  0.12500000000E+03  0.12500000000E+03 0.  0.
        -13    1    3    3    0    0 -0.12183292696E+02 -0.46250846890E+02  0.20508006532E+02  0.52040013018E+02  0.10566000000E+00 0.  1.
         23    2    1    0    0    0  0.10126781774E+02 -0.27138281977E+02 -0.99648439211E+01  0.94367726625E+02  0.89257670014E+02 0.  0.
         13    1    3    3    0    0  0.22310074470E+02  0.19112564913E+02 -0.30472850454E+02  0.42327713607E+02  0.10566000000E+00 0. -1.
         22    1    1    0    0    0 -0.10126781774E+02  0.27138281977E+02  0.99648439211E+01  0.30632273375E+02  0.00000000000E+00 0.  1.
</event>
<event>
 5    1  0.1325832E-009  0.9118800E+02  0.7818608E-02  0.1130116E+00
         25   -1    0    0    0    0  0.00000000000E+00  0.00000000000E+00  0.99999998245E-14  0.12500000000E+03  0.12500000000E+03 0.  0.
        -13    1    3    3    0    0  0.42686976220E+02  0.43775730277E+02 -0.39624129001E+01  0.61271562573E+02  0.10566000000E+00 0. -1.
         23    2    1    0    0    0  0.33885906891E+02  0.23854530745E+02 -0.59230061089E+01  0.83138617746E+02  0.71830734622E+02 0.  0.
         13    1    3    3    0    0 -0.88010693298E+01 -0.19921199532E+02 -0.19605932088E+01  0.21867055172E+02  0.10566000000E+00 0.  1.
         22    1    1    0    0    0 -0.33885906891E+02 -0.23854530745E+02  0.59230061089E+01  0.41861382254E+02  0.00000000000E+00 0. -1.
</event>
<event>
 5    1  0.1325832E-009  0.9118800E+02  0.7818608E-02  0.1130116E+00
         25   -1    0    0    0    0  0.00000000000E+00  0.00000000000E+00  0.99999998245E-14  0.12500000000E+03  0.12500000000E+03 0.  0.
        -13    1    3    3    0    0 -0.17440943761E+02  0.18597566465E+02  0.28395131666E+02  0.38162162728E+02  0.10566000000E+00 0.  1.
         23    2    1    0    0    0 -0.15405264883E+02 -0.19036919278E+02 -0.15499768916E+02  0.96017775824E+02  0.91539302794E+02 0.  0.
         13    1    3    3    0    0  0.20356788784E+01 -0.37634485743E+02 -0.43894900582E+02  0.57855613097E+02  0.10566000000E+00 0. -1.
         22    1    1    0    0    0  0.15405264883E+02  0.19036919278E+02  0.15499768916E+02  0.28982224176E+02  0.00000000000E+00 0. -1.
</event>
<event>
 5    1  0.1325832E-009  0.9118800E+02  0.7818608E-02  0.1130116E+00
         25   -1    0    0    0    0  0.00000000000E+00  0.00000000000E+00  0.99999998245E-14  0.12500000000E+03  0.12500000000E+03 0.  0.
        -13    1    3    3    0    0  0.15498329398E+02  0.26073798578E+02  0.16190372084E+02  0.34382851811E+02  0.10566000000E+00 0. -1.
         23    2    1    0    0    0 -0.47695227327E+01 -0.13639297887E+02 -0.25671677642E+02  0.95541320007E+02  0.90886357622E+02 0.  0.
         13    1    3    3    0    0 -0.20267852131E+02 -0.39713096465E+02 -0.41862049726E+02  0.61158468196E+02  0.10566000000E+00 0.  1.
         22    1    1    0    0    0  0.47695227327E+01  0.13639297887E+02  0.25671677642E+02  0.29458679993E+02  0.00000000000E+00 0.  1.
</event>
<event>
 5    1  0.1325832E-009  0.9118800E+02  0.7818608E-02  0.1130116E+00
         25   -1    0    0    0    0  0.00000000000E+00  0.00000000000E+00  0.99999998245E-14  0.12500000000E+03  0.12500000000E+03 0.  0.
        -13    1    3    3    0    0  0.30361072151E+01 -0.37229275439E+02 -0.94778265899E+01  0.38536700139E+02  0.10566000000E+00 0.  1.
         23    2    1    0    0    0  0.20079526264E+02  0.86227964579E+01  0.19770513299E+02  0.95531148820E+02  0.90872367665E+02 0.  0.
         13    1    3    3    0    0  0.17043419049E+02  0.45852071897E+02  0.29248339889E+02  0.56994448681E+02  0.10566000000E+00 0. -1.
         22    1    1    0    0    0 -0.20079526264E+02 -0.86227964579E+01 -0.19770513299E+02  0.29468851180E+02  0.00000000000E+00 0. -1.
</event>
<event>
 5    1  0.1325832E-009  0.9118800E+02  0.7818608E-02  0.1130116E+00
         25   -1    0    0    0    0  0.00000000000E+00  0.00000000000E+00  0.99999998245E-14  0.12500000000E+03  0.12500000000E+03 0.  0.
        -13    1    3    3    0    0  0.42846838694E+02 -0.34660735432E+01 -0.23475376405E+01  0.43050985458E+02  0.10566000000E+00 0. -1.
         23    2    1    0    0    0  0.47560026108E+00 -0.24177512192E+02 -0.20211813401E+02  0.93483406080E+02  0.88010519371E+02 0.  0.
         13    1    3    3    0    0 -0.42371238433E+02 -0.20711438648E+02 -0.17864275761E+02  0.50432420621E+02  0.10566000000E+00 0.  1.
         22    1    1    0    0    0 -0.47560026108E+00  0.24177512192E+02  0.20211813401E+02  0.31516593920E+02  0.00000000000E+00 0.  1.
</event>
<event>
 5    1  0.1325832E-009  0.9118800E+02  0.7818608E-02  0.1130116E+00
         25   -1    0    0    0    0  0.00000000000E+00  0.00000000000E+00  0.99999998245E-14  0.12500000000E+03  0.12500000000E+03 0.  0.
        -13    1    3    3    0    0  0.11820762412E+02  0.34347334620E+02 -0.13125333066E+02  0.38623248849E+02  0.10566000000E+00 0. -1.
         23    2    1    0    0    0 -0.84768374205E+01 -0.35455836793E+01  0.26416729376E+02  0.97030882617E+02  0.92912435412E+02 0.  0.
         13    1    3    3    0    0 -0.20297599832E+02 -0.37892918300E+02  0.39542062442E+02  0.58407633768E+02  0.10566000000E+00 0.  1.
         22    1    1    0    0    0  0.84768374205E+01  0.35455836793E+01 -0.26416729376E+02  0.27969117383E+02  0.00000000000E+00 0.  1.
</event>
<event>
 5    1  0.1325832E-009  0.9118800E+02  0.7818608E-02  0.1130116E+00
         25   -1    0    0    0    0  0.00000000000E+00  0.00000000000E+00  0.99999998245E-14  0.12500000000E+03  0.12500000000E+03 0.  0.
        -13    1    3    3    0    0  0.12392264752E+02 -0.26974645180E+02 -0.44771421595E+02  0.53718628649E+02  0.10566000000E+00 0.  1.
         23    2    1    0    0    0 -0.14462926812E+02 -0.20027214621E+02 -0.96379109863E+01  0.98482931805E+02  0.94845837817E+02 0.  0.
         13    1    3    3    0    0 -0.26855191564E+02  0.69474305589E+01  0.35133510609E+02  0.44764303156E+02  0.10566000000E+00 0. -1.
         22    1    1    0    0    0  0.14462926812E+02  0.20027214621E+02  0.96379109863E+01  0.26517068195E+02  0.00000000000E+00 0.  1.
</event>
<event>
 5    1  0.1325832E-009  0.9118800E+02  0.7818608E-02  0.1130116E+00
         25   -1    0    0    0    0  0.00000000000E+00  0.00000000000E+00  0.99999998245E-14  0.12500000000E+03  0.12500000000E+03 0.  0.
        -13    1    3    3    0    0  0.36629175722E+01  0.46462148352E+02 -0.23914872663E+02  0.52383971720E+02  0.10566000000E+00 0.  1.
         23    2    1    0    0    0  0.24296517401E+02  0.37986081034E+02 -0.95738310483E+01  0.78903130788E+02  0.64037353920E+02 0.  0.
         13    1    3    3    0    0  0.20633599829E+02 -0.84760673181E+01  0.14341041614E+02  0.26519159068E+02  0.10566000000E+00 0. -1.
         22    1    1    0    0    0 -0.24296517401E+02 -0.37986081034E+02  0.95738310483E+01  0.46096869212E+02  0.00000000000E+00 0.  1.
</event>
<event>
 5    1  0.1325832E-009  0.9118800E+02  0.7818608E-02  0.1130116E+00
         25   -1    0    0    0    0  0.00000000000E+00  0.00000000000E+00  0.99999998245E-14  0.12500000000E+03  0.12500000000E+03 0.  0.
        -13    1    3    3    0    0  0.33412737365E+01  0.18593287666E+02  0.31291288811E+02  0.36551749287E+02  0.10566000000E+00 0.  1.
         23    2    1    0    0    0 -0.25506064418E+02  0.17624353558E+00 -0.15971633599E+02  0.94905424680E+02  0.90007533962E+02 0.  0.
         13    1    3    3    0    0 -0.28847338154E+02 -0.18417044131E+02 -0.47262922410E+02  0.58353675393E+02  0.10566000000E+00 0. -1.
         22    1    1    0    0    0  0.25506064418E+02 -0.17624353558E+00  0.15971633599E+02  0.30094575320E+02  0.00000000000E+00 0. -1.
</event>
<event>
 5    1  0.1325832E-009  0.9118800E+02  0.7818608E-02  0.1130116E+00
         25   -1    0    0    0    0  0.00000000000E+00  0.00000000000E+00  0.99999998245E-14  0.12500000000E+03  0.12500000000E+03 0.  0.
        -13    1    3    3    0    0 -0.44429949319E+02  0.25374588378E+02  0.13564943024E+02  0.52933061267E+02  0.10566000000E+00 0.  1.
         23    2    1    0    0    0 -0.30531274240E+01  0.28880027444E+02  0.83370089075E+01  0.94786041475E+02  0.89841584852E+02 0.  0.
         13    1    3    3    0    0  0.41376821894E+02  0.35054390659E+01 -0.52279341164E+01  0.41852980208E+02  0.10566000000E+00 0. -1.
         22    1    1    0    0    0  0.30531274240E+01 -0.28880027444E+02 -0.83370089075E+01  0.30213958525E+02  0.00000000000E+00 0.  1.
</event>
<event>
 5    1  0.1325832E-009  0.9118800E+02  0.7818608E-02  0.1130116E+00
         25   -1    0    0    0    0  0.00000000000E+00  0.00000000000E+00  0.99999998245E-14  0.12500000000E+03  0.12500000000E+03 0.  0.
        -13    1    3    3    0    0  0.23554887676E+02  0.22278323285E+02  0.22140546090E+02  0.39260302686E+02  0.10566000000E+00 0. -1.
         23    2    1    0    0    0  0.34641517436E+01  0.74423057028E+01 -0.28293591645E+02  0.95539592847E+02  0.90883982151E+02 0.  0.
         13    1    3    3    0    0 -0.20090735932E+02 -0.14836017582E+02 -0.50434137734E+02  0.56279290161E+02  0.10566000000E+00 0.  1.
         22    1    1    0    0    0 -0.34641517436E+01 -0.74423057028E+01  0.28293591645E+02  0.29460407153E+02  0.00000000000E+00 0.  1.
</event>
<event>
 5    1  0.1325832E-009  0.9118800E+02  0.7818608E-02  0.1130116E+00
         25   -1    0    0    0    0  0.00000000000E+00  0.00000000000E+00  0.99999998245E-14  0.12500000000E+03  0.12500000000E+03 0.  0.
        -13    1    3    3    0    0  0.24614674226E+02 -0.35533096632E+01  0.19358363031E+02  0.31516116196E+02  0.10566000000E+00 0. -1.
         23    2    1    0    0    0 -0.15427024666E+02  0.14859608755E+02 -0.23647065955E+02  0.93094126079E+02  0.87455883277E+02 0.  0.
         13    1    3    3    0    0 -0.40041698892E+02  0.18412918418E+02 -0.43005428986E+02  0.61578009883E+02  0.10566000000E+00 0.  1.
         22    1    1    0    0    0  0.15427024666E+02 -0.14859608755E+02  0.23647065955E+02  0.31905873921E+02  0.00000000000E+00 0.  1.
</event>
<event>
 5    1  0.1325832E-009  0.9118800E+02  0.7818608E-02  0.1130116E+00
         25   -1    0    0    0    0  0.00000000000E+00  0.00000000000E+00  0.99999998245E-14  0.12500000000E+03  0.12500000000E+03 0.  0.
        -13    1    3    3    0    0 -0.86319253745E+00 -0.36712341117E+02  0.33449177925E+02  0.49672927833E+02  0.10566000000E+00 0.  1.
         23    2    1    0    0    0 -0.26712081017E+02 -0.60859130785E+01  0.12690565326E+02  0.94806887233E+02  0.89870583665E+02 0.  0.
         13    1    3    3    0    0 -0.25848888480E+02  0.30626428038E+02 -0.20758612599E+02  0.45133959400E+02  0.10566000000E+00 0. -1.
         22    1    1    0    0    0  0.26712081017E+02  0.60859130785E+01 -0.12690565326E+02  0.30193112767E+02  0.00000000000E+00 0. -1.
</event>
<event>
 5    1  0.1325832E-009  0.9118800E+02  0.7818608E-02  0.1130116E+00
         25   -1    0    0    0    0  0.00000000000E+00  0.00000000000E+00  0.99999998245E-14  0.12500000000E+03  0.12500000000E+03 0.  0.
        -13    1    3    3    0    0 -0.51289362059E+02 -0.22448541830E+02  0.19881465380E+02  0.59412284255E+02  0.10566000000E+00 0. -1.
         23    2    1    0    0    0 -0.16018595269E+02 -0.11949941125E+02  0.20707201213E+02  0.96221802187E+02  0.91817484973E+02 0.  0.
         13    1    3    3    0    0  0.35270766790E+02  0.10498600705E+02  0.82573583296E+00  0.36809517932E+02  0.10566000000E+00 0.  1.
         22    1    1    0    0    0  0.16018595269E+02  0.11949941125E+02 -0.20707201213E+02  0.28778197813E+02  0.00000000000E+00 0. -1.
</event>
<event>
 5    1  0.1325832E-009  0.9118800E+02  0.7818608E-02  0.1130116E+00
         25   -1    0    0    0    0  0.00000000000E+00  0.00000000000E+00  0.99999998245E-14  0.12500000000E+03  0.12500000000E+03 0.  0.
        -13    1    3    3    0    0 -0.19066391302E+02 -0.27715100382E+02  0.40389526526E+02  0.52564047442E+02  0.10566000000E+00 0. -1.
         23    2    1    0    0    0 -0.27881832979E+02 -0.12632928940E+02  0.24990929040E+01  0.94287901908E+02  0.89145810204E+02 0.  0.
         13    1    3    3    0    0 -0.88154416770E+01  0.15082171441E+02 -0.37890433622E+02  0.41723854466E+02  0.10566000000E+00 0.  1.
         22    1    1    0    0    0  0.27881832979E+02  0.12632928940E+02 -0.24990929040E+01  0.30712098092E+02  0.00000000000E+00 0. -1.
</event>
<event>
 5    1  0.1325832E-009  0.9118800E+02  0.7818608E-02  0.1130116E+00
         25   -1    0    0    0    0  0.00000000000E+00  0.00000000000E+00  0.99999998245E-14  0.12500000000E+03  0.12500000000E+03 0.  0.
        -13    1    3    3    0    0  0.30252359184E+02  0.23520619437E+02  0.19820271738E+02  0.43142544092E+02  0.10566000000E+00 0.  1.
         23    2    1    0    0    0  0.50054988287E+01  0.18345966604E+02 -0.24242518412E+02  0.94188813588E+02  0.89006760401E+02 0.  0.
         13    1    3    3    0    0 -0.25246860355E+02 -0.51746528333E+01 -0.44062790150E+02  0.51046269497E+02  0.10566000000E+00 0. -1.
         22    1    1    0    0    0 -0.50054988287E+01 -0.18345966604E+02  0.24242518412E+02  0.30811186412E+02  0.00000000000E+00 0. -1.
</event>
<event>
 5    1  0.1325832E-009  0.9118800E+02  0.7818608E-02  0.1130116E+00
         25   -1    0    0    0    0  0.00000000000E+00  0.00000000000E+00  0.99999998245E-14  0.12500000000E+03  0.12500000000E+03 0.  0.
        -13    1    3    3    0    0  0.25218304129E+02 -0.64405163257E+01 -0.31485181169E+02  0.40850592541E+02  0.10566000000E+00 0.  1.
         23    2    1    0    0    0 -0.11260695612E+02 -0.26520519325E+02  0.44414834772E+01  0.95847504628E+02  0.91306495700E+02 0.  0.
         13    1    3    3    0    0 -0.36478999741E+02 -0.20080002999E+02  0.35926664646E+02  0.54996912087E+02  0.10566000000E+00 0. -1.
         22    1    1    0    0    0  0.11260695612E+02  0.26520519325E+02 -0.44414834772E+01  0.29152495372E+02  0.00000000000E+00 0. -1.
</event>
<event>
 5    1  0.1325832E-009  0.9118800E+02  0.7818608E-02  0.1130116E+00
         25   -1    0    0    0    0  0.00000000000E+00  0.00000000000E+00  0.99999998245E-14  0.12500000000E+03  0.12500000000E+03 0.  0.
        -13    1    3    3    0    0  0.23936436824E+02  0.20723774698E+02 -0.23876519533E+02  0.39655103008E+02  0.10566000000E+00 0.  1.
         23    2    1    0    0    0  0.10644855765E+02  0.11675883691E+01  0.27106615730E+02  0.95854763113E+02  0.91316432138E+02 0.  0.
         13    1    3    3    0    0 -0.13291581059E+02 -0.19556186329E+02  0.50983135262E+02  0.56199660105E+02  0.10566000000E+00 0. -1.
         22    1    1    0    0    0 -0.10644855765E+02 -0.11675883691E+01 -0.27106615730E+02  0.29145236887E+02  0.00000000000E+00 0. -1.
</event>
<event>
 5    1  0.1325832E-009  0.9118800E+02  0.7818608E-02  0.1130116E+00
         25   -1    0    0    0    0  0.00000000000E+00  0.00000000000E+00  0.99999998245E-14  0.12500000000E+03  0.12500000000E+03 0.  0.
        -13    1    3    3    0    0 -0.51586181733E+02  0.15155467272E+02 -0.95878850338E+00  0.53775019976E+02  0.10566000000E+00 0.  1.
         23    2    1    0    0    0 -0.16570657886E+02  0.14663743992E+02  0.20491806559E+02  0.94841647480E+02  0.89918918310E+02 0.  0.
         13    1    3    3    0    0  0.35015523846E+02 -0.49172327974E+00  0.21450595062E+02  0.41066627504E+02  0.10566000000E+00 0. -1.
         22    1    1    0    0    0  0.16570657886E+02 -0.14663743992E+02 -0.20491806559E+02  0.30158352520E+02  0.00000000000E+00 0.  1.
</event>
<event>
 5    1  0.1325832E-009  0.9118800E+02  0.7818608E-02  0.1130116E+00
         25   -1    0    0    0    0  0.00000000000E+00  0.00000000000E+00  0.99999998245E-14  0.12500000000E+03  0.12500000000E+03 0.  0.
        -13    1    3    3    0    0  0.29945441983E+02 -0.27254325141E+02  0.42266784210E+02  0.58532212891E+02  0.10566000000E+00 0.  1.
         23    2    1    0    0    0 -0.31500467420E+00 -0.13816537547E+02  0.26297420558E+02  0.95292252429E+02  0.90543156049E+02 0.  0.
         13    1    3    3    0    0 -0.30260446657E+02  0.13437787594E+02 -0.15969363652E+02  0.36760039538E+02  0.10566000000E+00 0. -1.
         22    1    1    0    0    0  0.31500467420E+00  0.13816537547E+02 -0.26297420558E+02  0.29707747571E+02  0.00000000000E+00 0.  1.
</event>
<event>
 5    1  0.1325832E-009  0.9118800E+02  0.7818608E-02  0.1130116E+00
         25   -1    0    0    0    0  0.00000000000E+00  0.00000000000E+00  0.99999998245E-14  0.12500000000E+03  0.12500000000E+03 0.  0.
        -13    1    3    3    0    0 -0.48969792289E+02  0.21172090563E+02 -0.19249798880E+02  0.56717403824E+02  0.10566000000E+00 0. -1.
         23    2    1    0    0    0 -0.26247076126E+02 -0.86900495503E+01 -0.47454173788E+01  0.96947460855E+02  0.92800135850E+02 0.  0.
         13    1    3    3    0    0  0.22722716163E+02 -0.29862140113E+02  0.14504381501E+02  0.40230057031E+02  0.10566000000E+00 0.  1.
         22    1    1    0    0    0  0.26247076126E+02  0.86900495503E+01  0.47454173788E+01  0.28052539145E+02  0.00000000000E+00 0. -1.
</event>
<event>
 5    1  0.1325832E-009  0.9118800E+02  0.7818608E-02  0.1130116E+00
         25   -1    0    0    0    0  0.00000000000E+00  0.00000000000E+00  0.99999998245E-14  0.12500000000E+03  0.12500000000E+03 0.  0.
        -13    1    3    3    0    0 -0.18138327948E+02 -0.49940551417E+02 -0.24761603895E+02  0.58619159053E+02  0.10566000000E+00 0.  1.
         23    2    1    0    0    0  0.44782405440E+01 -0.26719215108E+02 -0.28212332319E+01  0.97761599693E+02  0.93890361183E+02 0.  0.
         13    1    3    3    0    0  0.22616568492E+02  0.23221336309E+02  0.21940370663E+02  0.39142440639E+02  0.10566000000E+00 0. -1.
         22    1    1    0    0    0 -0.44782405440E+01  0.26719215108E+02  0.28212332319E+01  0.27238400307E+02  0.00000000000E+00 0.  1.
</event>
<event>
 5    1  0.1325832E-009  0.9118800E+02  0.7818608E-02  0.1130116E+00
         25   -1    0    0    0    0  0.00000000000E+00  0.00000000000E+00  0.99999998245E-14  0.12500000000E+03  0.12500000000E+03 0.  0.
        -13    1    3    3    0    0  0.92608588078E+01 -0.29273107664E+02  0.11684184079E+02  0.32851326607E+02  0.10566000000E+00 0. -1.
         23    2    1    0    0    0  0.23763677913E+02  0.21907243537E+02 -0.11245890806E+02  0.90778518920E+02  0.84081090204E+02 0.  0.
         13    1    3    3    0    0  0.14502819105E+02  0.51180351201E+02 -0.22930074885E+02  0.57927192313E+02  0.10566000000E+00 0.  1.
         22    1    1    0    0    0 -0.23763677913E+02 -0.21907243537E+02  0.11245890806E+02  0.34221481080E+02  0.00000000000E+00 0.  1.
</event>
<event>
 5    1  0.1325832E-009  0.9118800E+02  0.7818608E-02  0.1130116E+00
         25   -1    0    0    0    0  0.00000000000E+00  0.00000000000E+00  0.99999998245E-14  0.12500000000E+03  0.12500000000E+03 0.  0.
        -13    1    3    3    0    0 -0.20327740996E+02  0.29353721906E+02  0.19386783189E+02  0.40629011435E+02  0.10566000000E+00 0. -1.
         23    2    1    0    0    0  0.17153779682E+02  0.15582776794E+02 -0.18249947953E+02  0.95501937517E+02  0.90832177003E+02 0.  0.
         13    1    3    3    0    0  0.37481520678E+02 -0.13770945113E+02 -0.37636731142E+02  0.54872926081E+02  0.10566000000E+00 0.  1.
         22    1    1    0    0    0 -0.17153779682E+02 -0.15582776794E+02  0.18249947953E+02  0.29498062483E+02  0.00000000000E+00 0.  1.
</event>
<event>
 5    1  0.1325832E-009  0.9118800E+02  0.7818608E-02  0.1130116E+00
         25   -1    0    0    0    0  0.00000000000E+00  0.00000000000E+00  0.99999998245E-14  0.12500000000E+03  0.12500000000E+03 0.  0.
        -13    1    3    3    0    0 -0.63520713687E+01  0.29982938966E+01 -0.32327993364E+02  0.33082456014E+02  0.10566000000E+00 0. -1.
         23    2    1    0    0    0  0.10847299228E+02  0.44034108839E+01  0.27373570194E+02  0.95228095910E+02  0.90454540944E+02 0.  0.
         13    1    3    3    0    0  0.17199370597E+02  0.14051169873E+01  0.59701563558E+02  0.62145639896E+02  0.10566000000E+00 0.  1.
         22    1    1    0    0    0 -0.10847299228E+02 -0.44034108839E+01 -0.27373570194E+02  0.29771904090E+02  0.00000000000E+00 0.  1.
</event>
<event>
 5    1  0.1325832E-009  0.9118800E+02  0.7818608E-02  0.1130116E+00
         25   -1    0    0    0    0  0.00000000000E+00  0.00000000000E+00  0.99999998245E-14  0.12500000000E+03  0.12500000000E+03 0.  0.
        -13    1    3    3    0    0 -0.15387505183E+02 -0.19434652163E+02  0.46183998819E+02  0.52416160975E+02  0.10566000000E+00 0. -1.
         23    2    1    0    0    0 -0.25766514829E+02  0.57438488884E+01  0.12333602965E+02  0.95862003353E+02  0.91326342521E+02 0.  0.
         13    1    3    3    0    0 -0.10379009646E+02  0.25178501051E+02 -0.33850395854E+02  0.43445842378E+02  0.10566000000E+00 0.  1.
         22    1    1    0    0    0  0.25766514829E+02 -0.57438488884E+01 -0.12333602965E+02  0.29137996647E+02  0.00000000000E+00 0. -1.
</event>
<event>
 5    1  0.1325832E-009  0.9118800E+02  0.7818608E-02  0.1130116E+00
         25   -1    0    0    0    0  0.00000000000E+00  0.00000000000E+00  0.99999998245E-14  0.12500000000E+03  0.12500000000E+03 0.  0.
        -13    1    3    3    0    0  0.80335019273E+01  0.32558776582E+02 -0.34008802248E+02  0.47762128094E+02  0.10566000000E+00 0. -1.
         23    2    1    0    0    0  0.11100058350E+02  0.24544765297E+02  0.12675652188E+02  0.95228722613E+02  0.90455406988E+02 0.  0.
         13    1    3    3    0    0  0.30665564228E+01 -0.80140112856E+01  0.46684454436E+02  0.47466594519E+02  0.10566000000E+00 0.  1.
         22    1    1    0    0    0 -0.11100058350E+02 -0.24544765297E+02 -0.12675652188E+02  0.29771277387E+02  0.00000000000E+00 0.  1.
</event>
<event>
 5    1  0.1325832E-009  0.9118800E+02  0.7818608E-02  0.1130116E+00
         25   -1    0    0    0    0  0.00000000000E+00  0.00000000000E+00  0.99999998245E-14  0.12500000000E+03  0.12500000000E+03 0.  0.
        -13    1    3    3    0    0  0.41490264670E+02  0.38203733364E+02 -0.16581971455E+02  0.58787245612E+02  0.10566000000E+00 0. -1.
         23    2    1    0    0    0  0.21757593657E+02  0.82005055301E+01 -0.19273670506E+02  0.94798749240E+02  0.89859263908E+02 0.  0.
         13    1    3    3    0    0 -0.19732671013E+02 -0.30003227834E+02 -0.26916990511E+01  0.36011503628E+02  0.10566000000E+00 0.  1.
         22    1    1    0    0    0 -0.21757593657E+02 -0.82005055301E+01  0.19273670506E+02  0.30201250760E+02  0.00000000000E+00 0. -1.
</event>
<event>
 5    1  0.1325832E-009  0.9118800E+02  0.7818608E-02  0.1130116E+00
         25   -1    0    0    0    0  0.00000000000E+00  0.00000000000E+00  0.99999998245E-14  0.12500000000E+03  0.12500000000E+03 0.  0.
        -13    1    3    3    0    0 -0.27414614339E+02  0.27275494175E+02  0.31347394021E+02  0.49781361349E+02  0.10566000000E+00 0. -1.
         23    2    1    0    0    0  0.13249195579E+02  0.66845214676E+01  0.25173844014E+02  0.95777638131E+02  0.91210797238E+02 0.  0.
         13    1    3    3    0    0  0.40663809918E+02 -0.20590972707E+02 -0.61735500066E+01  0.45996276782E+02  0.10566000000E+00 0.  1.
         22    1    1    0    0    0 -0.13249195579E+02 -0.66845214676E+01 -0.25173844014E+02  0.29222361869E+02  0.00000000000E+00 0. -1.
</event>
<event>
 5    1  0.1325832E-009  0.9118800E+02  0.7818608E-02  0.1130116E+00
         25   -1    0    0    0    0  0.00000000000E+00  0.00000000000E+00  0.99999998245E-14  0.12500000000E+03  0.12500000000E+03 0.  0.
        -13    1    3    3    0    0 -0.13010414350E+02 -0.34201110848E+02  0.46508680947E+02  0.59178166854E+02  0.10566000000E+00 0. -1.
         23    2    1    0    0    0 -0.15122607103E+02 -0.22219937482E+02  0.12384828782E+02  0.95406033532E+02  0.90700101340E+02 0.  0.
         13    1    3    3    0    0 -0.21121927531E+01  0.11981173366E+02 -0.34123852165E+02  0.36227866678E+02  0.10566000000E+00 0.  1.
         22    1    1    0    0    0  0.15122607103E+02  0.22219937482E+02 -0.12384828782E+02  0.29593966468E+02  0.00000000000E+00 0. -1.
</event>
<event>
 5    1  0.1325832E-009  0.9118800E+02  0.7818608E-02  0.1130116E+00
         25   -1    0    0    0    0  0.00000000000E+00  0.00000000000E+00  0.99999998245E-14  0.12500000000E+03  0.12500000000E+03 0.  0.
        -13    1    3    3    0    0  0.16789926478E+02  0.32645665041E+02 -0.43074836503E+02  0.56595881307E+02  0.10566000000E+00 0.  1.
         23    2    1    0    0    0  0.11337969305E+00  0.63240040513E+00 -0.30008477255E+02  0.94984645722E+02  0.90117486819E+02 0.  0.
         13    1    3    3    0    0 -0.16676546785E+02 -0.32013264636E+02  0.13066359248E+02  0.38388764415E+02  0.10566000000E+00 0. -1.
         22    1    1    0    0    0 -0.11337969305E+00 -0.63240040513E+00  0.30008477255E+02  0.30015354278E+02  0.00000000000E+00 0.  1.
</event>
<event>
 5    1  0.1325832E-009  0.9118800E+02  0.7818608E-02  0.1130116E+00
         25   -1    0    0    0    0  0.00000000000E+00  0.00000000000E+00  0.99999998245E-14  0.12500000000E+03  0.12500000000E+03 0.  0.
        -13    1    3    3    0    0 -0.28729881979E+02  0.45234215569E+02 -0.28371345090E+02  0.60634023146E+02  0.10566000000E+00 0. -1.
         23    2    1    0    0    0 -0.28267244390E+02  0.25612361564E+02 -0.18402489431E+02  0.82648119434E+02  0.70972035750E+02 0.  0.
         13    1    3    3    0    0  0.46263758901E+00 -0.19621854006E+02  0.99688556591E+01  0.22014096287E+02  0.10566000000E+00 0.  1.
         22    1    1    0    0    0  0.28267244390E+02 -0.25612361564E+02  0.18402489431E+02  0.42351880566E+02  0.00000000000E+00 0. -1.
</event>
<event>
 5    1  0.1325832E-009  0.9118800E+02  0.7818608E-02  0.1130116E+00
         25   -1    0    0    0    0  0.00000000000E+00  0.00000000000E+00  0.99999998245E-14  0.12500000000E+03  0.12500000000E+03 0.  0.
        -13    1    3    3    0    0 -0.20723585655E+02  0.40169428635E+02  0.22193527000E+02  0.50354878652E+02  0.10566000000E+00 0.  1.
         23    2    1    0    0    0 -0.29627003399E+02  0.52184109331E+01 -0.36085497381E+01  0.94701274379E+02  0.89723567666E+02 0.  0.
         13    1    3    3    0    0 -0.89034177435E+01 -0.34951017702E+02 -0.25802076738E+02  0.44346395727E+02  0.10566000000E+00 0. -1.
         22    1    1    0    0    0  0.29627003399E+02 -0.52184109331E+01  0.36085497381E+01  0.30298725621E+02  0.00000000000E+00 0.  1.
</event>
<event>
 5    1  0.1325832E-009  0.9118800E+02  0.7818608E-02  0.1130116E+00
         25   -1    0    0    0    0  0.00000000000E+00  0.00000000000E+00  0.99999998245E-14  0.12500000000E+03  0.12500000000E+03 0.  0.
        -13    1    3    3    0    0  0.52786638256E+02 -0.37937994487E+01  0.33208482169E+02  0.62479088859E+02  0.10566000000E+00 0.  1.
         23    2    1    0    0    0  0.24245258811E+02 -0.15744662146E+01  0.16576699962E+02  0.95587443152E+02  0.90949770687E+02 0.  0.
         13    1    3    3    0    0 -0.28541379444E+02  0.22193332341E+01 -0.16631782207E+02  0.33108354293E+02  0.10566000000E+00 0. -1.
         22    1    1    0    0    0 -0.24245258811E+02  0.15744662146E+01 -0.16576699962E+02  0.29412556848E+02  0.00000000000E+00 0.  1.
</event>
<event>
 5    1  0.1325832E-009  0.9118800E+02  0.7818608E-02  0.1130116E+00
         25   -1    0    0    0    0  0.00000000000E+00  0.00000000000E+00  0.99999998245E-14  0.12500000000E+03  0.12500000000E+03 0.  0.
        -13    1    3    3    0    0 -0.91560550482E+00  0.41727414761E+02  0.33367100755E+02  0.53435849885E+02  0.10566000000E+00 0.  1.
         23    2    1    0    0    0 -0.65424060490E+01  0.32071734939E+02 -0.36140380363E+01  0.92068851677E+02  0.85977979270E+02 0.  0.
         13    1    3    3    0    0 -0.56268005442E+01 -0.96556798217E+01 -0.36981138791E+02  0.38633001793E+02  0.10566000000E+00 0. -1.
         22    1    1    0    0    0  0.65424060490E+01 -0.32071734939E+02  0.36140380363E+01  0.32931148323E+02  0.00000000000E+00 0.  1.
</event>
<event>
 5    1  0.1325832E-009  0.9118800E+02  0.7818608E-02  0.1130116E+00
         25   -1    0    0    0    0  0.00000000000E+00  0.00000000000E+00  0.99999998245E-14  0.12500000000E+03  0.12500000000E+03 0.  0.
        -13    1    3    3    0    0  0.26550068432E+02 -0.30586163768E+02 -0.28880895691E+01  0.40605070781E+02  0.10566000000E+00 0. -1.
         23    2    1    0    0    0  0.23645015825E+01  0.13567760294E+02  0.23737665941E+02  0.97556389242E+02  0.93616757637E+02 0.  0.
         13    1    3    3    0    0 -0.24185566849E+02  0.44153924062E+02  0.26625755510E+02  0.56951318460E+02  0.10566000000E+00 0.  1.
         22    1    1    0    0    0 -0.23645015825E+01 -0.13567760294E+02 -0.23737665941E+02  0.27443610758E+02  0.00000000000E+00 0. -1.
</event>
<event>
 4    1  0.1325832E-009  0.9118800E+02  0.7818608E-02  0.1130116E+00
         25   -1    0    0    0    0  0.00000000000E+00  0.00000000000E+00  0.99999998245E-14  0.12500000000E+03  0.12500000000E+03 0.  0.
        -13    1    1    0    0    0 -0.18769464195E+02 -0.37771134073E+02 -0.18578473787E+02  0.46088200308E+02  0.10566000000E+00 0.  1.
         13    1    1    0    0    0 -0.17648617392E+02  0.15243535597E+02 -0.12062878608E+02  0.26255728473E+02  0.10566000000E+00 0. -1.
         22    1    1    0    0    0  0.36418081587E+02  0.22527598477E+02  0.30641352395E+02  0.52656071219E+02  0.00000000000E+00 0.  1.
</event>
<event>
 5    1  0.1325832E-009  0.9118800E+02  0.7818608E-02  0.1130116E+00
         25   -1    0    0    0    0  0.00000000000E+00  0.00000000000E+00  0.99999998245E-14  0.12500000000E+03  0.12500000000E+03 0.  0.
        -13    1    3    3    0    0  0.38225024367E+02 -0.12896343813E+02 -0.43243973016E+02  0.59139838839E+02  0.10566000000E+00 0. -1.
         23    2    1    0    0    0  0.84929901336E+01  0.22315346134E+01 -0.27697034076E+02  0.95944254876E+02  0.91438852349E+02 0.  0.
         13    1    3    3    0    0 -0.29732034234E+02  0.15127878427E+02  0.15546938940E+02  0.36804416037E+02  0.10566000000E+00 0.  1.
         22    1    1    0    0    0 -0.84929901336E+01 -0.22315346134E+01  0.27697034076E+02  0.29055745124E+02  0.00000000000E+00 0. -1.
</event>
<event>
 5    1  0.1325832E-009  0.9118800E+02  0.7818608E-02  0.1130116E+00
         25   -1    0    0    0    0  0.00000000000E+00  0.00000000000E+00  0.99999998245E-14  0.12500000000E+03  0.12500000000E+03 0.  0.
        -13    1    3    3    0    0  0.34478911837E+02 -0.34892292556E+02  0.25667611760E+02  0.55363389517E+02  0.10566000000E+00 0. -1.
         23    2    1    0    0    0  0.29085272749E+02 -0.22370157139E+01  0.25866175237E+01  0.95714373485E+02  0.91124054844E+02 0.  0.
         13    1    3    3    0    0 -0.53936390883E+01  0.32655276842E+02 -0.23080994237E+02  0.40350983968E+02  0.10566000000E+00 0.  1.
         22    1    1    0    0    0 -0.29085272749E+02  0.22370157139E+01 -0.25866175237E+01  0.29285626515E+02  0.00000000000E+00 0. -1.
</event>
<event>
 5    1  0.1325832E-009  0.9118800E+02  0.7818608E-02  0.1130116E+00
         25   -1    0    0    0    0  0.00000000000E+00  0.00000000000E+00  0.99999998245E-14  0.12500000000E+03  0.12500000000E+03 0.  0.
        -13    1    3    3    0    0  0.48504024606E+02  0.19628194402E+02  0.24984556031E+02  0.57984011784E+02  0.10566000000E+00 0.  1.
         23    2    1    0    0    0  0.20333161709E+02 -0.40342976078E+01  0.21808980104E+02  0.94911054597E+02  0.90015352298E+02 0.  0.
         13    1    3    3    0    0 -0.28170862897E+02 -0.23662492009E+02 -0.31755759262E+01  0.36927042814E+02  0.10566000000E+00 0. -1.
         22    1    1    0    0    0 -0.20333161709E+02  0.40342976078E+01 -0.21808980104E+02  0.30088945403E+02  0.00000000000E+00 0.  1.
</event>
<event>
 5    1  0.1325832E-009  0.9118800E+02  0.7818608E-02  0.1130116E+00
         25   -1    0    0    0    0  0.00000000000E+00  0.00000000000E+00  0.99999998245E-14  0.12500000000E+03  0.12500000000E+03 0.  0.
        -13    1    3    3    0    0 -0.35207678093E+02  0.12018221354E+02 -0.33098181050E+02  0.49794768742E+02  0.10566000000E+00 0.  1.
         23    2    1    0    0    0 -0.15951939781E+02 -0.22465756896E+02 -0.92334071666E+01  0.95940914956E+02  0.91434286452E+02 0.  0.
         13    1    3    3    0    0  0.19255738311E+02 -0.34483978250E+02  0.23864773883E+02  0.46146146214E+02  0.10566000000E+00 0. -1.
         22    1    1    0    0    0  0.15951939781E+02  0.22465756896E+02  0.92334071666E+01  0.29059085044E+02  0.00000000000E+00 0. -1.
</event>
<event>
 5    1  0.1325832E-009  0.9118800E+02  0.7818608E-02  0.1130116E+00
         25   -1    0    0    0    0  0.00000000000E+00  0.00000000000E+00  0.99999998245E-14  0.12500000000E+03  0.12500000000E+03 0.  0.
        -13    1    3    3    0    0 -0.33647953911E+02 -0.24579415527E+01  0.51134291683E+02  0.61261351838E+02  0.10566000000E+00 0.  1.
         23    2    1    0    0    0 -0.18185627769E+02 -0.91348026694E+01  0.21171762727E+02  0.95633263475E+02  0.91012723664E+02 0.  0.
         13    1    3    3    0    0  0.15462326142E+02 -0.66768611168E+01 -0.29962528956E+02  0.34371911637E+02  0.10566000000E+00 0. -1.
         22    1    1    0    0    0  0.18185627769E+02  0.91348026694E+01 -0.21171762727E+02  0.29366736525E+02  0.00000000000E+00 0.  1.
</event>
<event>
 5    1  0.1325832E-009  0.9118800E+02  0.7818608E-02  0.1130116E+00
         25   -1    0    0    0    0  0.00000000000E+00  0.00000000000E+00  0.99999998245E-14  0.12500000000E+03  0.12500000000E+03 0.  0.
        -13    1    3    3    0    0 -0.77683886245E+01  0.42164355360E+01  0.36441798876E+02  0.37498560770E+02  0.10566000000E+00 0. -1.
         23    2    1    0    0    0 -0.18917335452E+02 -0.58733934694E+01 -0.20560035916E+02  0.96450439437E+02  0.92128225096E+02 0.  0.
         13    1    3    3    0    0 -0.11148946828E+02 -0.10089829005E+02 -0.57001834792E+02  0.58951878667E+02  0.10566000000E+00 0.  1.
         22    1    1    0    0    0  0.18917335452E+02  0.58733934694E+01  0.20560035916E+02  0.28549560563E+02  0.00000000000E+00 0.  1.
</event>
<event>
 5    1  0.1325832E-009  0.9118800E+02  0.7818608E-02  0.1130116E+00
         25   -1    0    0    0    0  0.00000000000E+00  0.00000000000E+00  0.99999998245E-14  0.12500000000E+03  0.12500000000E+03 0.  0.
        -13    1    3    3    0    0  0.49960594402E+00 -0.40807534830E+02 -0.74847944896E+01  0.41491418602E+02  0.10566000000E+00 0.  1.
         23    2    1    0    0    0  0.26976191794E+02  0.74184217842E+01 -0.51162580668E+01  0.96558410697E+02  0.92274604709E+02 0.  0.
         13    1    3    3    0    0  0.26476585850E+02  0.48225956614E+02  0.23685364227E+01  0.55066992095E+02  0.10566000000E+00 0. -1.
         22    1    1    0    0    0 -0.26976191794E+02 -0.74184217842E+01  0.51162580668E+01  0.28441589303E+02  0.00000000000E+00 0. -1.
</event>
<event>
 5    1  0.1325832E-009  0.9118800E+02  0.7818608E-02  0.1130116E+00
         25   -1    0    0    0    0  0.00000000000E+00  0.00000000000E+00  0.99999998245E-14  0.12500000000E+03  0.12500000000E+03 0.  0.
        -13    1    3    3    0    0 -0.38273489715E+02  0.16597929559E+02  0.38485452120E+02  0.56758192973E+02  0.10566000000E+00 0. -1.
         23    2    1    0    0    0 -0.25070064680E+02  0.17772590513E+02  0.36221334159E+01  0.94056616748E+02  0.88820910753E+02 0.  0.
         13    1    3    3    0    0  0.13203425035E+02  0.11746609542E+01 -0.34863318704E+02  0.37298423775E+02  0.10566000000E+00 0.  1.
         22    1    1    0    0    0  0.25070064680E+02 -0.17772590513E+02 -0.36221334159E+01  0.30943383252E+02  0.00000000000E+00 0. -1.
</event>
<event>
 5    1  0.1325832E-009  0.9118800E+02  0.7818608E-02  0.1130116E+00
         25   -1    0    0    0    0  0.00000000000E+00  0.00000000000E+00  0.99999998245E-14  0.12500000000E+03  0.12500000000E+03 0.  0.
        -13    1    3    3    0    0 -0.35192032859E+02 -0.16175438505E+02  0.16054954811E+02  0.41927279015E+02  0.10566000000E+00 0.  1.
         23    2    1    0    0    0 -0.20583952452E+00  0.26018045591E+02  0.10208991626E+02  0.97049962856E+02  0.92938101520E+02 0.  0.
         13    1    3    3    0    0  0.34986193335E+02  0.42193484097E+02 -0.58459631847E+01  0.55122683841E+02  0.10566000000E+00 0. -1.
         22    1    1    0    0    0  0.20583952452E+00 -0.26018045591E+02 -0.10208991626E+02  0.27950037144E+02  0.00000000000E+00 0. -1.
</event>
<event>
 5    1  0.1325832E-009  0.9118800E+02  0.7818608E-02  0.1130116E+00
         25   -1    0    0    0    0  0.00000000000E+00  0.00000000000E+00  0.99999998245E-14  0.12500000000E+03  0.12500000000E+03 0.  0.
        -13    1    3    3    0    0 -0.10960585960E+02 -0.95743496814E+01  0.44917159369E+02  0.47216151752E+02  0.10566000000E+00 0. -1.
         23    2    1    0    0    0  0.24322150986E+02  0.54552590078E+01  0.14516304391E+02  0.96154723565E+02  0.91726118916E+02 0.  0.
         13    1    3    3    0    0  0.35282736946E+02  0.15029608689E+02 -0.30400854978E+02  0.48938571814E+02  0.10566000000E+00 0.  1.
         22    1    1    0    0    0 -0.24322150986E+02 -0.54552590078E+01 -0.14516304391E+02  0.28845276435E+02  0.00000000000E+00 0.  1.
</event>
<event>
 5    1  0.1325832E-009  0.9118800E+02  0.7818608E-02  0.1130116E+00
         25   -1    0    0    0    0  0.00000000000E+00  0.00000000000E+00  0.99999998245E-14  0.12500000000E+03  0.12500000000E+03 0.  0.
        -13    1    3    3    0    0  0.45332902481E+01 -0.33430860783E+02 -0.18084692328E+02  0.38278459135E+02  0.10566000000E+00 0.  1.
         23    2    1    0    0    0 -0.14952129111E+02 -0.14857425125E+01  0.25302237241E+02  0.95572516160E+02  0.90929252938E+02 0.  0.
         13    1    3    3    0    0 -0.19485419359E+02  0.31945118270E+02  0.43386929569E+02  0.57294057025E+02  0.10566000000E+00 0. -1.
         22    1    1    0    0    0  0.14952129111E+02  0.14857425125E+01 -0.25302237241E+02  0.29427483840E+02  0.00000000000E+00 0. -1.
</event>
<event>
 5    1  0.1325832E-009  0.9118800E+02  0.7818608E-02  0.1130116E+00
         25   -1    0    0    0    0  0.00000000000E+00  0.00000000000E+00  0.99999998245E-14  0.12500000000E+03  0.12500000000E+03 0.  0.
        -13    1    3    3    0    0  0.49904151049E+02  0.31233561672E+01 -0.22188923974E+02  0.54704105485E+02  0.10566000000E+00 0. -1.
         23    2    1    0    0    0  0.17854278847E+02 -0.20248059333E+02 -0.10183846489E+02  0.96147445361E+02  0.91716199988E+02 0.  0.
         13    1    3    3    0    0 -0.32049872202E+02 -0.23371415500E+02  0.12005077485E+02  0.41443339876E+02  0.10566000000E+00 0.  1.
         22    1    1    0    0    0 -0.17854278847E+02  0.20248059333E+02  0.10183846489E+02  0.28852554639E+02  0.00000000000E+00 0. -1.
</event>
<event>
 5    1  0.1325832E-009  0.9118800E+02  0.7818608E-02  0.1130116E+00
         25   -1    0    0    0    0  0.00000000000E+00  0.00000000000E+00  0.99999998245E-14  0.12500000000E+03  0.12500000000E+03 0.  0.
        -13    1    3    3    0    0  0.13378928620E+02  0.32836089277E+02 -0.15843827314E+02  0.38836098131E+02  0.10566000000E+00 0.  1.
         23    2    1    0    0    0 -0.18791961181E+02  0.39371071931E+01  0.21643653466E+02  0.96067555350E+02  0.91607253192E+02 0.  0.
         13    1    3    3    0    0 -0.32170889801E+02 -0.28898982084E+02  0.37487480780E+02  0.57231457219E+02  0.10566000000E+00 0. -1.
         22    1    1    0    0    0  0.18791961181E+02 -0.39371071931E+01 -0.21643653466E+02  0.28932444650E+02  0.00000000000E+00 0. -1.
</event>
<event>
 5    1  0.1325832E-009  0.9118800E+02  0.7818608E-02  0.1130116E+00
         25   -1    0    0    0    0  0.00000000000E+00  0.00000000000E+00  0.99999998245E-14  0.12500000000E+03  0.12500000000E+03 0.  0.
        -13    1    3    3    0    0 -0.39568160297E+02 -0.24640669927E+02  0.62906473573E+01  0.47036000382E+02  0.10566000000E+00 0.  1.
         23    2    1    0    0    0 -0.22385051187E+02  0.18180058136E+02 -0.75193292393E+01  0.95198232558E+02  0.90413263073E+02 0.  0.
         13    1    3    3    0    0  0.17183109110E+02  0.42820728063E+02 -0.13809976597E+02  0.48162232176E+02  0.10566000000E+00 0. -1.
         22    1    1    0    0    0  0.22385051187E+02 -0.18180058136E+02  0.75193292393E+01  0.29801767442E+02  0.00000000000E+00 0.  1.
</event>
<event>
 5    1  0.1325832E-009  0.9118800E+02  0.7818608E-02  0.1130116E+00
         25   -1    0    0    0    0  0.00000000000E+00  0.00000000000E+00  0.99999998245E-14  0.12500000000E+03  0.12500000000E+03 0.  0.
        -13    1    3    3    0    0  0.23200641790E+02 -0.33053075021E+02  0.41621796335E+02  0.57992763704E+02  0.10566000000E+00 0. -1.
         23    2    1    0    0    0  0.66031005717E+00 -0.64821565301E+01  0.29351555733E+02  0.94933936297E+02  0.90047121411E+02 0.  0.
         13    1    3    3    0    0 -0.22540331733E+02  0.26570918491E+02 -0.12270240603E+02  0.36941172593E+02  0.10566000000E+00 0.  1.
         22    1    1    0    0    0 -0.66031005717E+00  0.64821565301E+01 -0.29351555733E+02  0.30066063703E+02  0.00000000000E+00 0. -1.
</event>
<event>
 5    1  0.1325832E-009  0.9118800E+02  0.7818608E-02  0.1130116E+00
         25   -1    0    0    0    0  0.00000000000E+00  0.00000000000E+00  0.99999998245E-14  0.12500000000E+03  0.12500000000E+03 0.  0.
        -13    1    3    3    0    0 -0.11870059625E+02 -0.24829806984E+02  0.11113823380E+02  0.29680732210E+02  0.10566000000E+00 0. -1.
         23    2    1    0    0    0  0.18124319993E+02  0.24198873356E+02 -0.13101644887E+02  0.92049589599E+02  0.85949970330E+02 0.  0.
         13    1    3    3    0    0  0.29994379618E+02  0.49028680340E+02 -0.24215468267E+02  0.62368857388E+02  0.10566000000E+00 0.  1.
         22    1    1    0    0    0 -0.18124319993E+02 -0.24198873356E+02  0.13101644887E+02  0.32950410401E+02  0.00000000000E+00 0.  1.
</event>
<event>
 5    1  0.1325832E-009  0.9118800E+02  0.7818608E-02  0.1130116E+00
         25   -1    0    0    0    0  0.00000000000E+00  0.00000000000E+00  0.99999998245E-14  0.12500000000E+03  0.12500000000E+03 0.  0.
        -13    1    3    3    0    0  0.12318599291E+02 -0.50433797308E+01 -0.56621503611E+02  0.58165190645E+02  0.10566000000E+00 0. -1.
         23    2    1    0    0    0  0.19645169641E+02 -0.10771842285E+02 -0.23653448127E+02  0.92420084642E+02  0.86487115575E+02 0.  0.
         13    1    3    3    0    0  0.73265703496E+01 -0.57284625538E+01  0.32968055484E+02  0.34254893997E+02  0.10566000000E+00 0.  1.
         22    1    1    0    0    0 -0.19645169641E+02  0.10771842285E+02  0.23653448127E+02  0.32579915358E+02  0.00000000000E+00 0. -1.
</event>
<event>
 5    1  0.1325832E-009  0.9118800E+02  0.7818608E-02  0.1130116E+00
         25   -1    0    0    0    0  0.00000000000E+00  0.00000000000E+00  0.99999998245E-14  0.12500000000E+03  0.12500000000E+03 0.  0.
        -13    1    3    3    0    0  0.33153143507E+02  0.29840238004E+02 -0.20126741941E+02  0.48935341357E+02  0.10566000000E+00 0.  1.
         23    2    1    0    0    0  0.15836097760E+02  0.12257756351E+02  0.20418226795E+02  0.96400374680E+02  0.92060271941E+02 0.  0.
         13    1    3    3    0    0 -0.17317045747E+02 -0.17582481654E+02  0.40544968736E+02  0.47465033323E+02  0.10566000000E+00 0. -1.
         22    1    1    0    0    0 -0.15836097760E+02 -0.12257756351E+02 -0.20418226795E+02  0.28599625320E+02  0.00000000000E+00 0. -1.
</event>
<event>
 5    1  0.1325832E-009  0.9118800E+02  0.7818608E-02  0.1130116E+00
         25   -1    0    0    0    0  0.00000000000E+00  0.00000000000E+00  0.99999998245E-14  0.12500000000E+03  0.12500000000E+03 0.  0.
        -13    1    3    3    0    0 -0.51381958454E+02 -0.36831732980E+01 -0.13944081854E+02  0.53367780570E+02  0.10566000000E+00 0. -1.
         23    2    1    0    0    0 -0.20172267550E+02 -0.24920951569E+02 -0.23800759320E+01  0.92849743910E+02  0.87105889454E+02 0.  0.
         13    1    3    3    0    0  0.31209690904E+02 -0.21237778271E+02  0.11564005922E+02  0.39481963340E+02  0.10566000000E+00 0.  1.
         22    1    1    0    0    0  0.20172267550E+02  0.24920951569E+02  0.23800759320E+01  0.32150256090E+02  0.00000000000E+00 0. -1.
</event>
<event>
 5    1  0.1325832E-009  0.9118800E+02  0.7818608E-02  0.1130116E+00
         25   -1    0    0    0    0  0.00000000000E+00  0.00000000000E+00  0.99999998245E-14  0.12500000000E+03  0.12500000000E+03 0.  0.
        -13    1    3    3    0    0  0.36042610857E+02  0.25130563306E+02 -0.13922847721E+02  0.46091993472E+02  0.10566000000E+00 0.  1.
         23    2    1    0    0    0 -0.10266248327E+02  0.41381923764E+01 -0.24580845318E+02  0.98041913135E+02  0.94262814958E+02 0.  0.
         13    1    3    3    0    0 -0.46308859184E+02 -0.20992370930E+02 -0.10657997598E+02  0.51949919663E+02  0.10566000000E+00 0. -1.
         22    1    1    0    0    0  0.10266248327E+02 -0.41381923764E+01  0.24580845318E+02  0.26958086865E+02  0.00000000000E+00 0. -1.
</event>
<event>
 5    1  0.1325832E-009  0.9118800E+02  0.7818608E-02  0.1130116E+00
         25   -1    0    0    0    0  0.00000000000E+00  0.00000000000E+00  0.99999998245E-14  0.12500000000E+03  0.12500000000E+03 0.  0.
        -13    1    3    3    0    0  0.78547016231E+01  0.60591216331E+02 -0.12170164182E+02  0.62298602668E+02  0.10566000000E+00 0.  1.
         23    2    1    0    0    0  0.64398021808E+01  0.26712946404E+02 -0.74192462128E+01  0.96537783430E+02  0.92246657704E+02 0.  0.
         13    1    3    3    0    0 -0.14148994423E+01 -0.33878269927E+02  0.47509179688E+01  0.34239180763E+02  0.10566000000E+00 0. -1.
         22    1    1    0    0    0 -0.64398021808E+01 -0.26712946404E+02  0.74192462128E+01  0.28462216570E+02  0.00000000000E+00 0.  1.
</event>
<event>
 5    1  0.1325832E-009  0.9118800E+02  0.7818608E-02  0.1130116E+00
         25   -1    0    0    0    0  0.00000000000E+00  0.00000000000E+00  0.99999998245E-14  0.12500000000E+03  0.12500000000E+03 0.  0.
        -13    1    3    3    0    0  0.97025549205E+01 -0.36410161070E+02  0.13513769222E+02  0.40030894616E+02  0.10566000000E+00 0.  1.
         23    2    1    0    0    0 -0.36428675875E+01  0.17595126355E+02 -0.14121319158E+02  0.10214675930E+03  0.99557469962E+02 0.  0.
         13    1    3    3    0    0 -0.13345422508E+02  0.54005287425E+02 -0.27635088379E+02  0.62115864685E+02  0.10566000000E+00 0. -1.
         22    1    1    0    0    0  0.36428675875E+01 -0.17595126355E+02  0.14121319158E+02  0.22853240699E+02  0.00000000000E+00 0. -1.
</event>
<event>
 5    1  0.1325832E-009  0.9118800E+02  0.7818608E-02  0.1130116E+00
         25   -1    0    0    0    0  0.00000000000E+00  0.00000000000E+00  0.99999998245E-14  0.12500000000E+03  0.12500000000E+03 0.  0.
        -13    1    3    3    0    0  0.39996369114E+01  0.35869908792E+02  0.19456604202E+02  0.41002659222E+02  0.10566000000E+00 0. -1.
         23    2    1    0    0    0 -0.29091095238E+02 -0.45513643597E+01  0.59384470251E+01  0.94962158987E+02  0.90086290559E+02 0.  0.
         13    1    3    3    0    0 -0.33090732149E+02 -0.40421273152E+02 -0.13518157176E+02  0.53959499765E+02  0.10566000000E+00 0.  1.
         22    1    1    0    0    0  0.29091095238E+02  0.45513643597E+01 -0.59384470251E+01  0.30037841013E+02  0.00000000000E+00 0.  1.
</event>
<event>
 5    1  0.1325832E-009  0.9118800E+02  0.7818608E-02  0.1130116E+00
         25   -1    0    0    0    0  0.00000000000E+00  0.00000000000E+00  0.99999998245E-14  0.12500000000E+03  0.12500000000E+03 0.  0.
        -13    1    3    3    0    0  0.19803010568E+02 -0.32271628031E+02  0.67255112960E+01  0.38455960130E+02  0.10566000000E+00 0. -1.
         23    2    1    0    0    0  0.14095105348E+02  0.24457705994E+02 -0.40538546823E+01  0.96481845869E+02  0.92170827637E+02 0.  0.
         13    1    3    3    0    0 -0.57079052199E+01  0.56729334025E+02 -0.10779365978E+02  0.58025885739E+02  0.10566000000E+00 0.  1.
         22    1    1    0    0    0 -0.14095105348E+02 -0.24457705994E+02  0.40538546823E+01  0.28518154131E+02  0.00000000000E+00 0.  1.
</event>
<event>
 5    1  0.1325832E-009  0.9118800E+02  0.7818608E-02  0.1130116E+00
         25   -1    0    0    0    0  0.00000000000E+00  0.00000000000E+00  0.99999998245E-14  0.12500000000E+03  0.12500000000E+03 0.  0.
        -13    1    3    3    0    0  0.27152445082E+02 -0.21495126433E+01 -0.27611655285E+02  0.38785182095E+02  0.10566000000E+00 0. -1.
         23    2    1    0    0    0  0.31788952581E+01 -0.38211143401E+02 -0.14077070933E+02  0.84154427644E+02  0.73577217336E+02 0.  0.
         13    1    3    3    0    0 -0.23973549824E+02 -0.36061630757E+02  0.13534584352E+02  0.45369245549E+02  0.10566000000E+00 0.  1.
         22    1    1    0    0    0 -0.31788952581E+01  0.38211143401E+02  0.14077070933E+02  0.40845572356E+02  0.00000000000E+00 0.  1.
</event>
<event>
 5    1  0.1325832E-009  0.9118800E+02  0.7818608E-02  0.1130116E+00
         25   -1    0    0    0    0  0.00000000000E+00  0.00000000000E+00  0.99999998245E-14  0.12500000000E+03  0.12500000000E+03 0.  0.
        -13    1    3    3    0    0 -0.42593946247E+02 -0.25297685428E+02 -0.33329285606E+02  0.59708203691E+02  0.10566000000E+00 0.  1.
         23    2    1    0    0    0 -0.94050504254E+01 -0.17780818468E+02 -0.21047225828E+02  0.95886460298E+02  0.91359811047E+02 0.  0.
         13    1    3    3    0    0  0.33188895822E+02  0.75168669605E+01  0.12282059777E+02  0.36178256608E+02  0.10566000000E+00 0. -1.
         22    1    1    0    0    0  0.94050504254E+01  0.17780818468E+02  0.21047225828E+02  0.29113539702E+02  0.00000000000E+00 0.  1.
</event>
<event>
 5    1  0.1325832E-009  0.9118800E+02  0.7818608E-02  0.1130116E+00
         25   -1    0    0    0    0  0.00000000000E+00  0.00000000000E+00  0.99999998245E-14  0.12500000000E+03  0.12500000000E+03 0.  0.
        -13    1    3    3    0    0  0.11826167810E+02  0.57992786968E+02 -0.11332235692E+01  0.59197271433E+02  0.10566000000E+00 0. -1.
         23    2    1    0    0    0 -0.43314121511E+01  0.30026676867E+02  0.95146424621E+01  0.93205489844E+02  0.87614910038E+02 0.  0.
         13    1    3    3    0    0 -0.16157579961E+02 -0.27966110101E+02  0.10647866031E+02  0.34008218410E+02  0.10566000000E+00 0.  1.
         22    1    1    0    0    0  0.43314121511E+01 -0.30026676867E+02 -0.95146424621E+01  0.31794510156E+02  0.00000000000E+00 0. -1.
</event>
<event>
 5    1  0.1325832E-009  0.9118800E+02  0.7818608E-02  0.1130116E+00
         25   -1    0    0    0    0  0.00000000000E+00  0.00000000000E+00  0.99999998245E-14  0.12500000000E+03  0.12500000000E+03 0.  0.
        -13    1    3    3    0    0  0.47693712395E+02  0.25792077551E+02 -0.46329447387E+01  0.54418717437E+02  0.10566000000E+00 0. -1.
         23    2    1    0    0    0  0.67762162884E+01  0.25540230583E+02 -0.11972773672E+02  0.95990212086E+02  0.91501655840E+02 0.  0.
         13    1    3    3    0    0 -0.40917496107E+02 -0.25184696803E+00 -0.73398289332E+01  0.41571494649E+02  0.10566000000E+00 0.  1.
         22    1    1    0    0    0 -0.67762162884E+01 -0.25540230583E+02  0.11972773672E+02  0.29009787914E+02  0.00000000000E+00 0. -1.
</event>
<event>
 5    1  0.1325832E-009  0.9118800E+02  0.7818608E-02  0.1130116E+00
         25   -1    0    0    0    0  0.00000000000E+00  0.00000000000E+00  0.99999998245E-14  0.12500000000E+03  0.12500000000E+03 0.  0.
        -13    1    3    3    0    0 -0.19643848488E+02  0.39949445617E+02 -0.38191820265E+02  0.58655479605E+02  0.10566000000E+00 0. -1.
         23    2    1    0    0    0 -0.13793294965E+02  0.57881368431E+01 -0.25249943248E+02  0.95651794806E+02  0.91038171672E+02 0.  0.
         13    1    3    3    0    0  0.58505535231E+01 -0.34161308774E+02  0.12941877017E+02  0.36996315201E+02  0.10566000000E+00 0.  1.
         22    1    1    0    0    0  0.13793294965E+02 -0.57881368431E+01  0.25249943248E+02  0.29348205194E+02  0.00000000000E+00 0.  1.
</event>
<event>
 5    1  0.1325832E-009  0.9118800E+02  0.7818608E-02  0.1130116E+00
         25   -1    0    0    0    0  0.00000000000E+00  0.00000000000E+00  0.99999998245E-14  0.12500000000E+03  0.12500000000E+03 0.  0.
        -13    1    3    3    0    0 -0.26824686621E+02 -0.21716383895E+02  0.43635156067E+02  0.55634549974E+02  0.10566000000E+00 0. -1.
         23    2    1    0    0    0 -0.26307434043E+02 -0.10913795735E+02  0.45886126745E+01  0.96151301770E+02  0.91721455737E+02 0.  0.
         13    1    3    3    0    0  0.51725257727E+00  0.10802588160E+02 -0.39046543392E+02  0.40516751796E+02  0.10566000000E+00 0.  1.
         22    1    1    0    0    0  0.26307434043E+02  0.10913795735E+02 -0.45886126745E+01  0.28848698230E+02  0.00000000000E+00 0. -1.
</event>
<event>
 5    1  0.1325832E-009  0.9118800E+02  0.7818608E-02  0.1130116E+00
         25   -1    0    0    0    0  0.00000000000E+00  0.00000000000E+00  0.99999998245E-14  0.12500000000E+03  0.12500000000E+03 0.  0.
        -13    1    3    3    0    0 -0.44814043958E+01 -0.53686300736E+02  0.28392779903E+02  0.60897150892E+02  0.10566000000E+00 0. -1.
         23    2    1    0    0    0  0.65703136098E+01 -0.23624070660E+02  0.18039597501E+02  0.94558370387E+02  0.89524257030E+02 0.  0.
         13    1    3    3    0    0  0.11051718006E+02  0.30062230076E+02 -0.10353182401E+02  0.33661219495E+02  0.10566000000E+00 0.  1.
         22    1    1    0    0    0 -0.65703136098E+01  0.23624070660E+02 -0.18039597501E+02  0.30441629613E+02  0.00000000000E+00 0. -1.
</event>
<event>
 5    1  0.1325832E-009  0.9118800E+02  0.7818608E-02  0.1130116E+00
         25   -1    0    0    0    0  0.00000000000E+00  0.00000000000E+00  0.99999998245E-14  0.12500000000E+03  0.12500000000E+03 0.  0.
        -13    1    3    3    0    0  0.24847714452E+02  0.20670123098E+02 -0.15887837961E+02  0.36015239296E+02  0.10566000000E+00 0. -1.
         23    2    1    0    0    0 -0.25018377760E+02 -0.11751728907E+02 -0.91931878284E+01  0.95870340536E+02  0.91337753059E+02 0.  0.
         13    1    3    3    0    0 -0.49866092213E+02 -0.32421852006E+02  0.66946501324E+01  0.59855101240E+02  0.10566000000E+00 0.  1.
         22    1    1    0    0    0  0.25018377760E+02  0.11751728907E+02  0.91931878284E+01  0.29129659464E+02  0.00000000000E+00 0.  1.
</event>
<event>
 5    1  0.1325832E-009  0.9118800E+02  0.7818608E-02  0.1130116E+00
         25   -1    0    0    0    0  0.00000000000E+00  0.00000000000E+00  0.99999998245E-14  0.12500000000E+03  0.12500000000E+03 0.  0.
        -13    1    3    3    0    0 -0.49614303112E+02  0.15415116347E+02  0.33073804447E+02  0.61588088052E+02  0.10566000000E+00 0.  1.
         23    2    1    0    0    0 -0.35081169506E+02  0.14617527548E+02  0.30275956794E+02  0.76409937998E+02  0.58970200097E+02 0.  0.
         13    1    3    3    0    0  0.14533133605E+02 -0.79758879916E+00 -0.27978476528E+01  0.14821849946E+02  0.10566000000E+00 0. -1.
         22    1    1    0    0    0  0.35081169506E+02 -0.14617527548E+02 -0.30275956794E+02  0.48590062002E+02  0.00000000000E+00 0.  1.
</event>
<event>
 5    1  0.1325832E-009  0.9118800E+02  0.7818608E-02  0.1130116E+00
         25   -1    0    0    0    0  0.00000000000E+00  0.00000000000E+00  0.99999998245E-14  0.12500000000E+03  0.12500000000E+03 0.  0.
        -13    1    3    3    0    0  0.24993126906E+02 -0.91452467804E+01  0.24202000342E+02  0.35972766307E+02  0.10566000000E+00 0.  1.
         23    2    1    0    0    0  0.30406259964E+01 -0.78418241495E+01 -0.29670214308E+02  0.94160719374E+02  0.88967296483E+02 0.  0.
         13    1    3    3    0    0 -0.21952500909E+02  0.13034226309E+01 -0.53872214650E+02  0.58187953067E+02  0.10566000000E+00 0. -1.
         22    1    1    0    0    0 -0.30406259964E+01  0.78418241495E+01  0.29670214308E+02  0.30839280626E+02  0.00000000000E+00 0. -1.
</event>
<event>
 5    1  0.1325832E-009  0.9118800E+02  0.7818608E-02  0.1130116E+00
         25   -1    0    0    0    0  0.00000000000E+00  0.00000000000E+00  0.99999998245E-14  0.12500000000E+03  0.12500000000E+03 0.  0.
        -13    1    3    3    0    0 -0.17458298295E+02  0.17253135231E+02  0.34229166631E+02  0.42120183605E+02  0.10566000000E+00 0.  1.
         23    2    1    0    0    0  0.27165212978E+02  0.14867737047E+01  0.62980531778E+01  0.97074657280E+02  0.92971309122E+02 0.  0.
         13    1    3    3    0    0  0.44623511274E+02 -0.15766361526E+02 -0.27931113453E+02  0.54954473675E+02  0.10566000000E+00 0. -1.
         22    1    1    0    0    0 -0.27165212978E+02 -0.14867737047E+01 -0.62980531778E+01  0.27925342720E+02  0.00000000000E+00 0. -1.
</event>
<event>
 5    1  0.1325832E-009  0.9118800E+02  0.7818608E-02  0.1130116E+00
         25   -1    0    0    0    0  0.00000000000E+00  0.00000000000E+00  0.99999998245E-14  0.12500000000E+03  0.12500000000E+03 0.  0.
        -13    1    3    3    0    0  0.36761937320E+02  0.66407298786E+01 -0.10486552899E+02  0.38801008809E+02  0.10566000000E+00 0.  1.
         23    2    1    0    0    0 -0.61528610703E+01  0.10094149610E+02  0.26769573632E+02  0.95736377051E+02  0.91154233378E+02 0.  0.
         13    1    3    3    0    0 -0.42914798391E+02  0.34534197315E+01  0.37256126530E+02  0.56935368242E+02  0.10566000000E+00 0. -1.
         22    1    1    0    0    0  0.61528610703E+01 -0.10094149610E+02 -0.26769573632E+02  0.29263622949E+02  0.00000000000E+00 0. -1.
</event>
<event>
 5    1  0.1325832E-009  0.9118800E+02  0.7818608E-02  0.1130116E+00
         25   -1    0    0    0    0  0.00000000000E+00  0.00000000000E+00  0.99999998245E-14  0.12500000000E+03  0.12500000000E+03 0.  0.
        -13    1    3    3    0    0 -0.13060282312E+02 -0.35677362017E+02 -0.26895093954E+02  0.46548924557E+02  0.10566000000E+00 0. -1.
         23    2    1    0    0    0  0.53944747492E+01 -0.20161505969E+02  0.17954798691E+02  0.97468899826E+02  0.93499866077E+02 0.  0.
         13    1    3    3    0    0  0.18454757061E+02  0.15515856048E+02  0.44849892645E+02  0.50919975269E+02  0.10566000000E+00 0.  1.
         22    1    1    0    0    0 -0.53944747492E+01  0.20161505969E+02 -0.17954798691E+02  0.27531100174E+02  0.00000000000E+00 0.  1.
</event>
<event>
 5    1  0.1325832E-009  0.9118800E+02  0.7818608E-02  0.1130116E+00
         25   -1    0    0    0    0  0.00000000000E+00  0.00000000000E+00  0.99999998245E-14  0.12500000000E+03  0.12500000000E+03 0.  0.
        -13    1    3    3    0    0  0.46477245398E+02  0.94541312943E+01 -0.34190380326E+02  0.58468010136E+02  0.10566000000E+00 0.  1.
         23    2    1    0    0    0  0.31082001314E+02 -0.16312816405E+01 -0.47162182011E+01  0.93519933298E+02  0.88062383141E+02 0.  0.
         13    1    3    3    0    0 -0.15395244084E+02 -0.11085412935E+02  0.29474162125E+02  0.35051923162E+02  0.10566000000E+00 0. -1.
         22    1    1    0    0    0 -0.31082001314E+02  0.16312816405E+01  0.47162182011E+01  0.31480066702E+02  0.00000000000E+00 0.  1.
</event>
<event>
 5    1  0.1325832E-009  0.9118800E+02  0.7818608E-02  0.1130116E+00
         25   -1    0    0    0    0  0.00000000000E+00  0.00000000000E+00  0.99999998245E-14  0.12500000000E+03  0.12500000000E+03 0.  0.
        -13    1    3    3    0    0  0.63753010075E+01 -0.73331083947E+01 -0.44384331179E+02  0.45435657362E+02  0.10566000000E+00 0. -1.
         23    2    1    0    0    0  0.30775453501E+01 -0.36471305961E+02 -0.26903135275E+02  0.79575269604E+02  0.65336187531E+02 0.  0.
         13    1    3    3    0    0 -0.32977556574E+01 -0.29138197566E+02  0.17481195904E+02  0.34139612242E+02  0.10566000000E+00 0.  1.
         22    1    1    0    0    0 -0.30775453501E+01  0.36471305961E+02  0.26903135275E+02  0.45424730396E+02  0.00000000000E+00 0. -1.
</event>
<event>
 5    1  0.1325832E-009  0.9118800E+02  0.7818608E-02  0.1130116E+00
         25   -1    0    0    0    0  0.00000000000E+00  0.00000000000E+00  0.99999998245E-14  0.12500000000E+03  0.12500000000E+03 0.  0.
        -13    1    3    3    0    0  0.46022986232E+01 -0.49531967316E+02 -0.21069408341E+02  0.54023402991E+02  0.10566000000E+00 0.  1.
         23    2    1    0    0    0 -0.18228007703E+02 -0.20964032363E+02  0.18099513207E+01  0.97160696103E+02  0.93086916512E+02 0.  0.
         13    1    3    3    0    0 -0.22830306326E+02  0.28567934953E+02  0.22879359662E+02  0.43137293112E+02  0.10566000000E+00 0. -1.
         22    1    1    0    0    0  0.18228007703E+02  0.20964032363E+02 -0.18099513207E+01  0.27839303897E+02  0.00000000000E+00 0.  1.
</event>
<event>
 5    1  0.1325832E-009  0.9118800E+02  0.7818608E-02  0.1130116E+00
         25   -1    0    0    0    0  0.00000000000E+00  0.00000000000E+00  0.99999998245E-14  0.12500000000E+03  0.12500000000E+03 0.  0.
        -13    1    3    3    0    0  0.31764494419E+02 -0.11316665027E+02  0.24689771086E+02  0.41792893814E+02  0.10566000000E+00 0.  1.
         23    2    1    0    0    0 -0.16617233688E+02 -0.24053677585E+02  0.63188384297E+01  0.95089473761E+02  0.90262774389E+02 0.  0.
         13    1    3    3    0    0 -0.48381728106E+02 -0.12737012558E+02 -0.18370932656E+02  0.53296579948E+02  0.10566000000E+00 0. -1.
         22    1    1    0    0    0  0.16617233688E+02  0.24053677585E+02 -0.63188384297E+01  0.29910526239E+02  0.00000000000E+00 0. -1.
</event>
<event>
 5    1  0.1325832E-009  0.9118800E+02  0.7818608E-02  0.1130116E+00
         25   -1    0    0    0    0  0.00000000000E+00  0.00000000000E+00  0.99999998245E-14  0.12500000000E+03  0.12500000000E+03 0.  0.
        -13    1    3    3    0    0 -0.70196614284E+01  0.27464179070E+02 -0.22351413503E+02  0.36099219218E+02  0.10566000000E+00 0. -1.
         23    2    1    0    0    0 -0.15607564352E+02 -0.26009126722E+02 -0.16217481886E+02  0.90604106981E+02  0.83821397896E+02 0.  0.
         13    1    3    3    0    0 -0.85879029234E+01 -0.53473305792E+02  0.61339316168E+01  0.54504887763E+02  0.10566000000E+00 0.  1.
         22    1    1    0    0    0  0.15607564352E+02  0.26009126722E+02  0.16217481886E+02  0.34395893019E+02  0.00000000000E+00 0. -1.
</event>
<event>
 5    1  0.1325832E-009  0.9118800E+02  0.7818608E-02  0.1130116E+00
         25   -1    0    0    0    0  0.00000000000E+00  0.00000000000E+00  0.99999998245E-14  0.12500000000E+03  0.12500000000E+03 0.  0.
        -13    1    3    3    0    0  0.26909860065E+02  0.22734718755E+00 -0.34543287998E+02  0.43788607710E+02  0.10566000000E+00 0.  1.
         23    2    1    0    0    0 -0.18296115535E+02  0.16244757844E+02 -0.18377879594E+02  0.94399567659E+02  0.89302250334E+02 0.  0.
         13    1    3    3    0    0 -0.45205975600E+02  0.16017410657E+02  0.16165408403E+02  0.50610959949E+02  0.10566000000E+00 0. -1.
         22    1    1    0    0    0  0.18296115535E+02 -0.16244757844E+02  0.18377879594E+02  0.30600432341E+02  0.00000000000E+00 0. -1.
</event>
<event>
 5    1  0.1325832E-009  0.9118800E+02  0.7818608E-02  0.1130116E+00
         25   -1    0    0    0    0  0.00000000000E+00  0.00000000000E+00  0.99999998245E-14  0.12500000000E+03  0.12500000000E+03 0.  0.
        -13    1    3    3    0    0  0.15451132884E+02 -0.52417388769E+02  0.27109509333E+02  0.61002104989E+02  0.10566000000E+00 0.  1.
         23    2    1    0    0    0  0.40022430423E+00 -0.17507157161E+02  0.17561568958E+02  0.10019940655E+03  0.97081675082E+02 0.  0.
         13    1    3    3    0    0 -0.15050908579E+02  0.34910231609E+02 -0.95479403746E+01  0.39197301558E+02  0.10566000000E+00 0. -1.
         22    1    1    0    0    0 -0.40022430423E+00  0.17507157161E+02 -0.17561568958E+02  0.24800593453E+02  0.00000000000E+00 0.  1.
</event>
<event>
 5    1  0.1325832E-009  0.9118800E+02  0.7818608E-02  0.1130116E+00
         25   -1    0    0    0    0  0.00000000000E+00  0.00000000000E+00  0.99999998245E-14  0.12500000000E+03  0.12500000000E+03 0.  0.
        -13    1    3    3    0    0 -0.20179588404E+02 -0.13074065258E+02  0.21710988648E+02  0.32396375764E+02  0.10566000000E+00 0. -1.
         23    2    1    0    0    0  0.83302763099E+01  0.18625369235E+02 -0.23053026421E+02  0.94214615323E+02  0.89042988667E+02 0.  0.
         13    1    3    3    0    0  0.28509864714E+02  0.31699434493E+02 -0.44764015068E+02  0.61818239560E+02  0.10566000000E+00 0.  1.
         22    1    1    0    0    0 -0.83302763099E+01 -0.18625369235E+02  0.23053026421E+02  0.30785384677E+02  0.00000000000E+00 0.  1.
</event>
<event>
 5    1  0.1325832E-009  0.9118800E+02  0.7818608E-02  0.1130116E+00
         25   -1    0    0    0    0  0.00000000000E+00  0.00000000000E+00  0.99999998245E-14  0.12500000000E+03  0.12500000000E+03 0.  0.
        -13    1    3    3    0    0  0.15523319097E+02 -0.43014310640E+02  0.30571760710E+02  0.55007709210E+02  0.10566000000E+00 0.  1.
         23    2    1    0    0    0  0.16104634301E+02 -0.26093096757E+01  0.24047876360E+02  0.95940266684E+02  0.91433400194E+02 0.  0.
         13    1    3    3    0    0  0.58131520483E+00  0.40405000964E+02 -0.65238843507E+01  0.40932557474E+02  0.10566000000E+00 0. -1.
         22    1    1    0    0    0 -0.16104634301E+02  0.26093096757E+01 -0.24047876360E+02  0.29059733316E+02  0.00000000000E+00 0.  1.
</event>
<event>
 5    1  0.1325832E-009  0.9118800E+02  0.7818608E-02  0.1130116E+00
         25   -1    0    0    0    0  0.00000000000E+00  0.00000000000E+00  0.99999998245E-14  0.12500000000E+03  0.12500000000E+03 0.  0.
        -13    1    3    3    0    0 -0.30328172586E+02 -0.46428787994E+02 -0.98729400836E+01  0.56328647392E+02  0.10566000000E+00 0.  1.
         23    2    1    0    0    0  0.19722757073E+01 -0.28251524405E+02 -0.13607240979E+02  0.93580332437E+02  0.88148074904E+02 0.  0.
         13    1    3    3    0    0  0.32300448293E+02  0.18177263589E+02 -0.37343008951E+01  0.37251685046E+02  0.10566000000E+00 0. -1.
         22    1    1    0    0    0 -0.19722757073E+01  0.28251524405E+02  0.13607240979E+02  0.31419667563E+02  0.00000000000E+00 0.  1.
</event>
<event>
 5    1  0.1325832E-009  0.9118800E+02  0.7818608E-02  0.1130116E+00
         25   -1    0    0    0    0  0.00000000000E+00  0.00000000000E+00  0.99999998245E-14  0.12500000000E+03  0.12500000000E+03 0.  0.
        -13    1    3    3    0    0  0.40013547823E+02  0.37417357358E+02 -0.18289051072E+02  0.57755027436E+02  0.10566000000E+00 0.  1.
         23    2    1    0    0    0  0.26763247532E+02  0.20464802550E+01 -0.57856595166E+01  0.97542153108E+02  0.93597747180E+02 0.  0.
         13    1    3    3    0    0 -0.13250300291E+02 -0.35370877103E+02  0.12503391556E+02  0.39787125672E+02  0.10566000000E+00 0. -1.
         22    1    1    0    0    0 -0.26763247532E+02 -0.20464802550E+01  0.57856595166E+01  0.27457846892E+02  0.00000000000E+00 0.  1.
</event>
<event>
 5    1  0.1325832E-009  0.9118800E+02  0.7818608E-02  0.1130116E+00
         25   -1    0    0    0    0  0.00000000000E+00  0.00000000000E+00  0.99999998245E-14  0.12500000000E+03  0.12500000000E+03 0.  0.
        -13    1    3    3    0    0 -0.28921240929E+02 -0.34298679425E+02 -0.35770454731E+02  0.57379213857E+02  0.10566000000E+00 0.  1.
         23    2    1    0    0    0  0.18628683186E+01 -0.22175607620E+02 -0.23416528361E+02  0.92695795132E+02  0.86884686700E+02 0.  0.
         13    1    3    3    0    0  0.30784109247E+02  0.12123071805E+02  0.12353926370E+02  0.35316581275E+02  0.10566000000E+00 0. -1.
         22    1    1    0    0    0 -0.18628683186E+01  0.22175607620E+02  0.23416528361E+02  0.32304204868E+02  0.00000000000E+00 0.  1.
</event>
<event>
 5    1  0.1325832E-009  0.9118800E+02  0.7818608E-02  0.1130116E+00
         25   -1    0    0    0    0  0.00000000000E+00  0.00000000000E+00  0.99999998245E-14  0.12500000000E+03  0.12500000000E+03 0.  0.
        -13    1    3    3    0    0 -0.35130489094E+02 -0.23408711206E+02  0.16830389479E+02  0.45446586212E+02  0.10566000000E+00 0. -1.
         23    2    1    0    0    0  0.93747139470E+01 -0.27013986541E+02 -0.62802157862E+01  0.95724039883E+02  0.91137313823E+02 0.  0.
         13    1    3    3    0    0  0.44505203041E+02 -0.36052753352E+01 -0.23110605265E+02  0.50277453671E+02  0.10566000000E+00 0.  1.
         22    1    1    0    0    0 -0.93747139470E+01  0.27013986541E+02  0.62802157862E+01  0.29275960117E+02  0.00000000000E+00 0.  1.
</event>
<event>
 5    1  0.1325832E-009  0.9118800E+02  0.7818608E-02  0.1130116E+00
         25   -1    0    0    0    0  0.00000000000E+00  0.00000000000E+00  0.99999998245E-14  0.12500000000E+03  0.12500000000E+03 0.  0.
        -13    1    3    3    0    0 -0.33530389927E+02 -0.39606981146E+02 -0.84089874091E+01  0.52571116000E+02  0.10566000000E+00 0.  1.
         23    2    1    0    0    0 -0.27093249434E+02  0.12705518186E-01  0.91781754270E+01  0.96394349675E+02  0.92052090790E+02 0.  0.
         13    1    3    3    0    0  0.64371404925E+01  0.39619686665E+02  0.17587162836E+02  0.43823233676E+02  0.10566000000E+00 0. -1.
         22    1    1    0    0    0  0.27093249434E+02 -0.12705518186E-01 -0.91781754270E+01  0.28605650325E+02  0.00000000000E+00 0.  1.
</event>
<event>
 5    1  0.1325832E-009  0.9118800E+02  0.7818608E-02  0.1130116E+00
         25   -1    0    0    0    0  0.00000000000E+00  0.00000000000E+00  0.99999998245E-14  0.12500000000E+03  0.12500000000E+03 0.  0.
        -13    1    3    3    0    0  0.67250876652E+01 -0.18883916245E+02 -0.32654909476E+02  0.38316881055E+02  0.10566000000E+00 0.  1.
         23    2    1    0    0    0 -0.22788544797E+02 -0.88127926280E+01  0.15773738420E+02  0.95917463804E+02  0.91402220712E+02 0.  0.
         13    1    3    3    0    0 -0.29513632462E+02  0.10071123617E+02  0.48428647896E+02  0.57600582749E+02  0.10566000000E+00 0. -1.
         22    1    1    0    0    0  0.22788544797E+02  0.88127926280E+01 -0.15773738420E+02  0.29082536196E+02  0.00000000000E+00 0. -1.
</event>
<event>
 5    1  0.1325832E-009  0.9118800E+02  0.7818608E-02  0.1130116E+00
         25   -1    0    0    0    0  0.00000000000E+00  0.00000000000E+00  0.99999998245E-14  0.12500000000E+03  0.12500000000E+03 0.  0.
        -13    1    3    3    0    0 -0.43071606501E+02  0.27180787979E+01  0.42008358981E+02  0.60226776663E+02  0.10566000000E+00 0.  1.
         23    2    1    0    0    0 -0.22399757408E+02 -0.10033404469E+02  0.16646126349E+02  0.95343434797E+02  0.90613788682E+02 0.  0.
         13    1    3    3    0    0  0.20671849093E+02 -0.12751483267E+02 -0.25362232632E+02  0.35116658134E+02  0.10566000000E+00 0. -1.
         22    1    1    0    0    0  0.22399757408E+02  0.10033404469E+02 -0.16646126349E+02  0.29656565203E+02  0.00000000000E+00 0.  1.
</event>
<event>
 5    1  0.1325832E-009  0.9118800E+02  0.7818608E-02  0.1130116E+00
         25   -1    0    0    0    0  0.00000000000E+00  0.00000000000E+00  0.99999998245E-14  0.12500000000E+03  0.12500000000E+03 0.  0.
        -13    1    3    3    0    0  0.41552461700E+02  0.34880728944E+01  0.13989104167E+02  0.43982723032E+02  0.10566000000E+00 0. -1.
         23    2    1    0    0    0  0.57294723643E+01  0.17756801394E+02 -0.21600618371E+02  0.96456742244E+02  0.92136776376E+02 0.  0.
         13    1    3    3    0    0 -0.35822989336E+02  0.14268728499E+02 -0.35589722538E+02  0.52474019212E+02  0.10566000000E+00 0.  1.
         22    1    1    0    0    0 -0.57294723643E+01 -0.17756801394E+02  0.21600618371E+02  0.28543257756E+02  0.00000000000E+00 0.  1.
</event>
<event>
 5    1  0.1325832E-009  0.9118800E+02  0.7818608E-02  0.1130116E+00
         25   -1    0    0    0    0  0.00000000000E+00  0.00000000000E+00  0.99999998245E-14  0.12500000000E+03  0.12500000000E+03 0.  0.
        -13    1    3    3    0    0  0.24031934414E+02  0.92561820519E+01  0.25404793063E+02  0.36174928507E+02  0.10566000000E+00 0. -1.
         23    2    1    0    0    0  0.15722765321E+02 -0.15412312405E+02 -0.24254431849E+02  0.92242982625E+02  0.86230769776E+02 0.  0.
         13    1    3    3    0    0 -0.83091690929E+01 -0.24668494457E+02 -0.49659224911E+02  0.56068054118E+02  0.10566000000E+00 0.  1.
         22    1    1    0    0    0 -0.15722765321E+02  0.15412312405E+02  0.24254431849E+02  0.32757017375E+02  0.00000000000E+00 0.  1.
</event>
<event>
 5    1  0.1325832E-009  0.9118800E+02  0.7818608E-02  0.1130116E+00
         25   -1    0    0    0    0  0.00000000000E+00  0.00000000000E+00  0.99999998245E-14  0.12500000000E+03  0.12500000000E+03 0.  0.
        -13    1    3    3    0    0 -0.62302562937E+01 -0.38190916146E+02 -0.30911427500E+02  0.49526656294E+02  0.10566000000E+00 0.  1.
         23    2    1    0    0    0 -0.26712178659E+02 -0.50399434728E+01 -0.26020905384E+01  0.97692264940E+02  0.93798007628E+02 0.  0.
         13    1    3    3    0    0 -0.20481922365E+02  0.33150972673E+02  0.28309336962E+02  0.48165608646E+02  0.10566000000E+00 0. -1.
         22    1    1    0    0    0  0.26712178659E+02  0.50399434728E+01  0.26020905384E+01  0.27307735060E+02  0.00000000000E+00 0. -1.
</event>
<event>
 5    1  0.1325832E-009  0.9118800E+02  0.7818608E-02  0.1130116E+00
         25   -1    0    0    0    0  0.00000000000E+00  0.00000000000E+00  0.99999998245E-14  0.12500000000E+03  0.12500000000E+03 0.  0.
        -13    1    3    3    0    0 -0.23459531643E+02  0.32488710211E+02  0.61227361082E+01  0.40538438272E+02  0.10566000000E+00 0.  1.
         23    2    1    0    0    0 -0.34377868531E-01 -0.43616482805E+01 -0.28439927914E+02  0.96227536475E+02  0.91825291280E+02 0.  0.
         13    1    3    3    0    0  0.23425153774E+02 -0.36850358491E+02 -0.34562664022E+02  0.55689098203E+02  0.10566000000E+00 0. -1.
         22    1    1    0    0    0  0.34377868531E-01  0.43616482805E+01  0.28439927914E+02  0.28772463525E+02  0.00000000000E+00 0. -1.
</event>
<event>
 5    1  0.1325832E-009  0.9118800E+02  0.7818608E-02  0.1130116E+00
         25   -1    0    0    0    0  0.00000000000E+00  0.00000000000E+00  0.99999998245E-14  0.12500000000E+03  0.12500000000E+03 0.  0.
        -13    1    3    3    0    0 -0.26542438878E+02  0.23550345894E+02 -0.21265164296E+01  0.35547898524E+02  0.10566000000E+00 0. -1.
         23    2    1    0    0    0 -0.10093584645E+02 -0.30495123374E+02 -0.65599353767E+01  0.92214854694E+02  0.86189985924E+02 0.  0.
         13    1    3    3    0    0  0.16448854233E+02 -0.54045469268E+02 -0.44334189471E+01  0.56666956170E+02  0.10566000000E+00 0.  1.
         22    1    1    0    0    0  0.10093584645E+02  0.30495123374E+02  0.65599353767E+01  0.32785145306E+02  0.00000000000E+00 0. -1.
</event>
<event>
 5    1  0.1325832E-009  0.9118800E+02  0.7818608E-02  0.1130116E+00
         25   -1    0    0    0    0  0.00000000000E+00  0.00000000000E+00  0.99999998245E-14  0.12500000000E+03  0.12500000000E+03 0.  0.
        -13    1    3    3    0    0 -0.54045870027E+02 -0.14096639815E+02  0.21869391842E+02  0.59982937445E+02  0.10566000000E+00 0.  1.
         23    2    1    0    0    0 -0.18169643232E+02 -0.12595326430E+02  0.18723932008E+02  0.96028223857E+02  0.91553568823E+02 0.  0.
         13    1    3    3    0    0  0.35876226794E+02  0.15013133852E+01 -0.31454598346E+01  0.36045286411E+02  0.10566000000E+00 0. -1.
         22    1    1    0    0    0  0.18169643232E+02  0.12595326430E+02 -0.18723932008E+02  0.28971776143E+02  0.00000000000E+00 0.  1.
</event>
<event>
 5    1  0.1325832E-009  0.9118800E+02  0.7818608E-02  0.1130116E+00
         25   -1    0    0    0    0  0.00000000000E+00  0.00000000000E+00  0.99999998245E-14  0.12500000000E+03  0.12500000000E+03 0.  0.
        -13    1    3    3    0    0  0.46551863638E+02 -0.20631536703E+02 -0.34014468056E+02  0.61235051368E+02  0.10566000000E+00 0.  1.
         23    2    1    0    0    0  0.25992017229E+02 -0.30115434030E+01 -0.11634312878E+02  0.96364155513E+02  0.92011080193E+02 0.  0.
         13    1    3    3    0    0 -0.20559846408E+02  0.17619993300E+02  0.22380155178E+02  0.35129104145E+02  0.10566000000E+00 0. -1.
         22    1    1    0    0    0 -0.25992017229E+02  0.30115434030E+01  0.11634312878E+02  0.28635844487E+02  0.00000000000E+00 0.  1.
</event>
<event>
 5    1  0.1325832E-009  0.9118800E+02  0.7818608E-02  0.1130116E+00
         25   -1    0    0    0    0  0.00000000000E+00  0.00000000000E+00  0.99999998245E-14  0.12500000000E+03  0.12500000000E+03 0.  0.
        -13    1    3    3    0    0  0.61279558817E+01 -0.22670682449E+02 -0.41227110306E+02  0.47446785710E+02  0.10566000000E+00 0. -1.
         23    2    1    0    0    0 -0.14599678547E+02 -0.17772064512E+02  0.76485729790E+01  0.10076165106E+03  0.97802928203E+02 0.  0.
         13    1    3    3    0    0 -0.20727634429E+02  0.48986179371E+01  0.48875683285E+02  0.53314865350E+02  0.10566000000E+00 0.  1.
         22    1    1    0    0    0  0.14599678547E+02  0.17772064512E+02 -0.76485729790E+01  0.24238348939E+02  0.00000000000E+00 0.  1.
</event>
<event>
 5    1  0.1325832E-009  0.9118800E+02  0.7818608E-02  0.1130116E+00
         25   -1    0    0    0    0  0.00000000000E+00  0.00000000000E+00  0.99999998245E-14  0.12500000000E+03  0.12500000000E+03 0.  0.
        -13    1    3    3    0    0  0.78955760340E+01  0.28160580330E+02  0.51260705819E+02  0.59017196905E+02  0.10566000000E+00 0.  1.
         23    2    1    0    0    0  0.17295837920E+00  0.26303031708E+02  0.18212557326E+02  0.93006615746E+02  0.87330715883E+02 0.  0.
         13    1    3    3    0    0 -0.77226176548E+01 -0.18575486219E+01 -0.33048148493E+02  0.33989418841E+02  0.10566000000E+00 0. -1.
         22    1    1    0    0    0 -0.17295837920E+00 -0.26303031708E+02 -0.18212557326E+02  0.31993384254E+02  0.00000000000E+00 0.  1.
</event>
<event>
 5    1  0.1325832E-009  0.9118800E+02  0.7818608E-02  0.1130116E+00
         25   -1    0    0    0    0  0.00000000000E+00  0.00000000000E+00  0.99999998245E-14  0.12500000000E+03  0.12500000000E+03 0.  0.
        -13    1    3    3    0    0 -0.83573292599E+01 -0.10184989164E+02  0.50131621595E+02  0.51834058344E+02  0.10566000000E+00 0.  1.
         23    2    1    0    0    0 -0.15467415266E+02 -0.23143304590E+02  0.86805444646E+01  0.95841719279E+02  0.91298575125E+02 0.  0.
         13    1    3    3    0    0 -0.71100860063E+01 -0.12958315427E+02 -0.41451077130E+02  0.44007660935E+02  0.10566000000E+00 0. -1.
         22    1    1    0    0    0  0.15467415266E+02  0.23143304590E+02 -0.86805444646E+01  0.29158280721E+02  0.00000000000E+00 0. -1.
</event>
<event>
 5    1  0.1325832E-009  0.9118800E+02  0.7818608E-02  0.1130116E+00
         25   -1    0    0    0    0  0.00000000000E+00  0.00000000000E+00  0.99999998245E-14  0.12500000000E+03  0.12500000000E+03 0.  0.
        -13    1    3    3    0    0  0.34734980428E+02 -0.12147665753E+02  0.22370555324E+02  0.43064342073E+02  0.10566000000E+00 0.  1.
         23    2    1    0    0    0 -0.18065404515E+01  0.21031994230E+02  0.24738979346E+02  0.92478845826E+02  0.86572001574E+02 0.  0.
         13    1    3    3    0    0 -0.36541520880E+02  0.33179659983E+02  0.23684240226E+01  0.49414503754E+02  0.10566000000E+00 0. -1.
         22    1    1    0    0    0  0.18065404515E+01 -0.21031994230E+02 -0.24738979346E+02  0.32521154174E+02  0.00000000000E+00 0. -1.
</event>
<event>
 5    1  0.1325832E-009  0.9118800E+02  0.7818608E-02  0.1130116E+00
         25   -1    0    0    0    0  0.00000000000E+00  0.00000000000E+00  0.99999998245E-14  0.12500000000E+03  0.12500000000E+03 0.  0.
        -13    1    3    3    0    0 -0.41347945063E+02 -0.18530174633E+02 -0.21745058278E+02  0.50258120304E+02  0.10566000000E+00 0. -1.
         23    2    1    0    0    0 -0.26533062164E+01 -0.29011823670E+02  0.41408870542E-02  0.95867098262E+02  0.91333315748E+02 0.  0.
         13    1    3    3    0    0  0.38694638847E+02 -0.10481649037E+02  0.21749199165E+02  0.45608977958E+02  0.10566000000E+00 0.  1.
         22    1    1    0    0    0  0.26533062164E+01  0.29011823670E+02 -0.41408870542E-02  0.29132901738E+02  0.00000000000E+00 0. -1.
</event>
<event>
 5    1  0.1325832E-009  0.9118800E+02  0.7818608E-02  0.1130116E+00
         25   -1    0    0    0    0  0.00000000000E+00  0.00000000000E+00  0.99999998245E-14  0.12500000000E+03  0.12500000000E+03 0.  0.
        -13    1    3    3    0    0 -0.31668460630E+02  0.73785632528E+01  0.19869028918E+02  0.38106745709E+02  0.10566000000E+00 0.  1.
         23    2    1    0    0    0  0.14904561433E+01  0.95276717837E+01 -0.27437436855E+02  0.95917171213E+02  0.91401820568E+02 0.  0.
         13    1    3    3    0    0  0.33158916773E+02  0.21491085309E+01 -0.47306465772E+02  0.57810425504E+02  0.10566000000E+00 0. -1.
         22    1    1    0    0    0 -0.14904561433E+01 -0.95276717837E+01  0.27437436855E+02  0.29082828787E+02  0.00000000000E+00 0. -1.
</event>
<event>
 5    1  0.1325832E-009  0.9118800E+02  0.7818608E-02  0.1130116E+00
         25   -1    0    0    0    0  0.00000000000E+00  0.00000000000E+00  0.99999998245E-14  0.12500000000E+03  0.12500000000E+03 0.  0.
        -13    1    3    3    0    0 -0.42137473990E+02  0.55045839226E+01  0.40147320079E+02  0.58460975291E+02  0.10566000000E+00 0.  1.
         23    2    1    0    0    0 -0.25638126469E+02 -0.11573278257E+02  0.14721244759E+02  0.93251467031E+02  0.87680481054E+02 0.  0.
         13    1    3    3    0    0  0.16499347522E+02 -0.17077862179E+02 -0.25426075320E+02  0.34790491740E+02  0.10566000000E+00 0. -1.
         22    1    1    0    0    0  0.25638126469E+02  0.11573278257E+02 -0.14721244759E+02  0.31748532969E+02  0.00000000000E+00 0.  1.
</event>
<event>
 5    1  0.1325832E-009  0.9118800E+02  0.7818608E-02  0.1130116E+00
         25   -1    0    0    0    0  0.00000000000E+00  0.00000000000E+00  0.99999998245E-14  0.12500000000E+03  0.12500000000E+03 0.  0.
        -13    1    3    3    0    0 -0.56343728148E+02 -0.95400435001E+01  0.10865774266E+02  0.58169617036E+02  0.10566000000E+00 0. -1.
         23    2    1    0    0    0 -0.33828774212E+02  0.79570166002E+01 -0.34520167986E+01  0.90076991856E+02  0.83031608222E+02 0.  0.
         13    1    3    3    0    0  0.22514953936E+02  0.17497060100E+02 -0.14317791064E+02  0.31907374820E+02  0.10566000000E+00 0.  1.
         22    1    1    0    0    0  0.33828774212E+02 -0.79570166002E+01  0.34520167986E+01  0.34923008144E+02  0.00000000000E+00 0. -1.
</event>
<event>
 5    1  0.1325832E-009  0.9118800E+02  0.7818608E-02  0.1130116E+00
         25   -1    0    0    0    0  0.00000000000E+00  0.00000000000E+00  0.99999998245E-14  0.12500000000E+03  0.12500000000E+03 0.  0.
        -13    1    3    3    0    0  0.16743056616E+02 -0.30697440388E+01  0.29340665650E+02  0.33921071595E+02  0.10566000000E+00 0.  1.
         23    2    1    0    0    0 -0.14211349997E+02 -0.77442109781E+01 -0.24167239946E+02  0.95914079711E+02  0.91397592571E+02 0.  0.
         13    1    3    3    0    0 -0.30954406613E+02 -0.46744669393E+01 -0.53507905597E+02  0.61993008116E+02  0.10566000000E+00 0. -1.
         22    1    1    0    0    0  0.14211349997E+02  0.77442109781E+01  0.24167239946E+02  0.29085920289E+02  0.00000000000E+00 0. -1.
</event>
<event>
 5    1  0.1325832E-009  0.9118800E+02  0.7818608E-02  0.1130116E+00
         25   -1    0    0    0    0  0.00000000000E+00  0.00000000000E+00  0.99999998245E-14  0.12500000000E+03  0.12500000000E+03 0.  0.
        -13    1    3    3    0    0  0.30417840580E+01  0.41346069823E+02  0.80455168274E+01  0.42231403542E+02  0.10566000000E+00 0. -1.
         23    2    1    0    0    0 -0.30086262446E+02  0.24680149141E+01  0.95691167504E+01  0.93332314878E+02  0.87795664583E+02 0.  0.
         13    1    3    3    0    0 -0.33128046504E+02 -0.38878054909E+02  0.15235999230E+01  0.51100911337E+02  0.10566000000E+00 0.  1.
         22    1    1    0    0    0  0.30086262446E+02 -0.24680149141E+01 -0.95691167504E+01  0.31667685122E+02  0.00000000000E+00 0.  1.
</event>
<event>
 5    1  0.1325832E-009  0.9118800E+02  0.7818608E-02  0.1130116E+00
         25   -1    0    0    0    0  0.00000000000E+00  0.00000000000E+00  0.99999998245E-14  0.12500000000E+03  0.12500000000E+03 0.  0.
        -13    1    3    3    0    0 -0.12945941555E+02 -0.21255606381E+02 -0.35686562390E+02  0.43507931514E+02  0.10566000000E+00 0. -1.
         23    2    1    0    0    0  0.87217489564E+01 -0.24647851321E+02  0.12177676152E+02  0.96157647876E+02  0.91730103940E+02 0.  0.
         13    1    3    3    0    0  0.21667690511E+02 -0.33922449403E+01  0.47864238541E+02  0.52649716362E+02  0.10566000000E+00 0.  1.
         22    1    1    0    0    0 -0.87217489564E+01  0.24647851321E+02 -0.12177676152E+02  0.28842352124E+02  0.00000000000E+00 0. -1.
</event>
<event>
 5    1  0.1325832E-009  0.9118800E+02  0.7818608E-02  0.1130116E+00
         25   -1    0    0    0    0  0.00000000000E+00  0.00000000000E+00  0.99999998245E-14  0.12500000000E+03  0.12500000000E+03 0.  0.
        -13    1    3    3    0    0 -0.34902175419E+02 -0.19945558784E+01 -0.18047977471E+00  0.34959745981E+02  0.10566000000E+00 0. -1.
         23    2    1    0    0    0  0.21760025699E+02  0.32852535157E+00  0.20285118097E+02  0.95249493054E+02  0.90484105033E+02 0.  0.
         13    1    3    3    0    0  0.56662201117E+02  0.23230812299E+01  0.20465597872E+02  0.60289747073E+02  0.10566000000E+00 0.  1.
         22    1    1    0    0    0 -0.21760025699E+02 -0.32852535157E+00 -0.20285118097E+02  0.29750506946E+02  0.00000000000E+00 0.  1.
</event>
<event>
 5    1  0.1325832E-009  0.9118800E+02  0.7818608E-02  0.1130116E+00
         25   -1    0    0    0    0  0.00000000000E+00  0.00000000000E+00  0.99999998245E-14  0.12500000000E+03  0.12500000000E+03 0.  0.
        -13    1    3    3    0    0 -0.16105589168E+02  0.34439926253E+02 -0.55675698810E+01  0.38425349982E+02  0.10566000000E+00 0. -1.
         23    2    1    0    0    0  0.37200051036E+00 -0.27279542966E+01 -0.35802278752E+02  0.89092016447E+02  0.81535293657E+02 0.  0.
         13    1    3    3    0    0  0.16477589678E+02 -0.37167880550E+02 -0.30234708871E+02  0.50666666465E+02  0.10566000000E+00 0.  1.
         22    1    1    0    0    0 -0.37200051036E+00  0.27279542966E+01  0.35802278752E+02  0.35907983553E+02  0.00000000000E+00 0.  1.
</event>
<event>
 5    1  0.1325832E-009  0.9118800E+02  0.7818608E-02  0.1130116E+00
         25   -1    0    0    0    0  0.00000000000E+00  0.00000000000E+00  0.99999998245E-14  0.12500000000E+03  0.12500000000E+03 0.  0.
        -13    1    3    3    0    0 -0.22187387471E+02  0.29162540633E+02  0.83281036265E+00  0.36652949078E+02  0.10566000000E+00 0. -1.
         23    2    1    0    0    0 -0.76549746291E+00 -0.24109353098E+02 -0.15474468208E+02  0.96341562159E+02  0.91980381277E+02 0.  0.
         13    1    3    3    0    0  0.21421890008E+02 -0.53271893731E+02 -0.16307278570E+02  0.59688613082E+02  0.10566000000E+00 0.  1.
         22    1    1    0    0    0  0.76549746291E+00  0.24109353098E+02  0.15474468208E+02  0.28658437841E+02  0.00000000000E+00 0.  1.
</event>
<event>
 5    1  0.1325832E-009  0.9118800E+02  0.7818608E-02  0.1130116E+00
         25   -1    0    0    0    0  0.00000000000E+00  0.00000000000E+00  0.99999998245E-14  0.12500000000E+03  0.12500000000E+03 0.  0.
        -13    1    3    3    0    0  0.12272820304E+02  0.38226366598E+02  0.23019831550E+02  0.46279596261E+02  0.10566000000E+00 0.  1.
         23    2    1    0    0    0  0.11764692449E+02  0.16740511962E+02 -0.21256126074E+02  0.95496176099E+02  0.90824247999E+02 0.  0.
         13    1    3    3    0    0 -0.50812785502E+00 -0.21485854637E+02 -0.44275957623E+02  0.49216579837E+02  0.10566000000E+00 0. -1.
         22    1    1    0    0    0 -0.11764692449E+02 -0.16740511962E+02  0.21256126074E+02  0.29503823901E+02  0.00000000000E+00 0.  1.
</event>
<event>
 5    1  0.1325832E-009  0.9118800E+02  0.7818608E-02  0.1130116E+00
         25   -1    0    0    0    0  0.00000000000E+00  0.00000000000E+00  0.99999998245E-14  0.12500000000E+03  0.12500000000E+03 0.  0.
        -13    1    3    3    0    0  0.24774213273E+02  0.39387761533E+02  0.33725695675E+02  0.57468174799E+02  0.10566000000E+00 0. -1.
         23    2    1    0    0    0  0.19099340613E+02  0.36628234209E+01  0.22318852824E+02  0.95397090031E+02  0.90687774852E+02 0.  0.
         13    1    3    3    0    0 -0.56748726597E+01 -0.35724938112E+02 -0.11406842851E+02  0.37928915232E+02  0.10566000000E+00 0.  1.
         22    1    1    0    0    0 -0.19099340613E+02 -0.36628234209E+01 -0.22318852824E+02  0.29602909969E+02  0.00000000000E+00 0. -1.
</event>
<event>
 5    1  0.1325832E-009  0.9118800E+02  0.7818608E-02  0.1130116E+00
         25   -1    0    0    0    0  0.00000000000E+00  0.00000000000E+00  0.99999998245E-14  0.12500000000E+03  0.12500000000E+03 0.  0.
        -13    1    3    3    0    0  0.16952482366E+02 -0.22781379436E+02 -0.19948369923E+02  0.34703408103E+02  0.10566000000E+00 0.  1.
         23    2    1    0    0    0 -0.26366429707E+02  0.15035987240E+01  0.14240626024E+02  0.94995919374E+02  0.90133122899E+02 0.  0.
         13    1    3    3    0    0 -0.43318912073E+02  0.24284978160E+02  0.34188995947E+02  0.60292511271E+02  0.10566000000E+00 0. -1.
         22    1    1    0    0    0  0.26366429707E+02 -0.15035987240E+01 -0.14240626024E+02  0.30004080626E+02  0.00000000000E+00 0. -1.
</event>
<event>
 5    1  0.1325832E-009  0.9118800E+02  0.7818608E-02  0.1130116E+00
         25   -1    0    0    0    0  0.00000000000E+00  0.00000000000E+00  0.99999998245E-14  0.12500000000E+03  0.12500000000E+03 0.  0.
        -13    1    3    3    0    0  0.23559955670E+02 -0.58204236245E+01 -0.25128210420E+02  0.34934037346E+02  0.10566000000E+00 0.  1.
         23    2    1    0    0    0 -0.15516368548E+01 -0.92045304930E+01  0.28911264543E+02  0.94619213703E+02  0.89609170434E+02 0.  0.
         13    1    3    3    0    0 -0.25111592525E+02 -0.33841068684E+01  0.54039474963E+02  0.59685176357E+02  0.10566000000E+00 0. -1.
         22    1    1    0    0    0  0.15516368548E+01  0.92045304930E+01 -0.28911264543E+02  0.30380786297E+02  0.00000000000E+00 0. -1.
</event>
<event>
 5    1  0.1325832E-009  0.9118800E+02  0.7818608E-02  0.1130116E+00
         25   -1    0    0    0    0  0.00000000000E+00  0.00000000000E+00  0.99999998245E-14  0.12500000000E+03  0.12500000000E+03 0.  0.
        -13    1    3    3    0    0 -0.30692080508E+02  0.15373172857E+02 -0.46357885899E+02  0.57683645851E+02  0.10566000000E+00 0. -1.
         23    2    1    0    0    0  0.53470759818E+00  0.11236338696E+02 -0.29537279812E+02  0.93393163426E+02  0.87882255641E+02 0.  0.
         13    1    3    3    0    0  0.31226788107E+02 -0.41368341607E+01  0.16820606087E+02  0.35709517576E+02  0.10566000000E+00 0.  1.
         22    1    1    0    0    0 -0.53470759818E+00 -0.11236338696E+02  0.29537279812E+02  0.31606836574E+02  0.00000000000E+00 0. -1.
</event>
<event>
 5    1  0.1325832E-009  0.9118800E+02  0.7818608E-02  0.1130116E+00
         25   -1    0    0    0    0  0.00000000000E+00  0.00000000000E+00  0.99999998245E-14  0.12500000000E+03  0.12500000000E+03 0.  0.
        -13    1    3    3    0    0 -0.11818276858E+02  0.24731981638E+02  0.20851720276E+02  0.34440499215E+02  0.10566000000E+00 0. -1.
         23    2    1    0    0    0 -0.11436214059E+02 -0.42053615461E+01 -0.29815772369E+02  0.92790493023E+02  0.87020820818E+02 0.  0.
         13    1    3    3    0    0  0.38206279934E+00 -0.28937343184E+02 -0.50667492645E+02  0.58349993809E+02  0.10566000000E+00 0.  1.
         22    1    1    0    0    0  0.11436214059E+02  0.42053615461E+01  0.29815772369E+02  0.32209506977E+02  0.00000000000E+00 0.  1.
</event>
<event>
 5    1  0.1325832E-009  0.9118800E+02  0.7818608E-02  0.1130116E+00
         25   -1    0    0    0    0  0.00000000000E+00  0.00000000000E+00  0.99999998245E-14  0.12500000000E+03  0.12500000000E+03 0.  0.
        -13    1    3    3    0    0  0.16901163957E+02 -0.86797865079E+00 -0.29688278201E+02  0.34173202317E+02  0.10566000000E+00 0. -1.
         23    2    1    0    0    0  0.21436284584E+01  0.65182544267E+01  0.29031826487E+02  0.95168309922E+02  0.90371884347E+02 0.  0.
         13    1    3    3    0    0 -0.14757535499E+02  0.73862330775E+01  0.58720104688E+02  0.60995107605E+02  0.10566000000E+00 0.  1.
         22    1    1    0    0    0 -0.21436284584E+01 -0.65182544267E+01 -0.29031826487E+02  0.29831690078E+02  0.00000000000E+00 0.  1.
</event>
<event>
 5    1  0.1325832E-009  0.9118800E+02  0.7818608E-02  0.1130116E+00
         25   -1    0    0    0    0  0.00000000000E+00  0.00000000000E+00  0.99999998245E-14  0.12500000000E+03  0.12500000000E+03 0.  0.
        -13    1    3    3    0    0  0.34408485293E+02 -0.12369132180E+02  0.47309191619E+02  0.59792224132E+02  0.10566000000E+00 0. -1.
         23    2    1    0    0    0  0.48060742103E+01 -0.57706213881E+01  0.28606182397E+02  0.95424468021E+02  0.90725503610E+02 0.  0.
         13    1    3    3    0    0 -0.29602411082E+02  0.65985107918E+01 -0.18703009222E+02  0.35632243889E+02  0.10566000000E+00 0.  1.
         22    1    1    0    0    0 -0.48060742103E+01  0.57706213881E+01 -0.28606182397E+02  0.29575531979E+02  0.00000000000E+00 0. -1.
</event>
<event>
 5    1  0.1325832E-009  0.9118800E+02  0.7818608E-02  0.1130116E+00
         25   -1    0    0    0    0  0.00000000000E+00  0.00000000000E+00  0.99999998245E-14  0.12500000000E+03  0.12500000000E+03 0.  0.
        -13    1    3    3    0    0  0.20187074981E+02 -0.22292810640E+02 -0.65215323130E+01  0.30773835482E+02  0.10566000000E+00 0.  1.
         23    2    1    0    0    0 -0.28282669449E+02  0.15462345107E+02  0.14840188102E+01  0.92732433944E+02  0.86937382558E+02 0.  0.
         13    1    3    3    0    0 -0.48469744430E+02  0.37755155747E+02  0.80055511232E+01  0.61958598462E+02  0.10566000000E+00 0. -1.
         22    1    1    0    0    0  0.28282669449E+02 -0.15462345107E+02 -0.14840188102E+01  0.32267566056E+02  0.00000000000E+00 0. -1.
</event>
<event>
 5    1  0.1325832E-009  0.9118800E+02  0.7818608E-02  0.1130116E+00
         25   -1    0    0    0    0  0.00000000000E+00  0.00000000000E+00  0.99999998245E-14  0.12500000000E+03  0.12500000000E+03 0.  0.
        -13    1    3    3    0    0  0.36233989270E+02 -0.14590347410E+02 -0.14857876274E+01  0.39089627075E+02  0.10566000000E+00 0.  1.
         23    2    1    0    0    0 -0.14576644335E+02 -0.40853253065E+01 -0.24778169225E+02  0.95963366017E+02  0.91464974193E+02 0.  0.
         13    1    3    3    0    0 -0.50810633605E+02  0.10505022104E+02 -0.23292381597E+02  0.56873738942E+02  0.10566000000E+00 0. -1.
         22    1    1    0    0    0  0.14576644335E+02  0.40853253065E+01  0.24778169225E+02  0.29036633983E+02  0.00000000000E+00 0. -1.
</event>
<event>
 5    1  0.1325832E-009  0.9118800E+02  0.7818608E-02  0.1130116E+00
         25   -1    0    0    0    0  0.00000000000E+00  0.00000000000E+00  0.99999998245E-14  0.12500000000E+03  0.12500000000E+03 0.  0.
        -13    1    3    3    0    0  0.93181265736E+01 -0.20662511669E+02 -0.24858039166E+02  0.33640751278E+02  0.10566000000E+00 0. -1.
         23    2    1    0    0    0 -0.16811447413E+02  0.15510658945E+02  0.18289661277E+02  0.95713193847E+02  0.91122436654E+02 0.  0.
         13    1    3    3    0    0 -0.26129573986E+02  0.36173170614E+02  0.43147700443E+02  0.62072442569E+02  0.10566000000E+00 0.  1.
         22    1    1    0    0    0  0.16811447413E+02 -0.15510658945E+02 -0.18289661277E+02  0.29286806153E+02  0.00000000000E+00 0.  1.
</event>
<event>
 5    1  0.1325832E-009  0.9118800E+02  0.7818608E-02  0.1130116E+00
         25   -1    0    0    0    0  0.00000000000E+00  0.00000000000E+00  0.99999998245E-14  0.12500000000E+03  0.12500000000E+03 0.  0.
        -13    1    3    3    0    0  0.34464607864E+02 -0.40436701916E+02 -0.11290029143E+02  0.54317694899E+02  0.10566000000E+00 0. -1.
         23    2    1    0    0    0  0.22541253453E+02 -0.41760091996E+01  0.12092816028E+02  0.99081216086E+02  0.95631082926E+02 0.  0.
         13    1    3    3    0    0 -0.11923354411E+02  0.36260692717E+02  0.23382845172E+02  0.44763521187E+02  0.10566000000E+00 0.  1.
         22    1    1    0    0    0 -0.22541253453E+02  0.41760091996E+01 -0.12092816028E+02  0.25918783914E+02  0.00000000000E+00 0. -1.
</event>
<event>
 5    1  0.1325832E-009  0.9118800E+02  0.7818608E-02  0.1130116E+00
         25   -1    0    0    0    0  0.00000000000E+00  0.00000000000E+00  0.99999998245E-14  0.12500000000E+03  0.12500000000E+03 0.  0.
        -13    1    3    3    0    0 -0.30557660081E+02  0.28598227864E+02  0.35883684885E+02  0.55129658365E+02  0.10566000000E+00 0.  1.
         23    2    1    0    0    0 -0.69227639923E+01  0.32986429518E+02  0.11457634073E+02  0.89400750399E+02  0.82007241142E+02 0.  0.
         13    1    3    3    0    0  0.23634896089E+02  0.43882016541E+01 -0.24426050812E+02  0.34271092034E+02  0.10566000000E+00 0. -1.
         22    1    1    0    0    0  0.69227639923E+01 -0.32986429518E+02 -0.11457634073E+02  0.35599249601E+02  0.00000000000E+00 0.  1.
</event>
<event>
 5    1  0.1325832E-009  0.9118800E+02  0.7818608E-02  0.1130116E+00
         25   -1    0    0    0    0  0.00000000000E+00  0.00000000000E+00  0.99999998245E-14  0.12500000000E+03  0.12500000000E+03 0.  0.
        -13    1    3    3    0    0  0.47333007018E+02 -0.44682176140E+01  0.38162329252E+02  0.60965179078E+02  0.10566000000E+00 0.  1.
         23    2    1    0    0    0  0.19575090780E+02 -0.10828218336E+02  0.21572807472E+02  0.93922347038E+02  0.88631748034E+02 0.  0.
         13    1    3    3    0    0 -0.27757916238E+02 -0.63600007218E+01 -0.16589521780E+02  0.32957167961E+02  0.10566000000E+00 0. -1.
         22    1    1    0    0    0 -0.19575090780E+02  0.10828218336E+02 -0.21572807472E+02  0.31077652962E+02  0.00000000000E+00 0.  1.
</event>
<event>
 5    1  0.1325832E-009  0.9118800E+02  0.7818608E-02  0.1130116E+00
         25   -1    0    0    0    0  0.00000000000E+00  0.00000000000E+00  0.99999998245E-14  0.12500000000E+03  0.12500000000E+03 0.  0.
        -13    1    3    3    0    0 -0.24463525262E+02 -0.10178899366E+01  0.36040333168E+02  0.43570826789E+02  0.10566000000E+00 0.  1.
         23    2    1    0    0    0  0.75458770370E+01  0.27742958146E+02  0.72404187218E+01  0.95351464620E+02  0.90624864992E+02 0.  0.
         13    1    3    3    0    0  0.32009402299E+02  0.28760848082E+02 -0.28799914447E+02  0.51780637830E+02  0.10566000000E+00 0. -1.
         22    1    1    0    0    0 -0.75458770370E+01 -0.27742958146E+02 -0.72404187218E+01  0.29648535380E+02  0.00000000000E+00 0.  1.
</event>
<event>
 5    1  0.1325832E-009  0.9118800E+02  0.7818608E-02  0.1130116E+00
         25   -1    0    0    0    0  0.00000000000E+00  0.00000000000E+00  0.99999998245E-14  0.12500000000E+03  0.12500000000E+03 0.  0.
        -13    1    3    3    0    0  0.25305647866E+02  0.28232558204E+02 -0.22653736915E+02  0.44166232768E+02  0.10566000000E+00 0.  1.
         23    2    1    0    0    0  0.10127669261E+02 -0.22479111825E+02 -0.67793249741E+01  0.99429716463E+02  0.96085530209E+02 0.  0.
         13    1    3    3    0    0 -0.15177978605E+02 -0.50711670028E+02  0.15874411941E+02  0.55263483695E+02  0.10566000000E+00 0. -1.
         22    1    1    0    0    0 -0.10127669261E+02  0.22479111825E+02  0.67793249741E+01  0.25570283537E+02  0.00000000000E+00 0. -1.
</event>
<event>
 5    1  0.1325832E-009  0.9118800E+02  0.7818608E-02  0.1130116E+00
         25   -1    0    0    0    0  0.00000000000E+00  0.00000000000E+00  0.99999998245E-14  0.12500000000E+03  0.12500000000E+03 0.  0.
        -13    1    3    3    0    0 -0.32631347791E+02 -0.42235035548E+02  0.25664952950E+02  0.59222496235E+02  0.10566000000E+00 0.  1.
         23    2    1    0    0    0 -0.45510550267E+01 -0.28027169493E+02  0.72108616903E+01  0.95704422553E+02  0.91110403567E+02 0.  0.
         13    1    3    3    0    0  0.28080292764E+02  0.14207866054E+02 -0.18454091260E+02  0.36481926317E+02  0.10566000000E+00 0. -1.
         22    1    1    0    0    0  0.45510550267E+01  0.28027169493E+02 -0.72108616903E+01  0.29295577447E+02  0.00000000000E+00 0.  1.
</event>
<event>
 5    1  0.1325832E-009  0.9118800E+02  0.7818608E-02  0.1130116E+00
         25   -1    0    0    0    0  0.00000000000E+00  0.00000000000E+00  0.99999998245E-14  0.12500000000E+03  0.12500000000E+03 0.  0.
        -13    1    3    3    0    0  0.13777491387E+02 -0.27217701598E+02 -0.24168007073E+02  0.38919484569E+02  0.10566000000E+00 0. -1.
         23    2    1    0    0    0  0.20537049622E+02  0.20207024893E+02  0.60529257704E+01  0.95559684571E+02  0.90911611704E+02 0.  0.
         13    1    3    3    0    0  0.67595582356E+01  0.47424726491E+02  0.30220932843E+02  0.56640200002E+02  0.10566000000E+00 0.  1.
         22    1    1    0    0    0 -0.20537049622E+02 -0.20207024893E+02 -0.60529257704E+01  0.29440315429E+02  0.00000000000E+00 0.  1.
</event>
<event>
 5    1  0.1325832E-009  0.9118800E+02  0.7818608E-02  0.1130116E+00
         25   -1    0    0    0    0  0.00000000000E+00  0.00000000000E+00  0.99999998245E-14  0.12500000000E+03  0.12500000000E+03 0.  0.
        -13    1    3    3    0    0  0.63951984926E+01  0.11727078547E+02  0.41981951310E+02  0.44055854717E+02  0.10566000000E+00 0.  1.
         23    2    1    0    0    0  0.32958637502E+02  0.52834235047E+01  0.32485485882E+01  0.91462865092E+02  0.85092398444E+02 0.  0.
         13    1    3    3    0    0  0.26563439009E+02 -0.64436550426E+01 -0.38733402722E+02  0.47407010375E+02  0.10566000000E+00 0. -1.
         22    1    1    0    0    0 -0.32958637502E+02 -0.52834235047E+01 -0.32485485882E+01  0.33537134908E+02  0.00000000000E+00 0.  1.
</event>
<event>
 5    1  0.1325832E-009  0.9118800E+02  0.7818608E-02  0.1130116E+00
         25   -1    0    0    0    0  0.00000000000E+00  0.00000000000E+00  0.99999998245E-14  0.12500000000E+03  0.12500000000E+03 0.  0.
        -13    1    3    3    0    0 -0.47016615914E+02  0.25044848642E+02 -0.17982816592E+02  0.56224545104E+02  0.10566000000E+00 0. -1.
         23    2    1    0    0    0 -0.92848889142E+01  0.26978762650E+02 -0.61803831563E+01  0.95806508735E+02  0.91250354430E+02 0.  0.
         13    1    3    3    0    0  0.37731727000E+02  0.19339140089E+01  0.11802433436E+02  0.39581963631E+02  0.10566000000E+00 0.  1.
         22    1    1    0    0    0  0.92848889142E+01 -0.26978762650E+02  0.61803831563E+01  0.29193491265E+02  0.00000000000E+00 0. -1.
</event>
<event>
 5    1  0.1325832E-009  0.9118800E+02  0.7818608E-02  0.1130116E+00
         25   -1    0    0    0    0  0.00000000000E+00  0.00000000000E+00  0.99999998245E-14  0.12500000000E+03  0.12500000000E+03 0.  0.
        -13    1    3    3    0    0  0.36922006217E+02 -0.11605747075E+02  0.29248050952E+02  0.48511725971E+02  0.10566000000E+00 0. -1.
         23    2    1    0    0    0  0.55462609441E+01  0.21978066214E+02  0.18573840760E+02  0.95694983952E+02  0.91097453247E+02 0.  0.
         13    1    3    3    0    0 -0.31375745273E+02  0.33583813289E+02 -0.10674210191E+02  0.47183257981E+02  0.10566000000E+00 0.  1.
         22    1    1    0    0    0 -0.55462609441E+01 -0.21978066214E+02 -0.18573840760E+02  0.29305016048E+02  0.00000000000E+00 0. -1.
</event>
<event>
 5    1  0.1325832E-009  0.9118800E+02  0.7818608E-02  0.1130116E+00
         25   -1    0    0    0    0  0.00000000000E+00  0.00000000000E+00  0.99999998245E-14  0.12500000000E+03  0.12500000000E+03 0.  0.
        -13    1    3    3    0    0  0.36064818740E+02  0.24055628813E+02 -0.33984032861E+02  0.55084209007E+02  0.10566000000E+00 0.  1.
         23    2    1    0    0    0  0.10396249947E+02 -0.75192300407E+01 -0.25211742896E+02  0.96711259957E+02  0.92481430510E+02 0.  0.
         13    1    3    3    0    0 -0.25668568793E+02 -0.31574858854E+02  0.87722899650E+01  0.41627050950E+02  0.10566000000E+00 0. -1.
         22    1    1    0    0    0 -0.10396249947E+02  0.75192300407E+01  0.25211742896E+02  0.28288740043E+02  0.00000000000E+00 0.  1.
</event>
<event>
 5    1  0.1325832E-009  0.9118800E+02  0.7818608E-02  0.1130116E+00
         25   -1    0    0    0    0  0.00000000000E+00  0.00000000000E+00  0.99999998245E-14  0.12500000000E+03  0.12500000000E+03 0.  0.
        -13    1    3    3    0    0  0.35096051693E+02  0.43488355768E+02  0.26387393933E+02  0.61800288465E+02  0.10566000000E+00 0. -1.
         23    2    1    0    0    0  0.17737625809E+02  0.22161081654E+02  0.61164359398E+01  0.95962994334E+02  0.91464466234E+02 0.  0.
         13    1    3    3    0    0 -0.17358425884E+02 -0.21327274113E+02 -0.20270957994E+02  0.34162705869E+02  0.10566000000E+00 0.  1.
         22    1    1    0    0    0 -0.17737625809E+02 -0.22161081654E+02 -0.61164359398E+01  0.29037005666E+02  0.00000000000E+00 0. -1.
</event>
<event>
 5    1  0.1325832E-009  0.9118800E+02  0.7818608E-02  0.1130116E+00
         25   -1    0    0    0    0  0.00000000000E+00  0.00000000000E+00  0.99999998245E-14  0.12500000000E+03  0.12500000000E+03 0.  0.
        -13    1    3    3    0    0  0.54587790508E+02 -0.24004724146E+02 -0.13228187454E+02  0.61082319547E+02  0.10566000000E+00 0. -1.
         23    2    1    0    0    0  0.21905010567E+02 -0.11637249943E+02 -0.14895579466E+02  0.96066742979E+02  0.91606144689E+02 0.  0.
         13    1    3    3    0    0 -0.32682779940E+02  0.12367474203E+02 -0.16673920113E+01  0.34984423433E+02  0.10566000000E+00 0.  1.
         22    1    1    0    0    0 -0.21905010567E+02  0.11637249943E+02  0.14895579466E+02  0.28933257021E+02  0.00000000000E+00 0. -1.
</event>
<event>
 5    1  0.1325832E-009  0.9118800E+02  0.7818608E-02  0.1130116E+00
         25   -1    0    0    0    0  0.00000000000E+00  0.00000000000E+00  0.99999998245E-14  0.12500000000E+03  0.12500000000E+03 0.  0.
        -13    1    3    3    0    0 -0.32667652845E+02  0.18254604503E+02 -0.43771176284E+02  0.57587612950E+02  0.10566000000E+00 0. -1.
         23    2    1    0    0    0 -0.10152560531E+02  0.23845771328E+02 -0.13345959592E+02  0.95848500330E+02  0.91307858821E+02 0.  0.
         13    1    3    3    0    0  0.22515092314E+02  0.55911668255E+01  0.30425216692E+02  0.38260887381E+02  0.10566000000E+00 0.  1.
         22    1    1    0    0    0  0.10152560531E+02 -0.23845771328E+02  0.13345959592E+02  0.29151499670E+02  0.00000000000E+00 0. -1.
</event>
<event>
 5    1  0.1325832E-009  0.9118800E+02  0.7818608E-02  0.1130116E+00
         25   -1    0    0    0    0  0.00000000000E+00  0.00000000000E+00  0.99999998245E-14  0.12500000000E+03  0.12500000000E+03 0.  0.
        -13    1    3    3    0    0 -0.35355383227E+02  0.41329668408E+02  0.11186532259E+02  0.55527419190E+02  0.10566000000E+00 0. -1.
         23    2    1    0    0    0 -0.27925958004E+02  0.85823435190E+01 -0.86536276261E+01  0.94530326194E+02  0.89485091208E+02 0.  0.
         13    1    3    3    0    0  0.74294252232E+01 -0.32747324889E+02 -0.19840159885E+02  0.39002907005E+02  0.10566000000E+00 0.  1.
         22    1    1    0    0    0  0.27925958004E+02 -0.85823435190E+01  0.86536276261E+01  0.30469673806E+02  0.00000000000E+00 0. -1.
</event>
<event>
 5    1  0.1325832E-009  0.9118800E+02  0.7818608E-02  0.1130116E+00
         25   -1    0    0    0    0  0.00000000000E+00  0.00000000000E+00  0.99999998245E-14  0.12500000000E+03  0.12500000000E+03 0.  0.
        -13    1    3    3    0    0  0.26353213027E+02 -0.41141541025E+02 -0.14577770523E+02  0.50986672692E+02  0.10566000000E+00 0.  1.
         23    2    1    0    0    0 -0.80040633581E+01 -0.26252147711E+02  0.10014009775E+02  0.95784923730E+02  0.91220781254E+02 0.  0.
         13    1    3    3    0    0 -0.34357276385E+02  0.14889393314E+02  0.24591780298E+02  0.44798251038E+02  0.10566000000E+00 0. -1.
         22    1    1    0    0    0  0.80040633581E+01  0.26252147711E+02 -0.10014009775E+02  0.29215076270E+02  0.00000000000E+00 0.  1.
</event>
<event>
 5    1  0.1325832E-009  0.9118800E+02  0.7818608E-02  0.1130116E+00
         25   -1    0    0    0    0  0.00000000000E+00  0.00000000000E+00  0.99999998245E-14  0.12500000000E+03  0.12500000000E+03 0.  0.
        -13    1    3    3    0    0 -0.15960429968E+02  0.14053152183E+02  0.27016944018E+02  0.34382449581E+02  0.10566000000E+00 0.  1.
         23    2    1    0    0    0  0.10224452278E+02  0.29084755093E+01 -0.27300313767E+02  0.95703143753E+02  0.91108649086E+02 0.  0.
         13    1    3    3    0    0  0.26184882246E+02 -0.11144676674E+02 -0.54317257785E+02  0.61320694172E+02  0.10566000000E+00 0. -1.
         22    1    1    0    0    0 -0.10224452278E+02 -0.29084755093E+01  0.27300313767E+02  0.29296856247E+02  0.00000000000E+00 0. -1.
</event>
<event>
 5    1  0.1325832E-009  0.9118800E+02  0.7818608E-02  0.1130116E+00
         25   -1    0    0    0    0  0.00000000000E+00  0.00000000000E+00  0.99999998245E-14  0.12500000000E+03  0.12500000000E+03 0.  0.
        -13    1    3    3    0    0  0.25143812697E+02 -0.45417815807E+01  0.35435941166E+02  0.43687025388E+02  0.10566000000E+00 0.  1.
         23    2    1    0    0    0  0.30839405621E+02  0.27602714582E+01 -0.11831915481E+02  0.91853623704E+02  0.85664496298E+02 0.  0.
         13    1    3    3    0    0  0.56955929240E+01  0.73020530389E+01 -0.47267856647E+02  0.48166598317E+02  0.10566000000E+00 0. -1.
         22    1    1    0    0    0 -0.30839405621E+02 -0.27602714582E+01  0.11831915481E+02  0.33146376296E+02  0.00000000000E+00 0. -1.
</event>
<event>
 5    1  0.1325832E-009  0.9118800E+02  0.7818608E-02  0.1130116E+00
         25   -1    0    0    0    0  0.00000000000E+00  0.00000000000E+00  0.99999998245E-14  0.12500000000E+03  0.12500000000E+03 0.  0.
        -13    1    3    3    0    0 -0.38294901033E+02  0.35413402502E+02 -0.19203580688E+02  0.55582346093E+02  0.10566000000E+00 0.  1.
         23    2    1    0    0    0 -0.36319453700E+02  0.70872387281E+01 -0.17601417072E+02  0.84022670258E+02  0.73353033779E+02 0.  0.
         13    1    3    3    0    0  0.19754473338E+01 -0.28326163774E+02  0.16021636165E+01  0.28440324165E+02  0.10566000000E+00 0. -1.
         22    1    1    0    0    0  0.36319453700E+02 -0.70872387281E+01  0.17601417072E+02  0.40977329742E+02  0.00000000000E+00 0.  1.
</event>
<event>
 5    1  0.1325832E-009  0.9118800E+02  0.7818608E-02  0.1130116E+00
         25   -1    0    0    0    0  0.00000000000E+00  0.00000000000E+00  0.99999998245E-14  0.12500000000E+03  0.12500000000E+03 0.  0.
        -13    1    3    3    0    0  0.41015541203E+02  0.43053271935E+02 -0.13461424524E+02  0.60967860047E+02  0.10566000000E+00 0.  1.
         23    2    1    0    0    0  0.74066144099E+01  0.20352738578E+02 -0.13294637829E+01  0.10330070557E+03  0.10099592266E+03 0.  0.
         13    1    3    3    0    0 -0.33608926793E+02 -0.22700533357E+02  0.12131960741E+02  0.42332845526E+02  0.10566000000E+00 0. -1.
         22    1    1    0    0    0 -0.74066144099E+01 -0.20352738578E+02  0.13294637829E+01  0.21699294426E+02  0.00000000000E+00 0.  1.
</event>
<event>
 5    1  0.1325832E-009  0.9118800E+02  0.7818608E-02  0.1130116E+00
         25   -1    0    0    0    0  0.00000000000E+00  0.00000000000E+00  0.99999998245E-14  0.12500000000E+03  0.12500000000E+03 0.  0.
        -13    1    3    3    0    0  0.24227294631E+02  0.80595130443E+01 -0.15851929455E+02  0.30053492096E+02  0.10566000000E+00 0.  1.
         23    2    1    0    0    0 -0.23022104986E+02  0.12778690683E+02  0.21928195178E+02  0.90734011071E+02  0.84014896106E+02 0.  0.
         13    1    3    3    0    0 -0.47249399617E+02  0.47191776386E+01  0.37780124633E+02  0.60680518975E+02  0.10566000000E+00 0. -1.
         22    1    1    0    0    0  0.23022104986E+02 -0.12778690683E+02 -0.21928195178E+02  0.34265988929E+02  0.00000000000E+00 0. -1.
</event>
<event>
 5    1  0.1325832E-009  0.9118800E+02  0.7818608E-02  0.1130116E+00
         25   -1    0    0    0    0  0.00000000000E+00  0.00000000000E+00  0.99999998245E-14  0.12500000000E+03  0.12500000000E+03 0.  0.
        -13    1    3    3    0    0 -0.98251290898E+01 -0.29840804115E+02  0.17715336767E+02  0.36067313078E+02  0.10566000000E+00 0.  1.
         23    2    1    0    0    0  0.83926834889E+01  0.10905553798E+02 -0.24112522845E+02  0.97237039104E+02  0.93189375875E+02 0.  0.
         13    1    3    3    0    0  0.18217812579E+02  0.40746357913E+02 -0.41827859612E+02  0.61169726026E+02  0.10566000000E+00 0. -1.
         22    1    1    0    0    0 -0.83926834889E+01 -0.10905553798E+02  0.24112522845E+02  0.27762960896E+02  0.00000000000E+00 0. -1.
</event>
<event>
 5    1  0.1325832E-009  0.9118800E+02  0.7818608E-02  0.1130116E+00
         25   -1    0    0    0    0  0.00000000000E+00  0.00000000000E+00  0.99999998245E-14  0.12500000000E+03  0.12500000000E+03 0.  0.
        -13    1    3    3    0    0  0.40891008632E+02 -0.36181642813E+00 -0.27246512536E+02  0.49138468714E+02  0.10566000000E+00 0. -1.
         23    2    1    0    0    0 -0.44323363069E+01  0.20086604008E+02 -0.12183585682E+02  0.10109274115E+03  0.98225176442E+02 0.  0.
         13    1    3    3    0    0 -0.45323344939E+02  0.20448420436E+02  0.15062926854E+02  0.51954272435E+02  0.10566000000E+00 0.  1.
         22    1    1    0    0    0  0.44323363069E+01 -0.20086604008E+02  0.12183585682E+02  0.23907258851E+02  0.00000000000E+00 0.  1.
</event>
<event>
 5    1  0.1325832E-009  0.9118800E+02  0.7818608E-02  0.1130116E+00
         25   -1    0    0    0    0  0.00000000000E+00  0.00000000000E+00  0.99999998245E-14  0.12500000000E+03  0.12500000000E+03 0.  0.
        -13    1    3    3    0    0 -0.31548287521E+02 -0.35064666099E+02 -0.31517968975E+02  0.56729346784E+02  0.10566000000E+00 0. -1.
         23    2    1    0    0    0 -0.24468883074E+02 -0.16680384504E+02  0.16867470781E+01  0.95338466294E+02  0.90606934467E+02 0.  0.
         13    1    3    3    0    0  0.70794044468E+01  0.18384281595E+02  0.33204716053E+02  0.38609119510E+02  0.10566000000E+00 0.  1.
         22    1    1    0    0    0  0.24468883074E+02  0.16680384504E+02 -0.16867470781E+01  0.29661533706E+02  0.00000000000E+00 0. -1.
</event>
<event>
 5    1  0.1325832E-009  0.9118800E+02  0.7818608E-02  0.1130116E+00
         25   -1    0    0    0    0  0.00000000000E+00  0.00000000000E+00  0.99999998245E-14  0.12500000000E+03  0.12500000000E+03 0.  0.
        -13    1    3    3    0    0  0.11595137345E+02 -0.45333639485E+02  0.19911338072E+02  0.50853304975E+02  0.10566000000E+00 0. -1.
         23    2    1    0    0    0 -0.12267346060E+02 -0.26079989420E+02 -0.10772912669E+02  0.94231358905E+02  0.89066490478E+02 0.  0.
         13    1    3    3    0    0 -0.23862483406E+02  0.19253650065E+02 -0.30684250741E+02  0.43378053930E+02  0.10566000000E+00 0.  1.
         22    1    1    0    0    0  0.12267346060E+02  0.26079989420E+02  0.10772912669E+02  0.30768641095E+02  0.00000000000E+00 0. -1.
</event>
<event>
 5    1  0.1325832E-009  0.9118800E+02  0.7818608E-02  0.1130116E+00
         25   -1    0    0    0    0  0.00000000000E+00  0.00000000000E+00  0.99999998245E-14  0.12500000000E+03  0.12500000000E+03 0.  0.
        -13    1    3    3    0    0 -0.95789482178E+01 -0.42068892410E+02 -0.35650630363E+01  0.43292826150E+02  0.10566000000E+00 0. -1.
         23    2    1    0    0    0  0.96896047586E+00 -0.43270804648E+01  0.29867899655E+02  0.94804736472E+02  0.89867592145E+02 0.  0.
         13    1    3    3    0    0  0.10547908694E+02  0.37741811945E+02  0.33432962691E+02  0.51511910322E+02  0.10566000000E+00 0.  1.
         22    1    1    0    0    0 -0.96896047586E+00  0.43270804648E+01 -0.29867899655E+02  0.30195263528E+02  0.00000000000E+00 0.  1.
</event>
<event>
 5    1  0.1325832E-009  0.9118800E+02  0.7818608E-02  0.1130116E+00
         25   -1    0    0    0    0  0.00000000000E+00  0.00000000000E+00  0.99999998245E-14  0.12500000000E+03  0.12500000000E+03 0.  0.
        -13    1    3    3    0    0  0.52393617706E+02 -0.16310346271E+02 -0.12594523522E+02  0.56300548475E+02  0.10566000000E+00 0.  1.
         23    2    1    0    0    0  0.21100669833E+02 -0.92582098332E+01  0.14059483759E+02  0.98007004607E+02  0.94216512097E+02 0.  0.
         13    1    3    3    0    0 -0.31292947873E+02  0.70521364379E+01  0.26654007280E+02  0.41706456132E+02  0.10566000000E+00 0. -1.
         22    1    1    0    0    0 -0.21100669833E+02  0.92582098332E+01 -0.14059483759E+02  0.26992995393E+02  0.00000000000E+00 0.  1.
</event>
<event>
 5    1  0.1325832E-009  0.9118800E+02  0.7818608E-02  0.1130116E+00
         25   -1    0    0    0    0  0.00000000000E+00  0.00000000000E+00  0.99999998245E-14  0.12500000000E+03  0.12500000000E+03 0.  0.
        -13    1    3    3    0    0 -0.28279598827E+02 -0.45065562142E+02 -0.14045814127E+02  0.55026690428E+02  0.10566000000E+00 0. -1.
         23    2    1    0    0    0 -0.26816226087E+02 -0.44953696634E+01 -0.10766318598E+02  0.95755651040E+02  0.91180660010E+02 0.  0.
         13    1    3    3    0    0  0.14633727398E+01  0.40570192478E+02  0.32794955294E+01  0.40728960611E+02  0.10566000000E+00 0.  1.
         22    1    1    0    0    0  0.26816226087E+02  0.44953696634E+01  0.10766318598E+02  0.29244348960E+02  0.00000000000E+00 0. -1.
</event>
<event>
 5    1  0.1325832E-009  0.9118800E+02  0.7818608E-02  0.1130116E+00
         25   -1    0    0    0    0  0.00000000000E+00  0.00000000000E+00  0.99999998245E-14  0.12500000000E+03  0.12500000000E+03 0.  0.
        -13    1    3    3    0    0  0.34062331556E+02 -0.16748981715E+02 -0.25615298084E+02  0.45792198894E+02  0.10566000000E+00 0.  1.
         23    2    1    0    0    0 -0.16189793089E+02 -0.12909701142E+02 -0.19493256610E+02  0.96561349591E+02  0.92278585802E+02 0.  0.
         13    1    3    3    0    0 -0.50252124645E+02  0.38392805725E+01  0.61220414745E+01  0.50769150697E+02  0.10566000000E+00 0. -1.
         22    1    1    0    0    0  0.16189793089E+02  0.12909701142E+02  0.19493256610E+02  0.28438650409E+02  0.00000000000E+00 0. -1.
</event>
<event>
 5    1  0.1325832E-009  0.9118800E+02  0.7818608E-02  0.1130116E+00
         25   -1    0    0    0    0  0.00000000000E+00  0.00000000000E+00  0.99999998245E-14  0.12500000000E+03  0.12500000000E+03 0.  0.
        -13    1    3    3    0    0  0.55537698434E+01  0.39792065152E+02  0.12060534167E+02  0.41949022122E+02  0.10566000000E+00 0.  1.
         23    2    1    0    0    0  0.20804192783E+02  0.11002401944E+01 -0.21255733210E+02  0.95237084146E+02  0.90466961022E+02 0.  0.
         13    1    3    3    0    0  0.15250422940E+02 -0.38691824958E+02 -0.33316267376E+02  0.53288062025E+02  0.10566000000E+00 0. -1.
         22    1    1    0    0    0 -0.20804192783E+02 -0.11002401944E+01  0.21255733210E+02  0.29762915854E+02  0.00000000000E+00 0. -1.
</event>
<event>
 5    1  0.1325832E-009  0.9118800E+02  0.7818608E-02  0.1130116E+00
         25   -1    0    0    0    0  0.00000000000E+00  0.00000000000E+00  0.99999998245E-14  0.12500000000E+03  0.12500000000E+03 0.  0.
        -13    1    3    3    0    0  0.28271083142E+02 -0.28923414403E+02 -0.10152899010E+02  0.41700246583E+02  0.10566000000E+00 0.  1.
         23    2    1    0    0    0 -0.13136854988E+02 -0.14491769207E+02  0.21614707523E+02  0.95848946588E+02  0.91308469744E+02 0.  0.
         13    1    3    3    0    0 -0.41407938131E+02  0.14431645196E+02  0.31767606533E+02  0.54148700005E+02  0.10566000000E+00 0. -1.
         22    1    1    0    0    0  0.13136854988E+02  0.14491769207E+02 -0.21614707523E+02  0.29151053412E+02  0.00000000000E+00 0. -1.
</event>
<event>
 5    1  0.1325832E-009  0.9118800E+02  0.7818608E-02  0.1130116E+00
         25   -1    0    0    0    0  0.00000000000E+00  0.00000000000E+00  0.99999998245E-14  0.12500000000E+03  0.12500000000E+03 0.  0.
        -13    1    3    3    0    0 -0.35641792708E+02 -0.40853870605E+02  0.26450574530E+01  0.54280600805E+02  0.10566000000E+00 0. -1.
         23    2    1    0    0    0 -0.14107237339E+02 -0.19417455332E+02  0.23717058303E+02  0.91257584979E+02  0.84790307493E+02 0.  0.
         13    1    3    3    0    0  0.21534555369E+02  0.21436415273E+02  0.21072000850E+02  0.36976984174E+02  0.10566000000E+00 0.  1.
         22    1    1    0    0    0  0.14107237339E+02  0.19417455332E+02 -0.23717058303E+02  0.33742415021E+02  0.00000000000E+00 0. -1.
</event>
<event>
 5    1  0.1325832E-009  0.9118800E+02  0.7818608E-02  0.1130116E+00
         25   -1    0    0    0    0  0.00000000000E+00  0.00000000000E+00  0.99999998245E-14  0.12500000000E+03  0.12500000000E+03 0.  0.
        -13    1    3    3    0    0 -0.22344739320E+02  0.15446402261E+02 -0.29242608963E+02  0.39912655400E+02  0.10566000000E+00 0.  1.
         23    2    1    0    0    0 -0.18972690629E+02 -0.14670003656E+02  0.17283776955E+02  0.95438184379E+02  0.90744399798E+02 0.  0.
         13    1    3    3    0    0  0.33720486910E+01 -0.30116405917E+02  0.46526385918E+02  0.55525528979E+02  0.10566000000E+00 0. -1.
         22    1    1    0    0    0  0.18972690629E+02  0.14670003656E+02 -0.17283776955E+02  0.29561815621E+02  0.00000000000E+00 0. -1.
</event>
<event>
 5    1  0.1325832E-009  0.9118800E+02  0.7818608E-02  0.1130116E+00
         25   -1    0    0    0    0  0.00000000000E+00  0.00000000000E+00  0.99999998245E-14  0.12500000000E+03  0.12500000000E+03 0.  0.
        -13    1    3    3    0    0  0.12218202333E+02 -0.27062267704E+02 -0.50636947150E+02  0.58700616540E+02  0.10566000000E+00 0.  1.
         23    2    1    0    0    0  0.41855903863E+01 -0.25005103473E+02 -0.14465323563E+02  0.95810619185E+02  0.91255984989E+02 0.  0.
         13    1    3    3    0    0 -0.80326119463E+01  0.20571642314E+01  0.36171623587E+02  0.37110002645E+02  0.10566000000E+00 0. -1.
         22    1    1    0    0    0 -0.41855903863E+01  0.25005103473E+02  0.14465323563E+02  0.29189380815E+02  0.00000000000E+00 0.  1.
</event>
<event>
 5    1  0.1325832E-009  0.9118800E+02  0.7818608E-02  0.1130116E+00
         25   -1    0    0    0    0  0.00000000000E+00  0.00000000000E+00  0.99999998245E-14  0.12500000000E+03  0.12500000000E+03 0.  0.
        -13    1    3    3    0    0  0.66771819453E+01  0.44355281043E+02  0.21268440474E+02  0.49642053134E+02  0.10566000000E+00 0. -1.
         23    2    1    0    0    0 -0.15129947216E+02  0.51927010780E+01  0.25745298285E+02  0.94689938452E+02  0.89707773426E+02 0.  0.
         13    1    3    3    0    0 -0.21807129161E+02 -0.39162579965E+02  0.44768578116E+01  0.45047885318E+02  0.10566000000E+00 0.  1.
         22    1    1    0    0    0  0.15129947216E+02 -0.51927010780E+01 -0.25745298285E+02  0.30310061548E+02  0.00000000000E+00 0. -1.
</event>
<event>
 5    1  0.1325832E-009  0.9118800E+02  0.7818608E-02  0.1130116E+00
         25   -1    0    0    0    0  0.00000000000E+00  0.00000000000E+00  0.99999998245E-14  0.12500000000E+03  0.12500000000E+03 0.  0.
        -13    1    3    3    0    0 -0.40567787931E+02 -0.23248117920E+01 -0.90114351640E+01  0.41621716630E+02  0.10566000000E+00 0.  1.
         23    2    1    0    0    0 -0.29467190246E+02  0.24461822765E+02  0.19271524443E+02  0.82127074647E+02  0.70048330898E+02 0.  0.
         13    1    3    3    0    0  0.11100597685E+02  0.26786634557E+02  0.28282959607E+02  0.40505358017E+02  0.10566000000E+00 0. -1.
         22    1    1    0    0    0  0.29467190246E+02 -0.24461822765E+02 -0.19271524443E+02  0.42872925353E+02  0.00000000000E+00 0. -1.
</event>
<event>
 5    1  0.1325832E-009  0.9118800E+02  0.7818608E-02  0.1130116E+00
         25   -1    0    0    0    0  0.00000000000E+00  0.00000000000E+00  0.99999998245E-14  0.12500000000E+03  0.12500000000E+03 0.  0.
        -13    1    3    3    0    0  0.16919197171E+02 -0.24928743805E+02 -0.16531289535E+02  0.34365625243E+02  0.10566000000E+00 0.  1.
         23    2    1    0    0    0  0.95125257048E+00  0.17519586396E+02  0.24054476395E+02  0.95226544985E+02  0.90452397681E+02 0.  0.
         13    1    3    3    0    0 -0.15967944601E+02  0.42448330201E+02  0.40585765930E+02  0.60860919741E+02  0.10566000000E+00 0. -1.
         22    1    1    0    0    0 -0.95125257048E+00 -0.17519586396E+02 -0.24054476395E+02  0.29773455015E+02  0.00000000000E+00 0. -1.
</event>
<event>
 5    1  0.1325832E-009  0.9118800E+02  0.7818608E-02  0.1130116E+00
         25   -1    0    0    0    0  0.00000000000E+00  0.00000000000E+00  0.99999998245E-14  0.12500000000E+03  0.12500000000E+03 0.  0.
        -13    1    3    3    0    0  0.36400540424E+02 -0.14756598946E+02  0.17509554997E+02  0.43004095571E+02  0.10566000000E+00 0.  1.
         23    2    1    0    0    0  0.87267022885E+01  0.27777177061E+02  0.33155022842E+01  0.95696084669E+02  0.91098963590E+02 0.  0.
         13    1    3    3    0    0 -0.27673838136E+02  0.42533776008E+02 -0.14194052713E+02  0.52691989098E+02  0.10566000000E+00 0. -1.
         22    1    1    0    0    0 -0.87267022885E+01 -0.27777177061E+02 -0.33155022842E+01  0.29303915331E+02  0.00000000000E+00 0.  1.
</event>
<event>
 5    1  0.1325832E-009  0.9118800E+02  0.7818608E-02  0.1130116E+00
         25   -1    0    0    0    0  0.00000000000E+00  0.00000000000E+00  0.99999998245E-14  0.12500000000E+03  0.12500000000E+03 0.  0.
        -13    1    3    3    0    0 -0.18317726502E+02 -0.70591850775E+01  0.27091273565E+02  0.33456232088E+02  0.10566000000E+00 0. -1.
         23    2    1    0    0    0  0.22271331596E+02  0.13827038367E+02 -0.14354854686E+02  0.95112526803E+02  0.90294693647E+02 0.  0.
         13    1    3    3    0    0  0.40589058097E+02  0.20886223444E+02 -0.41446128251E+02  0.61656294715E+02  0.10566000000E+00 0.  1.
         22    1    1    0    0    0 -0.22271331596E+02 -0.13827038367E+02  0.14354854686E+02  0.29887473197E+02  0.00000000000E+00 0.  1.
</event>
<event>
 5    1  0.1325832E-009  0.9118800E+02  0.7818608E-02  0.1130116E+00
         25   -1    0    0    0    0  0.00000000000E+00  0.00000000000E+00  0.99999998245E-14  0.12500000000E+03  0.12500000000E+03 0.  0.
        -13    1    3    3    0    0  0.40292840218E+02 -0.52119593057E+01  0.14232950808E+01  0.40653590562E+02  0.10566000000E+00 0. -1.
         23    2    1    0    0    0  0.19196786856E+02  0.12755830407E+02 -0.32939427077E+02  0.84797590978E+02  0.74661889506E+02 0.  0.
         13    1    3    3    0    0 -0.21096053362E+02  0.17967789713E+02 -0.34362722158E+02  0.44144000416E+02  0.10566000000E+00 0.  1.
         22    1    1    0    0    0 -0.19196786856E+02 -0.12755830407E+02  0.32939427077E+02  0.40202409022E+02  0.00000000000E+00 0. -1.
</event>
<event>
 5    1  0.1325832E-009  0.9118800E+02  0.7818608E-02  0.1130116E+00
         25   -1    0    0    0    0  0.00000000000E+00  0.00000000000E+00  0.99999998245E-14  0.12500000000E+03  0.12500000000E+03 0.  0.
        -13    1    3    3    0    0  0.30291852096E+02  0.29756108181E+02 -0.19123677535E+02  0.46569823748E+02  0.10566000000E+00 0.  1.
         23    2    1    0    0    0 -0.23737404436E+01 -0.70855769459E+01 -0.27489198503E+02  0.96513229760E+02  0.92213379940E+02 0.  0.
         13    1    3    3    0    0 -0.32665592539E+02 -0.36841685127E+02 -0.83655209686E+01  0.49943406012E+02  0.10566000000E+00 0. -1.
         22    1    1    0    0    0  0.23737404436E+01  0.70855769459E+01  0.27489198503E+02  0.28486770240E+02  0.00000000000E+00 0.  1.
</event>
<event>
 5    1  0.1325832E-009  0.9118800E+02  0.7818608E-02  0.1130116E+00
         25   -1    0    0    0    0  0.00000000000E+00  0.00000000000E+00  0.99999998245E-14  0.12500000000E+03  0.12500000000E+03 0.  0.
        -13    1    3    3    0    0 -0.22499044333E+02  0.45957074501E+02 -0.31448518696E+02  0.60060637566E+02  0.10566000000E+00 0. -1.
         23    2    1    0    0    0 -0.18461620496E+02  0.12880254228E+02 -0.18688504065E+02  0.95742649393E+02  0.91162834249E+02 0.  0.
         13    1    3    3    0    0  0.40374238372E+01 -0.33076820273E+02  0.12760014631E+02  0.35682011827E+02  0.10566000000E+00 0.  1.
         22    1    1    0    0    0  0.18461620496E+02 -0.12880254228E+02  0.18688504065E+02  0.29257350607E+02  0.00000000000E+00 0. -1.
</event>
<event>
 5    1  0.1325832E-009  0.9118800E+02  0.7818608E-02  0.1130116E+00
         25   -1    0    0    0    0  0.00000000000E+00  0.00000000000E+00  0.99999998245E-14  0.12500000000E+03  0.12500000000E+03 0.  0.
        -13    1    3    3    0    0  0.48442698627E+02 -0.15546183860E+02  0.35786556070E+02  0.62201829895E+02  0.10566000000E+00 0.  1.
         23    2    1    0    0    0  0.18343087042E+02 -0.99947672873E+01  0.16513750932E+02  0.98371665745E+02  0.94699083608E+02 0.  0.
         13    1    3    3    0    0 -0.30099611584E+02  0.55514165729E+01 -0.19272805138E+02  0.36169835850E+02  0.10566000000E+00 0. -1.
         22    1    1    0    0    0 -0.18343087042E+02  0.99947672873E+01 -0.16513750932E+02  0.26628334255E+02  0.00000000000E+00 0.  1.
</event>
<event>
 5    1  0.1325832E-009  0.9118800E+02  0.7818608E-02  0.1130116E+00
         25   -1    0    0    0    0  0.00000000000E+00  0.00000000000E+00  0.99999998245E-14  0.12500000000E+03  0.12500000000E+03 0.  0.
        -13    1    3    3    0    0 -0.15199817868E+02  0.36621918726E+02  0.16051339047E+02  0.42776816661E+02  0.10566000000E+00 0.  1.
         23    2    1    0    0    0  0.10496967345E+02 -0.97965499317E+01  0.24598607401E+02  0.96517545751E+02  0.92219230303E+02 0.  0.
         13    1    3    3    0    0  0.25696785213E+02 -0.46418468657E+02  0.85472683541E+01  0.53740729090E+02  0.10566000000E+00 0. -1.
         22    1    1    0    0    0 -0.10496967345E+02  0.97965499317E+01 -0.24598607401E+02  0.28482454249E+02  0.00000000000E+00 0. -1.
</event>
<event>
 5    1  0.1325832E-009  0.9118800E+02  0.7818608E-02  0.1130116E+00
         25   -1    0    0    0    0  0.00000000000E+00  0.00000000000E+00  0.99999998245E-14  0.12500000000E+03  0.12500000000E+03 0.  0.
        -13    1    3    3    0    0  0.13712524986E+02  0.40457402528E+02 -0.39229310430E+02  0.57998144122E+02  0.10566000000E+00 0. -1.
         23    2    1    0    0    0  0.19486342995E+02  0.14647021704E+02 -0.71070170753E+01  0.99607826012E+02  0.96316958544E+02 0.  0.
         13    1    3    3    0    0  0.57738180082E+01 -0.25810380823E+02  0.32122293354E+02  0.41609681890E+02  0.10566000000E+00 0.  1.
         22    1    1    0    0    0 -0.19486342995E+02 -0.14647021704E+02  0.71070170753E+01  0.25392173988E+02  0.00000000000E+00 0. -1.
</event>
<event>
 5    1  0.1325832E-009  0.9118800E+02  0.7818608E-02  0.1130116E+00
         25   -1    0    0    0    0  0.00000000000E+00  0.00000000000E+00  0.99999998245E-14  0.12500000000E+03  0.12500000000E+03 0.  0.
        -13    1    3    3    0    0  0.32932006473E+02  0.15749753766E+02  0.14702045890E+02  0.39353946580E+02  0.10566000000E+00 0.  1.
         23    2    1    0    0    0 -0.22982530140E+02  0.16516063306E+02  0.73873794639E+01  0.95750206597E+02  0.91173195893E+02 0.  0.
         13    1    3    3    0    0 -0.55914536613E+02  0.76630954089E+00 -0.73146664263E+01  0.56396260017E+02  0.10566000000E+00 0. -1.
         22    1    1    0    0    0  0.22982530140E+02 -0.16516063306E+02 -0.73873794639E+01  0.29249793403E+02  0.00000000000E+00 0. -1.
</event>
<event>
 5    1  0.1325832E-009  0.9118800E+02  0.7818608E-02  0.1130116E+00
         25   -1    0    0    0    0  0.00000000000E+00  0.00000000000E+00  0.99999998245E-14  0.12500000000E+03  0.12500000000E+03 0.  0.
        -13    1    3    3    0    0 -0.38669035252E+02  0.10989525896E+02  0.53517130429E+01  0.40555097870E+02  0.10566000000E+00 0.  1.
         23    2    1    0    0    0 -0.33647727538E+01 -0.26158375980E+02 -0.13761892905E+02  0.95251520611E+02  0.90486905975E+02 0.  0.
         13    1    3    3    0    0  0.35304262498E+02 -0.37147901876E+02 -0.19113605948E+02  0.54696422741E+02  0.10566000000E+00 0. -1.
         22    1    1    0    0    0  0.33647727538E+01  0.26158375980E+02  0.13761892905E+02  0.29748479389E+02  0.00000000000E+00 0. -1.
</event>
<event>
 5    1  0.1325832E-009  0.9118800E+02  0.7818608E-02  0.1130116E+00
         25   -1    0    0    0    0  0.00000000000E+00  0.00000000000E+00  0.99999998245E-14  0.12500000000E+03  0.12500000000E+03 0.  0.
        -13    1    3    3    0    0 -0.30423814538E+02 -0.35364112751E+02  0.20929363021E+02  0.51130014299E+02  0.10566000000E+00 0.  1.
         23    2    1    0    0    0 -0.21382140535E+02 -0.90890057706E+01 -0.15591013316E+02  0.97019906077E+02  0.92897666920E+02 0.  0.
         13    1    3    3    0    0  0.90416740025E+01  0.26275106981E+02 -0.36520376336E+02  0.45889891778E+02  0.10566000000E+00 0. -1.
         22    1    1    0    0    0  0.21382140535E+02  0.90890057706E+01  0.15591013316E+02  0.27980093923E+02  0.00000000000E+00 0.  1.
</event>
<event>
 5    1  0.1325832E-009  0.9118800E+02  0.7818608E-02  0.1130116E+00
         25   -1    0    0    0    0  0.00000000000E+00  0.00000000000E+00  0.99999998245E-14  0.12500000000E+03  0.12500000000E+03 0.  0.
        -13    1    3    3    0    0 -0.37489711211E+01  0.56814282421E+01  0.38565598847E+02  0.39161843544E+02  0.10566000000E+00 0.  1.
         23    2    1    0    0    0  0.22229343406E+02 -0.94379172549E+01 -0.12035524176E+02  0.98017193761E+02  0.94230029397E+02 0.  0.
         13    1    3    3    0    0  0.25978314527E+02 -0.15119345497E+02 -0.50601123023E+02  0.58855350217E+02  0.10566000000E+00 0. -1.
         22    1    1    0    0    0 -0.22229343406E+02  0.94379172549E+01  0.12035524176E+02  0.26982806239E+02  0.00000000000E+00 0.  1.
</event>
<event>
 5    1  0.1325832E-009  0.9118800E+02  0.7818608E-02  0.1130116E+00
         25   -1    0    0    0    0  0.00000000000E+00  0.00000000000E+00  0.99999998245E-14  0.12500000000E+03  0.12500000000E+03 0.  0.
        -13    1    3    3    0    0  0.41490312312E+02 -0.13572858367E+02  0.26640003626E+02  0.51140682995E+02  0.10566000000E+00 0. -1.
         23    2    1    0    0    0  0.23125750253E+02  0.70060477101E+01 -0.11524485148E+02  0.98228769411E+02  0.94510276440E+02 0.  0.
         13    1    3    3    0    0 -0.18364562058E+02  0.20578906077E+02 -0.38164488774E+02  0.47088086416E+02  0.10566000000E+00 0.  1.
         22    1    1    0    0    0 -0.23125750253E+02 -0.70060477101E+01  0.11524485148E+02  0.26771230589E+02  0.00000000000E+00 0.  1.
</event>
<event>
 5    1  0.1325832E-009  0.9118800E+02  0.7818608E-02  0.1130116E+00
         25   -1    0    0    0    0  0.00000000000E+00  0.00000000000E+00  0.99999998245E-14  0.12500000000E+03  0.12500000000E+03 0.  0.
        -13    1    3    3    0    0 -0.67941333657E+01  0.28735397330E+02 -0.27849049019E+02  0.40588964057E+02  0.10566000000E+00 0. -1.
         23    2    1    0    0    0 -0.18872049076E+02 -0.21100081808E+02 -0.79119386555E+01  0.95606693587E+02  0.90976224348E+02 0.  0.
         13    1    3    3    0    0 -0.12077915710E+02 -0.49835479139E+02  0.19937110364E+02  0.55017729529E+02  0.10566000000E+00 0.  1.
         22    1    1    0    0    0  0.18872049076E+02  0.21100081808E+02  0.79119386555E+01  0.29393306413E+02  0.00000000000E+00 0.  1.
</event>
<event>
 5    1  0.1325832E-009  0.9118800E+02  0.7818608E-02  0.1130116E+00
         25   -1    0    0    0    0  0.00000000000E+00  0.00000000000E+00  0.99999998245E-14  0.12500000000E+03  0.12500000000E+03 0.  0.
        -13    1    3    3    0    0 -0.55669755775E+02 -0.22401886310E+02 -0.10561311341E+02  0.60930441321E+02  0.10566000000E+00 0. -1.
         23    2    1    0    0    0 -0.22218019687E+02 -0.12011958526E+02 -0.13991573237E+02  0.96126280668E+02  0.91687350093E+02 0.  0.
         13    1    3    3    0    0  0.33451736088E+02  0.10389927784E+02 -0.34302618953E+01  0.35195839348E+02  0.10566000000E+00 0.  1.
         22    1    1    0    0    0  0.22218019687E+02  0.12011958526E+02  0.13991573237E+02  0.28873719332E+02  0.00000000000E+00 0. -1.
</event>
<event>
 5    1  0.1325832E-009  0.9118800E+02  0.7818608E-02  0.1130116E+00
         25   -1    0    0    0    0  0.00000000000E+00  0.00000000000E+00  0.99999998245E-14  0.12500000000E+03  0.12500000000E+03 0.  0.
        -13    1    3    3    0    0  0.20267770895E+02 -0.84446667387E+01  0.39672547722E+02  0.45343325200E+02  0.10566000000E+00 0.  1.
         23    2    1    0    0    0  0.34145149000E+01 -0.27220310974E+02 -0.54402681804E+01  0.97032147751E+02  0.92914137449E+02 0.  0.
         13    1    3    3    0    0 -0.16853255995E+02 -0.18775644235E+02 -0.45112815902E+02  0.51688822552E+02  0.10566000000E+00 0. -1.
         22    1    1    0    0    0 -0.34145149000E+01  0.27220310974E+02  0.54402681804E+01  0.27967852249E+02  0.00000000000E+00 0. -1.
</event>
<event>
 5    1  0.1325832E-009  0.9118800E+02  0.7818608E-02  0.1130116E+00
         25   -1    0    0    0    0  0.00000000000E+00  0.00000000000E+00  0.99999998245E-14  0.12500000000E+03  0.12500000000E+03 0.  0.
        -13    1    3    3    0    0 -0.38508741881E+02 -0.25863891690E+02 -0.82992439279E+01  0.47124862954E+02  0.10566000000E+00 0.  1.
         23    2    1    0    0    0 -0.75922630883E+01 -0.41908766265E+02 -0.39887110647E+01  0.82222705034E+02  0.70218774259E+02 0.  0.
         13    1    3    3    0    0  0.30916478793E+02 -0.16044874575E+02  0.43105328632E+01  0.35097842080E+02  0.10566000000E+00 0. -1.
         22    1    1    0    0    0  0.75922630883E+01  0.41908766265E+02  0.39887110647E+01  0.42777294966E+02  0.00000000000E+00 0.  1.
</event>
<event>
 5    1  0.1325832E-009  0.9118800E+02  0.7818608E-02  0.1130116E+00
         25   -1    0    0    0    0  0.00000000000E+00  0.00000000000E+00  0.99999998245E-14  0.12500000000E+03  0.12500000000E+03 0.  0.
        -13    1    3    3    0    0 -0.19177000080E+01 -0.97608370776E+01 -0.58677374297E+02  0.59514678292E+02  0.10566000000E+00 0.  1.
         23    2    1    0    0    0  0.33516701025E+01  0.85991971787E+01 -0.26549606982E+02  0.96891967065E+02  0.92725356652E+02 0.  0.
         13    1    3    3    0    0  0.52693701106E+01  0.18360034256E+02  0.32127767316E+02  0.37377288773E+02  0.10566000000E+00 0. -1.
         22    1    1    0    0    0 -0.33516701025E+01 -0.85991971787E+01  0.26549606982E+02  0.28108032935E+02  0.00000000000E+00 0.  1.
</event>
<event>
 5    1  0.1325832E-009  0.9118800E+02  0.7818608E-02  0.1130116E+00
         25   -1    0    0    0    0  0.00000000000E+00  0.00000000000E+00  0.99999998245E-14  0.12500000000E+03  0.12500000000E+03 0.  0.
        -13    1    3    3    0    0 -0.99450196417E+01  0.29128001091E+02  0.43668194776E+01  0.31087363021E+02  0.10566000000E+00 0. -1.
         23    2    1    0    0    0  0.27235368481E+02 -0.18835681107E+02  0.21946338029E+01  0.91813186405E+02  0.85605470627E+02 0.  0.
         13    1    3    3    0    0  0.37180388123E+02 -0.47963682198E+02 -0.21721856748E+01  0.60725823383E+02  0.10566000000E+00 0.  1.
         22    1    1    0    0    0 -0.27235368481E+02  0.18835681107E+02 -0.21946338029E+01  0.33186813595E+02  0.00000000000E+00 0.  1.
</event>
<event>
 5    1  0.1325832E-009  0.9118800E+02  0.7818608E-02  0.1130116E+00
         25   -1    0    0    0    0  0.00000000000E+00  0.00000000000E+00  0.99999998245E-14  0.12500000000E+03  0.12500000000E+03 0.  0.
        -13    1    3    3    0    0  0.34061117897E+02  0.41698326551E+01  0.28039088591E+02  0.44314206637E+02  0.10566000000E+00 0.  1.
         23    2    1    0    0    0  0.40926918637E+01 -0.15488257152E+02 -0.16845903227E+02  0.10175304984E+03  0.99061912255E+02 0.  0.
         13    1    3    3    0    0 -0.29968426033E+02 -0.19658089807E+02 -0.44884991818E+02  0.57438843202E+02  0.10566000000E+00 0. -1.
         22    1    1    0    0    0 -0.40926918637E+01  0.15488257152E+02  0.16845903227E+02  0.23246950162E+02  0.00000000000E+00 0. -1.
</event>
<event>
 5    1  0.1325832E-009  0.9118800E+02  0.7818608E-02  0.1130116E+00
         25   -1    0    0    0    0  0.00000000000E+00  0.00000000000E+00  0.99999998245E-14  0.12500000000E+03  0.12500000000E+03 0.  0.
        -13    1    3    3    0    0  0.35269217495E+02 -0.10122109060E+02 -0.18592539566E+02  0.41134760070E+02  0.10566000000E+00 0.  1.
         23    2    1    0    0    0  0.10342006081E+02  0.70476461822E+01  0.26643607057E+02  0.95563488599E+02  0.90916841947E+02 0.  0.
         13    1    3    3    0    0 -0.24927211413E+02  0.17169755242E+02  0.45236146622E+02  0.54428728528E+02  0.10566000000E+00 0. -1.
         22    1    1    0    0    0 -0.10342006081E+02 -0.70476461822E+01 -0.26643607057E+02  0.29436511401E+02  0.00000000000E+00 0. -1.
</event>
<event>
 5    1  0.1325832E-009  0.9118800E+02  0.7818608E-02  0.1130116E+00
         25   -1    0    0    0    0  0.00000000000E+00  0.00000000000E+00  0.99999998245E-14  0.12500000000E+03  0.12500000000E+03 0.  0.
        -13    1    3    3    0    0  0.48809790917E+02 -0.37393570068E+02  0.84155807621E+01  0.62060518330E+02  0.10566000000E+00 0.  1.
         23    2    1    0    0    0  0.22152189934E+02 -0.17321721850E+02 -0.14032437246E+01  0.96844527003E+02  0.92661382198E+02 0.  0.
         13    1    3    3    0    0 -0.26657600982E+02  0.20071848219E+02 -0.98188244867E+01  0.34784008673E+02  0.10566000000E+00 0. -1.
         22    1    1    0    0    0 -0.22152189934E+02  0.17321721850E+02  0.14032437246E+01  0.28155472997E+02  0.00000000000E+00 0.  1.
</event>
<event>
 5    1  0.1325832E-009  0.9118800E+02  0.7818608E-02  0.1130116E+00
         25   -1    0    0    0    0  0.00000000000E+00  0.00000000000E+00  0.99999998245E-14  0.12500000000E+03  0.12500000000E+03 0.  0.
        -13    1    3    3    0    0 -0.29726862166E+02  0.10444417040E+02  0.52415312596E+02  0.61156752204E+02  0.10566000000E+00 0.  1.
         23    2    1    0    0    0 -0.63402288538E+01  0.89368227157E+01  0.27675526000E+02  0.95234247170E+02  0.90463041031E+02 0.  0.
         13    1    3    3    0    0  0.23386633312E+02 -0.15075943238E+01 -0.24739786596E+02  0.34077494967E+02  0.10566000000E+00 0. -1.
         22    1    1    0    0    0  0.63402288538E+01 -0.89368227157E+01 -0.27675526000E+02  0.29765752830E+02  0.00000000000E+00 0.  1.
</event>
<event>
 5    1  0.1325832E-009  0.9118800E+02  0.7818608E-02  0.1130116E+00
         25   -1    0    0    0    0  0.00000000000E+00  0.00000000000E+00  0.99999998245E-14  0.12500000000E+03  0.12500000000E+03 0.  0.
        -13    1    3    3    0    0  0.34427425059E+02 -0.51972771377E+01  0.40037531947E+02  0.53059159570E+02  0.10566000000E+00 0. -1.
         23    2    1    0    0    0 -0.12735357875E+01 -0.20538334214E+02  0.17550285533E+02  0.97954527403E+02  0.94146863202E+02 0.  0.
         13    1    3    3    0    0 -0.35700960846E+02 -0.15341057077E+02 -0.22487246414E+02  0.44895367833E+02  0.10566000000E+00 0.  1.
         22    1    1    0    0    0  0.12735357875E+01  0.20538334214E+02 -0.17550285533E+02  0.27045472597E+02  0.00000000000E+00 0. -1.
</event>
<event>
 5    1  0.1325832E-009  0.9118800E+02  0.7818608E-02  0.1130116E+00
         25   -1    0    0    0    0  0.00000000000E+00  0.00000000000E+00  0.99999998245E-14  0.12500000000E+03  0.12500000000E+03 0.  0.
        -13    1    3    3    0    0  0.41470300052E+02  0.13557511763E+02  0.34197544363E+02  0.55435323722E+02  0.10566000000E+00 0.  1.
         23    2    1    0    0    0  0.23189982331E+01 -0.48376631068E+01  0.24701109621E+02  0.99723023249E+02  0.96466345490E+02 0.  0.
         13    1    3    3    0    0 -0.39151301819E+02 -0.18395174870E+02 -0.94964347420E+01  0.44287699527E+02  0.10566000000E+00 0. -1.
         22    1    1    0    0    0 -0.23189982331E+01  0.48376631068E+01 -0.24701109621E+02  0.25276976751E+02  0.00000000000E+00 0. -1.
</event>
<event>
 5    1  0.1325832E-009  0.9118800E+02  0.7818608E-02  0.1130116E+00
         25   -1    0    0    0    0  0.00000000000E+00  0.00000000000E+00  0.99999998245E-14  0.12500000000E+03  0.12500000000E+03 0.  0.
        -13    1    3    3    0    0  0.24801711470E+02  0.17239294429E+02  0.20775443331E+02  0.36659901444E+02  0.10566000000E+00 0.  1.
         23    2    1    0    0    0 -0.71614071644E+01 -0.27173625240E+02 -0.37974595610E+01  0.96643124989E+02  0.92389291843E+02 0.  0.
         13    1    3    3    0    0 -0.31963118634E+02 -0.44412919669E+02 -0.24572902892E+02  0.59983223545E+02  0.10566000000E+00 0. -1.
         22    1    1    0    0    0  0.71614071644E+01  0.27173625240E+02  0.37974595610E+01  0.28356875011E+02  0.00000000000E+00 0. -1.
</event>
<event>
 5    1  0.1325832E-009  0.9118800E+02  0.7818608E-02  0.1130116E+00
         25   -1    0    0    0    0  0.00000000000E+00  0.00000000000E+00  0.99999998245E-14  0.12500000000E+03  0.12500000000E+03 0.  0.
        -13    1    3    3    0    0  0.21195053019E+02  0.50707089631E+01 -0.55871954779E+02  0.59971900560E+02  0.10566000000E+00 0.  1.
         23    2    1    0    0    0  0.65972023673E+01  0.14422342912E+02 -0.24519185246E+02  0.95798672988E+02  0.91239619940E+02 0.  0.
         13    1    3    3    0    0 -0.14597850652E+02  0.93516339491E+01  0.31352769533E+02  0.35826772428E+02  0.10566000000E+00 0. -1.
         22    1    1    0    0    0 -0.65972023673E+01 -0.14422342912E+02  0.24519185246E+02  0.29201327012E+02  0.00000000000E+00 0.  1.
</event>
<event>
 5    1  0.1325832E-009  0.9118800E+02  0.7818608E-02  0.1130116E+00
         25   -1    0    0    0    0  0.00000000000E+00  0.00000000000E+00  0.99999998245E-14  0.12500000000E+03  0.12500000000E+03 0.  0.
        -13    1    3    3    0    0  0.30402546005E+01 -0.31543900494E+02 -0.22881147253E+02  0.39087323649E+02  0.10566000000E+00 0.  1.
         23    2    1    0    0    0  0.20159364505E+02  0.19742754948E+02 -0.33052222342E+01  0.96590479691E+02  0.92318036822E+02 0.  0.
         13    1    3    3    0    0  0.17119109905E+02  0.51286655442E+02  0.19575925019E+02  0.57503156041E+02  0.10566000000E+00 0. -1.
         22    1    1    0    0    0 -0.20159364505E+02 -0.19742754948E+02  0.33052222342E+01  0.28409520309E+02  0.00000000000E+00 0. -1.
</event>
<event>
 5    1  0.1325832E-009  0.9118800E+02  0.7818608E-02  0.1130116E+00
         25   -1    0    0    0    0  0.00000000000E+00  0.00000000000E+00  0.99999998245E-14  0.12500000000E+03  0.12500000000E+03 0.  0.
        -13    1    3    3    0    0  0.31157216591E+02 -0.24839611227E+02  0.44503176482E+02  0.59735435988E+02  0.10566000000E+00 0. -1.
         23    2    1    0    0    0  0.23432293041E+02 -0.15423844423E+02  0.11921749283E+02  0.94518933091E+02  0.89469174986E+02 0.  0.
         13    1    3    3    0    0 -0.77249235496E+01  0.94157668038E+01 -0.32581427199E+02  0.34783497103E+02  0.10566000000E+00 0.  1.
         22    1    1    0    0    0 -0.23432293041E+02  0.15423844423E+02 -0.11921749283E+02  0.30481066909E+02  0.00000000000E+00 0. -1.
</event>
<event>
 4    1  0.1325832E-009  0.9118800E+02  0.7818608E-02  0.1130116E+00
         25   -1    0    0    0    0  0.00000000000E+00  0.00000000000E+00  0.99999998245E-14  0.12500000000E+03  0.12500000000E+03 0.  0.
        -13    1    1    0    0    0  0.27220886599E+02 -0.22272985268E+02  0.71521265834E+01  0.35891873992E+02  0.10566000000E+00 0.  1.
         13    1    1    0    0    0 -0.15840156613E+02 -0.27714753954E+02 -0.18083942399E+02  0.36688666983E+02  0.10566000000E+00 0. -1.
         22    1    1    0    0    0 -0.11380729986E+02  0.49987739222E+02  0.10931815815E+02  0.52419459025E+02  0.00000000000E+00 0.  1.
</event>
<event>
 5    1  0.1325832E-009  0.9118800E+02  0.7818608E-02  0.1130116E+00
         25   -1    0    0    0    0  0.00000000000E+00  0.00000000000E+00  0.99999998245E-14  0.12500000000E+03  0.12500000000E+03 0.  0.
        -13    1    3    3    0    0 -0.14244199843E+02 -0.99249999775E+01  0.32403996662E+02  0.36761841866E+02  0.10566000000E+00 0.  1.
         23    2    1    0    0    0  0.23105152605E+02 -0.89483158572E+01 -0.14159645096E+02  0.96462025601E+02  0.92143943915E+02 0.  0.
         13    1    3    3    0    0  0.37349352447E+02  0.97668412035E+00 -0.46563641758E+02  0.59700183734E+02  0.10566000000E+00 0. -1.
         22    1    1    0    0    0 -0.23105152605E+02  0.89483158572E+01  0.14159645096E+02  0.28537974399E+02  0.00000000000E+00 0. -1.
</event>
<event>
 5    1  0.1325832E-009  0.9118800E+02  0.7818608E-02  0.1130116E+00
         25   -1    0    0    0    0  0.00000000000E+00  0.00000000000E+00  0.99999998245E-14  0.12500000000E+03  0.12500000000E+03 0.  0.
        -13    1    3    3    0    0 -0.29529394123E+02  0.13558243480E+02  0.19496263581E+02  0.37893621379E+02  0.10566000000E+00 0.  1.
         23    2    1    0    0    0  0.24628433791E+02 -0.48558839699E+00  0.19075558732E+02  0.93844382721E+02  0.88521724341E+02 0.  0.
         13    1    3    3    0    0  0.54157827914E+02 -0.14043831877E+02 -0.42070484922E+00  0.55950761342E+02  0.10566000000E+00 0. -1.
         22    1    1    0    0    0 -0.24628433791E+02  0.48558839699E+00 -0.19075558732E+02  0.31155617279E+02  0.00000000000E+00 0. -1.
</event>
<event>
 5    1  0.1325832E-009  0.9118800E+02  0.7818608E-02  0.1130116E+00
         25   -1    0    0    0    0  0.00000000000E+00  0.00000000000E+00  0.99999998245E-14  0.12500000000E+03  0.12500000000E+03 0.  0.
        -13    1    3    3    0    0  0.28613605950E+02  0.22702704441E+02 -0.41652511405E+02  0.55399405275E+02  0.10566000000E+00 0. -1.
         23    2    1    0    0    0 -0.38689850270E+01  0.22953672645E+02 -0.17373543667E+02  0.95953827230E+02  0.91451937145E+02 0.  0.
         13    1    3    3    0    0 -0.32482590977E+02  0.25096820413E+00  0.24278967739E+02  0.40554421955E+02  0.10566000000E+00 0.  1.
         22    1    1    0    0    0  0.38689850270E+01 -0.22953672645E+02  0.17373543667E+02  0.29046172770E+02  0.00000000000E+00 0. -1.
</event>
<event>
 5    1  0.1325832E-009  0.9118800E+02  0.7818608E-02  0.1130116E+00
         25   -1    0    0    0    0  0.00000000000E+00  0.00000000000E+00  0.99999998245E-14  0.12500000000E+03  0.12500000000E+03 0.  0.
        -13    1    3    3    0    0 -0.26183651171E+02  0.26235871911E+02  0.12673609098E+01  0.37088029488E+02  0.10566000000E+00 0. -1.
         23    2    1    0    0    0  0.13986447824E+02 -0.12290497772E+02 -0.20909123149E+02  0.97002348507E+02  0.92874039036E+02 0.  0.
         13    1    3    3    0    0  0.40170098996E+02 -0.38526369683E+02 -0.22176484059E+02  0.59914319019E+02  0.10566000000E+00 0.  1.
         22    1    1    0    0    0 -0.13986447824E+02  0.12290497772E+02  0.20909123149E+02  0.27997651493E+02  0.00000000000E+00 0.  1.
</event>
<event>
 5    1  0.1325832E-009  0.9118800E+02  0.7818608E-02  0.1130116E+00
         25   -1    0    0    0    0  0.00000000000E+00  0.00000000000E+00  0.99999998245E-14  0.12500000000E+03  0.12500000000E+03 0.  0.
        -13    1    3    3    0    0  0.19660546255E+02  0.50728629580E+01  0.56997332294E+02  0.60506016810E+02  0.10566000000E+00 0.  1.
         23    2    1    0    0    0  0.11434905386E+02  0.13549699492E+02  0.27506920684E+02  0.92274137093E+02  0.86275919429E+02 0.  0.
         13    1    3    3    0    0 -0.82256408690E+01  0.84768365342E+01 -0.29490411610E+02  0.31768120283E+02  0.10566000000E+00 0. -1.
         22    1    1    0    0    0 -0.11434905386E+02 -0.13549699492E+02 -0.27506920684E+02  0.32725862907E+02  0.00000000000E+00 0.  1.
</event>
<event>
 5    1  0.1325832E-009  0.9118800E+02  0.7818608E-02  0.1130116E+00
         25   -1    0    0    0    0  0.00000000000E+00  0.00000000000E+00  0.99999998245E-14  0.12500000000E+03  0.12500000000E+03 0.  0.
        -13    1    3    3    0    0  0.18650252921E+02 -0.55655769470E+02  0.31217618004E+01  0.58780550951E+02  0.10566000000E+00 0.  1.
         23    2    1    0    0    0  0.48326438856E+01 -0.27692660174E+02 -0.13155043515E+02  0.93963037450E+02  0.88689116370E+02 0.  0.
         13    1    3    3    0    0 -0.13817609035E+02  0.27963109296E+02 -0.16276805316E+02  0.35182486499E+02  0.10566000000E+00 0. -1.
         22    1    1    0    0    0 -0.48326438856E+01  0.27692660174E+02  0.13155043515E+02  0.31036962550E+02  0.00000000000E+00 0.  1.
</event>
<event>
 5    1  0.1325832E-009  0.9118800E+02  0.7818608E-02  0.1130116E+00
         25   -1    0    0    0    0  0.00000000000E+00  0.00000000000E+00  0.99999998245E-14  0.12500000000E+03  0.12500000000E+03 0.  0.
        -13    1    3    3    0    0  0.14650612247E+02  0.18903600770E+02 -0.38422805320E+02  0.45258255534E+02  0.10566000000E+00 0.  1.
         23    2    1    0    0    0 -0.93558188726E+01  0.28963764070E+02  0.32472754652E+01  0.94389939990E+02  0.89288773076E+02 0.  0.
         13    1    3    3    0    0 -0.24006431119E+02  0.10060163301E+02  0.41670080786E+02  0.49131684455E+02  0.10566000000E+00 0. -1.
         22    1    1    0    0    0  0.93558188726E+01 -0.28963764070E+02 -0.32472754652E+01  0.30610060010E+02  0.00000000000E+00 0. -1.
</event>
<event>
 5    1  0.1325832E-009  0.9118800E+02  0.7818608E-02  0.1130116E+00
         25   -1    0    0    0    0  0.00000000000E+00  0.00000000000E+00  0.99999998245E-14  0.12500000000E+03  0.12500000000E+03 0.  0.
        -13    1    3    3    0    0 -0.26827292987E+02 -0.35971943088E+02  0.35938997312E+01  0.45017903303E+02  0.10566000000E+00 0. -1.
         23    2    1    0    0    0 -0.73865113334E+01  0.17424796953E+00 -0.27510023027E+02  0.96515051712E+02  0.92215849657E+02 0.  0.
         13    1    3    3    0    0  0.19440781653E+02  0.36146191058E+02 -0.31103922758E+02  0.51497148409E+02  0.10566000000E+00 0.  1.
         22    1    1    0    0    0  0.73865113334E+01 -0.17424796953E+00  0.27510023027E+02  0.28484948288E+02  0.00000000000E+00 0.  1.
</event>
<event>
 5    1  0.1325832E-009  0.9118800E+02  0.7818608E-02  0.1130116E+00
         25   -1    0    0    0    0  0.00000000000E+00  0.00000000000E+00  0.99999998245E-14  0.12500000000E+03  0.12500000000E+03 0.  0.
        -13    1    3    3    0    0  0.13721841057E+01  0.29653545436E+02  0.26741725204E+02  0.39954307366E+02  0.10566000000E+00 0.  1.
         23    2    1    0    0    0 -0.23570541589E+02 -0.11892959859E+01 -0.14600395341E+02  0.97248308162E+02  0.93204490452E+02 0.  0.
         13    1    3    3    0    0 -0.24942725695E+02 -0.30842841422E+02 -0.41342120545E+02  0.57294000796E+02  0.10566000000E+00 0. -1.
         22    1    1    0    0    0  0.23570541589E+02  0.11892959859E+01  0.14600395341E+02  0.27751691838E+02  0.00000000000E+00 0. -1.
</event>
<event>
 5    1  0.1325832E-009  0.9118800E+02  0.7818608E-02  0.1130116E+00
         25   -1    0    0    0    0  0.00000000000E+00  0.00000000000E+00  0.99999998245E-14  0.12500000000E+03  0.12500000000E+03 0.  0.
        -13    1    3    3    0    0 -0.13541331073E+02 -0.51148988701E+02 -0.13974277355E+02  0.54725481122E+02  0.10566000000E+00 0. -1.
         23    2    1    0    0    0 -0.72863545641E+01 -0.15078859541E+02 -0.26699694722E+02  0.93482756051E+02  0.88009596141E+02 0.  0.
         13    1    3    3    0    0  0.62549765085E+01  0.36070129161E+02 -0.12725417367E+02  0.38757274930E+02  0.10566000000E+00 0.  1.
         22    1    1    0    0    0  0.72863545641E+01  0.15078859541E+02  0.26699694722E+02  0.31517243949E+02  0.00000000000E+00 0. -1.
</event>
<event>
 5    1  0.1325832E-009  0.9118800E+02  0.7818608E-02  0.1130116E+00
         25   -1    0    0    0    0  0.00000000000E+00  0.00000000000E+00  0.99999998245E-14  0.12500000000E+03  0.12500000000E+03 0.  0.
        -13    1    3    3    0    0  0.24688973166E+01  0.20138655216E+02 -0.53576489554E+02  0.57289722331E+02  0.10566000000E+00 0.  1.
         23    2    1    0    0    0 -0.69002989075E+00 -0.82712910876E+01 -0.28502262583E+02  0.95313818537E+02  0.90572924400E+02 0.  0.
         13    1    3    3    0    0 -0.31589272074E+01 -0.28409946303E+02  0.25074226971E+02  0.38024096206E+02  0.10566000000E+00 0. -1.
         22    1    1    0    0    0  0.69002989075E+00  0.82712910876E+01  0.28502262583E+02  0.29686181463E+02  0.00000000000E+00 0.  1.
</event>
<event>
 5    1  0.1325832E-009  0.9118800E+02  0.7818608E-02  0.1130116E+00
         25   -1    0    0    0    0  0.00000000000E+00  0.00000000000E+00  0.99999998245E-14  0.12500000000E+03  0.12500000000E+03 0.  0.
        -13    1    3    3    0    0 -0.29689534065E+02 -0.20149040435E+02 -0.17904015231E+02  0.40100089637E+02  0.10566000000E+00 0.  1.
         23    2    1    0    0    0 -0.68887324468E+01 -0.65587045684E+01  0.29266711582E+02  0.94226445653E+02  0.89059594728E+02 0.  0.
         13    1    3    3    0    0  0.22800801618E+02  0.13590335866E+02  0.47170726814E+02  0.54126356016E+02  0.10566000000E+00 0. -1.
         22    1    1    0    0    0  0.68887324468E+01  0.65587045684E+01 -0.29266711582E+02  0.30773554347E+02  0.00000000000E+00 0.  1.
</event>
<event>
 5    1  0.1325832E-009  0.9118800E+02  0.7818608E-02  0.1130116E+00
         25   -1    0    0    0    0  0.00000000000E+00  0.00000000000E+00  0.99999998245E-14  0.12500000000E+03  0.12500000000E+03 0.  0.
        -13    1    3    3    0    0  0.35592591424E+02 -0.31288282961E+02 -0.27825903518E+02  0.54955266222E+02  0.10566000000E+00 0.  1.
         23    2    1    0    0    0  0.29374232475E+02 -0.17109134996E+02  0.44146416846E+01  0.90720894192E+02  0.83995378134E+02 0.  0.
         13    1    3    3    0    0 -0.62183589486E+01  0.14179147965E+02  0.32240545203E+02  0.35765627969E+02  0.10566000000E+00 0. -1.
         22    1    1    0    0    0 -0.29374232475E+02  0.17109134996E+02 -0.44146416846E+01  0.34279105808E+02  0.00000000000E+00 0.  1.
</event>
<event>
 5    1  0.1325832E-009  0.9118800E+02  0.7818608E-02  0.1130116E+00
         25   -1    0    0    0    0  0.00000000000E+00  0.00000000000E+00  0.99999998245E-14  0.12500000000E+03  0.12500000000E+03 0.  0.
        -13    1    3    3    0    0 -0.22063553788E+01 -0.23947630953E+01  0.47701834124E+02  0.47812958883E+02  0.10566000000E+00 0. -1.
         23    2    1    0    0    0 -0.13348471636E+02 -0.24175545507E+02  0.51335762765E+01  0.96910993237E+02  0.92751001661E+02 0.  0.
         13    1    3    3    0    0 -0.11142116257E+02 -0.21780782411E+02 -0.42568257848E+02  0.49098034353E+02  0.10566000000E+00 0.  1.
         22    1    1    0    0    0  0.13348471636E+02  0.24175545507E+02 -0.51335762765E+01  0.28089006763E+02  0.00000000000E+00 0. -1.
</event>
<event>
 5    1  0.1325832E-009  0.9118800E+02  0.7818608E-02  0.1130116E+00
         25   -1    0    0    0    0  0.00000000000E+00  0.00000000000E+00  0.99999998245E-14  0.12500000000E+03  0.12500000000E+03 0.  0.
        -13    1    3    3    0    0 -0.14444913072E+02 -0.16538363957E+02 -0.25590512883E+02  0.33720298185E+02  0.10566000000E+00 0. -1.
         23    2    1    0    0    0  0.43461964399E+01  0.15791745979E+02  0.24070181471E+02  0.95885702815E+02  0.91358774640E+02 0.  0.
         13    1    3    3    0    0  0.18791109512E+02  0.32330109936E+02  0.49660694353E+02  0.62165404630E+02  0.10566000000E+00 0.  1.
         22    1    1    0    0    0 -0.43461964399E+01 -0.15791745979E+02 -0.24070181471E+02  0.29114297185E+02  0.00000000000E+00 0.  1.
</event>
<event>
 5    1  0.1325832E-009  0.9118800E+02  0.7818608E-02  0.1130116E+00
         25   -1    0    0    0    0  0.00000000000E+00  0.00000000000E+00  0.99999998245E-14  0.12500000000E+03  0.12500000000E+03 0.  0.
        -13    1    3    3    0    0 -0.29144640012E+02  0.26689539568E+02 -0.22728089344E+02  0.45588581608E+02  0.10566000000E+00 0.  1.
         23    2    1    0    0    0  0.17327674986E+02  0.23772549733E+02 -0.67446141815E+01  0.94819339608E+02  0.89887901867E+02 0.  0.
         13    1    3    3    0    0  0.46472314998E+02 -0.29169898349E+01  0.15983475162E+02  0.49230758000E+02  0.10566000000E+00 0. -1.
         22    1    1    0    0    0 -0.17327674986E+02 -0.23772549733E+02  0.67446141815E+01  0.30180660392E+02  0.00000000000E+00 0. -1.
</event>
<event>
 5    1  0.1325832E-009  0.9118800E+02  0.7818608E-02  0.1130116E+00
         25   -1    0    0    0    0  0.00000000000E+00  0.00000000000E+00  0.99999998245E-14  0.12500000000E+03  0.12500000000E+03 0.  0.
        -13    1    3    3    0    0 -0.31820376837E+02  0.23620656592E+02  0.51466054125E+01  0.39962113448E+02  0.10566000000E+00 0.  1.
         23    2    1    0    0    0  0.19251107129E+02  0.27129041423E+02 -0.21191603989E+01  0.91667120512E+02  0.85391920741E+02 0.  0.
         13    1    3    3    0    0  0.51071483966E+02  0.35083848303E+01 -0.72657658114E+01  0.51705007064E+02  0.10566000000E+00 0. -1.
         22    1    1    0    0    0 -0.19251107129E+02 -0.27129041423E+02  0.21191603989E+01  0.33332879488E+02  0.00000000000E+00 0. -1.
</event>
<event>
 5    1  0.1325832E-009  0.9118800E+02  0.7818608E-02  0.1130116E+00
         25   -1    0    0    0    0  0.00000000000E+00  0.00000000000E+00  0.99999998245E-14  0.12500000000E+03  0.12500000000E+03 0.  0.
        -13    1    3    3    0    0 -0.33069695058E+02 -0.29471067366E+02 -0.13596908360E+02  0.46336115762E+02  0.10566000000E+00 0.  1.
         23    2    1    0    0    0  0.14500163645E+02 -0.18624586075E+02 -0.17986938862E+02  0.95324085156E+02  0.90587092287E+02 0.  0.
         13    1    3    3    0    0  0.47569858704E+02  0.10846481291E+02 -0.43900305023E+01  0.48987969394E+02  0.10566000000E+00 0. -1.
         22    1    1    0    0    0 -0.14500163645E+02  0.18624586075E+02  0.17986938862E+02  0.29675914844E+02  0.00000000000E+00 0. -1.
</event>
<event>
 5    1  0.1325832E-009  0.9118800E+02  0.7818608E-02  0.1130116E+00
         25   -1    0    0    0    0  0.00000000000E+00  0.00000000000E+00  0.99999998245E-14  0.12500000000E+03  0.12500000000E+03 0.  0.
        -13    1    3    3    0    0 -0.13386860399E+02  0.30878444552E+02 -0.24722497593E+02  0.41760021798E+02  0.10566000000E+00 0. -1.
         23    2    1    0    0    0  0.10291923335E+02  0.92686791193E+01  0.22346802569E+02  0.98709095040E+02  0.95143437819E+02 0.  0.
         13    1    3    3    0    0  0.23678783734E+02 -0.21609765433E+02  0.47069300163E+02  0.56949073241E+02  0.10566000000E+00 0.  1.
         22    1    1    0    0    0 -0.10291923335E+02 -0.92686791193E+01 -0.22346802569E+02  0.26290904960E+02  0.00000000000E+00 0.  1.
</event>
<event>
 5    1  0.1325832E-009  0.9118800E+02  0.7818608E-02  0.1130116E+00
         25   -1    0    0    0    0  0.00000000000E+00  0.00000000000E+00  0.99999998245E-14  0.12500000000E+03  0.12500000000E+03 0.  0.
        -13    1    3    3    0    0 -0.20450869203E+01 -0.41812497346E+01  0.37506047597E+02  0.37793914857E+02  0.10566000000E+00 0.  1.
         23    2    1    0    0    0 -0.19559333966E+02 -0.58172098529E+01 -0.19087490143E+02  0.97058279301E+02  0.92949286308E+02 0.  0.
         13    1    3    3    0    0 -0.17514247046E+02 -0.16359601183E+01 -0.56593537739E+02  0.59264364444E+02  0.10566000000E+00 0. -1.
         22    1    1    0    0    0  0.19559333966E+02  0.58172098529E+01  0.19087490143E+02  0.27941720699E+02  0.00000000000E+00 0. -1.
</event>
<event>
 5    1  0.1325832E-009  0.9118800E+02  0.7818608E-02  0.1130116E+00
         25   -1    0    0    0    0  0.00000000000E+00  0.00000000000E+00  0.99999998245E-14  0.12500000000E+03  0.12500000000E+03 0.  0.
        -13    1    3    3    0    0  0.62917576286E+01 -0.38674463842E+02  0.10062583121E+02  0.40454506679E+02  0.10566000000E+00 0. -1.
         23    2    1    0    0    0  0.11425355783E+02  0.21014829285E+02  0.87973139877E+00  0.10106392405E+03  0.98188497351E+02 0.  0.
         13    1    3    3    0    0  0.51335981546E+01  0.59689293127E+02 -0.91828517220E+01  0.60609417369E+02  0.10566000000E+00 0.  1.
         22    1    1    0    0    0 -0.11425355783E+02 -0.21014829285E+02 -0.87973139877E+00  0.23936075952E+02  0.00000000000E+00 0.  1.
</event>
<event>
 5    1  0.1325832E-009  0.9118800E+02  0.7818608E-02  0.1130116E+00
         25   -1    0    0    0    0  0.00000000000E+00  0.00000000000E+00  0.99999998245E-14  0.12500000000E+03  0.12500000000E+03 0.  0.
        -13    1    3    3    0    0  0.34009860900E+02 -0.16196319997E+02 -0.21208915351E+01  0.37729309095E+02  0.10566000000E+00 0.  1.
         23    2    1    0    0    0 -0.24412488273E+01  0.28883362140E+02  0.26177861267E+01  0.95895685740E+02  0.91372432577E+02 0.  0.
         13    1    3    3    0    0 -0.36451109727E+02  0.45079682137E+02  0.47386776618E+01  0.58166376644E+02  0.10566000000E+00 0. -1.
         22    1    1    0    0    0  0.24412488273E+01 -0.28883362140E+02 -0.26177861267E+01  0.29104314260E+02  0.00000000000E+00 0. -1.
</event>
<event>
 5    1  0.1325832E-009  0.9118800E+02  0.7818608E-02  0.1130116E+00
         25   -1    0    0    0    0  0.00000000000E+00  0.00000000000E+00  0.99999998245E-14  0.12500000000E+03  0.12500000000E+03 0.  0.
        -13    1    3    3    0    0 -0.49008055318E+02 -0.35910135777E+02  0.15121911339E+01  0.60775202375E+02  0.10566000000E+00 0.  1.
         23    2    1    0    0    0 -0.14367057426E+02 -0.23233526882E+02  0.91859646477E+00  0.97667730977E+02  0.93765306720E+02 0.  0.
         13    1    3    3    0    0  0.34640997892E+02  0.12676608895E+02 -0.59359466914E+00  0.36892528603E+02  0.10566000000E+00 0. -1.
         22    1    1    0    0    0  0.14367057426E+02  0.23233526882E+02 -0.91859646477E+00  0.27332269023E+02  0.00000000000E+00 0.  1.
</event>
<event>
 5    1  0.1325832E-009  0.9118800E+02  0.7818608E-02  0.1130116E+00
         25   -1    0    0    0    0  0.00000000000E+00  0.00000000000E+00  0.99999998245E-14  0.12500000000E+03  0.12500000000E+03 0.  0.
        -13    1    3    3    0    0 -0.17845900204E+02 -0.54998918872E+01 -0.25290174415E+02  0.31437701106E+02  0.10566000000E+00 0. -1.
         23    2    1    0    0    0  0.19111078433E+02 -0.23807550764E+02  0.16621774432E+02  0.90239157411E+02  0.83275382633E+02 0.  0.
         13    1    3    3    0    0  0.36956978637E+02 -0.18307658877E+02  0.41911948846E+02  0.58801456305E+02  0.10566000000E+00 0.  1.
         22    1    1    0    0    0 -0.19111078433E+02  0.23807550764E+02 -0.16621774432E+02  0.34760842589E+02  0.00000000000E+00 0.  1.
</event>
<event>
 5    1  0.1325832E-009  0.9118800E+02  0.7818608E-02  0.1130116E+00
         25   -1    0    0    0    0  0.00000000000E+00  0.00000000000E+00  0.99999998245E-14  0.12500000000E+03  0.12500000000E+03 0.  0.
        -13    1    3    3    0    0  0.53909506161E+02  0.24223906077E+02 -0.45398171099E+01  0.59276079354E+02  0.10566000000E+00 0. -1.
         23    2    1    0    0    0  0.20279916605E+02  0.24630490389E+02 -0.31974269351E+01  0.92935071912E+02  0.87228252177E+02 0.  0.
         13    1    3    3    0    0 -0.33629589557E+02  0.40658431220E+00  0.13423901748E+01  0.33658992557E+02  0.10566000000E+00 0.  1.
         22    1    1    0    0    0 -0.20279916605E+02 -0.24630490389E+02  0.31974269351E+01  0.32064928088E+02  0.00000000000E+00 0. -1.
</event>
<event>
 5    1  0.1325832E-009  0.9118800E+02  0.7818608E-02  0.1130116E+00
         25   -1    0    0    0    0  0.00000000000E+00  0.00000000000E+00  0.99999998245E-14  0.12500000000E+03  0.12500000000E+03 0.  0.
        -13    1    3    3    0    0  0.33386528663E+02 -0.19565363645E+01  0.12769360889E+02  0.35798827806E+02  0.10566000000E+00 0. -1.
         23    2    1    0    0    0 -0.27111706003E+02 -0.33175509950E+01  0.81859130904E+01  0.96485794415E+02  0.92176182411E+02 0.  0.
         13    1    3    3    0    0 -0.60498234666E+02 -0.13610146305E+01 -0.45834477988E+01  0.60686966610E+02  0.10566000000E+00 0.  1.
         22    1    1    0    0    0  0.27111706003E+02  0.33175509950E+01 -0.81859130904E+01  0.28514205585E+02  0.00000000000E+00 0.  1.
</event>
<event>
 5    1  0.1325832E-009  0.9118800E+02  0.7818608E-02  0.1130116E+00
         25   -1    0    0    0    0  0.00000000000E+00  0.00000000000E+00  0.99999998245E-14  0.12500000000E+03  0.12500000000E+03 0.  0.
        -13    1    3    3    0    0  0.18548974534E+01 -0.28431580970E+02 -0.25615764992E+02  0.38314149099E+02  0.10566000000E+00 0. -1.
         23    2    1    0    0    0  0.29710189117E+02  0.92494094527E+01  0.38169174355E+01  0.93650107316E+02  0.88246964985E+02 0.  0.
         13    1    3    3    0    0  0.27855291663E+02  0.37680990423E+02  0.29432682427E+02  0.55335958217E+02  0.10566000000E+00 0.  1.
         22    1    1    0    0    0 -0.29710189117E+02 -0.92494094527E+01 -0.38169174355E+01  0.31349892684E+02  0.00000000000E+00 0.  1.
</event>
<event>
 5    1  0.1325832E-009  0.9118800E+02  0.7818608E-02  0.1130116E+00
         25   -1    0    0    0    0  0.00000000000E+00  0.00000000000E+00  0.99999998245E-14  0.12500000000E+03  0.12500000000E+03 0.  0.
        -13    1    3    3    0    0 -0.24667591793E+02 -0.33901841187E+02 -0.66985613533E+00  0.41931906610E+02  0.10566000000E+00 0. -1.
         23    2    1    0    0    0  0.18291081641E+02 -0.87547350074E+01 -0.21096498410E+02  0.95737886306E+02  0.91156302999E+02 0.  0.
         13    1    3    3    0    0  0.42958673434E+02  0.25147106179E+02 -0.20426642275E+02  0.53805979696E+02  0.10566000000E+00 0.  1.
         22    1    1    0    0    0 -0.18291081641E+02  0.87547350074E+01  0.21096498410E+02  0.29262113694E+02  0.00000000000E+00 0.  1.
</event>
<event>
 5    1  0.1325832E-009  0.9118800E+02  0.7818608E-02  0.1130116E+00
         25   -1    0    0    0    0  0.00000000000E+00  0.00000000000E+00  0.99999998245E-14  0.12500000000E+03  0.12500000000E+03 0.  0.
        -13    1    3    3    0    0  0.11299775494E+01  0.55170763516E+02  0.18706777157E+02  0.58267011867E+02  0.10566000000E+00 0. -1.
         23    2    1    0    0    0 -0.77897467827E+01  0.27184905916E+02 -0.53319228841E+01  0.96222775217E+02  0.91818809643E+02 0.  0.
         13    1    3    3    0    0 -0.89197243321E+01 -0.27985857601E+02 -0.24038700041E+02  0.37955763350E+02  0.10566000000E+00 0.  1.
         22    1    1    0    0    0  0.77897467827E+01 -0.27184905916E+02  0.53319228841E+01  0.28777224783E+02  0.00000000000E+00 0. -1.
</event>
<event>
 5    1  0.1325832E-009  0.9118800E+02  0.7818608E-02  0.1130116E+00
         25   -1    0    0    0    0  0.00000000000E+00  0.00000000000E+00  0.99999998245E-14  0.12500000000E+03  0.12500000000E+03 0.  0.
        -13    1    3    3    0    0 -0.19073914819E+02  0.20194460295E+02 -0.23502829641E+02  0.36387149082E+02  0.10566000000E+00 0.  1.
         23    2    1    0    0    0 -0.59253515037E+01  0.22228761728E+02  0.27528529898E+02  0.89124554404E+02  0.81585161646E+02 0.  0.
         13    1    3    3    0    0  0.13148563315E+02  0.20343014332E+01  0.51031359539E+02  0.52737405321E+02  0.10566000000E+00 0. -1.
         22    1    1    0    0    0  0.59253515037E+01 -0.22228761728E+02 -0.27528529898E+02  0.35875445596E+02  0.00000000000E+00 0. -1.
</event>
<event>
 5    1  0.1325832E-009  0.9118800E+02  0.7818608E-02  0.1130116E+00
         25   -1    0    0    0    0  0.00000000000E+00  0.00000000000E+00  0.99999998245E-14  0.12500000000E+03  0.12500000000E+03 0.  0.
        -13    1    3    3    0    0 -0.62542518879E+01  0.31415636302E+02  0.38195498130E+02  0.49849424394E+02  0.10566000000E+00 0. -1.
         23    2    1    0    0    0 -0.28230700108E+02  0.53591808707E+01  0.85614017158E+01  0.95016823925E+02  0.90162109454E+02 0.  0.
         13    1    3    3    0    0 -0.21976448220E+02 -0.26056455432E+02 -0.29634096415E+02  0.45167399531E+02  0.10566000000E+00 0.  1.
         22    1    1    0    0    0  0.28230700108E+02 -0.53591808707E+01 -0.85614017158E+01  0.29983176075E+02  0.00000000000E+00 0. -1.
</event>
<event>
 5    1  0.1325832E-009  0.9118800E+02  0.7818608E-02  0.1130116E+00
         25   -1    0    0    0    0  0.00000000000E+00  0.00000000000E+00  0.99999998245E-14  0.12500000000E+03  0.12500000000E+03 0.  0.
        -13    1    3    3    0    0 -0.35881458726E+00  0.30094072395E+02 -0.18830107289E+02  0.35501634410E+02  0.10566000000E+00 0.  1.
         23    2    1    0    0    0  0.12962792352E+02 -0.21931836761E+02  0.11355053329E+02  0.97107766576E+02  0.93015813946E+02 0.  0.
         13    1    3    3    0    0  0.13321606939E+02 -0.52025909156E+02  0.30185160618E+02  0.61606132166E+02  0.10566000000E+00 0. -1.
         22    1    1    0    0    0 -0.12962792352E+02  0.21931836761E+02 -0.11355053329E+02  0.27892233424E+02  0.00000000000E+00 0. -1.
</event>
<event>
 5    1  0.1325832E-009  0.9118800E+02  0.7818608E-02  0.1130116E+00
         25   -1    0    0    0    0  0.00000000000E+00  0.00000000000E+00  0.99999998245E-14  0.12500000000E+03  0.12500000000E+03 0.  0.
        -13    1    3    3    0    0  0.15007073871E+02  0.26134581115E+02  0.49938712072E+02  0.58327649736E+02  0.10566000000E+00 0.  1.
         23    2    1    0    0    0  0.11912520051E+02 -0.45078813423E+01  0.20060995771E+02  0.10123715759E+03  0.98408787195E+02 0.  0.
         13    1    3    3    0    0 -0.30945538206E+01 -0.30642462457E+02 -0.29877716301E+02  0.42909507853E+02  0.10566000000E+00 0. -1.
         22    1    1    0    0    0 -0.11912520051E+02  0.45078813423E+01 -0.20060995771E+02  0.23762842411E+02  0.00000000000E+00 0.  1.
</event>
<event>
 5    1  0.1325832E-009  0.9118800E+02  0.7818608E-02  0.1130116E+00
         25   -1    0    0    0    0  0.00000000000E+00  0.00000000000E+00  0.99999998245E-14  0.12500000000E+03  0.12500000000E+03 0.  0.
        -13    1    3    3    0    0 -0.38870773370E+02 -0.13859581575E+02 -0.46859592929E+02  0.62440833093E+02  0.10566000000E+00 0. -1.
         23    2    1    0    0    0 -0.18053258318E+02 -0.83277474583E+01 -0.21406683738E+02  0.95784976086E+02  0.91220852997E+02 0.  0.
         13    1    3    3    0    0  0.20817515052E+02  0.55318341162E+01  0.25452909191E+02  0.33344142993E+02  0.10566000000E+00 0.  1.
         22    1    1    0    0    0  0.18053258318E+02  0.83277474583E+01  0.21406683738E+02  0.29215023914E+02  0.00000000000E+00 0. -1.
</event>
<event>
 5    1  0.1325832E-009  0.9118800E+02  0.7818608E-02  0.1130116E+00
         25   -1    0    0    0    0  0.00000000000E+00  0.00000000000E+00  0.99999998245E-14  0.12500000000E+03  0.12500000000E+03 0.  0.
        -13    1    3    3    0    0  0.17292048979E+02  0.42399119393E+02 -0.25185778493E+02  0.52259304296E+02  0.10566000000E+00 0.  1.
         23    2    1    0    0    0 -0.16722158982E+02  0.21563821710E+02 -0.16594513571E+02  0.93062453313E+02  0.87410601921E+02 0.  0.
         13    1    3    3    0    0 -0.34014207960E+02 -0.20835297683E+02  0.85912649220E+01  0.40803149017E+02  0.10566000000E+00 0. -1.
         22    1    1    0    0    0  0.16722158982E+02 -0.21563821710E+02  0.16594513571E+02  0.31937546687E+02  0.00000000000E+00 0.  1.
</event>
<event>
 5    1  0.1325832E-009  0.9118800E+02  0.7818608E-02  0.1130116E+00
         25   -1    0    0    0    0  0.00000000000E+00  0.00000000000E+00  0.99999998245E-14  0.12500000000E+03  0.12500000000E+03 0.  0.
        -13    1    3    3    0    0 -0.81168519989E+01  0.15668883296E+02 -0.29616238583E+02  0.34475062610E+02  0.10566000000E+00 0. -1.
         23    2    1    0    0    0  0.28864114980E+02 -0.87035655272E+01  0.93176998888E+01  0.93445147478E+02  0.87956164476E+02 0.  0.
         13    1    3    3    0    0  0.36980966979E+02 -0.24372448824E+02  0.38933938471E+02  0.58970084868E+02  0.10566000000E+00 0.  1.
         22    1    1    0    0    0 -0.28864114980E+02  0.87035655272E+01 -0.93176998888E+01  0.31554852522E+02  0.00000000000E+00 0.  1.
</event>
<event>
 5    1  0.1325832E-009  0.9118800E+02  0.7818608E-02  0.1130116E+00
         25   -1    0    0    0    0  0.00000000000E+00  0.00000000000E+00  0.99999998245E-14  0.12500000000E+03  0.12500000000E+03 0.  0.
        -13    1    3    3    0    0  0.11868046876E+02  0.30819142966E+02  0.32629390418E+02  0.46425837557E+02  0.10566000000E+00 0. -1.
         23    2    1    0    0    0 -0.18503752046E+01 -0.15426090053E+02  0.25432988968E+02  0.95196894951E+02  0.90411413758E+02 0.  0.
         13    1    3    3    0    0 -0.13718422080E+02 -0.46245233019E+02 -0.71964014504E+01  0.48771057393E+02  0.10566000000E+00 0.  1.
         22    1    1    0    0    0  0.18503752046E+01  0.15426090053E+02 -0.25432988968E+02  0.29803105049E+02  0.00000000000E+00 0.  1.
</event>
<event>
 5    1  0.1325832E-009  0.9118800E+02  0.7818608E-02  0.1130116E+00
         25   -1    0    0    0    0  0.00000000000E+00  0.00000000000E+00  0.99999998245E-14  0.12500000000E+03  0.12500000000E+03 0.  0.
        -13    1    3    3    0    0 -0.68335145863E+01 -0.32013369952E+02 -0.42419355578E+02  0.53581392936E+02  0.10566000000E+00 0. -1.
         23    2    1    0    0    0 -0.55410769411E+01 -0.29630059748E+02 -0.12601312223E+01  0.94829950198E+02  0.89902655965E+02 0.  0.
         13    1    3    3    0    0  0.12924376452E+01  0.23833102034E+01  0.41159224356E+02  0.41248557262E+02  0.10566000000E+00 0.  1.
         22    1    1    0    0    0  0.55410769411E+01  0.29630059748E+02  0.12601312223E+01  0.30170049802E+02  0.00000000000E+00 0.  1.
</event>
<event>
 5    1  0.1325832E-009  0.9118800E+02  0.7818608E-02  0.1130116E+00
         25   -1    0    0    0    0  0.00000000000E+00  0.00000000000E+00  0.99999998245E-14  0.12500000000E+03  0.12500000000E+03 0.  0.
        -13    1    3    3    0    0  0.36421054511E+02 -0.25620750365E+02 -0.31988867645E+01  0.44644821665E+02  0.10566000000E+00 0.  1.
         23    2    1    0    0    0 -0.11288349514E+02 -0.19948974109E+02 -0.19006107833E+02  0.95223826007E+02  0.90448640132E+02 0.  0.
         13    1    3    3    0    0 -0.47709404024E+02  0.56717762564E+01 -0.15807221068E+02  0.50579004342E+02  0.10566000000E+00 0. -1.
         22    1    1    0    0    0  0.11288349514E+02  0.19948974109E+02  0.19006107833E+02  0.29776173993E+02  0.00000000000E+00 0. -1.
</event>
<event>
 5    1  0.1325832E-009  0.9118800E+02  0.7818608E-02  0.1130116E+00
         25   -1    0    0    0    0  0.00000000000E+00  0.00000000000E+00  0.99999998245E-14  0.12500000000E+03  0.12500000000E+03 0.  0.
        -13    1    3    3    0    0  0.33445936900E+02 -0.17511348701E+02  0.10379236636E+02  0.39153770517E+02  0.10566000000E+00 0.  1.
         23    2    1    0    0    0 -0.38907830175E+01 -0.39556650780E+00 -0.28811424922E+02  0.95924359485E+02  0.91411650631E+02 0.  0.
         13    1    3    3    0    0 -0.37336719918E+02  0.17115782194E+02 -0.39190661558E+02  0.56770588968E+02  0.10566000000E+00 0. -1.
         22    1    1    0    0    0  0.38907830175E+01  0.39556650780E+00  0.28811424922E+02  0.29075640515E+02  0.00000000000E+00 0. -1.
</event>
<event>
 5    1  0.1325832E-009  0.9118800E+02  0.7818608E-02  0.1130116E+00
         25   -1    0    0    0    0  0.00000000000E+00  0.00000000000E+00  0.99999998245E-14  0.12500000000E+03  0.12500000000E+03 0.  0.
        -13    1    3    3    0    0  0.63860972366E+00 -0.33436861451E+02 -0.35008204358E+02  0.48415049959E+02  0.10566000000E+00 0. -1.
         23    2    1    0    0    0 -0.28955730691E+01  0.12959536458E+02 -0.25993299301E+02  0.95811208707E+02  0.91256792496E+02 0.  0.
         13    1    3    3    0    0 -0.35341827928E+01  0.46396397908E+02  0.90149050573E+01  0.47396158748E+02  0.10566000000E+00 0.  1.
         22    1    1    0    0    0  0.28955730691E+01 -0.12959536458E+02  0.25993299301E+02  0.29188791293E+02  0.00000000000E+00 0. -1.
</event>
<event>
 5    1  0.1325832E-009  0.9118800E+02  0.7818608E-02  0.1130116E+00
         25   -1    0    0    0    0  0.00000000000E+00  0.00000000000E+00  0.99999998245E-14  0.12500000000E+03  0.12500000000E+03 0.  0.
        -13    1    3    3    0    0 -0.27145717271E+02  0.53679385147E+02 -0.16340809325E+02  0.62332973372E+02  0.10566000000E+00 0.  1.
         23    2    1    0    0    0 -0.10700634252E+02  0.27954394862E+02 -0.70361215431E+01  0.94251686683E+02  0.89095014848E+02 0.  0.
         13    1    3    3    0    0  0.16445083019E+02 -0.25724990285E+02  0.93046877818E+01  0.31918713311E+02  0.10566000000E+00 0. -1.
         22    1    1    0    0    0  0.10700634252E+02 -0.27954394862E+02  0.70361215431E+01  0.30748313317E+02  0.00000000000E+00 0.  1.
</event>
<event>
 5    1  0.1325832E-009  0.9118800E+02  0.7818608E-02  0.1130116E+00
         25   -1    0    0    0    0  0.00000000000E+00  0.00000000000E+00  0.99999998245E-14  0.12500000000E+03  0.12500000000E+03 0.  0.
        -13    1    3    3    0    0  0.24985543998E+02  0.46359110369E+02  0.32866042767E+02  0.62077632480E+02  0.10566000000E+00 0.  1.
         23    2    1    0    0    0  0.15993604375E+02  0.19003164506E+02  0.14304784452E+02  0.96337437303E+02  0.91974775487E+02 0.  0.
         13    1    3    3    0    0 -0.89919396236E+01 -0.27355945863E+02 -0.18561258315E+02  0.34259804824E+02  0.10566000000E+00 0. -1.
         22    1    1    0    0    0 -0.15993604375E+02 -0.19003164506E+02 -0.14304784452E+02  0.28662562697E+02  0.00000000000E+00 0.  1.
</event>
<event>
 5    1  0.1325832E-009  0.9118800E+02  0.7818608E-02  0.1130116E+00
         25   -1    0    0    0    0  0.00000000000E+00  0.00000000000E+00  0.99999998245E-14  0.12500000000E+03  0.12500000000E+03 0.  0.
        -13    1    3    3    0    0 -0.26988827457E+02 -0.29207123293E+02  0.44627432850E+01  0.40017247534E+02  0.10566000000E+00 0. -1.
         23    2    1    0    0    0  0.18737323842E+01  0.14015197075E+02  0.25303798511E+02  0.96013471385E+02  0.91533424748E+02 0.  0.
         13    1    3    3    0    0  0.28862559841E+02  0.43222320368E+02  0.20841055226E+02  0.55996223851E+02  0.10566000000E+00 0.  1.
         22    1    1    0    0    0 -0.18737323842E+01 -0.14015197075E+02 -0.25303798511E+02  0.28986528615E+02  0.00000000000E+00 0.  1.
</event>
<event>
 5    1  0.1325832E-009  0.9118800E+02  0.7818608E-02  0.1130116E+00
         25   -1    0    0    0    0  0.00000000000E+00  0.00000000000E+00  0.99999998245E-14  0.12500000000E+03  0.12500000000E+03 0.  0.
        -13    1    3    3    0    0 -0.23873279092E+02  0.31112819688E+02 -0.13937304419E+02  0.41619714344E+02  0.10566000000E+00 0. -1.
         23    2    1    0    0    0 -0.36286688216E+02 -0.63281973573E+01  0.87726564180E+01  0.87135381633E+02  0.78478311706E+02 0.  0.
         13    1    3    3    0    0 -0.12413409124E+02 -0.37441017046E+02  0.22709960837E+02  0.45515667289E+02  0.10566000000E+00 0.  1.
         22    1    1    0    0    0  0.36286688216E+02  0.63281973573E+01 -0.87726564180E+01  0.37864618367E+02  0.00000000000E+00 0.  1.
</event>
<event>
 4    1  0.1325832E-009  0.9118800E+02  0.7818608E-02  0.1130116E+00
         25   -1    0    0    0    0  0.00000000000E+00  0.00000000000E+00  0.99999998245E-14  0.12500000000E+03  0.12500000000E+03 0.  0.
        -13    1    1    0    0    0  0.30685468545E+02  0.49087758145E+01  0.87912315094E+01  0.32295370803E+02  0.10566000000E+00 0.  1.
         13    1    1    0    0    0  0.14843250810E+02 -0.19172812075E+02  0.24544440610E+02  0.34501587591E+02  0.10566000000E+00 0. -1.
         22    1    1    0    0    0 -0.45528719354E+02  0.14264036260E+02 -0.33335672119E+02  0.58203041606E+02  0.00000000000E+00 0.  1.
</event>
<event>
 5    1  0.1325832E-009  0.9118800E+02  0.7818608E-02  0.1130116E+00
         25   -1    0    0    0    0  0.00000000000E+00  0.00000000000E+00  0.99999998245E-14  0.12500000000E+03  0.12500000000E+03 0.  0.
        -13    1    3    3    0    0  0.51093502701E+01  0.22885513464E+02 -0.44943628051E+02  0.50693126290E+02  0.10566000000E+00 0. -1.
         23    2    1    0    0    0  0.21739911095E+02 -0.87026793958E+01 -0.19425574564E+02  0.94574462861E+02  0.89546723643E+02 0.  0.
         13    1    3    3    0    0  0.16630560824E+02 -0.31588192859E+02  0.25518053486E+02  0.43881336571E+02  0.10566000000E+00 0.  1.
         22    1    1    0    0    0 -0.21739911095E+02  0.87026793958E+01  0.19425574564E+02  0.30425537139E+02  0.00000000000E+00 0. -1.
</event>
<event>
 5    1  0.1325832E-009  0.9118800E+02  0.7818608E-02  0.1130116E+00
         25   -1    0    0    0    0  0.00000000000E+00  0.00000000000E+00  0.99999998245E-14  0.12500000000E+03  0.12500000000E+03 0.  0.
        -13    1    3    3    0    0  0.41586682942E+02  0.31208462370E+02 -0.14347988721E+02  0.53937892673E+02  0.10566000000E+00 0. -1.
         23    2    1    0    0    0  0.62418451607E+01  0.29341361612E+02  0.54770031248E+01  0.94506169551E+02  0.89451340893E+02 0.  0.
         13    1    3    3    0    0 -0.35344837782E+02 -0.18671007584E+01  0.19824991846E+02  0.40568276877E+02  0.10566000000E+00 0.  1.
         22    1    1    0    0    0 -0.62418451607E+01 -0.29341361612E+02 -0.54770031248E+01  0.30493830449E+02  0.00000000000E+00 0. -1.
</event>
<event>
 5    1  0.1325832E-009  0.9118800E+02  0.7818608E-02  0.1130116E+00
         25   -1    0    0    0    0  0.00000000000E+00  0.00000000000E+00  0.99999998245E-14  0.12500000000E+03  0.12500000000E+03 0.  0.
        -13    1    3    3    0    0  0.20749132852E+02 -0.36638594173E+01 -0.37615399090E+02  0.43114728257E+02  0.10566000000E+00 0.  1.
         23    2    1    0    0    0  0.24455817791E+02 -0.38842897661E+01  0.15123685421E+02  0.95984476714E+02  0.91493820439E+02 0.  0.
         13    1    3    3    0    0  0.37066849392E+01 -0.22043034877E+00  0.52739084511E+02  0.52869748457E+02  0.10566000000E+00 0. -1.
         22    1    1    0    0    0 -0.24455817791E+02  0.38842897661E+01 -0.15123685421E+02  0.29015523286E+02  0.00000000000E+00 0. -1.
</event>
<event>
 5    1  0.1325832E-009  0.9118800E+02  0.7818608E-02  0.1130116E+00
         25   -1    0    0    0    0  0.00000000000E+00  0.00000000000E+00  0.99999998245E-14  0.12500000000E+03  0.12500000000E+03 0.  0.
        -13    1    3    3    0    0  0.53125171767E+02  0.85580675181E+01  0.20607277901E+02  0.57621137280E+02  0.10566000000E+00 0. -1.
         23    2    1    0    0    0  0.26684992637E+02  0.50392839693E+01 -0.79556322289E+01  0.96702026590E+02  0.92468949639E+02 0.  0.
         13    1    3    3    0    0 -0.26440179130E+02 -0.35187835488E+01 -0.28562910130E+02  0.39080889309E+02  0.10566000000E+00 0.  1.
         22    1    1    0    0    0 -0.26684992637E+02 -0.50392839693E+01  0.79556322289E+01  0.28297973410E+02  0.00000000000E+00 0. -1.
</event>
<event>
 5    1  0.1325832E-009  0.9118800E+02  0.7818608E-02  0.1130116E+00
         25   -1    0    0    0    0  0.00000000000E+00  0.00000000000E+00  0.99999998245E-14  0.12500000000E+03  0.12500000000E+03 0.  0.
        -13    1    3    3    0    0 -0.19943890862E+02  0.29905354970E+02 -0.44418145471E+02  0.57140807220E+02  0.10566000000E+00 0.  1.
         23    2    1    0    0    0 -0.92555028083E+01  0.28194108532E+02 -0.92803720975E+01  0.93908242340E+02  0.88611853524E+02 0.  0.
         13    1    3    3    0    0  0.10688388054E+02 -0.17112464386E+01  0.35137773374E+02  0.36767435119E+02  0.10566000000E+00 0. -1.
         22    1    1    0    0    0  0.92555028083E+01 -0.28194108532E+02  0.92803720975E+01  0.31091757660E+02  0.00000000000E+00 0.  1.
</event>
<event>
 5    1  0.1325832E-009  0.9118800E+02  0.7818608E-02  0.1130116E+00
         25   -1    0    0    0    0  0.00000000000E+00  0.00000000000E+00  0.99999998245E-14  0.12500000000E+03  0.12500000000E+03 0.  0.
        -13    1    3    3    0    0  0.32417327206E+02 -0.30930464642E+02 -0.67669682957E+01  0.45314233637E+02  0.10566000000E+00 0.  1.
         23    2    1    0    0    0 -0.80842575461E+01 -0.17057588146E+02  0.21325710092E+02  0.96520139671E+02  0.92222746206E+02 0.  0.
         13    1    3    3    0    0 -0.40501584752E+02  0.13872876496E+02  0.28092678387E+02  0.51205906034E+02  0.10566000000E+00 0. -1.
         22    1    1    0    0    0  0.80842575461E+01  0.17057588146E+02 -0.21325710092E+02  0.28479860329E+02  0.00000000000E+00 0.  1.
</event>
<event>
 5    1  0.1325832E-009  0.9118800E+02  0.7818608E-02  0.1130116E+00
         25   -1    0    0    0    0  0.00000000000E+00  0.00000000000E+00  0.99999998245E-14  0.12500000000E+03  0.12500000000E+03 0.  0.
        -13    1    3    3    0    0  0.12203309010E+02  0.26186225874E+02 -0.17608191269E+02  0.33833396816E+02  0.10566000000E+00 0. -1.
         23    2    1    0    0    0 -0.29544375128E+02 -0.12566747914E+02 -0.23256612647E+01  0.92809909053E+02  0.87048706270E+02 0.  0.
         13    1    3    3    0    0 -0.41747684138E+02 -0.38752973787E+02  0.15282530004E+02  0.58976512237E+02  0.10566000000E+00 0.  1.
         22    1    1    0    0    0  0.29544375128E+02  0.12566747914E+02  0.23256612647E+01  0.32190090947E+02  0.00000000000E+00 0.  1.
</event>
<event>
 5    1  0.1325832E-009  0.9118800E+02  0.7818608E-02  0.1130116E+00
         25   -1    0    0    0    0  0.00000000000E+00  0.00000000000E+00  0.99999998245E-14  0.12500000000E+03  0.12500000000E+03 0.  0.
        -13    1    3    3    0    0 -0.19734778833E+02 -0.29638806972E+02  0.41297179179E+02  0.54528786402E+02  0.10566000000E+00 0. -1.
         23    2    1    0    0    0 -0.97981105471E+01  0.83337987768E+01  0.24713024777E+02  0.97139835500E+02  0.93058900031E+02 0.  0.
         13    1    3    3    0    0  0.99366682858E+01  0.37972605749E+02 -0.16584154402E+02  0.42611049098E+02  0.10566000000E+00 0.  1.
         22    1    1    0    0    0  0.97981105471E+01 -0.83337987768E+01 -0.24713024777E+02  0.27860164500E+02  0.00000000000E+00 0. -1.
</event>
<event>
 5    1  0.1325832E-009  0.9118800E+02  0.7818608E-02  0.1130116E+00
         25   -1    0    0    0    0  0.00000000000E+00  0.00000000000E+00  0.99999998245E-14  0.12500000000E+03  0.12500000000E+03 0.  0.
        -13    1    3    3    0    0 -0.26141699068E+02  0.10061230705E+02  0.32191379240E+02  0.42672155498E+02  0.10566000000E+00 0.  1.
         23    2    1    0    0    0 -0.11617909708E+02  0.19341305635E+02 -0.18252311640E+02  0.95979165934E+02  0.91486564498E+02 0.  0.
         13    1    3    3    0    0  0.14523789360E+02  0.92800749300E+01 -0.50443690879E+02  0.53307010436E+02  0.10566000000E+00 0. -1.
         22    1    1    0    0    0  0.11617909708E+02 -0.19341305635E+02  0.18252311640E+02  0.29020834066E+02  0.00000000000E+00 0. -1.
</event>
<event>
 5    1  0.1325832E-009  0.9118800E+02  0.7818608E-02  0.1130116E+00
         25   -1    0    0    0    0  0.00000000000E+00  0.00000000000E+00  0.99999998245E-14  0.12500000000E+03  0.12500000000E+03 0.  0.
        -13    1    3    3    0    0 -0.28813890289E+02  0.43481960983E+02 -0.39127803796E+01  0.52309102639E+02  0.10566000000E+00 0.  1.
         23    2    1    0    0    0  0.10829914005E+02  0.27879677108E+02 -0.14689204324E-01  0.95090743092E+02  0.90264532198E+02 0.  0.
         13    1    3    3    0    0  0.39643804294E+02 -0.15602283875E+02  0.38980911753E+01  0.42781640453E+02  0.10566000000E+00 0. -1.
         22    1    1    0    0    0 -0.10829914005E+02 -0.27879677108E+02  0.14689204324E-01  0.29909256908E+02  0.00000000000E+00 0.  1.
</event>
<event>
 5    1  0.1325832E-009  0.9118800E+02  0.7818608E-02  0.1130116E+00
         25   -1    0    0    0    0  0.00000000000E+00  0.00000000000E+00  0.99999998245E-14  0.12500000000E+03  0.12500000000E+03 0.  0.
        -13    1    3    3    0    0 -0.46586025705E+02 -0.15767695461E+01  0.19472864935E+02  0.50516805382E+02  0.10566000000E+00 0.  1.
         23    2    1    0    0    0 -0.16649829373E+02 -0.20378692930E+02 -0.10305462581E+02  0.96738533253E+02  0.92518286372E+02 0.  0.
         13    1    3    3    0    0  0.29936196332E+02 -0.18801923384E+02 -0.29778327515E+02  0.46221727871E+02  0.10566000000E+00 0. -1.
         22    1    1    0    0    0  0.16649829373E+02  0.20378692930E+02  0.10305462581E+02  0.28261466747E+02  0.00000000000E+00 0.  1.
</event>
<event>
 5    1  0.1325832E-009  0.9118800E+02  0.7818608E-02  0.1130116E+00
         25   -1    0    0    0    0  0.00000000000E+00  0.00000000000E+00  0.99999998245E-14  0.12500000000E+03  0.12500000000E+03 0.  0.
        -13    1    3    3    0    0 -0.49968583257E+02 -0.36081465383E+02 -0.92178543000E+01  0.62319430828E+02  0.10566000000E+00 0.  1.
         23    2    1    0    0    0 -0.28347883398E+02 -0.24327546003E+02 -0.45368394208E+01  0.87370026579E+02  0.78851167682E+02 0.  0.
         13    1    3    3    0    0  0.21620699858E+02  0.11753919379E+02  0.46810148792E+01  0.25050595751E+02  0.10566000000E+00 0. -1.
         22    1    1    0    0    0  0.28347883398E+02  0.24327546003E+02  0.45368394208E+01  0.37629973421E+02  0.00000000000E+00 0.  1.
</event>
<event>
 5    1  0.1325832E-009  0.9118800E+02  0.7818608E-02  0.1130116E+00
         25   -1    0    0    0    0  0.00000000000E+00  0.00000000000E+00  0.99999998245E-14  0.12500000000E+03  0.12500000000E+03 0.  0.
        -13    1    3    3    0    0 -0.66241292860E+01 -0.29674117884E+02  0.31394022183E+02  0.43703868866E+02  0.10566000000E+00 0. -1.
         23    2    1    0    0    0  0.24594440270E+02  0.65140176990E+01  0.19471151160E+02  0.92961825173E+02  0.87266581766E+02 0.  0.
         13    1    3    3    0    0  0.31218569556E+02  0.36188135583E+02 -0.11922871022E+02  0.49257956307E+02  0.10566000000E+00 0.  1.
         22    1    1    0    0    0 -0.24594440270E+02 -0.65140176990E+01 -0.19471151160E+02  0.32038174827E+02  0.00000000000E+00 0.  1.
</event>
<event>
 5    1  0.1325832E-009  0.9118800E+02  0.7818608E-02  0.1130116E+00
         25   -1    0    0    0    0  0.00000000000E+00  0.00000000000E+00  0.99999998245E-14  0.12500000000E+03  0.12500000000E+03 0.  0.
        -13    1    3    3    0    0  0.14275009474E+02 -0.54576734918E+02 -0.24228308339E+02  0.61395585988E+02  0.10566000000E+00 0.  1.
         23    2    1    0    0    0  0.24608212028E+01 -0.21998391538E+02 -0.17696030420E+02  0.96660374669E+02  0.92412627207E+02 0.  0.
         13    1    3    3    0    0 -0.11814188271E+02  0.32578343380E+02  0.65322779184E+01  0.35264788681E+02  0.10566000000E+00 0. -1.
         22    1    1    0    0    0 -0.24608212028E+01  0.21998391538E+02  0.17696030420E+02  0.28339625331E+02  0.00000000000E+00 0.  1.
</event>
<event>
 5    1  0.1325832E-009  0.9118800E+02  0.7818608E-02  0.1130116E+00
         25   -1    0    0    0    0  0.00000000000E+00  0.00000000000E+00  0.99999998245E-14  0.12500000000E+03  0.12500000000E+03 0.  0.
        -13    1    3    3    0    0  0.18812728270E+02 -0.28703495588E+02  0.19778440123E+02  0.39610696304E+02  0.10566000000E+00 0.  1.
         23    2    1    0    0    0 -0.28186085096E+02 -0.96126537007E+01 -0.27030128485E+01  0.95097411773E+02  0.90273766639E+02 0.  0.
         13    1    3    3    0    0 -0.46998813366E+02  0.19090841888E+02 -0.22481452972E+02  0.55486715469E+02  0.10566000000E+00 0. -1.
         22    1    1    0    0    0  0.28186085096E+02  0.96126537007E+01  0.27030128485E+01  0.29902588227E+02  0.00000000000E+00 0. -1.
</event>
<event>
 5    1  0.1325832E-009  0.9118800E+02  0.7818608E-02  0.1130116E+00
         25   -1    0    0    0    0  0.00000000000E+00  0.00000000000E+00  0.99999998245E-14  0.12500000000E+03  0.12500000000E+03 0.  0.
        -13    1    3    3    0    0  0.13473167967E+01 -0.31159453422E+02  0.15347213207E+02  0.34760249098E+02  0.10566000000E+00 0.  1.
         23    2    1    0    0    0  0.13016205247E+02  0.26443772013E+02  0.10415599164E+02  0.93740131426E+02  0.88374390275E+02 0.  0.
         13    1    3    3    0    0  0.11668888450E+02  0.57603225436E+02 -0.49316140434E+01  0.58979882327E+02  0.10566000000E+00 0. -1.
         22    1    1    0    0    0 -0.13016205247E+02 -0.26443772013E+02 -0.10415599164E+02  0.31259868574E+02  0.00000000000E+00 0. -1.
</event>
<event>
 5    1  0.1325832E-009  0.9118800E+02  0.7818608E-02  0.1130116E+00
         25   -1    0    0    0    0  0.00000000000E+00  0.00000000000E+00  0.99999998245E-14  0.12500000000E+03  0.12500000000E+03 0.  0.
        -13    1    3    3    0    0  0.16440681557E+02 -0.30413784856E+02 -0.62953137006E+01  0.35141662709E+02  0.10566000000E+00 0.  1.
         23    2    1    0    0    0 -0.24895030815E+02 -0.34494950250E+01  0.21624360159E+02  0.91844690810E+02  0.85651460597E+02 0.  0.
         13    1    3    3    0    0 -0.41335712371E+02  0.26964289831E+02  0.27919673860E+02  0.56703028101E+02  0.10566000000E+00 0. -1.
         22    1    1    0    0    0  0.24895030815E+02  0.34494950250E+01 -0.21624360159E+02  0.33155309190E+02  0.00000000000E+00 0. -1.
</event>
<event>
 5    1  0.1325832E-009  0.9118800E+02  0.7818608E-02  0.1130116E+00
         25   -1    0    0    0    0  0.00000000000E+00  0.00000000000E+00  0.99999998245E-14  0.12500000000E+03  0.12500000000E+03 0.  0.
        -13    1    3    3    0    0  0.24458549897E+02  0.26830281006E+02  0.30400222423E+02  0.47352606363E+02  0.10566000000E+00 0. -1.
         23    2    1    0    0    0  0.26710190572E+02  0.37371778187E+01 -0.11839313187E+02  0.95545456799E+02  0.90892046955E+02 0.  0.
         13    1    3    3    0    0  0.22516406749E+01 -0.23093103187E+02 -0.42239535611E+02  0.48192850436E+02  0.10566000000E+00 0.  1.
         22    1    1    0    0    0 -0.26710190572E+02 -0.37371778187E+01  0.11839313187E+02  0.29454543201E+02  0.00000000000E+00 0. -1.
</event>
<event>
 5    1  0.1325832E-009  0.9118800E+02  0.7818608E-02  0.1130116E+00
         25   -1    0    0    0    0  0.00000000000E+00  0.00000000000E+00  0.99999998245E-14  0.12500000000E+03  0.12500000000E+03 0.  0.
        -13    1    3    3    0    0  0.41286036392E+02  0.25049051803E+02  0.29104717695E+02  0.56383397852E+02  0.10566000000E+00 0. -1.
         23    2    1    0    0    0  0.82329300348E+01  0.26460055200E+02  0.62523198264E+01  0.96592128532E+02  0.92320269350E+02 0.  0.
         13    1    3    3    0    0 -0.33053106357E+02  0.14110033970E+01 -0.22852397869E+02  0.40208730679E+02  0.10566000000E+00 0.  1.
         22    1    1    0    0    0 -0.82329300348E+01 -0.26460055200E+02 -0.62523198264E+01  0.28407871468E+02  0.00000000000E+00 0.  1.
</event>
<event>
 5    1  0.1325832E-009  0.9118800E+02  0.7818608E-02  0.1130116E+00
         25   -1    0    0    0    0  0.00000000000E+00  0.00000000000E+00  0.99999998245E-14  0.12500000000E+03  0.12500000000E+03 0.  0.
        -13    1    3    3    0    0 -0.25715999777E+02 -0.13116249126E+02  0.26749474495E+02  0.39355993006E+02  0.10566000000E+00 0. -1.
         23    2    1    0    0    0  0.53396589905E+01  0.28588940214E+02  0.62258052737E+01  0.95257772242E+02  0.90495541661E+02 0.  0.
         13    1    3    3    0    0  0.31055658768E+02  0.41705189340E+02 -0.20523669222E+02  0.55901779236E+02  0.10566000000E+00 0.  1.
         22    1    1    0    0    0 -0.53396589905E+01 -0.28588940214E+02 -0.62258052737E+01  0.29742227758E+02  0.00000000000E+00 0.  1.
</event>
<event>
 5    1  0.1325832E-009  0.9118800E+02  0.7818608E-02  0.1130116E+00
         25   -1    0    0    0    0  0.00000000000E+00  0.00000000000E+00  0.99999998245E-14  0.12500000000E+03  0.12500000000E+03 0.  0.
        -13    1    3    3    0    0  0.64954572829E+00  0.44612047802E+02 -0.31883595169E+00  0.44618040512E+02  0.10566000000E+00 0. -1.
         23    2    1    0    0    0 -0.23499035278E+02  0.23523491864E+01  0.16583951202E+02  0.96142320898E+02  0.91709215592E+02 0.  0.
         13    1    3    3    0    0 -0.24148581006E+02 -0.42259698616E+02  0.16902787153E+02  0.51524280386E+02  0.10566000000E+00 0.  1.
         22    1    1    0    0    0  0.23499035278E+02 -0.23523491864E+01 -0.16583951202E+02  0.28857679102E+02  0.00000000000E+00 0.  1.
</event>
<event>
 5    1  0.1325832E-009  0.9118800E+02  0.7818608E-02  0.1130116E+00
         25   -1    0    0    0    0  0.00000000000E+00  0.00000000000E+00  0.99999998245E-14  0.12500000000E+03  0.12500000000E+03 0.  0.
        -13    1    3    3    0    0 -0.31079320040E+02 -0.97237752663E+01  0.12008297608E+02  0.34708591372E+02  0.10566000000E+00 0.  1.
         23    2    1    0    0    0  0.24213255003E+02 -0.96064628012E+01 -0.13566638126E+02  0.95629614993E+02  0.91007712576E+02 0.  0.
         13    1    3    3    0    0  0.55292575043E+02  0.11731246506E+00 -0.25574935734E+02  0.60921023621E+02  0.10566000000E+00 0. -1.
         22    1    1    0    0    0 -0.24213255003E+02  0.96064628012E+01  0.13566638126E+02  0.29370385007E+02  0.00000000000E+00 0. -1.
</event>
<event>
 5    1  0.1325832E-009  0.9118800E+02  0.7818608E-02  0.1130116E+00
         25   -1    0    0    0    0  0.00000000000E+00  0.00000000000E+00  0.99999998245E-14  0.12500000000E+03  0.12500000000E+03 0.  0.
        -13    1    3    3    0    0 -0.21205872325E+02 -0.31873495644E+02  0.16359155115E+02  0.41632221484E+02  0.10566000000E+00 0. -1.
         23    2    1    0    0    0  0.22445271303E+02 -0.83403980279E+00 -0.88859588595E+01  0.10084537123E+03  0.97909870835E+02 0.  0.
         13    1    3    3    0    0  0.43651143628E+02  0.31039455841E+02 -0.25245113974E+02  0.59213149744E+02  0.10566000000E+00 0.  1.
         22    1    1    0    0    0 -0.22445271303E+02  0.83403980279E+00  0.88859588595E+01  0.24154628772E+02  0.00000000000E+00 0.  1.
</event>
<event>
 5    1  0.1325832E-009  0.9118800E+02  0.7818608E-02  0.1130116E+00
         25   -1    0    0    0    0  0.00000000000E+00  0.00000000000E+00  0.99999998245E-14  0.12500000000E+03  0.12500000000E+03 0.  0.
        -13    1    3    3    0    0 -0.50528077151E+02  0.22313724875E+02 -0.28400822904E+01  0.55308825063E+02  0.10566000000E+00 0.  1.
         23    2    1    0    0    0 -0.11991485093E+02  0.28110386648E+02  0.62070106184E+00  0.94432454760E+02  0.89348271891E+02 0.  0.
         13    1    3    3    0    0  0.38536592058E+02  0.57966617723E+01  0.34607833523E+01  0.39123629696E+02  0.10566000000E+00 0. -1.
         22    1    1    0    0    0  0.11991485093E+02 -0.28110386648E+02 -0.62070106184E+00  0.30567545240E+02  0.00000000000E+00 0.  1.
</event>
<event>
 5    1  0.1325832E-009  0.9118800E+02  0.7818608E-02  0.1130116E+00
         25   -1    0    0    0    0  0.00000000000E+00  0.00000000000E+00  0.99999998245E-14  0.12500000000E+03  0.12500000000E+03 0.  0.
        -13    1    3    3    0    0 -0.33895943087E+02  0.39483404160E+02  0.11196144911E+02  0.53228178502E+02  0.10566000000E+00 0.  1.
         23    2    1    0    0    0  0.53862471501E+01  0.24922642721E+02 -0.64686502066E+01  0.98694236106E+02  0.95123914063E+02 0.  0.
         13    1    3    3    0    0  0.39282190237E+02 -0.14560761439E+02 -0.17664795117E+02  0.45466057604E+02  0.10566000000E+00 0. -1.
         22    1    1    0    0    0 -0.53862471501E+01 -0.24922642721E+02  0.64686502066E+01  0.26305763894E+02  0.00000000000E+00 0.  1.
</event>
<event>
 5    1  0.1325832E-009  0.9118800E+02  0.7818608E-02  0.1130116E+00
         25   -1    0    0    0    0  0.00000000000E+00  0.00000000000E+00  0.99999998245E-14  0.12500000000E+03  0.12500000000E+03 0.  0.
        -13    1    3    3    0    0  0.28023849012E+02  0.22346801866E+02  0.19289007272E+02  0.40703717676E+02  0.10566000000E+00 0. -1.
         23    2    1    0    0    0 -0.24352859630E+02  0.20533772093E+01  0.13254909812E+02  0.97197648224E+02  0.93136523749E+02 0.  0.
         13    1    3    3    0    0 -0.52376708643E+02 -0.20293424657E+02 -0.60340974593E+01  0.56493930548E+02  0.10566000000E+00 0.  1.
         22    1    1    0    0    0  0.24352859630E+02 -0.20533772093E+01 -0.13254909812E+02  0.27802351776E+02  0.00000000000E+00 0.  1.
</event>
<event>
 5    1  0.1325832E-009  0.9118800E+02  0.7818608E-02  0.1130116E+00
         25   -1    0    0    0    0  0.00000000000E+00  0.00000000000E+00  0.99999998245E-14  0.12500000000E+03  0.12500000000E+03 0.  0.
        -13    1    3    3    0    0  0.50421922718E+02 -0.95323513628E+01 -0.31384361345E+01  0.51411058718E+02  0.10566000000E+00 0. -1.
         23    2    1    0    0    0  0.18845659756E+02  0.11760023708E+02  0.19264563892E+02  0.95596250729E+02  0.90961874883E+02 0.  0.
         13    1    3    3    0    0 -0.31576262963E+02  0.21292375070E+02  0.22403000027E+02  0.44185192011E+02  0.10566000000E+00 0.  1.
         22    1    1    0    0    0 -0.18845659756E+02 -0.11760023708E+02 -0.19264563892E+02  0.29403749271E+02  0.00000000000E+00 0. -1.
</event>
<event>
 5    1  0.1325832E-009  0.9118800E+02  0.7818608E-02  0.1130116E+00
         25   -1    0    0    0    0  0.00000000000E+00  0.00000000000E+00  0.99999998245E-14  0.12500000000E+03  0.12500000000E+03 0.  0.
        -13    1    3    3    0    0 -0.35947668403E+02  0.10284300503E+02  0.55876068085E+01  0.37805214116E+02  0.10566000000E+00 0.  1.
         23    2    1    0    0    0  0.18720479063E+02 -0.23974180928E+01  0.21746984149E+02  0.96205290947E+02  0.91795003877E+02 0.  0.
         13    1    3    3    0    0  0.54668147466E+02 -0.12681718596E+02  0.16159377340E+02  0.58400076832E+02  0.10566000000E+00 0. -1.
         22    1    1    0    0    0 -0.18720479063E+02  0.23974180928E+01 -0.21746984149E+02  0.28794709053E+02  0.00000000000E+00 0. -1.
</event>
<event>
 5    1  0.1325832E-009  0.9118800E+02  0.7818608E-02  0.1130116E+00
         25   -1    0    0    0    0  0.00000000000E+00  0.00000000000E+00  0.99999998245E-14  0.12500000000E+03  0.12500000000E+03 0.  0.
        -13    1    3    3    0    0 -0.39159250893E+02 -0.34947257846E+02  0.18807164965E+02  0.55753729736E+02  0.10566000000E+00 0.  1.
         23    2    1    0    0    0 -0.26707145194E+02  0.25919943136E+01  0.10615110475E+02  0.96143967540E+02  0.91711459944E+02 0.  0.
         13    1    3    3    0    0  0.12452105699E+02  0.37539252160E+02 -0.81920544900E+01  0.40390237804E+02  0.10566000000E+00 0. -1.
         22    1    1    0    0    0  0.26707145194E+02 -0.25919943136E+01 -0.10615110475E+02  0.28856032460E+02  0.00000000000E+00 0.  1.
</event>
<event>
 5    1  0.1325832E-009  0.9118800E+02  0.7818608E-02  0.1130116E+00
         25   -1    0    0    0    0  0.00000000000E+00  0.00000000000E+00  0.99999998245E-14  0.12500000000E+03  0.12500000000E+03 0.  0.
        -13    1    3    3    0    0  0.23050110514E+02  0.13080338238E+02 -0.50796013753E+02  0.57294406536E+02  0.10566000000E+00 0. -1.
         23    2    1    0    0    0 -0.56782913180E+01 -0.68217086788E+00 -0.27889371972E+02  0.96530271895E+02  0.92236478541E+02 0.  0.
         13    1    3    3    0    0 -0.28728401832E+02 -0.13762509106E+02  0.22906641781E+02  0.39235865358E+02  0.10566000000E+00 0.  1.
         22    1    1    0    0    0  0.56782913180E+01  0.68217086788E+00  0.27889371972E+02  0.28469728105E+02  0.00000000000E+00 0. -1.
</event>
<event>
 5    1  0.1325832E-009  0.9118800E+02  0.7818608E-02  0.1130116E+00
         25   -1    0    0    0    0  0.00000000000E+00  0.00000000000E+00  0.99999998245E-14  0.12500000000E+03  0.12500000000E+03 0.  0.
        -13    1    3    3    0    0  0.42459062093E+02  0.25544977342E+01  0.44683456629E+02  0.61692137853E+02  0.10566000000E+00 0.  1.
         23    2    1    0    0    0  0.17318222839E+02  0.80350685586E+01  0.18005268201E+02  0.98757422916E+02  0.95206910091E+02 0.  0.
         13    1    3    3    0    0 -0.25140839254E+02  0.54805708244E+01 -0.26678188428E+02  0.37065285063E+02  0.10566000000E+00 0. -1.
         22    1    1    0    0    0 -0.17318222839E+02 -0.80350685586E+01 -0.18005268201E+02  0.26242577084E+02  0.00000000000E+00 0.  1.
</event>
<event>
 5    1  0.1325832E-009  0.9118800E+02  0.7818608E-02  0.1130116E+00
         25   -1    0    0    0    0  0.00000000000E+00  0.00000000000E+00  0.99999998245E-14  0.12500000000E+03  0.12500000000E+03 0.  0.
        -13    1    3    3    0    0  0.28818319787E+02 -0.36658735422E+02 -0.27975404038E+02  0.54378238600E+02  0.10566000000E+00 0.  1.
         23    2    1    0    0    0  0.26020640339E+00 -0.63970114995E+01 -0.28295783508E+02  0.95988953348E+02  0.91499936268E+02 0.  0.
         13    1    3    3    0    0 -0.28558113384E+02  0.30261723922E+02 -0.32037947014E+00  0.41610714748E+02  0.10566000000E+00 0. -1.
         22    1    1    0    0    0 -0.26020640339E+00  0.63970114995E+01  0.28295783508E+02  0.29011046652E+02  0.00000000000E+00 0.  1.
</event>
<event>
 5    1  0.1325832E-009  0.9118800E+02  0.7818608E-02  0.1130116E+00
         25   -1    0    0    0    0  0.00000000000E+00  0.00000000000E+00  0.99999998245E-14  0.12500000000E+03  0.12500000000E+03 0.  0.
        -13    1    3    3    0    0  0.89786187093E+00 -0.17523022473E+02  0.50669155452E+02  0.53621236006E+02  0.10566000000E+00 0.  1.
         23    2    1    0    0    0  0.16821539649E+02  0.91775281837E+01  0.20402491985E+02  0.97009771367E+02  0.92884028992E+02 0.  0.
         13    1    3    3    0    0  0.15923677778E+02  0.26700550656E+02 -0.30266663467E+02  0.43388535361E+02  0.10566000000E+00 0. -1.
         22    1    1    0    0    0 -0.16821539649E+02 -0.91775281837E+01 -0.20402491985E+02  0.27990228633E+02  0.00000000000E+00 0.  1.
</event>
<event>
 5    1  0.1325832E-009  0.9118800E+02  0.7818608E-02  0.1130116E+00
         25   -1    0    0    0    0  0.00000000000E+00  0.00000000000E+00  0.99999998245E-14  0.12500000000E+03  0.12500000000E+03 0.  0.
        -13    1    3    3    0    0 -0.37130412738E+02 -0.14713252198E+02  0.11909275036E+02  0.41677204036E+02  0.10566000000E+00 0.  1.
         23    2    1    0    0    0 -0.42257880209E+01 -0.10566964110E+02 -0.28710287688E+02  0.94116369481E+02  0.88904962573E+02 0.  0.
         13    1    3    3    0    0  0.32904624717E+02  0.41462880875E+01 -0.40619562724E+02  0.52439165445E+02  0.10566000000E+00 0. -1.
         22    1    1    0    0    0  0.42257880209E+01  0.10566964110E+02  0.28710287688E+02  0.30883630519E+02  0.00000000000E+00 0. -1.
</event>
<event>
 5    1  0.1325832E-009  0.9118800E+02  0.7818608E-02  0.1130116E+00
         25   -1    0    0    0    0  0.00000000000E+00  0.00000000000E+00  0.99999998245E-14  0.12500000000E+03  0.12500000000E+03 0.  0.
        -13    1    3    3    0    0  0.40761182234E-01 -0.12579940339E+02  0.34044562692E+02  0.36294627334E+02  0.10566000000E+00 0. -1.
         23    2    1    0    0    0 -0.21573103092E+02  0.12155772479E+02 -0.15534677825E+02  0.95768376769E+02  0.91198104104E+02 0.  0.
         13    1    3    3    0    0 -0.21613864275E+02  0.24735712818E+02 -0.49579240517E+02  0.59473749435E+02  0.10566000000E+00 0.  1.
         22    1    1    0    0    0  0.21573103092E+02 -0.12155772479E+02  0.15534677825E+02  0.29231623231E+02  0.00000000000E+00 0. -1.
</event>
<event>
 5    1  0.1325832E-009  0.9118800E+02  0.7818608E-02  0.1130116E+00
         25   -1    0    0    0    0  0.00000000000E+00  0.00000000000E+00  0.99999998245E-14  0.12500000000E+03  0.12500000000E+03 0.  0.
        -13    1    3    3    0    0 -0.22325632897E+02  0.18493779790E+02 -0.51326388209E+02  0.58947969141E+02  0.10566000000E+00 0.  1.
         23    2    1    0    0    0  0.28353688250E+01  0.15154494551E+02 -0.25791605041E+02  0.94951623803E+02  0.90071671189E+02 0.  0.
         13    1    3    3    0    0  0.25161001722E+02 -0.33392852388E+01  0.25534783168E+02  0.36003654662E+02  0.10566000000E+00 0. -1.
         22    1    1    0    0    0 -0.28353688250E+01 -0.15154494551E+02  0.25791605041E+02  0.30048376197E+02  0.00000000000E+00 0.  1.
</event>
<event>
 5    1  0.1325832E-009  0.9118800E+02  0.7818608E-02  0.1130116E+00
         25   -1    0    0    0    0  0.00000000000E+00  0.00000000000E+00  0.99999998245E-14  0.12500000000E+03  0.12500000000E+03 0.  0.
        -13    1    3    3    0    0 -0.36602147984E+02  0.45821420002E+02  0.21288133445E+02  0.62390027710E+02  0.10566000000E+00 0. -1.
         23    2    1    0    0    0 -0.15986263796E+02  0.24153250838E+02  0.10938230945E+02  0.94038975269E+02  0.88796079966E+02 0.  0.
         13    1    3    3    0    0  0.20615884188E+02 -0.21668169165E+02 -0.10349902500E+02  0.31648947559E+02  0.10566000000E+00 0.  1.
         22    1    1    0    0    0  0.15986263796E+02 -0.24153250838E+02 -0.10938230945E+02  0.30961024731E+02  0.00000000000E+00 0. -1.
</event>
<event>
 5    1  0.1325832E-009  0.9118800E+02  0.7818608E-02  0.1130116E+00
         25   -1    0    0    0    0  0.00000000000E+00  0.00000000000E+00  0.99999998245E-14  0.12500000000E+03  0.12500000000E+03 0.  0.
        -13    1    3    3    0    0  0.19866369641E+02  0.20611260698E+02  0.19462119947E+02  0.34616209889E+02  0.10566000000E+00 0.  1.
         23    2    1    0    0    0  0.11196398877E+01 -0.19661555782E+02 -0.22064008868E+02  0.95425503275E+02  0.90726929953E+02 0.  0.
         13    1    3    3    0    0 -0.18746729753E+02 -0.40272816479E+02 -0.41526128815E+02  0.60809293385E+02  0.10566000000E+00 0. -1.
         22    1    1    0    0    0 -0.11196398877E+01  0.19661555782E+02  0.22064008868E+02  0.29574496725E+02  0.00000000000E+00 0. -1.
</event>
<event>
 5    1  0.1325832E-009  0.9118800E+02  0.7818608E-02  0.1130116E+00
         25   -1    0    0    0    0  0.00000000000E+00  0.00000000000E+00  0.99999998245E-14  0.12500000000E+03  0.12500000000E+03 0.  0.
        -13    1    3    3    0    0 -0.20611806700E+02 -0.88259988297E+01 -0.21601221570E+02  0.31134687539E+02  0.10566000000E+00 0. -1.
         23    2    1    0    0    0  0.29656280293E+02  0.91069246740E+00  0.12659092758E+02  0.92742025001E+02  0.86951171644E+02 0.  0.
         13    1    3    3    0    0  0.50268086993E+02  0.97366912971E+01  0.34260314328E+02  0.61607337462E+02  0.10566000000E+00 0.  1.
         22    1    1    0    0    0 -0.29656280293E+02 -0.91069246740E+00 -0.12659092758E+02  0.32257974999E+02  0.00000000000E+00 0.  1.
</event>
<event>
 5    1  0.1325832E-009  0.9118800E+02  0.7818608E-02  0.1130116E+00
         25   -1    0    0    0    0  0.00000000000E+00  0.00000000000E+00  0.99999998245E-14  0.12500000000E+03  0.12500000000E+03 0.  0.
        -13    1    3    3    0    0 -0.35454814527E+02  0.33165909192E+02 -0.33867470578E+02  0.59194916446E+02  0.10566000000E+00 0.  1.
         23    2    1    0    0    0 -0.12281217635E+02  0.25773114961E+02 -0.66728338753E+01  0.95680919638E+02  0.91078152756E+02 0.  0.
         13    1    3    3    0    0  0.23173596892E+02 -0.73927942312E+01  0.27194636703E+02  0.36486003192E+02  0.10566000000E+00 0. -1.
         22    1    1    0    0    0  0.12281217635E+02 -0.25773114961E+02  0.66728338753E+01  0.29319080362E+02  0.00000000000E+00 0.  1.
</event>
<event>
 5    1  0.1325832E-009  0.9118800E+02  0.7818608E-02  0.1130116E+00
         25   -1    0    0    0    0  0.00000000000E+00  0.00000000000E+00  0.99999998245E-14  0.12500000000E+03  0.12500000000E+03 0.  0.
        -13    1    3    3    0    0  0.38341226642E+02  0.44738276679E+02  0.78105613596E+01  0.59435503644E+02  0.10566000000E+00 0.  1.
         23    2    1    0    0    0  0.28700868308E+02  0.12268954037E+02  0.30679443925E+01  0.93636336987E+02  0.88227457442E+02 0.  0.
         13    1    3    3    0    0 -0.96403583339E+01 -0.32469322642E+02 -0.47426169671E+01  0.34200833343E+02  0.10566000000E+00 0. -1.
         22    1    1    0    0    0 -0.28700868308E+02 -0.12268954037E+02 -0.30679443925E+01  0.31363663013E+02  0.00000000000E+00 0.  1.
</event>
<event>
 5    1  0.1325832E-009  0.9118800E+02  0.7818608E-02  0.1130116E+00
         25   -1    0    0    0    0  0.00000000000E+00  0.00000000000E+00  0.99999998245E-14  0.12500000000E+03  0.12500000000E+03 0.  0.
        -13    1    3    3    0    0 -0.22129088073E+02 -0.28831112354E+02  0.36712360445E+02  0.51659831126E+02  0.10566000000E+00 0. -1.
         23    2    1    0    0    0  0.10427703097E+02 -0.25204837569E+02  0.49703257056E+01  0.97274110179E+02  0.93239088073E+02 0.  0.
         13    1    3    3    0    0  0.32556791169E+02  0.36262747847E+01 -0.31742034740E+02  0.45614279053E+02  0.10566000000E+00 0.  1.
         22    1    1    0    0    0 -0.10427703097E+02  0.25204837569E+02 -0.49703257056E+01  0.27725889821E+02  0.00000000000E+00 0.  1.
</event>
<event>
 5    1  0.1325832E-009  0.9118800E+02  0.7818608E-02  0.1130116E+00
         25   -1    0    0    0    0  0.00000000000E+00  0.00000000000E+00  0.99999998245E-14  0.12500000000E+03  0.12500000000E+03 0.  0.
        -13    1    3    3    0    0  0.43539125494E+02 -0.28169467042E+01 -0.16371098566E+02  0.46600586582E+02  0.10566000000E+00 0.  1.
         23    2    1    0    0    0 -0.31296448919E+01 -0.15462718873E+02 -0.24726748738E+02  0.95669087037E+02  0.91061911683E+02 0.  0.
         13    1    3    3    0    0 -0.46668770386E+02 -0.12645772169E+02 -0.83556501715E+01  0.49068500455E+02  0.10566000000E+00 0. -1.
         22    1    1    0    0    0  0.31296448919E+01  0.15462718873E+02  0.24726748738E+02  0.29330912963E+02  0.00000000000E+00 0. -1.
</event>
<event>
 5    1  0.1325832E-009  0.9118800E+02  0.7818608E-02  0.1130116E+00
         25   -1    0    0    0    0  0.00000000000E+00  0.00000000000E+00  0.99999998245E-14  0.12500000000E+03  0.12500000000E+03 0.  0.
        -13    1    3    3    0    0 -0.50742771620E+02 -0.58401662506E+01 -0.19626384712E+02  0.54718758707E+02  0.10566000000E+00 0. -1.
         23    2    1    0    0    0 -0.10197691737E+02 -0.12625308111E+02 -0.23965673441E+02  0.96056178118E+02  0.91591727407E+02 0.  0.
         13    1    3    3    0    0  0.40545079884E+02 -0.67851418605E+01 -0.43392887288E+01  0.41337419411E+02  0.10566000000E+00 0.  1.
         22    1    1    0    0    0  0.10197691737E+02  0.12625308111E+02  0.23965673441E+02  0.28943821882E+02  0.00000000000E+00 0. -1.
</event>
<event>
 5    1  0.1325832E-009  0.9118800E+02  0.7818608E-02  0.1130116E+00
         25   -1    0    0    0    0  0.00000000000E+00  0.00000000000E+00  0.99999998245E-14  0.12500000000E+03  0.12500000000E+03 0.  0.
        -13    1    3    3    0    0 -0.18000394210E+02 -0.55423464072E+02 -0.50203553551E+00  0.58275533161E+02  0.10566000000E+00 0.  1.
         23    2    1    0    0    0 -0.16143078479E+02 -0.20431530166E+02 -0.13523854743E+02  0.95658202938E+02  0.91046969936E+02 0.  0.
         13    1    3    3    0    0  0.18573157312E+01  0.34991933906E+02 -0.13021819207E+02  0.37382669777E+02  0.10566000000E+00 0. -1.
         22    1    1    0    0    0  0.16143078479E+02  0.20431530166E+02  0.13523854743E+02  0.29341797062E+02  0.00000000000E+00 0.  1.
</event>
<event>
 5    1  0.1325832E-009  0.9118800E+02  0.7818608E-02  0.1130116E+00
         25   -1    0    0    0    0  0.00000000000E+00  0.00000000000E+00  0.99999998245E-14  0.12500000000E+03  0.12500000000E+03 0.  0.
        -13    1    3    3    0    0 -0.39895768487E+02 -0.42774543910E+02 -0.90037559030E+01  0.59181185644E+02  0.10566000000E+00 0.  1.
         23    2    1    0    0    0 -0.25172268655E+02 -0.14793181087E+02  0.75095635224E+01  0.94852448521E+02  0.89933932029E+02 0.  0.
         13    1    3    3    0    0  0.14723499832E+02  0.27981362823E+02  0.16513319425E+02  0.35671262877E+02  0.10566000000E+00 0. -1.
         22    1    1    0    0    0  0.25172268655E+02  0.14793181087E+02 -0.75095635224E+01  0.30147551479E+02  0.00000000000E+00 0.  1.
</event>
<event>
 5    1  0.1325832E-009  0.9118800E+02  0.7818608E-02  0.1130116E+00
         25   -1    0    0    0    0  0.00000000000E+00  0.00000000000E+00  0.99999998245E-14  0.12500000000E+03  0.12500000000E+03 0.  0.
        -13    1    3    3    0    0 -0.44175592375E+02  0.14500201964E+02  0.84712399908E+01  0.47260045384E+02  0.10566000000E+00 0.  1.
         23    2    1    0    0    0  0.65490853421E+01  0.21113054329E+02  0.14188870387E+02  0.98732612905E+02  0.95174330711E+02 0.  0.
         13    1    3    3    0    0  0.50724677717E+02  0.66128523651E+01  0.57176303965E+01  0.51472567522E+02  0.10566000000E+00 0. -1.
         22    1    1    0    0    0 -0.65490853421E+01 -0.21113054329E+02 -0.14188870387E+02  0.26267387095E+02  0.00000000000E+00 0. -1.
</event>
<event>
 5    1  0.1325832E-009  0.9118800E+02  0.7818608E-02  0.1130116E+00
         25   -1    0    0    0    0  0.00000000000E+00  0.00000000000E+00  0.99999998245E-14  0.12500000000E+03  0.12500000000E+03 0.  0.
        -13    1    3    3    0    0 -0.43232497436E+02 -0.96366277670E+00  0.41591059246E+02  0.59998373759E+02  0.10566000000E+00 0. -1.
         23    2    1    0    0    0 -0.17807853781E+02 -0.12653066511E+02  0.20529451303E+02  0.95022039442E+02  0.90169339914E+02 0.  0.
         13    1    3    3    0    0  0.25424643656E+02 -0.11689403734E+02 -0.21061607943E+02  0.35023665683E+02  0.10566000000E+00 0.  1.
         22    1    1    0    0    0  0.17807853781E+02  0.12653066511E+02 -0.20529451303E+02  0.29977960558E+02  0.00000000000E+00 0. -1.
</event>
<event>
 5    1  0.1325832E-009  0.9118800E+02  0.7818608E-02  0.1130116E+00
         25   -1    0    0    0    0  0.00000000000E+00  0.00000000000E+00  0.99999998245E-14  0.12500000000E+03  0.12500000000E+03 0.  0.
        -13    1    3    3    0    0  0.19444207822E+00  0.24337925721E+02  0.25299287513E+02  0.35106089911E+02  0.10566000000E+00 0. -1.
         23    2    1    0    0    0  0.58099406963E+01 -0.40779881378E+01 -0.28187519951E+02  0.95932463483E+02  0.91422731696E+02 0.  0.
         13    1    3    3    0    0  0.56154986181E+01 -0.28415913859E+02 -0.53486807465E+02  0.60826373572E+02  0.10566000000E+00 0.  1.
         22    1    1    0    0    0 -0.58099406963E+01  0.40779881378E+01  0.28187519951E+02  0.29067536517E+02  0.00000000000E+00 0.  1.
</event>
<event>
 5    1  0.1325832E-009  0.9118800E+02  0.7818608E-02  0.1130116E+00
         25   -1    0    0    0    0  0.00000000000E+00  0.00000000000E+00  0.99999998245E-14  0.12500000000E+03  0.12500000000E+03 0.  0.
        -13    1    3    3    0    0  0.36821248767E+02 -0.33195746158E+02  0.29426969180E+02  0.57651709454E+02  0.10566000000E+00 0.  1.
         23    2    1    0    0    0  0.17864883093E+02 -0.22859584283E+02 -0.21537375434E+01  0.95907849393E+02  0.91389071273E+02 0.  0.
         13    1    3    3    0    0 -0.18956365674E+02  0.10336161875E+02 -0.31580706723E+02  0.38256139939E+02  0.10566000000E+00 0. -1.
         22    1    1    0    0    0 -0.17864883093E+02  0.22859584283E+02  0.21537375434E+01  0.29092150607E+02  0.00000000000E+00 0.  1.
</event>
<event>
 5    1  0.1325832E-009  0.9118800E+02  0.7818608E-02  0.1130116E+00
         25   -1    0    0    0    0  0.00000000000E+00  0.00000000000E+00  0.99999998245E-14  0.12500000000E+03  0.12500000000E+03 0.  0.
        -13    1    3    3    0    0  0.38807573406E+02  0.24007884651E+01  0.17354556330E+02  0.42579141940E+02  0.10566000000E+00 0.  1.
         23    2    1    0    0    0 -0.12997033122E+02 -0.59861225868E+01  0.25570894127E+02  0.95697659478E+02  0.91101124414E+02 0.  0.
         13    1    3    3    0    0 -0.51804606528E+02 -0.83869110519E+01  0.82163377970E+01  0.53118517538E+02  0.10566000000E+00 0. -1.
         22    1    1    0    0    0  0.12997033122E+02  0.59861225868E+01 -0.25570894127E+02  0.29302340522E+02  0.00000000000E+00 0. -1.
</event>
<event>
 5    1  0.1325832E-009  0.9118800E+02  0.7818608E-02  0.1130116E+00
         25   -1    0    0    0    0  0.00000000000E+00  0.00000000000E+00  0.99999998245E-14  0.12500000000E+03  0.12500000000E+03 0.  0.
        -13    1    3    3    0    0  0.64577398146E+01  0.16776650049E+02 -0.56258320272E+02  0.59060715829E+02  0.10566000000E+00 0. -1.
         23    2    1    0    0    0 -0.11731732610E+02  0.79595068568E+01 -0.22727600611E+02  0.98213228471E+02  0.94489719640E+02 0.  0.
         13    1    3    3    0    0 -0.18189472424E+02 -0.88171431921E+01  0.33530719661E+02  0.39152512642E+02  0.10566000000E+00 0.  1.
         22    1    1    0    0    0  0.11731732610E+02 -0.79595068568E+01  0.22727600611E+02  0.26786771529E+02  0.00000000000E+00 0. -1.
</event>
<event>
 5    1  0.1325832E-009  0.9118800E+02  0.7818608E-02  0.1130116E+00
         25   -1    0    0    0    0  0.00000000000E+00  0.00000000000E+00  0.99999998245E-14  0.12500000000E+03  0.12500000000E+03 0.  0.
        -13    1    3    3    0    0  0.13097690890E+02 -0.50882080050E+02 -0.28916063940E+02  0.59972372761E+02  0.10566000000E+00 0.  1.
         23    2    1    0    0    0  0.17216653188E+02 -0.19706942471E+02 -0.84113718889E+01  0.97513132124E+02  0.93558981563E+02 0.  0.
         13    1    3    3    0    0  0.41189622974E+01  0.31175137578E+02  0.20504692051E+02  0.37540759363E+02  0.10566000000E+00 0. -1.
         22    1    1    0    0    0 -0.17216653188E+02  0.19706942471E+02  0.84113718889E+01  0.27486867876E+02  0.00000000000E+00 0.  1.
</event>
<event>
 5    1  0.1325832E-009  0.9118800E+02  0.7818608E-02  0.1130116E+00
         25   -1    0    0    0    0  0.00000000000E+00  0.00000000000E+00  0.99999998245E-14  0.12500000000E+03  0.12500000000E+03 0.  0.
        -13    1    3    3    0    0 -0.25591746938E+02  0.28590076050E+02  0.36286119724E+01  0.38542287799E+02  0.10566000000E+00 0. -1.
         23    2    1    0    0    0 -0.59427408777E+01 -0.16966680641E+02 -0.23753470223E+02  0.95210542658E+02  0.90430280683E+02 0.  0.
         13    1    3    3    0    0  0.19649006060E+02 -0.45556756691E+02 -0.27382082196E+02  0.56668254859E+02  0.10566000000E+00 0.  1.
         22    1    1    0    0    0  0.59427408777E+01  0.16966680641E+02  0.23753470223E+02  0.29789457342E+02  0.00000000000E+00 0.  1.
</event>
<event>
 5    1  0.1325832E-009  0.9118800E+02  0.7818608E-02  0.1130116E+00
         25   -1    0    0    0    0  0.00000000000E+00  0.00000000000E+00  0.99999998245E-14  0.12500000000E+03  0.12500000000E+03 0.  0.
        -13    1    3    3    0    0  0.47396174504E+01 -0.59336711282E+01  0.29627320615E+02  0.30585318660E+02  0.10566000000E+00 0. -1.
         23    2    1    0    0    0 -0.12142024815E+02 -0.27306668380E+01 -0.29937303345E+02  0.92578904405E+02  0.86716354290E+02 0.  0.
         13    1    3    3    0    0 -0.16881642265E+02  0.32030042902E+01 -0.59564623960E+02  0.61993585746E+02  0.10566000000E+00 0.  1.
         22    1    1    0    0    0  0.12142024815E+02  0.27306668380E+01  0.29937303345E+02  0.32421095595E+02  0.00000000000E+00 0.  1.
</event>
<event>
 5    1  0.1325832E-009  0.9118800E+02  0.7818608E-02  0.1130116E+00
         25   -1    0    0    0    0  0.00000000000E+00  0.00000000000E+00  0.99999998245E-14  0.12500000000E+03  0.12500000000E+03 0.  0.
        -13    1    3    3    0    0 -0.49652353311E+02 -0.32780577354E+01  0.16317132251E+02  0.52367564587E+02  0.10566000000E+00 0. -1.
         23    2    1    0    0    0 -0.23501524650E+02 -0.40149811116E+01 -0.17717833161E+02  0.95295398569E+02  0.90547499371E+02 0.  0.
         13    1    3    3    0    0  0.26150828661E+02 -0.73692337625E+00 -0.34034965413E+02  0.42927833982E+02  0.10566000000E+00 0.  1.
         22    1    1    0    0    0  0.23501524650E+02  0.40149811116E+01  0.17717833161E+02  0.29704601431E+02  0.00000000000E+00 0. -1.
</event>
<event>
 5    1  0.1325832E-009  0.9118800E+02  0.7818608E-02  0.1130116E+00
         25   -1    0    0    0    0  0.00000000000E+00  0.00000000000E+00  0.99999998245E-14  0.12500000000E+03  0.12500000000E+03 0.  0.
        -13    1    3    3    0    0 -0.27179514340E+02 -0.12403108703E+02 -0.15095641111E+02  0.33473163129E+02  0.10566000000E+00 0. -1.
         23    2    1    0    0    0  0.13809230818E+02  0.22228565485E+02  0.14837294549E+02  0.94917624947E+02  0.90024475765E+02 0.  0.
         13    1    3    3    0    0  0.40988745159E+02  0.34631674188E+02  0.29932935660E+02  0.61444461817E+02  0.10566000000E+00 0.  1.
         22    1    1    0    0    0 -0.13809230818E+02 -0.22228565485E+02 -0.14837294549E+02  0.30082375053E+02  0.00000000000E+00 0.  1.
</event>
<event>
 5    1  0.1325832E-009  0.9118800E+02  0.7818608E-02  0.1130116E+00
         25   -1    0    0    0    0  0.00000000000E+00  0.00000000000E+00  0.99999998245E-14  0.12500000000E+03  0.12500000000E+03 0.  0.
        -13    1    3    3    0    0 -0.51273041597E+02 -0.19304866593E+01  0.50457191108E+01  0.51556978371E+02  0.10566000000E+00 0. -1.
         23    2    1    0    0    0 -0.43856346746E+01 -0.14475412336E+02  0.17701583358E+02  0.10171658515E+03  0.99015889063E+02 0.  0.
         13    1    3    3    0    0  0.46887406922E+02 -0.12544925676E+02  0.12655864248E+02  0.50159606777E+02  0.10566000000E+00 0.  1.
         22    1    1    0    0    0  0.43856346746E+01  0.14475412336E+02 -0.17701583358E+02  0.23283414852E+02  0.00000000000E+00 0.  1.
</event>
<event>
 5    1  0.1325832E-009  0.9118800E+02  0.7818608E-02  0.1130116E+00
         25   -1    0    0    0    0  0.00000000000E+00  0.00000000000E+00  0.99999998245E-14  0.12500000000E+03  0.12500000000E+03 0.  0.
        -13    1    3    3    0    0 -0.24140930363E+02  0.10542728168E+02 -0.36075586599E+02  0.44669819213E+02  0.10566000000E+00 0. -1.
         23    2    1    0    0    0  0.15221719202E+02  0.23163252016E+02 -0.39907625676E+01  0.96997086485E+02  0.92866956563E+02 0.  0.
         13    1    3    3    0    0  0.39362649565E+02  0.12620523848E+02  0.32084824032E+02  0.52327267272E+02  0.10566000000E+00 0.  1.
         22    1    1    0    0    0 -0.15221719202E+02 -0.23163252016E+02  0.39907625676E+01  0.28002913515E+02  0.00000000000E+00 0.  1.
</event>
<event>
 5    1  0.1325832E-009  0.9118800E+02  0.7818608E-02  0.1130116E+00
         25   -1    0    0    0    0  0.00000000000E+00  0.00000000000E+00  0.99999998245E-14  0.12500000000E+03  0.12500000000E+03 0.  0.
        -13    1    3    3    0    0  0.12922125623E+02  0.60669587386E+01 -0.60841201306E+02  0.62493617748E+02  0.10566000000E+00 0. -1.
         23    2    1    0    0    0  0.58575446143E+01  0.34442585293E+01 -0.28748248835E+02  0.95459594505E+02  0.90773887360E+02 0.  0.
         13    1    3    3    0    0 -0.70645810085E+01 -0.26227002093E+01  0.32092952471E+02  0.32965976757E+02  0.10566000000E+00 0.  1.
         22    1    1    0    0    0 -0.58575446143E+01 -0.34442585293E+01  0.28748248835E+02  0.29540405495E+02  0.00000000000E+00 0. -1.
</event>
<event>
 5    1  0.1325832E-009  0.9118800E+02  0.7818608E-02  0.1130116E+00
         25   -1    0    0    0    0  0.00000000000E+00  0.00000000000E+00  0.99999998245E-14  0.12500000000E+03  0.12500000000E+03 0.  0.
        -13    1    3    3    0    0 -0.28450937904E+01  0.79873388795E+01  0.39086396163E+02  0.39995620636E+02  0.10566000000E+00 0.  1.
         23    2    1    0    0    0 -0.10678528003E+02 -0.25993245043E+02 -0.52600531822E+01  0.96410702918E+02  0.92074294618E+02 0.  0.
         13    1    3    3    0    0 -0.78334342127E+01 -0.33980583922E+02 -0.44346449345E+02  0.56415082281E+02  0.10566000000E+00 0. -1.
         22    1    1    0    0    0  0.10678528003E+02  0.25993245043E+02  0.52600531822E+01  0.28589297082E+02  0.00000000000E+00 0. -1.
</event>
<event>
 5    1  0.1325832E-009  0.9118800E+02  0.7818608E-02  0.1130116E+00
         25   -1    0    0    0    0  0.00000000000E+00  0.00000000000E+00  0.99999998245E-14  0.12500000000E+03  0.12500000000E+03 0.  0.
        -13    1    3    3    0    0 -0.12678967088E+01  0.23174411019E+02 -0.28661196454E+02  0.36880024869E+02  0.10566000000E+00 0.  1.
         23    2    1    0    0    0  0.11077279689E+02  0.10123948428E+02  0.26309398428E+02  0.94711637503E+02  0.89738004078E+02 0.  0.
         13    1    3    3    0    0  0.12345176398E+02 -0.13050462590E+02  0.54970594882E+02  0.57831612634E+02  0.10566000000E+00 0. -1.
         22    1    1    0    0    0 -0.11077279689E+02 -0.10123948428E+02 -0.26309398428E+02  0.30288362497E+02  0.00000000000E+00 0. -1.
</event>
<event>
 5    1  0.1325832E-009  0.9118800E+02  0.7818608E-02  0.1130116E+00
         25   -1    0    0    0    0  0.00000000000E+00  0.00000000000E+00  0.99999998245E-14  0.12500000000E+03  0.12500000000E+03 0.  0.
        -13    1    3    3    0    0  0.43052280137E+02  0.16284584012E+02  0.30484247329E+02  0.55208577238E+02  0.10566000000E+00 0. -1.
         23    2    1    0    0    0  0.16299986548E+02  0.28249927339E+02  0.10285563644E+02  0.90801450680E+02  0.84115175028E+02 0.  0.
         13    1    3    3    0    0 -0.26752293589E+02  0.11965343327E+02 -0.20198683685E+02  0.35592873442E+02  0.10566000000E+00 0.  1.
         22    1    1    0    0    0 -0.16299986548E+02 -0.28249927339E+02 -0.10285563644E+02  0.34198549320E+02  0.00000000000E+00 0.  1.
</event>
<event>
 5    1  0.1325832E-009  0.9118800E+02  0.7818608E-02  0.1130116E+00
         25   -1    0    0    0    0  0.00000000000E+00  0.00000000000E+00  0.99999998245E-14  0.12500000000E+03  0.12500000000E+03 0.  0.
        -13    1    3    3    0    0 -0.54089131438E+02  0.16802296224E+02 -0.26347662491E+02  0.62467285685E+02  0.10566000000E+00 0. -1.
         23    2    1    0    0    0 -0.27795589747E+02  0.78963305923E+01 -0.12066929222E+02  0.93686143210E+02  0.88297994329E+02 0.  0.
         13    1    3    3    0    0  0.26293541690E+02 -0.89059656316E+01  0.14280733269E+02  0.31218857525E+02  0.10566000000E+00 0.  1.
         22    1    1    0    0    0  0.27795589747E+02 -0.78963305923E+01  0.12066929222E+02  0.31313856790E+02  0.00000000000E+00 0. -1.
</event>
<event>
 5    1  0.1325832E-009  0.9118800E+02  0.7818608E-02  0.1130116E+00
         25   -1    0    0    0    0  0.00000000000E+00  0.00000000000E+00  0.99999998245E-14  0.12500000000E+03  0.12500000000E+03 0.  0.
        -13    1    3    3    0    0 -0.71104188015E+01 -0.27977162870E+02 -0.22450104748E+02  0.36569086194E+02  0.10566000000E+00 0.  1.
         23    2    1    0    0    0  0.23841863032E+02  0.14129279453E+02  0.68092860943E+01  0.96461651277E+02  0.92143436116E+02 0.  0.
         13    1    3    3    0    0  0.30952281834E+02  0.42106442322E+02  0.29259390843E+02  0.59892565084E+02  0.10566000000E+00 0. -1.
         22    1    1    0    0    0 -0.23841863032E+02 -0.14129279453E+02 -0.68092860943E+01  0.28538348723E+02  0.00000000000E+00 0. -1.
</event>
<event>
 5    1  0.1325832E-009  0.9118800E+02  0.7818608E-02  0.1130116E+00
         25   -1    0    0    0    0  0.00000000000E+00  0.00000000000E+00  0.99999998245E-14  0.12500000000E+03  0.12500000000E+03 0.  0.
        -13    1    3    3    0    0 -0.24892934902E+02  0.47655661016E+02  0.14982584368E+02  0.55814059459E+02  0.10566000000E+00 0.  1.
         23    2    1    0    0    0  0.93109589453E+01  0.24574595314E+02  0.60620859770E+01  0.98030506535E+02  0.94247687684E+02 0.  0.
         13    1    3    3    0    0  0.34203893847E+02 -0.23081065701E+02 -0.89204983908E+01  0.42216447077E+02  0.10566000000E+00 0. -1.
         22    1    1    0    0    0 -0.93109589453E+01 -0.24574595314E+02 -0.60620859770E+01  0.26969493465E+02  0.00000000000E+00 0. -1.
</event>
<event>
 5    1  0.1325832E-009  0.9118800E+02  0.7818608E-02  0.1130116E+00
         25   -1    0    0    0    0  0.00000000000E+00  0.00000000000E+00  0.99999998245E-14  0.12500000000E+03  0.12500000000E+03 0.  0.
        -13    1    3    3    0    0 -0.30982291939E+02  0.26992794815E+02 -0.32959222778E+02  0.52676701832E+02  0.10566000000E+00 0.  1.
         23    2    1    0    0    0 -0.19918683208E+02 -0.10921793796E+02 -0.21304734878E+02  0.93856280751E+02  0.88538523749E+02 0.  0.
         13    1    3    3    0    0  0.11063608732E+02 -0.37914588611E+02  0.11654487900E+02  0.41179578919E+02  0.10566000000E+00 0. -1.
         22    1    1    0    0    0  0.19918683208E+02  0.10921793796E+02  0.21304734878E+02  0.31143719249E+02  0.00000000000E+00 0. -1.
</event>
<event>
 5    1  0.1325832E-009  0.9118800E+02  0.7818608E-02  0.1130116E+00
         25   -1    0    0    0    0  0.00000000000E+00  0.00000000000E+00  0.99999998245E-14  0.12500000000E+03  0.12500000000E+03 0.  0.
        -13    1    3    3    0    0 -0.20296461192E+02 -0.46039177631E+02  0.47528627876E+01  0.50538629608E+02  0.10566000000E+00 0. -1.
         23    2    1    0    0    0 -0.30302632192E+02 -0.60658946255E+01  0.10959983512E+02  0.92210278532E+02  0.86183348931E+02 0.  0.
         13    1    3    3    0    0 -0.10006171000E+02  0.39973283006E+02  0.62071207249E+01  0.41671648924E+02  0.10566000000E+00 0.  1.
         22    1    1    0    0    0  0.30302632192E+02  0.60658946255E+01 -0.10959983512E+02  0.32789721468E+02  0.00000000000E+00 0. -1.
</event>
<event>
 5    1  0.1325832E-009  0.9118800E+02  0.7818608E-02  0.1130116E+00
         25   -1    0    0    0    0  0.00000000000E+00  0.00000000000E+00  0.99999998245E-14  0.12500000000E+03  0.12500000000E+03 0.  0.
        -13    1    3    3    0    0  0.20195329708E+02 -0.14304108136E+02  0.22410474061E+02  0.33387113731E+02  0.10566000000E+00 0. -1.
         23    2    1    0    0    0 -0.15297777862E+02 -0.27921811717E+00 -0.25878835551E+02  0.94936498877E+02  0.90050678617E+02 0.  0.
         13    1    3    3    0    0 -0.35493107570E+02  0.14024890019E+02 -0.48289309612E+02  0.61549385146E+02  0.10566000000E+00 0.  1.
         22    1    1    0    0    0  0.15297777862E+02  0.27921811717E+00  0.25878835551E+02  0.30063501123E+02  0.00000000000E+00 0.  1.
</event>
<event>
 5    1  0.1325832E-009  0.9118800E+02  0.7818608E-02  0.1130116E+00
         25   -1    0    0    0    0  0.00000000000E+00  0.00000000000E+00  0.99999998245E-14  0.12500000000E+03  0.12500000000E+03 0.  0.
        -13    1    3    3    0    0  0.30547501242E+01 -0.72785936471E+01  0.35490711449E+02  0.36358096581E+02  0.10566000000E+00 0. -1.
         23    2    1    0    0    0 -0.22199640266E+02 -0.22389977750E+01 -0.18395867394E+02  0.96082097653E+02  0.91627094319E+02 0.  0.
         13    1    3    3    0    0 -0.25254390390E+02  0.50395958722E+01 -0.53886578844E+02  0.59724001072E+02  0.10566000000E+00 0.  1.
         22    1    1    0    0    0  0.22199640266E+02  0.22389977750E+01  0.18395867394E+02  0.28917902347E+02  0.00000000000E+00 0.  1.
</event>
<event>
 5    1  0.1325832E-009  0.9118800E+02  0.7818608E-02  0.1130116E+00
         25   -1    0    0    0    0  0.00000000000E+00  0.00000000000E+00  0.99999998245E-14  0.12500000000E+03  0.12500000000E+03 0.  0.
        -13    1    3    3    0    0  0.14270462871E+02  0.53449098846E+02  0.18341084376E+02  0.58282577312E+02  0.10566000000E+00 0. -1.
         23    2    1    0    0    0  0.13306975163E+02  0.24292142471E+02 -0.64434162091E+01  0.96562324528E+02  0.92279906437E+02 0.  0.
         13    1    3    3    0    0 -0.96348770876E+00 -0.29156956375E+02 -0.24784500585E+02  0.38279747216E+02  0.10566000000E+00 0.  1.
         22    1    1    0    0    0 -0.13306975163E+02 -0.24292142471E+02  0.64434162091E+01  0.28437675472E+02  0.00000000000E+00 0. -1.
</event>
<event>
 5    1  0.1325832E-009  0.9118800E+02  0.7818608E-02  0.1130116E+00
         25   -1    0    0    0    0  0.00000000000E+00  0.00000000000E+00  0.99999998245E-14  0.12500000000E+03  0.12500000000E+03 0.  0.
        -13    1    3    3    0    0  0.31258718449E+02 -0.53522856756E+01  0.45512657036E+02  0.55472223279E+02  0.10566000000E+00 0.  1.
         23    2    1    0    0    0  0.22439464931E+02 -0.17578938827E+02  0.87880031447E+01  0.95170858612E+02  0.90375409560E+02 0.  0.
         13    1    3    3    0    0 -0.88192535183E+01 -0.12226653151E+02 -0.36724653891E+02  0.39698635333E+02  0.10566000000E+00 0. -1.
         22    1    1    0    0    0 -0.22439464931E+02  0.17578938827E+02 -0.87880031447E+01  0.29829141388E+02  0.00000000000E+00 0.  1.
</event>
<event>
 5    1  0.1325832E-009  0.9118800E+02  0.7818608E-02  0.1130116E+00
         25   -1    0    0    0    0  0.00000000000E+00  0.00000000000E+00  0.99999998245E-14  0.12500000000E+03  0.12500000000E+03 0.  0.
        -13    1    3    3    0    0 -0.50491840845E+02 -0.28224085266E+02  0.44538804487E+01  0.58016145995E+02  0.10566000000E+00 0. -1.
         23    2    1    0    0    0 -0.26341406317E+02 -0.32791269950E+00  0.12593525173E+02  0.95801128621E+02  0.91242984143E+02 0.  0.
         13    1    3    3    0    0  0.24150434528E+02  0.27896172567E+02  0.81396447246E+01  0.37784982626E+02  0.10566000000E+00 0.  1.
         22    1    1    0    0    0  0.26341406317E+02  0.32791269950E+00 -0.12593525173E+02  0.29198871379E+02  0.00000000000E+00 0. -1.
</event>
<event>
 5    1  0.1325832E-009  0.9118800E+02  0.7818608E-02  0.1130116E+00
         25   -1    0    0    0    0  0.00000000000E+00  0.00000000000E+00  0.99999998245E-14  0.12500000000E+03  0.12500000000E+03 0.  0.
        -13    1    3    3    0    0  0.57360681334E+02 -0.10314168181E+02 -0.19955796016E+02  0.61602555037E+02  0.10566000000E+00 0.  1.
         23    2    1    0    0    0  0.27967279889E+02  0.15092217208E+01 -0.53671433639E+01  0.96482413803E+02  0.92171597853E+02 0.  0.
         13    1    3    3    0    0 -0.29393401445E+02  0.11823389902E+02  0.14588652653E+02  0.34879858766E+02  0.10566000000E+00 0. -1.
         22    1    1    0    0    0 -0.27967279889E+02 -0.15092217208E+01  0.53671433639E+01  0.28517586197E+02  0.00000000000E+00 0.  1.
</event>
<event>
 5    1  0.1325832E-009  0.9118800E+02  0.7818608E-02  0.1130116E+00
         25   -1    0    0    0    0  0.00000000000E+00  0.00000000000E+00  0.99999998245E-14  0.12500000000E+03  0.12500000000E+03 0.  0.
        -13    1    3    3    0    0  0.34189232622E+01 -0.12655748693E+02 -0.47809610446E+02  0.49574459415E+02  0.10566000000E+00 0. -1.
         23    2    1    0    0    0 -0.33700800043E+01 -0.27473024080E+02 -0.31172865594E+01  0.97146060120E+02  0.93067260785E+02 0.  0.
         13    1    3    3    0    0 -0.67890032665E+01 -0.14817275387E+02  0.44692323886E+02  0.47571600705E+02  0.10566000000E+00 0.  1.
         22    1    1    0    0    0  0.33700800043E+01  0.27473024080E+02  0.31172865594E+01  0.27853939880E+02  0.00000000000E+00 0.  1.
</event>
<event>
 5    1  0.1325832E-009  0.9118800E+02  0.7818608E-02  0.1130116E+00
         25   -1    0    0    0    0  0.00000000000E+00  0.00000000000E+00  0.99999998245E-14  0.12500000000E+03  0.12500000000E+03 0.  0.
        -13    1    3    3    0    0 -0.33937124880E+02  0.22701059484E+01 -0.94683157909E+01  0.35306401602E+02  0.10566000000E+00 0.  1.
         23    2    1    0    0    0  0.26401937068E+02  0.36726509621E+01  0.61367050012E+01  0.97646576186E+02  0.93737100694E+02 0.  0.
         13    1    3    3    0    0  0.60339061948E+02  0.14025450137E+01  0.15605020792E+02  0.62340174585E+02  0.10566000000E+00 0. -1.
         22    1    1    0    0    0 -0.26401937068E+02 -0.36726509621E+01 -0.61367050012E+01  0.27353423814E+02  0.00000000000E+00 0. -1.
</event>
<event>
 5    1  0.1325832E-009  0.9118800E+02  0.7818608E-02  0.1130116E+00
         25   -1    0    0    0    0  0.00000000000E+00  0.00000000000E+00  0.99999998245E-14  0.12500000000E+03  0.12500000000E+03 0.  0.
        -13    1    3    3    0    0  0.19272309872E+02  0.48285705547E+02  0.19284228295E+02  0.55451094786E+02  0.10566000000E+00 0. -1.
         23    2    1    0    0    0  0.10506803656E+02  0.20623053930E+02 -0.12668840459E+02  0.98614344901E+02  0.95018872995E+02 0.  0.
         13    1    3    3    0    0 -0.87655062161E+01 -0.27662651617E+02 -0.31953068753E+02  0.43163250115E+02  0.10566000000E+00 0.  1.
         22    1    1    0    0    0 -0.10506803656E+02 -0.20623053930E+02  0.12668840459E+02  0.26385655099E+02  0.00000000000E+00 0. -1.
</event>
<event>
 5    1  0.1325832E-009  0.9118800E+02  0.7818608E-02  0.1130116E+00
         25   -1    0    0    0    0  0.00000000000E+00  0.00000000000E+00  0.99999998245E-14  0.12500000000E+03  0.12500000000E+03 0.  0.
        -13    1    3    3    0    0 -0.23045964441E+02 -0.41961064325E+02 -0.31227876663E+02  0.57158016421E+02  0.10566000000E+00 0.  1.
         23    2    1    0    0    0 -0.22170237399E+02 -0.19195892896E+02 -0.17264798772E+00  0.95673705694E+02  0.91068251458E+02 0.  0.
         13    1    3    3    0    0  0.87572704260E+00  0.22765171429E+02  0.31055228676E+02  0.38515689273E+02  0.10566000000E+00 0. -1.
         22    1    1    0    0    0  0.22170237399E+02  0.19195892896E+02  0.17264798772E+00  0.29326294306E+02  0.00000000000E+00 0.  1.
</event>
<event>
 5    1  0.1325832E-009  0.9118800E+02  0.7818608E-02  0.1130116E+00
         25   -1    0    0    0    0  0.00000000000E+00  0.00000000000E+00  0.99999998245E-14  0.12500000000E+03  0.12500000000E+03 0.  0.
        -13    1    3    3    0    0 -0.28828572152E+02 -0.17722261812E+02  0.74916014162E+01  0.34659780609E+02  0.10566000000E+00 0. -1.
         23    2    1    0    0    0  0.29057428474E+02 -0.36767245825E+01  0.93505142608E+01  0.94254519517E+02  0.89098989216E+02 0.  0.
         13    1    3    3    0    0  0.57886000626E+02  0.14045537229E+02  0.18589128446E+01  0.59594738908E+02  0.10566000000E+00 0.  1.
         22    1    1    0    0    0 -0.29057428474E+02  0.36767245825E+01 -0.93505142608E+01  0.30745480483E+02  0.00000000000E+00 0.  1.
</event>
<event>
 5    1  0.1325832E-009  0.9118800E+02  0.7818608E-02  0.1130116E+00
         25   -1    0    0    0    0  0.00000000000E+00  0.00000000000E+00  0.99999998245E-14  0.12500000000E+03  0.12500000000E+03 0.  0.
        -13    1    3    3    0    0  0.81835809113E+01  0.32225053982E+02 -0.99640175377E+01  0.34709046518E+02  0.10566000000E+00 0.  1.
         23    2    1    0    0    0  0.35397936003E+01 -0.26419172746E+02 -0.16105972060E+02  0.93856699544E+02  0.88539115006E+02 0.  0.
         13    1    3    3    0    0 -0.46437873109E+01 -0.58644226728E+02 -0.61419545219E+01  0.59147653026E+02  0.10566000000E+00 0. -1.
         22    1    1    0    0    0 -0.35397936003E+01  0.26419172746E+02  0.16105972060E+02  0.31143300456E+02  0.00000000000E+00 0. -1.
</event>
<event>
 5    1  0.1325832E-009  0.9118800E+02  0.7818608E-02  0.1130116E+00
         25   -1    0    0    0    0  0.00000000000E+00  0.00000000000E+00  0.99999998245E-14  0.12500000000E+03  0.12500000000E+03 0.  0.
        -13    1    3    3    0    0  0.56925202267E+02  0.91405272926E+01  0.17264993159E+02  0.60184043111E+02  0.10566000000E+00 0.  1.
         23    2    1    0    0    0  0.21449329265E+02  0.11215648842E+02  0.16458316728E+02  0.95729866854E+02  0.91145305493E+02 0.  0.
         13    1    3    3    0    0 -0.35475873002E+02  0.20751215494E+01 -0.80667643107E+00  0.35545823743E+02  0.10566000000E+00 0. -1.
         22    1    1    0    0    0 -0.21449329265E+02 -0.11215648842E+02 -0.16458316728E+02  0.29270133146E+02  0.00000000000E+00 0.  1.
</event>
<event>
 5    1  0.1325832E-009  0.9118800E+02  0.7818608E-02  0.1130116E+00
         25   -1    0    0    0    0  0.00000000000E+00  0.00000000000E+00  0.99999998245E-14  0.12500000000E+03  0.12500000000E+03 0.  0.
        -13    1    3    3    0    0 -0.16861555796E+02  0.28854188412E+02 -0.68176807400E+01  0.34108183586E+02  0.10566000000E+00 0.  1.
         23    2    1    0    0    0  0.20020370287E+02 -0.18337293495E+02  0.95862431593E+01  0.96208202261E+02  0.91798968215E+02 0.  0.
         13    1    3    3    0    0  0.36881926083E+02 -0.47191481907E+02  0.16403923899E+02  0.62100018675E+02  0.10566000000E+00 0. -1.
         22    1    1    0    0    0 -0.20020370287E+02  0.18337293495E+02 -0.95862431593E+01  0.28791797739E+02  0.00000000000E+00 0. -1.
</event>
<event>
 5    1  0.1325832E-009  0.9118800E+02  0.7818608E-02  0.1130116E+00
         25   -1    0    0    0    0  0.00000000000E+00  0.00000000000E+00  0.99999998245E-14  0.12500000000E+03  0.12500000000E+03 0.  0.
        -13    1    3    3    0    0  0.41044097077E+02  0.91689720710E+01 -0.25355631564E+02  0.49108117148E+02  0.10566000000E+00 0.  1.
         23    2    1    0    0    0  0.23603598827E+02  0.29386236367E+01  0.17284950434E+02  0.95597025696E+02  0.90962939838E+02 0.  0.
         13    1    3    3    0    0 -0.17440498251E+02 -0.62303484343E+01  0.42640581998E+02  0.46488908548E+02  0.10566000000E+00 0. -1.
         22    1    1    0    0    0 -0.23603598827E+02 -0.29386236367E+01 -0.17284950434E+02  0.29402974304E+02  0.00000000000E+00 0.  1.
</event>
<event>
 5    1  0.1325832E-009  0.9118800E+02  0.7818608E-02  0.1130116E+00
         25   -1    0    0    0    0  0.00000000000E+00  0.00000000000E+00  0.99999998245E-14  0.12500000000E+03  0.12500000000E+03 0.  0.
        -13    1    3    3    0    0 -0.64042953125E+01 -0.35670221511E+02  0.27685109708E+02  0.45605440078E+02  0.10566000000E+00 0.  1.
         23    2    1    0    0    0 -0.27952462195E+02  0.47725165638E+01  0.75775338952E+01  0.95648065190E+02  0.91033050578E+02 0.  0.
         13    1    3    3    0    0 -0.21548166883E+02  0.40442738075E+02 -0.20107575813E+02  0.50042625112E+02  0.10566000000E+00 0. -1.
         22    1    1    0    0    0  0.27952462195E+02 -0.47725165638E+01 -0.75775338952E+01  0.29351934810E+02  0.00000000000E+00 0. -1.
</event>
<event>
 5    1  0.1325832E-009  0.9118800E+02  0.7818608E-02  0.1130116E+00
         25   -1    0    0    0    0  0.00000000000E+00  0.00000000000E+00  0.99999998245E-14  0.12500000000E+03  0.12500000000E+03 0.  0.
        -13    1    3    3    0    0 -0.73233465756E+00 -0.16751782813E+02 -0.33505146650E+02  0.37466846111E+02  0.10566000000E+00 0.  1.
         23    2    1    0    0    0  0.16429159422E+01 -0.13178942579E+02  0.25298729489E+02  0.96427121005E+02  0.92096581106E+02 0.  0.
         13    1    3    3    0    0  0.23752505997E+01  0.35728402332E+01  0.58803876138E+02  0.58960274895E+02  0.10566000000E+00 0. -1.
         22    1    1    0    0    0 -0.16429159422E+01  0.13178942579E+02 -0.25298729489E+02  0.28572878995E+02  0.00000000000E+00 0. -1.
</event>
<event>
 5    1  0.1325832E-009  0.9118800E+02  0.7818608E-02  0.1130116E+00
         25   -1    0    0    0    0  0.00000000000E+00  0.00000000000E+00  0.99999998245E-14  0.12500000000E+03  0.12500000000E+03 0.  0.
        -13    1    3    3    0    0  0.26263994343E+02 -0.96034432347E+01  0.37285513096E+02  0.46607340319E+02  0.10566000000E+00 0. -1.
         23    2    1    0    0    0  0.24356906812E+00 -0.28491320512E+02 -0.85797131048E+00  0.96494723556E+02  0.92188290411E+02 0.  0.
         13    1    3    3    0    0 -0.26020425275E+02 -0.18887877277E+02 -0.38143484406E+02  0.49887383237E+02  0.10566000000E+00 0.  1.
         22    1    1    0    0    0 -0.24356906812E+00  0.28491320512E+02  0.85797131048E+00  0.28505276444E+02  0.00000000000E+00 0.  1.
</event>
<event>
 5    1  0.1325832E-009  0.9118800E+02  0.7818608E-02  0.1130116E+00
         25   -1    0    0    0    0  0.00000000000E+00  0.00000000000E+00  0.99999998245E-14  0.12500000000E+03  0.12500000000E+03 0.  0.
        -13    1    3    3    0    0  0.42354125846E+02  0.23561157586E+02 -0.18562121776E+02  0.51899553484E+02  0.10566000000E+00 0. -1.
         23    2    1    0    0    0  0.54344821250E+01  0.13797192677E+01 -0.28376964422E+02  0.96074417360E+02  0.91616616070E+02 0.  0.
         13    1    3    3    0    0 -0.36919643721E+02 -0.22181438318E+02 -0.98148426460E+01  0.44174863877E+02  0.10566000000E+00 0.  1.
         22    1    1    0    0    0 -0.54344821250E+01 -0.13797192677E+01  0.28376964422E+02  0.28925582640E+02  0.00000000000E+00 0. -1.
</event>
<event>
 5    1  0.1325832E-009  0.9118800E+02  0.7818608E-02  0.1130116E+00
         25   -1    0    0    0    0  0.00000000000E+00  0.00000000000E+00  0.99999998245E-14  0.12500000000E+03  0.12500000000E+03 0.  0.
        -13    1    3    3    0    0 -0.55088088759E+02 -0.22715911956E+02  0.40348866134E+01  0.59724380726E+02  0.10566000000E+00 0.  1.
         23    2    1    0    0    0 -0.25562029664E+02 -0.50224086740E+01 -0.10266956573E+02  0.96999065254E+02  0.92869619970E+02 0.  0.
         13    1    3    3    0    0  0.29526059095E+02  0.17693503282E+02 -0.14301843186E+02  0.37274684528E+02  0.10566000000E+00 0. -1.
         22    1    1    0    0    0  0.25562029664E+02  0.50224086740E+01  0.10266956573E+02  0.28000934746E+02  0.00000000000E+00 0.  1.
</event>
<event>
 5    1  0.1325832E-009  0.9118800E+02  0.7818608E-02  0.1130116E+00
         25   -1    0    0    0    0  0.00000000000E+00  0.00000000000E+00  0.99999998245E-14  0.12500000000E+03  0.12500000000E+03 0.  0.
        -13    1    3    3    0    0 -0.63019673683E+01  0.38759364693E+02 -0.44104026505E+02  0.59052345102E+02  0.10566000000E+00 0.  1.
         23    2    1    0    0    0  0.11432085221E+02  0.19877632284E+02 -0.23652860000E+02  0.92056554159E+02  0.85960098532E+02 0.  0.
         13    1    3    3    0    0  0.17734052589E+02 -0.18881732409E+02  0.20451166505E+02  0.33004209056E+02  0.10566000000E+00 0. -1.
         22    1    1    0    0    0 -0.11432085221E+02 -0.19877632284E+02  0.23652860000E+02  0.32943445841E+02  0.00000000000E+00 0.  1.
</event>
<event>
 5    1  0.1325832E-009  0.9118800E+02  0.7818608E-02  0.1130116E+00
         25   -1    0    0    0    0  0.00000000000E+00  0.00000000000E+00  0.99999998245E-14  0.12500000000E+03  0.12500000000E+03 0.  0.
        -13    1    3    3    0    0  0.27764962224E+02 -0.23764682257E+02 -0.23722538561E+01  0.36623653592E+02  0.10566000000E+00 0.  1.
         23    2    1    0    0    0 -0.26701029717E+02 -0.85407729567E+01  0.11247230068E+02  0.94794206270E+02  0.89852944123E+02 0.  0.
         13    1    3    3    0    0 -0.54465991941E+02  0.15223909300E+02  0.13619483924E+02  0.58170552678E+02  0.10566000000E+00 0. -1.
         22    1    1    0    0    0  0.26701029717E+02  0.85407729567E+01 -0.11247230068E+02  0.30205793730E+02  0.00000000000E+00 0. -1.
</event>
<event>
 5    1  0.1325832E-009  0.9118800E+02  0.7818608E-02  0.1130116E+00
         25   -1    0    0    0    0  0.00000000000E+00  0.00000000000E+00  0.99999998245E-14  0.12500000000E+03  0.12500000000E+03 0.  0.
        -13    1    3    3    0    0  0.15702163198E+01  0.42299197114E+02  0.20857459821E+02  0.47188266020E+02  0.10566000000E+00 0. -1.
         23    2    1    0    0    0  0.24400555213E+02 -0.19842597403E+00  0.16322137997E+02  0.95642911310E+02  0.91025973367E+02 0.  0.
         13    1    3    3    0    0  0.22830338893E+02 -0.42497623088E+02 -0.45353218241E+01  0.48454645290E+02  0.10566000000E+00 0.  1.
         22    1    1    0    0    0 -0.24400555213E+02  0.19842597403E+00 -0.16322137997E+02  0.29357088690E+02  0.00000000000E+00 0.  1.
</event>
<event>
 5    1  0.1325832E-009  0.9118800E+02  0.7818608E-02  0.1130116E+00
         25   -1    0    0    0    0  0.00000000000E+00  0.00000000000E+00  0.99999998245E-14  0.12500000000E+03  0.12500000000E+03 0.  0.
        -13    1    3    3    0    0 -0.25039271678E+02 -0.49033785424E+01  0.37437213223E+02  0.45305235296E+02  0.10566000000E+00 0.  1.
         23    2    1    0    0    0 -0.48663701532E+01  0.28453257115E+02  0.56932303811E+01  0.95577520990E+02  0.90936132794E+02 0.  0.
         13    1    3    3    0    0  0.20172901525E+02  0.33356635657E+02 -0.31743982841E+02  0.50272285695E+02  0.10566000000E+00 0. -1.
         22    1    1    0    0    0  0.48663701532E+01 -0.28453257115E+02 -0.56932303811E+01  0.29422479010E+02  0.00000000000E+00 0. -1.
</event>
<event>
 5    1  0.1325832E-009  0.9118800E+02  0.7818608E-02  0.1130116E+00
         25   -1    0    0    0    0  0.00000000000E+00  0.00000000000E+00  0.99999998245E-14  0.12500000000E+03  0.12500000000E+03 0.  0.
        -13    1    3    3    0    0 -0.55056052421E+02  0.10137871057E+02 -0.22733555720E+02  0.60421610848E+02  0.10566000000E+00 0.  1.
         23    2    1    0    0    0 -0.24571773855E+02  0.14734024753E+02 -0.52209764811E+01  0.95877463174E+02  0.91347500203E+02 0.  0.
         13    1    3    3    0    0  0.30484278566E+02  0.45961536956E+01  0.17512579239E+02  0.35455852326E+02  0.10566000000E+00 0. -1.
         22    1    1    0    0    0  0.24571773855E+02 -0.14734024753E+02  0.52209764811E+01  0.29122536826E+02  0.00000000000E+00 0.  1.
</event>
<event>
 5    1  0.1325832E-009  0.9118800E+02  0.7818608E-02  0.1130116E+00
         25   -1    0    0    0    0  0.00000000000E+00  0.00000000000E+00  0.99999998245E-14  0.12500000000E+03  0.12500000000E+03 0.  0.
        -13    1    3    3    0    0 -0.24970219809E+02  0.40125386534E+01 -0.23511930840E+02  0.34531643454E+02  0.10566000000E+00 0.  1.
         23    2    1    0    0    0  0.19526572646E+02 -0.16499347180E+02  0.13643199967E+02  0.96023243763E+02  0.91546769144E+02 0.  0.
         13    1    3    3    0    0  0.44496792455E+02 -0.20511885833E+02  0.37155130807E+02  0.61491600309E+02  0.10566000000E+00 0. -1.
         22    1    1    0    0    0 -0.19526572646E+02  0.16499347180E+02 -0.13643199967E+02  0.28976756237E+02  0.00000000000E+00 0. -1.
</event>
<event>
 5    1  0.1325832E-009  0.9118800E+02  0.7818608E-02  0.1130116E+00
         25   -1    0    0    0    0  0.00000000000E+00  0.00000000000E+00  0.99999998245E-14  0.12500000000E+03  0.12500000000E+03 0.  0.
        -13    1    3    3    0    0  0.10317346459E+01  0.13096925900E+02 -0.34846357703E+02  0.37240753935E+02  0.10566000000E+00 0.  1.
         23    2    1    0    0    0  0.91583434690E+01 -0.22004940802E+02  0.13554972918E+02  0.97580482032E+02  0.93648921553E+02 0.  0.
         13    1    3    3    0    0  0.81266088231E+01 -0.35101866702E+02  0.48401330621E+02  0.60339728097E+02  0.10566000000E+00 0. -1.
         22    1    1    0    0    0 -0.91583434690E+01  0.22004940802E+02 -0.13554972918E+02  0.27419517968E+02  0.00000000000E+00 0. -1.
</event>
<event>
 5    1  0.1325832E-009  0.9118800E+02  0.7818608E-02  0.1130116E+00
         25   -1    0    0    0    0  0.00000000000E+00  0.00000000000E+00  0.99999998245E-14  0.12500000000E+03  0.12500000000E+03 0.  0.
        -13    1    3    3    0    0 -0.35299923204E+02  0.39496883960E+02 -0.83555189382E+01  0.53627551515E+02  0.10566000000E+00 0. -1.
         23    2    1    0    0    0  0.56623467213E+01  0.27248815363E+02 -0.64889500490E+01  0.96422621152E+02  0.92090473384E+02 0.  0.
         13    1    3    3    0    0  0.40962269925E+02 -0.12248068597E+02  0.18665688892E+01  0.42795069637E+02  0.10566000000E+00 0.  1.
         22    1    1    0    0    0 -0.56623467213E+01 -0.27248815363E+02  0.64889500490E+01  0.28577378848E+02  0.00000000000E+00 0. -1.
</event>
<event>
 5    1  0.1325832E-009  0.9118800E+02  0.7818608E-02  0.1130116E+00
         25   -1    0    0    0    0  0.00000000000E+00  0.00000000000E+00  0.99999998245E-14  0.12500000000E+03  0.12500000000E+03 0.  0.
        -13    1    3    3    0    0  0.43705694675E+02 -0.22106182334E+02  0.18182223642E+02  0.52244382138E+02  0.10566000000E+00 0. -1.
         23    2    1    0    0    0  0.21305633343E+01 -0.13630471594E+02  0.26166379911E+02  0.95419457516E+02  0.90718599961E+02 0.  0.
         13    1    3    3    0    0 -0.41575131340E+02  0.84757107401E+01  0.79841562695E+01  0.43175075378E+02  0.10566000000E+00 0.  1.
         22    1    1    0    0    0 -0.21305633343E+01  0.13630471594E+02 -0.26166379911E+02  0.29580542484E+02  0.00000000000E+00 0.  1.
</event>
<event>
 5    1  0.1325832E-009  0.9118800E+02  0.7818608E-02  0.1130116E+00
         25   -1    0    0    0    0  0.00000000000E+00  0.00000000000E+00  0.99999998245E-14  0.12500000000E+03  0.12500000000E+03 0.  0.
        -13    1    3    3    0    0 -0.24838287921E+02 -0.22015859308E+02  0.17426826307E+02  0.37487918681E+02  0.10566000000E+00 0.  1.
         23    2    1    0    0    0  0.18832276997E+01 -0.16295620190E+01 -0.29602548212E+02  0.95292881668E+02  0.90544024745E+02 0.  0.
         13    1    3    3    0    0  0.26721515620E+02  0.20386297289E+02 -0.47029374519E+02  0.57804962987E+02  0.10566000000E+00 0. -1.
         22    1    1    0    0    0 -0.18832276997E+01  0.16295620190E+01  0.29602548212E+02  0.29707118332E+02  0.00000000000E+00 0. -1.
</event>
<event>
 5    1  0.1325832E-009  0.9118800E+02  0.7818608E-02  0.1130116E+00
         25   -1    0    0    0    0  0.00000000000E+00  0.00000000000E+00  0.99999998245E-14  0.12500000000E+03  0.12500000000E+03 0.  0.
        -13    1    3    3    0    0  0.41005627245E+02 -0.42061277508E+02 -0.20145918166E+02  0.62100577406E+02  0.10566000000E+00 0.  1.
         23    2    1    0    0    0  0.16961717196E+02 -0.18344056135E+02 -0.34382889035E+01  0.99780442583E+02  0.96540720144E+02 0.  0.
         13    1    3    3    0    0 -0.24043910049E+02  0.23717221374E+02  0.16707629263E+02  0.37679865177E+02  0.10566000000E+00 0. -1.
         22    1    1    0    0    0 -0.16961717196E+02  0.18344056135E+02  0.34382889035E+01  0.25219557417E+02  0.00000000000E+00 0.  1.
</event>
<event>
 5    1  0.1325832E-009  0.9118800E+02  0.7818608E-02  0.1130116E+00
         25   -1    0    0    0    0  0.00000000000E+00  0.00000000000E+00  0.99999998245E-14  0.12500000000E+03  0.12500000000E+03 0.  0.
        -13    1    3    3    0    0  0.72868831429E+01 -0.25774681248E+02  0.50665050525E+02  0.57309609736E+02  0.10566000000E+00 0.  1.
         23    2    1    0    0    0  0.28415270735E+01 -0.26260286521E+02  0.12425720604E+02  0.95809668437E+02  0.91254682670E+02 0.  0.
         13    1    3    3    0    0 -0.44453560694E+01 -0.48560527259E+00 -0.38239329921E+02  0.38500058700E+02  0.10566000000E+00 0. -1.
         22    1    1    0    0    0 -0.28415270735E+01  0.26260286521E+02 -0.12425720604E+02  0.29190331563E+02  0.00000000000E+00 0.  1.
</event>
<event>
 5    1  0.1325832E-009  0.9118800E+02  0.7818608E-02  0.1130116E+00
         25   -1    0    0    0    0  0.00000000000E+00  0.00000000000E+00  0.99999998245E-14  0.12500000000E+03  0.12500000000E+03 0.  0.
        -13    1    3    3    0    0 -0.30377663477E+02  0.49279187794E+01 -0.21779317022E+02  0.37701944721E+02  0.10566000000E+00 0.  1.
         23    2    1    0    0    0 -0.32523915390E+01  0.20681454856E+01  0.29214577407E+02  0.95532275121E+02  0.90873916941E+02 0.  0.
         13    1    3    3    0    0  0.27125271938E+02 -0.28597732938E+01  0.50993894429E+02  0.57830330399E+02  0.10566000000E+00 0. -1.
         22    1    1    0    0    0  0.32523915390E+01 -0.20681454856E+01 -0.29214577407E+02  0.29467724879E+02  0.00000000000E+00 0.  1.
</event>
<event>
 5    1  0.1325832E-009  0.9118800E+02  0.7818608E-02  0.1130116E+00
         25   -1    0    0    0    0  0.00000000000E+00  0.00000000000E+00  0.99999998245E-14  0.12500000000E+03  0.12500000000E+03 0.  0.
        -13    1    3    3    0    0  0.23312407614E+02 -0.38788410526E+02  0.33915412032E+00  0.45256329164E+02  0.10566000000E+00 0.  1.
         23    2    1    0    0    0 -0.84621637769E+01 -0.11512327875E+02 -0.26428412532E+02  0.94956649690E+02  0.90078645763E+02 0.  0.
         13    1    3    3    0    0 -0.31774571391E+02  0.27276082651E+02 -0.26767566652E+02  0.49700320526E+02  0.10566000000E+00 0. -1.
         22    1    1    0    0    0  0.84621637769E+01  0.11512327875E+02  0.26428412532E+02  0.30043350310E+02  0.00000000000E+00 0. -1.
</event>
<event>
 5    1  0.1325832E-009  0.9118800E+02  0.7818608E-02  0.1130116E+00
         25   -1    0    0    0    0  0.00000000000E+00  0.00000000000E+00  0.99999998245E-14  0.12500000000E+03  0.12500000000E+03 0.  0.
        -13    1    3    3    0    0 -0.51936876496E+01  0.40252342267E+02 -0.28357334674E+02  0.49511362769E+02  0.10566000000E+00 0.  1.
         23    2    1    0    0    0  0.17537483233E+02  0.19646046637E+02  0.83692199433E+01  0.97367151629E+02  0.93363739789E+02 0.  0.
         13    1    3    3    0    0  0.22731170883E+02 -0.20606295630E+02  0.36726554618E+02  0.47855788860E+02  0.10566000000E+00 0. -1.
         22    1    1    0    0    0 -0.17537483233E+02 -0.19646046637E+02 -0.83692199433E+01  0.27632848371E+02  0.00000000000E+00 0.  1.
</event>
<event>
 5    1  0.1325832E-009  0.9118800E+02  0.7818608E-02  0.1130116E+00
         25   -1    0    0    0    0  0.00000000000E+00  0.00000000000E+00  0.99999998245E-14  0.12500000000E+03  0.12500000000E+03 0.  0.
        -13    1    3    3    0    0 -0.27566667307E+02 -0.24569520458E+02 -0.47992748473E+02  0.60554913525E+02  0.10566000000E+00 0.  1.
         23    2    1    0    0    0 -0.21601346904E+02 -0.80232169621E+01 -0.16391059296E+02  0.96721792431E+02  0.92495665345E+02 0.  0.
         13    1    3    3    0    0  0.59653204031E+01  0.16546303496E+02  0.31601689177E+02  0.36166878906E+02  0.10566000000E+00 0. -1.
         22    1    1    0    0    0  0.21601346904E+02  0.80232169621E+01  0.16391059296E+02  0.28278207569E+02  0.00000000000E+00 0.  1.
</event>
<event>
 5    1  0.1325832E-009  0.9118800E+02  0.7818608E-02  0.1130116E+00
         25   -1    0    0    0    0  0.00000000000E+00  0.00000000000E+00  0.99999998245E-14  0.12500000000E+03  0.12500000000E+03 0.  0.
        -13    1    3    3    0    0 -0.17336048802E+02  0.36969686583E+02  0.40617967301E+02  0.57594502740E+02  0.10566000000E+00 0. -1.
         23    2    1    0    0    0 -0.22704087507E+02  0.81691505072E+01  0.14458313604E+02  0.96870772463E+02  0.92696780504E+02 0.  0.
         13    1    3    3    0    0 -0.53680387051E+01 -0.28800536076E+02 -0.26159653698E+02  0.39276269724E+02  0.10566000000E+00 0.  1.
         22    1    1    0    0    0  0.22704087507E+02 -0.81691505072E+01 -0.14458313604E+02  0.28129227537E+02  0.00000000000E+00 0. -1.
</event>
<event>
 5    1  0.1325832E-009  0.9118800E+02  0.7818608E-02  0.1130116E+00
         25   -1    0    0    0    0  0.00000000000E+00  0.00000000000E+00  0.99999998245E-14  0.12500000000E+03  0.12500000000E+03 0.  0.
        -13    1    3    3    0    0  0.58884288811E+02  0.73589957047E+01 -0.10048281874E+02  0.60187153273E+02  0.10566000000E+00 0.  1.
         23    2    1    0    0    0  0.23696170610E+02  0.53331920025E+01 -0.15974984957E+02  0.95928509104E+02  0.91417324813E+02 0.  0.
         13    1    3    3    0    0 -0.35188118200E+02 -0.20258037022E+01 -0.59267030839E+01  0.35741355830E+02  0.10566000000E+00 0. -1.
         22    1    1    0    0    0 -0.23696170610E+02 -0.53331920025E+01  0.15974984957E+02  0.29071490896E+02  0.00000000000E+00 0.  1.
</event>
<event>
 5    1  0.1325832E-009  0.9118800E+02  0.7818608E-02  0.1130116E+00
         25   -1    0    0    0    0  0.00000000000E+00  0.00000000000E+00  0.99999998245E-14  0.12500000000E+03  0.12500000000E+03 0.  0.
        -13    1    3    3    0    0 -0.41900188168E+01  0.52712422279E+02 -0.21367446869E+02  0.57032750853E+02  0.10566000000E+00 0.  1.
         23    2    1    0    0    0 -0.17208859658E+02  0.23271265284E+02  0.67774650260E+00  0.96049076371E+02  0.91582034771E+02 0.  0.
         13    1    3    3    0    0 -0.13018840842E+02 -0.29441156995E+02  0.22045193372E+02  0.39016325518E+02  0.10566000000E+00 0. -1.
         22    1    1    0    0    0  0.17208859658E+02 -0.23271265284E+02 -0.67774650260E+00  0.28950923629E+02  0.00000000000E+00 0.  1.
</event>
<event>
 5    1  0.1325832E-009  0.9118800E+02  0.7818608E-02  0.1130116E+00
         25   -1    0    0    0    0  0.00000000000E+00  0.00000000000E+00  0.99999998245E-14  0.12500000000E+03  0.12500000000E+03 0.  0.
        -13    1    3    3    0    0 -0.17210843075E+02  0.22152118308E+02  0.46532210097E+01  0.28435771392E+02  0.10566000000E+00 0.  1.
         23    2    1    0    0    0  0.13673288441E+02 -0.29091975828E+02  0.15614979208E+02  0.89263052033E+02  0.81797084350E+02 0.  0.
         13    1    3    3    0    0  0.30884131516E+02 -0.51244094136E+02  0.10961758198E+02  0.60827280640E+02  0.10566000000E+00 0. -1.
         22    1    1    0    0    0 -0.13673288441E+02  0.29091975828E+02 -0.15614979208E+02  0.35736947967E+02  0.00000000000E+00 0. -1.
</event>
<event>
 5    1  0.1325832E-009  0.9118800E+02  0.7818608E-02  0.1130116E+00
         25   -1    0    0    0    0  0.00000000000E+00  0.00000000000E+00  0.99999998245E-14  0.12500000000E+03  0.12500000000E+03 0.  0.
        -13    1    3    3    0    0  0.18337973089E+01 -0.59306608190E+02  0.14451722108E+02  0.61069632580E+02  0.10566000000E+00 0.  1.
         23    2    1    0    0    0 -0.19517791657E+01 -0.28959393858E+02 -0.21999482161E+01  0.95891655720E+02  0.91366919233E+02 0.  0.
         13    1    3    3    0    0 -0.37855764746E+01  0.30347214332E+02 -0.16651670325E+02  0.34822023140E+02  0.10566000000E+00 0. -1.
         22    1    1    0    0    0  0.19517791657E+01  0.28959393858E+02  0.21999482161E+01  0.29108344280E+02  0.00000000000E+00 0.  1.
</event>
<event>
 5    1  0.1325832E-009  0.9118800E+02  0.7818608E-02  0.1130116E+00
         25   -1    0    0    0    0  0.00000000000E+00  0.00000000000E+00  0.99999998245E-14  0.12500000000E+03  0.12500000000E+03 0.  0.
        -13    1    3    3    0    0  0.41313911491E+01  0.69046616879E+00  0.38957289665E+02  0.39181969303E+02  0.10566000000E+00 0.  1.
         23    2    1    0    0    0  0.72403050975E+01 -0.26968826608E+02 -0.98682083545E+01  0.95383768595E+02  0.90669411318E+02 0.  0.
         13    1    3    3    0    0  0.31089139484E+01 -0.27659292776E+02 -0.48825498019E+02  0.56201799293E+02  0.10566000000E+00 0. -1.
         22    1    1    0    0    0 -0.72403050975E+01  0.26968826608E+02  0.98682083545E+01  0.29616231405E+02  0.00000000000E+00 0. -1.
</event>
<event>
 5    1  0.1325832E-009  0.9118800E+02  0.7818608E-02  0.1130116E+00
         25   -1    0    0    0    0  0.00000000000E+00  0.00000000000E+00  0.99999998245E-14  0.12500000000E+03  0.12500000000E+03 0.  0.
        -13    1    3    3    0    0  0.16375963902E+02  0.45586122713E+02 -0.22881661705E+02  0.53570965869E+02  0.10566000000E+00 0.  1.
         23    2    1    0    0    0  0.56816315558E+00  0.14361399462E+02 -0.32156749784E+02  0.89777433930E+02  0.82579407133E+02 0.  0.
         13    1    3    3    0    0 -0.15807800747E+02 -0.31224723250E+02 -0.92750880790E+01  0.36206468060E+02  0.10566000000E+00 0. -1.
         22    1    1    0    0    0 -0.56816315558E+00 -0.14361399462E+02  0.32156749784E+02  0.35222566070E+02  0.00000000000E+00 0.  1.
</event>
<event>
 5    1  0.1325832E-009  0.9118800E+02  0.7818608E-02  0.1130116E+00
         25   -1    0    0    0    0  0.00000000000E+00  0.00000000000E+00  0.99999998245E-14  0.12500000000E+03  0.12500000000E+03 0.  0.
        -13    1    3    3    0    0  0.70120555950E+00  0.25134541429E+02 -0.25055407820E+02  0.35496781363E+02  0.10566000000E+00 0. -1.
         23    2    1    0    0    0  0.11798117780E+02 -0.25606692737E+01  0.26959264197E+02  0.95460965887E+02  0.90775775798E+02 0.  0.
         13    1    3    3    0    0  0.11096912220E+02 -0.27695210702E+02  0.52014672017E+02  0.59964184525E+02  0.10566000000E+00 0.  1.
         22    1    1    0    0    0 -0.11798117780E+02  0.25606692737E+01 -0.26959264197E+02  0.29539034113E+02  0.00000000000E+00 0.  1.
</event>
<event>
 5    1  0.1325832E-009  0.9118800E+02  0.7818608E-02  0.1130116E+00
         25   -1    0    0    0    0  0.00000000000E+00  0.00000000000E+00  0.99999998245E-14  0.12500000000E+03  0.12500000000E+03 0.  0.
        -13    1    3    3    0    0  0.31177335797E+02 -0.43976383555E+01 -0.21039923403E+02  0.37868919068E+02  0.10566000000E+00 0.  1.
         23    2    1    0    0    0  0.14783770917E+01  0.20194300705E+02  0.21624172065E+02  0.95375682332E+02  0.90658262629E+02 0.  0.
         13    1    3    3    0    0 -0.29698958705E+02  0.24591939061E+02  0.42664095469E+02  0.57506763264E+02  0.10566000000E+00 0. -1.
         22    1    1    0    0    0 -0.14783770917E+01 -0.20194300705E+02 -0.21624172065E+02  0.29624317668E+02  0.00000000000E+00 0. -1.
</event>
<event>
 5    1  0.1325832E-009  0.9118800E+02  0.7818608E-02  0.1130116E+00
         25   -1    0    0    0    0  0.00000000000E+00  0.00000000000E+00  0.99999998245E-14  0.12500000000E+03  0.12500000000E+03 0.  0.
        -13    1    3    3    0    0  0.31652098002E+02 -0.39970109588E+02  0.12068407120E+02  0.52393917422E+02  0.10566000000E+00 0. -1.
         23    2    1    0    0    0  0.30227988377E+02  0.58763349246E+00  0.10457719837E+02  0.93008743404E+02  0.87333761232E+02 0.  0.
         13    1    3    3    0    0 -0.14241096251E+01  0.40557743080E+02 -0.16106872831E+01  0.40614825982E+02  0.10566000000E+00 0.  1.
         22    1    1    0    0    0 -0.30227988377E+02 -0.58763349246E+00 -0.10457719837E+02  0.31991256596E+02  0.00000000000E+00 0. -1.
</event>
<event>
 5    1  0.1325832E-009  0.9118800E+02  0.7818608E-02  0.1130116E+00
         25   -1    0    0    0    0  0.00000000000E+00  0.00000000000E+00  0.99999998245E-14  0.12500000000E+03  0.12500000000E+03 0.  0.
        -13    1    3    3    0    0  0.30957137295E+02  0.19408679672E+02 -0.18804383666E+02  0.41093274452E+02  0.10566000000E+00 0.  1.
         23    2    1    0    0    0 -0.12054537040E+01 -0.24866345264E+02 -0.14967171727E+02  0.95951687227E+02  0.91449012061E+02 0.  0.
         13    1    3    3    0    0 -0.32162590999E+02 -0.44275024936E+02  0.38372119386E+01  0.54858412776E+02  0.10566000000E+00 0. -1.
         22    1    1    0    0    0  0.12054537040E+01  0.24866345264E+02  0.14967171727E+02  0.29048312773E+02  0.00000000000E+00 0. -1.
</event>
<event>
 5    1  0.1325832E-009  0.9118800E+02  0.7818608E-02  0.1130116E+00
         25   -1    0    0    0    0  0.00000000000E+00  0.00000000000E+00  0.99999998245E-14  0.12500000000E+03  0.12500000000E+03 0.  0.
        -13    1    3    3    0    0  0.24165679802E+02 -0.93332382131E+01  0.54755379803E+02  0.60574352635E+02  0.10566000000E+00 0.  1.
         23    2    1    0    0    0  0.31885310066E+01  0.19483158165E+01  0.29403465836E+02  0.95360052839E+02  0.90636710056E+02 0.  0.
         13    1    3    3    0    0 -0.20977148795E+02  0.11281554030E+02 -0.25351913966E+02  0.34785700204E+02  0.10566000000E+00 0. -1.
         22    1    1    0    0    0 -0.31885310066E+01 -0.19483158165E+01 -0.29403465836E+02  0.29639947161E+02  0.00000000000E+00 0.  1.
</event>
<event>
 5    1  0.1325832E-009  0.9118800E+02  0.7818608E-02  0.1130116E+00
         25   -1    0    0    0    0  0.00000000000E+00  0.00000000000E+00  0.99999998245E-14  0.12500000000E+03  0.12500000000E+03 0.  0.
        -13    1    3    3    0    0 -0.59319168113E+02 -0.22879255964E+00 -0.16754169988E+02  0.61640323066E+02  0.10566000000E+00 0.  1.
         23    2    1    0    0    0 -0.28090939205E+02 -0.40391144871E+01 -0.15600473522E+01  0.96577314360E+02  0.92300209046E+02 0.  0.
         13    1    3    3    0    0  0.31228228908E+02 -0.38103219275E+01  0.15194122636E+02  0.34936991294E+02  0.10566000000E+00 0. -1.
         22    1    1    0    0    0  0.28090939205E+02  0.40391144871E+01  0.15600473522E+01  0.28422685640E+02  0.00000000000E+00 0.  1.
</event>
<event>
 5    1  0.1325832E-009  0.9118800E+02  0.7818608E-02  0.1130116E+00
         25   -1    0    0    0    0  0.00000000000E+00  0.00000000000E+00  0.99999998245E-14  0.12500000000E+03  0.12500000000E+03 0.  0.
        -13    1    3    3    0    0  0.28548708984E+02 -0.48624813658E+01  0.22037555152E+02  0.36391448319E+02  0.10566000000E+00 0. -1.
         23    2    1    0    0    0 -0.28193711215E+02  0.31782536653E+01  0.97139042635E+01  0.95010892236E+02  0.90153885435E+02 0.  0.
         13    1    3    3    0    0 -0.56742420199E+02  0.80407350310E+01 -0.12323650888E+02  0.58619443917E+02  0.10566000000E+00 0.  1.
         22    1    1    0    0    0  0.28193711215E+02 -0.31782536653E+01 -0.97139042635E+01  0.29989107764E+02  0.00000000000E+00 0.  1.
</event>
<event>
 5    1  0.1325832E-009  0.9118800E+02  0.7818608E-02  0.1130116E+00
         25   -1    0    0    0    0  0.00000000000E+00  0.00000000000E+00  0.99999998245E-14  0.12500000000E+03  0.12500000000E+03 0.  0.
        -13    1    3    3    0    0 -0.33696265578E+02 -0.55444519404E+01  0.47096120114E+02  0.58174177735E+02  0.10566000000E+00 0.  1.
         23    2    1    0    0    0 -0.18034067945E+02 -0.17532293536E+02  0.15393532890E+02  0.95511531438E+02  0.90845378856E+02 0.  0.
         13    1    3    3    0    0  0.15662197633E+02 -0.11987841596E+02 -0.31702587224E+02  0.37337353703E+02  0.10566000000E+00 0. -1.
         22    1    1    0    0    0  0.18034067945E+02  0.17532293536E+02 -0.15393532890E+02  0.29488468562E+02  0.00000000000E+00 0.  1.
</event>
<event>
 5    1  0.1325832E-009  0.9118800E+02  0.7818608E-02  0.1130116E+00
         25   -1    0    0    0    0  0.00000000000E+00  0.00000000000E+00  0.99999998245E-14  0.12500000000E+03  0.12500000000E+03 0.  0.
        -13    1    3    3    0    0 -0.40267459481E+02  0.44375947907E+02  0.98173769674E+01  0.60721372681E+02  0.10566000000E+00 0.  1.
         23    2    1    0    0    0 -0.15910651820E+02  0.17967846362E+02  0.14514020608E+02  0.96952733851E+02  0.92807238202E+02 0.  0.
         13    1    3    3    0    0  0.24356807661E+02 -0.26408101545E+02  0.46966436407E+01  0.36231361169E+02  0.10566000000E+00 0. -1.
         22    1    1    0    0    0  0.15910651820E+02 -0.17967846362E+02 -0.14514020608E+02  0.28047266149E+02  0.00000000000E+00 0.  1.
</event>
<event>
 5    1  0.1325832E-009  0.9118800E+02  0.7818608E-02  0.1130116E+00
         25   -1    0    0    0    0  0.00000000000E+00  0.00000000000E+00  0.99999998245E-14  0.12500000000E+03  0.12500000000E+03 0.  0.
        -13    1    3    3    0    0  0.19800362893E+02  0.40012791500E+02  0.86059142607E+01  0.45465929866E+02  0.10566000000E+00 0. -1.
         23    2    1    0    0    0  0.27973682600E+02 -0.89147708656E+01  0.51508304435E+01  0.95191761004E+02  0.90404315444E+02 0.  0.
         13    1    3    3    0    0  0.81733197072E+01 -0.48927562366E+02 -0.34550838172E+01  0.49725831137E+02  0.10566000000E+00 0.  1.
         22    1    1    0    0    0 -0.27973682600E+02  0.89147708656E+01 -0.51508304435E+01  0.29808238996E+02  0.00000000000E+00 0.  1.
</event>
<event>
 5    1  0.1325832E-009  0.9118800E+02  0.7818608E-02  0.1130116E+00
         25   -1    0    0    0    0  0.00000000000E+00  0.00000000000E+00  0.99999998245E-14  0.12500000000E+03  0.12500000000E+03 0.  0.
        -13    1    3    3    0    0 -0.29769181025E+02  0.32583269110E+02 -0.41739329512E+02  0.60745834070E+02  0.10566000000E+00 0.  1.
         23    2    1    0    0    0 -0.43416113557E+01  0.14596393145E+02 -0.23961662410E+02  0.96608706485E+02  0.92342712876E+02 0.  0.
         13    1    3    3    0    0  0.25427569669E+02 -0.17986875964E+02  0.17777667102E+02  0.35862872415E+02  0.10566000000E+00 0. -1.
         22    1    1    0    0    0  0.43416113557E+01 -0.14596393145E+02  0.23961662410E+02  0.28391293515E+02  0.00000000000E+00 0.  1.
</event>
<event>
 5    1  0.1325832E-009  0.9118800E+02  0.7818608E-02  0.1130116E+00
         25   -1    0    0    0    0  0.00000000000E+00  0.00000000000E+00  0.99999998245E-14  0.12500000000E+03  0.12500000000E+03 0.  0.
        -13    1    3    3    0    0  0.53122626121E+02  0.27476034428E+02  0.34678765344E+01  0.59908123035E+02  0.10566000000E+00 0.  1.
         23    2    1    0    0    0  0.18392269301E+02  0.19834228561E+02  0.10181923238E+02  0.96097686019E+02  0.91648357894E+02 0.  0.
         13    1    3    3    0    0 -0.34730356820E+02 -0.76418058666E+01  0.67140467034E+01  0.36189562984E+02  0.10566000000E+00 0. -1.
         22    1    1    0    0    0 -0.18392269301E+02 -0.19834228561E+02 -0.10181923238E+02  0.28902313981E+02  0.00000000000E+00 0.  1.
</event>
<event>
 5    1  0.1325832E-009  0.9118800E+02  0.7818608E-02  0.1130116E+00
         25   -1    0    0    0    0  0.00000000000E+00  0.00000000000E+00  0.99999998245E-14  0.12500000000E+03  0.12500000000E+03 0.  0.
        -13    1    3    3    0    0  0.57685691542E+02  0.17628439387E+02  0.84433006066E+01  0.60907317894E+02  0.10566000000E+00 0.  1.
         23    2    1    0    0    0  0.30371672486E+02  0.95673791306E+01 -0.56128776325E+01  0.92666153518E+02  0.86842031180E+02 0.  0.
         13    1    3    3    0    0 -0.27314019056E+02 -0.80610602565E+01 -0.14056178239E+02  0.31758835624E+02  0.10566000000E+00 0. -1.
         22    1    1    0    0    0 -0.30371672486E+02 -0.95673791306E+01  0.56128776325E+01  0.32333846482E+02  0.00000000000E+00 0.  1.
</event>
<event>
 5    1  0.1325832E-009  0.9118800E+02  0.7818608E-02  0.1130116E+00
         25   -1    0    0    0    0  0.00000000000E+00  0.00000000000E+00  0.99999998245E-14  0.12500000000E+03  0.12500000000E+03 0.  0.
        -13    1    3    3    0    0  0.26112988560E+02 -0.28002087911E+02  0.69617081680E+01  0.38916341601E+02  0.10566000000E+00 0. -1.
         23    2    1    0    0    0  0.45199823289E+01  0.26280783215E+02  0.73548412507E+01  0.97337688158E+02  0.93324284296E+02 0.  0.
         13    1    3    3    0    0 -0.21593006231E+02  0.54282871126E+02  0.39313308272E+00  0.58421346557E+02  0.10566000000E+00 0.  1.
         22    1    1    0    0    0 -0.45199823289E+01 -0.26280783215E+02 -0.73548412507E+01  0.27662311842E+02  0.00000000000E+00 0.  1.
</event>
<event>
 5    1  0.1325832E-009  0.9118800E+02  0.7818608E-02  0.1130116E+00
         25   -1    0    0    0    0  0.00000000000E+00  0.00000000000E+00  0.99999998245E-14  0.12500000000E+03  0.12500000000E+03 0.  0.
        -13    1    3    3    0    0  0.24666931366E+02  0.44925823192E+02  0.25076565382E+02  0.57058149180E+02  0.10566000000E+00 0. -1.
         23    2    1    0    0    0 -0.46113468654E+01  0.27912947093E+02  0.54779044394E+01  0.96183258818E+02  0.91764997164E+02 0.  0.
         13    1    3    3    0    0 -0.29278278232E+02 -0.17012876099E+02 -0.19598660943E+02  0.39125109638E+02  0.10566000000E+00 0.  1.
         22    1    1    0    0    0  0.46113468654E+01 -0.27912947093E+02 -0.54779044394E+01  0.28816741182E+02  0.00000000000E+00 0. -1.
</event>
<event>
 5    1  0.1325832E-009  0.9118800E+02  0.7818608E-02  0.1130116E+00
         25   -1    0    0    0    0  0.00000000000E+00  0.00000000000E+00  0.99999998245E-14  0.12500000000E+03  0.12500000000E+03 0.  0.
        -13    1    3    3    0    0 -0.19208281548E+02  0.29877563593E+02 -0.93225218585E+01  0.36722574312E+02  0.10566000000E+00 0. -1.
         23    2    1    0    0    0  0.15384453246E+02 -0.16964451840E+02 -0.18356069878E+02  0.95650054016E+02  0.91035781448E+02 0.  0.
         13    1    3    3    0    0  0.34592734794E+02 -0.46842015433E+02 -0.90335480195E+01  0.58927479704E+02  0.10566000000E+00 0.  1.
         22    1    1    0    0    0 -0.15384453246E+02  0.16964451840E+02  0.18356069878E+02  0.29349945984E+02  0.00000000000E+00 0.  1.
</event>
<event>
 5    1  0.1325832E-009  0.9118800E+02  0.7818608E-02  0.1130116E+00
         25   -1    0    0    0    0  0.00000000000E+00  0.00000000000E+00  0.99999998245E-14  0.12500000000E+03  0.12500000000E+03 0.  0.
        -13    1    3    3    0    0  0.46497414413E+02  0.35318692222E+02 -0.66832066034E+01  0.58771557593E+02  0.10566000000E+00 0. -1.
         23    2    1    0    0    0  0.14000729453E+02  0.24245808829E+02  0.76513044364E+01  0.95975490864E+02  0.91481543035E+02 0.  0.
         13    1    3    3    0    0 -0.32496684960E+02 -0.11072883393E+02  0.14334511040E+02  0.37203933271E+02  0.10566000000E+00 0.  1.
         22    1    1    0    0    0 -0.14000729453E+02 -0.24245808829E+02 -0.76513044364E+01  0.29024509136E+02  0.00000000000E+00 0. -1.
</event>
<event>
 5    1  0.1325832E-009  0.9118800E+02  0.7818608E-02  0.1130116E+00
         25   -1    0    0    0    0  0.00000000000E+00  0.00000000000E+00  0.99999998245E-14  0.12500000000E+03  0.12500000000E+03 0.  0.
        -13    1    3    3    0    0  0.10526813959E+02 -0.21013181061E+02  0.25718821773E+02  0.34840157116E+02  0.10566000000E+00 0. -1.
         23    2    1    0    0    0  0.80032759174E+01  0.19645428551E+02 -0.19839411172E+02  0.95955249631E+02  0.91453881315E+02 0.  0.
         13    1    3    3    0    0 -0.25235380418E+01  0.40658609612E+02 -0.45558232946E+02  0.61115092514E+02  0.10566000000E+00 0.  1.
         22    1    1    0    0    0 -0.80032759174E+01 -0.19645428551E+02  0.19839411172E+02  0.29044750369E+02  0.00000000000E+00 0.  1.
</event>
<event>
 5    1  0.1325832E-009  0.9118800E+02  0.7818608E-02  0.1130116E+00
         25   -1    0    0    0    0  0.00000000000E+00  0.00000000000E+00  0.99999998245E-14  0.12500000000E+03  0.12500000000E+03 0.  0.
        -13    1    3    3    0    0  0.21883923417E+02  0.22588729702E+02 -0.69139063821E+01  0.32202019799E+02  0.10566000000E+00 0.  1.
         23    2    1    0    0    0 -0.24432807248E+02 -0.13392041385E+02  0.13151424770E+02  0.94189793640E+02  0.89008136763E+02 0.  0.
         13    1    3    3    0    0 -0.46316730664E+02 -0.35980771087E+02  0.20065331152E+02  0.61987773841E+02  0.10566000000E+00 0. -1.
         22    1    1    0    0    0  0.24432807248E+02  0.13392041385E+02 -0.13151424770E+02  0.30810206360E+02  0.00000000000E+00 0. -1.
</event>
<event>
 5    1  0.1325832E-009  0.9118800E+02  0.7818608E-02  0.1130116E+00
         25   -1    0    0    0    0  0.00000000000E+00  0.00000000000E+00  0.99999998245E-14  0.12500000000E+03  0.12500000000E+03 0.  0.
        -13    1    3    3    0    0 -0.20298241777E+02 -0.48248869703E+02  0.20829979533E+02  0.56337121494E+02  0.10566000000E+00 0. -1.
         23    2    1    0    0    0 -0.25033399914E+02 -0.10439958289E+02  0.11313492065E+02  0.95611925156E+02  0.90983412164E+02 0.  0.
         13    1    3    3    0    0 -0.47351581377E+01  0.37808911414E+02 -0.95164874688E+01  0.39274803662E+02  0.10566000000E+00 0.  1.
         22    1    1    0    0    0  0.25033399914E+02  0.10439958289E+02 -0.11313492065E+02  0.29388074844E+02  0.00000000000E+00 0. -1.
</event>
<event>
 5    1  0.1325832E-009  0.9118800E+02  0.7818608E-02  0.1130116E+00
         25   -1    0    0    0    0  0.00000000000E+00  0.00000000000E+00  0.99999998245E-14  0.12500000000E+03  0.12500000000E+03 0.  0.
        -13    1    3    3    0    0  0.16498147505E+02 -0.43655819724E+02  0.18121564085E+01  0.46704545193E+02  0.10566000000E+00 0. -1.
         23    2    1    0    0    0  0.77869178076E+01 -0.41764922574E+01 -0.27157323110E+02  0.96441299487E+02  0.92115823134E+02 0.  0.
         13    1    3    3    0    0 -0.87112296971E+01  0.39479327466E+02 -0.28969479518E+02  0.49736754293E+02  0.10566000000E+00 0.  1.
         22    1    1    0    0    0 -0.77869178076E+01  0.41764922574E+01  0.27157323110E+02  0.28558700513E+02  0.00000000000E+00 0.  1.
</event>
<event>
 5    1  0.1325832E-009  0.9118800E+02  0.7818608E-02  0.1130116E+00
         25   -1    0    0    0    0  0.00000000000E+00  0.00000000000E+00  0.99999998245E-14  0.12500000000E+03  0.12500000000E+03 0.  0.
        -13    1    3    3    0    0  0.56664179473E+01  0.24739211927E+01 -0.58760084248E+02  0.59084577034E+02  0.10566000000E+00 0.  1.
         23    2    1    0    0    0 -0.11959945655E+02  0.12533543811E+01 -0.27345765480E+02  0.95126900279E+02  0.90314589463E+02 0.  0.
         13    1    3    3    0    0 -0.17626363602E+02 -0.12205668117E+01  0.31414318769E+02  0.36042323245E+02  0.10566000000E+00 0. -1.
         22    1    1    0    0    0  0.11959945655E+02 -0.12533543811E+01  0.27345765480E+02  0.29873099721E+02  0.00000000000E+00 0.  1.
</event>
<event>
 5    1  0.1325832E-009  0.9118800E+02  0.7818608E-02  0.1130116E+00
         25   -1    0    0    0    0  0.00000000000E+00  0.00000000000E+00  0.99999998245E-14  0.12500000000E+03  0.12500000000E+03 0.  0.
        -13    1    3    3    0    0  0.48118435218E+02  0.23988723939E+02  0.52019840506E+01  0.54017723815E+02  0.10566000000E+00 0.  1.
         23    2    1    0    0    0  0.19660152872E+02 -0.86874622357E+00  0.22098257467E+02  0.95409303590E+02  0.90704607918E+02 0.  0.
         13    1    3    3    0    0 -0.28458282346E+02 -0.24857470162E+02  0.16896273416E+02  0.41391579775E+02  0.10566000000E+00 0. -1.
         22    1    1    0    0    0 -0.19660152872E+02  0.86874622357E+00 -0.22098257467E+02  0.29590696410E+02  0.00000000000E+00 0.  1.
</event>
<event>
 5    1  0.1325832E-009  0.9118800E+02  0.7818608E-02  0.1130116E+00
         25   -1    0    0    0    0  0.00000000000E+00  0.00000000000E+00  0.99999998245E-14  0.12500000000E+03  0.12500000000E+03 0.  0.
        -13    1    3    3    0    0  0.49033456140E+02  0.28034680831E+02 -0.16602671423E+02  0.58871750549E+02  0.10566000000E+00 0. -1.
         23    2    1    0    0    0  0.29431617978E+02  0.94741922038E+01  0.52942574927E+01  0.93631072426E+02  0.88219998337E+02 0.  0.
         13    1    3    3    0    0 -0.19601838162E+02 -0.18560488627E+02  0.21896928916E+02  0.34759321877E+02  0.10566000000E+00 0.  1.
         22    1    1    0    0    0 -0.29431617978E+02 -0.94741922038E+01 -0.52942574927E+01  0.31368927574E+02  0.00000000000E+00 0. -1.
</event>
<event>
 5    1  0.1325832E-009  0.9118800E+02  0.7818608E-02  0.1130116E+00
         25   -1    0    0    0    0  0.00000000000E+00  0.00000000000E+00  0.99999998245E-14  0.12500000000E+03  0.12500000000E+03 0.  0.
        -13    1    3    3    0    0  0.98794436986E+01 -0.26159442312E+02  0.18075543103E+02  0.33296490091E+02  0.10566000000E+00 0. -1.
         23    2    1    0    0    0  0.28365128870E+01  0.29424909250E+02 -0.69066331662E+01  0.94642584573E+02  0.89641765619E+02 0.  0.
         13    1    3    3    0    0 -0.70429308116E+01  0.55584351562E+02 -0.24982176269E+02  0.61346094482E+02  0.10566000000E+00 0.  1.
         22    1    1    0    0    0 -0.28365128870E+01 -0.29424909250E+02  0.69066331662E+01  0.30357415427E+02  0.00000000000E+00 0.  1.
</event>
<event>
 5    1  0.1325832E-009  0.9118800E+02  0.7818608E-02  0.1130116E+00
         25   -1    0    0    0    0  0.00000000000E+00  0.00000000000E+00  0.99999998245E-14  0.12500000000E+03  0.12500000000E+03 0.  0.
        -13    1    3    3    0    0  0.28037291620E+02 -0.10655062742E+02  0.47459065822E+01  0.30367003091E+02  0.10566000000E+00 0.  1.
         23    2    1    0    0    0 -0.26028935341E+02 -0.22551080588E+02 -0.12518521411E+02  0.88356172566E+02  0.80399273265E+02 0.  0.
         13    1    3    3    0    0 -0.54066226961E+02 -0.11896017846E+02 -0.17264427994E+02  0.57989169475E+02  0.10566000000E+00 0. -1.
         22    1    1    0    0    0  0.26028935341E+02  0.22551080588E+02  0.12518521411E+02  0.36643827434E+02  0.00000000000E+00 0. -1.
</event>
<event>
 5    1  0.1325832E-009  0.9118800E+02  0.7818608E-02  0.1130116E+00
         25   -1    0    0    0    0  0.00000000000E+00  0.00000000000E+00  0.99999998245E-14  0.12500000000E+03  0.12500000000E+03 0.  0.
        -13    1    3    3    0    0 -0.60974841367E+02 -0.36224588557E+01 -0.34455195023E+01  0.61179541160E+02  0.10566000000E+00 0.  1.
         23    2    1    0    0    0 -0.26663498722E+02  0.32195361204E+01  0.61276964143E+01  0.97452654569E+02  0.93478145266E+02 0.  0.
         13    1    3    3    0    0  0.34311342645E+02  0.68419949761E+01  0.95732159166E+01  0.36273113409E+02  0.10566000000E+00 0. -1.
         22    1    1    0    0    0  0.26663498722E+02 -0.32195361204E+01 -0.61276964143E+01  0.27547345431E+02  0.00000000000E+00 0.  1.
</event>
<event>
 5    1  0.1325832E-009  0.9118800E+02  0.7818608E-02  0.1130116E+00
         25   -1    0    0    0    0  0.00000000000E+00  0.00000000000E+00  0.99999998245E-14  0.12500000000E+03  0.12500000000E+03 0.  0.
        -13    1    3    3    0    0 -0.13073257947E+02  0.48481438660E+01  0.31772882816E+02  0.34697864758E+02  0.10566000000E+00 0.  1.
         23    2    1    0    0    0 -0.85466837488E+00  0.25081154640E+02 -0.20842067017E+02  0.92378127987E+02  0.86426454264E+02 0.  0.
         13    1    3    3    0    0  0.12218589572E+02  0.20233010774E+02 -0.52614949833E+02  0.57680263229E+02  0.10566000000E+00 0. -1.
         22    1    1    0    0    0  0.85466837488E+00 -0.25081154640E+02  0.20842067017E+02  0.32621872013E+02  0.00000000000E+00 0.  1.
</event>
<event>
 5    1  0.1325832E-009  0.9118800E+02  0.7818608E-02  0.1130116E+00
         25   -1    0    0    0    0  0.00000000000E+00  0.00000000000E+00  0.99999998245E-14  0.12500000000E+03  0.12500000000E+03 0.  0.
        -13    1    3    3    0    0  0.41139722752E+02 -0.34061441776E+02 -0.26809512136E+02  0.59761356318E+02  0.10566000000E+00 0.  1.
         23    2    1    0    0    0  0.19956716256E+02 -0.66251419769E+01 -0.21673616999E+02  0.94802173857E+02  0.89864027643E+02 0.  0.
         13    1    3    3    0    0 -0.21183006496E+02  0.27436299799E+02  0.51358951366E+01  0.35040817539E+02  0.10566000000E+00 0. -1.
         22    1    1    0    0    0 -0.19956716256E+02  0.66251419769E+01  0.21673616999E+02  0.30197826143E+02  0.00000000000E+00 0.  1.
</event>
<event>
 5    1  0.1325832E-009  0.9118800E+02  0.7818608E-02  0.1130116E+00
         25   -1    0    0    0    0  0.00000000000E+00  0.00000000000E+00  0.99999998245E-14  0.12500000000E+03  0.12500000000E+03 0.  0.
        -13    1    3    3    0    0  0.14748091440E+02  0.30226875374E+02  0.10517597654E+02  0.35239200054E+02  0.10566000000E+00 0. -1.
         23    2    1    0    0    0  0.85582460128E+01 -0.23783576610E+02 -0.15333019830E+02  0.95436448314E+02  0.90742008346E+02 0.  0.
         13    1    3    3    0    0 -0.61898454269E+01 -0.54010451984E+02 -0.25850617483E+02  0.60197248261E+02  0.10566000000E+00 0.  1.
         22    1    1    0    0    0 -0.85582460128E+01  0.23783576610E+02  0.15333019830E+02  0.29563551686E+02  0.00000000000E+00 0.  1.
</event>
<event>
 5    1  0.1325832E-009  0.9118800E+02  0.7818608E-02  0.1130116E+00
         25   -1    0    0    0    0  0.00000000000E+00  0.00000000000E+00  0.99999998245E-14  0.12500000000E+03  0.12500000000E+03 0.  0.
        -13    1    3    3    0    0  0.16928370842E+02  0.44040479447E+01 -0.53469072610E+02  0.56257606308E+02  0.10566000000E+00 0.  1.
         23    2    1    0    0    0  0.23514395505E+02 -0.69956418996E+01 -0.16674368765E+02  0.95336885274E+02  0.90604753289E+02 0.  0.
         13    1    3    3    0    0  0.65860246622E+01 -0.11399689844E+02  0.36794703845E+02  0.39079278966E+02  0.10566000000E+00 0. -1.
         22    1    1    0    0    0 -0.23514395505E+02  0.69956418996E+01  0.16674368765E+02  0.29663114726E+02  0.00000000000E+00 0.  1.
</event>
<event>
 5    1  0.1325832E-009  0.9118800E+02  0.7818608E-02  0.1130116E+00
         25   -1    0    0    0    0  0.00000000000E+00  0.00000000000E+00  0.99999998245E-14  0.12500000000E+03  0.12500000000E+03 0.  0.
        -13    1    3    3    0    0  0.37992929087E+02  0.22876468467E+01  0.70450691366E+01  0.38708398984E+02  0.10566000000E+00 0. -1.
         23    2    1    0    0    0 -0.19336438551E+02 -0.44591702212E+01 -0.14605955441E+02  0.10036027619E+03  0.97288586425E+02 0.  0.
         13    1    3    3    0    0 -0.57329367638E+02 -0.67468170679E+01 -0.21651024577E+02  0.61651877211E+02  0.10566000000E+00 0.  1.
         22    1    1    0    0    0  0.19336438551E+02  0.44591702212E+01  0.14605955441E+02  0.24639723806E+02  0.00000000000E+00 0.  1.
</event>
<event>
 5    1  0.1325832E-009  0.9118800E+02  0.7818608E-02  0.1130116E+00
         25   -1    0    0    0    0  0.00000000000E+00  0.00000000000E+00  0.99999998245E-14  0.12500000000E+03  0.12500000000E+03 0.  0.
        -13    1    3    3    0    0 -0.31486679211E+02 -0.90652778083E+01  0.21993106662E+02  0.39462616920E+02  0.10566000000E+00 0. -1.
         23    2    1    0    0    0  0.13480758852E+01 -0.15515526710E+02 -0.24029808434E+02  0.96364697120E+02  0.92011815980E+02 0.  0.
         13    1    3    3    0    0  0.32834755096E+02 -0.64502489013E+01 -0.46022915096E+02  0.56902080200E+02  0.10566000000E+00 0.  1.
         22    1    1    0    0    0 -0.13480758852E+01  0.15515526710E+02  0.24029808434E+02  0.28635302880E+02  0.00000000000E+00 0.  1.
</event>
<event>
 5    1  0.1325832E-009  0.9118800E+02  0.7818608E-02  0.1130116E+00
         25   -1    0    0    0    0  0.00000000000E+00  0.00000000000E+00  0.99999998245E-14  0.12500000000E+03  0.12500000000E+03 0.  0.
        -13    1    3    3    0    0  0.74016287282E+01  0.40163545262E+02 -0.15228624428E+02  0.43586886123E+02  0.10566000000E+00 0.  1.
         23    2    1    0    0    0  0.25155056861E+02  0.49666528371E+01  0.16771668705E+02  0.94361243543E+02  0.89248590385E+02 0.  0.
         13    1    3    3    0    0  0.17753428132E+02 -0.35196892425E+02  0.32000293133E+02  0.50774357421E+02  0.10566000000E+00 0. -1.
         22    1    1    0    0    0 -0.25155056861E+02 -0.49666528371E+01 -0.16771668705E+02  0.30638756457E+02  0.00000000000E+00 0.  1.
</event>
<event>
 5    1  0.1325832E-009  0.9118800E+02  0.7818608E-02  0.1130116E+00
         25   -1    0    0    0    0  0.00000000000E+00  0.00000000000E+00  0.99999998245E-14  0.12500000000E+03  0.12500000000E+03 0.  0.
        -13    1    3    3    0    0 -0.95475131423E+01  0.58107113136E+02  0.23422095508E+01  0.58932917066E+02  0.10566000000E+00 0. -1.
         23    2    1    0    0    0 -0.14076042715E+02  0.35050758533E+02  0.13426320092E+02  0.84913135276E+02  0.74855085458E+02 0.  0.
         13    1    3    3    0    0 -0.45285295729E+01 -0.23056354604E+02  0.11084110541E+02  0.25980218210E+02  0.10566000000E+00 0.  1.
         22    1    1    0    0    0  0.14076042715E+02 -0.35050758533E+02 -0.13426320092E+02  0.40086864724E+02  0.00000000000E+00 0. -1.
</event>
<event>
 5    1  0.1325832E-009  0.9118800E+02  0.7818608E-02  0.1130116E+00
         25   -1    0    0    0    0  0.00000000000E+00  0.00000000000E+00  0.99999998245E-14  0.12500000000E+03  0.12500000000E+03 0.  0.
        -13    1    3    3    0    0 -0.45720004876E+00  0.33967204891E+02  0.20956675233E+02  0.39914576797E+02  0.10566000000E+00 0.  1.
         23    2    1    0    0    0 -0.22362770121E+02 -0.16082593391E+02  0.37094837885E+01  0.97206051600E+02  0.93147801370E+02 0.  0.
         13    1    3    3    0    0 -0.21905570072E+02 -0.50049798283E+02 -0.17247191445E+02  0.57291474803E+02  0.10566000000E+00 0. -1.
         22    1    1    0    0    0  0.22362770121E+02  0.16082593391E+02 -0.37094837885E+01  0.27793948400E+02  0.00000000000E+00 0. -1.
</event>
<event>
 5    1  0.1325832E-009  0.9118800E+02  0.7818608E-02  0.1130116E+00
         25   -1    0    0    0    0  0.00000000000E+00  0.00000000000E+00  0.99999998245E-14  0.12500000000E+03  0.12500000000E+03 0.  0.
        -13    1    3    3    0    0  0.35408744251E+01 -0.34238014530E+02  0.11990994003E+02  0.36449616347E+02  0.10566000000E+00 0.  1.
         23    2    1    0    0    0  0.11622851678E+02  0.15988947505E+02  0.28836167663E+02  0.90039140615E+02  0.82974605475E+02 0.  0.
         13    1    3    3    0    0  0.80819772526E+01  0.50226962035E+02  0.16845173661E+02  0.53589524268E+02  0.10566000000E+00 0. -1.
         22    1    1    0    0    0 -0.11622851678E+02 -0.15988947505E+02 -0.28836167663E+02  0.34960859385E+02  0.00000000000E+00 0. -1.
</event>
<event>
 5    1  0.1325832E-009  0.9118800E+02  0.7818608E-02  0.1130116E+00
         25   -1    0    0    0    0  0.00000000000E+00  0.00000000000E+00  0.99999998245E-14  0.12500000000E+03  0.12500000000E+03 0.  0.
        -13    1    3    3    0    0 -0.51145821786E+01  0.36633575941E+02 -0.36194509573E+02  0.51751633060E+02  0.10566000000E+00 0. -1.
         23    2    1    0    0    0 -0.24116461413E+02  0.25457493635E+01 -0.17932228335E+02  0.94839606037E+02  0.89916080371E+02 0.  0.
         13    1    3    3    0    0 -0.19001879235E+02 -0.34087826578E+02  0.18262281238E+02  0.43087972977E+02  0.10566000000E+00 0.  1.
         22    1    1    0    0    0  0.24116461413E+02 -0.25457493635E+01  0.17932228335E+02  0.30160393963E+02  0.00000000000E+00 0.  1.
</event>
<event>
 5    1  0.1325832E-009  0.9118800E+02  0.7818608E-02  0.1130116E+00
         25   -1    0    0    0    0  0.00000000000E+00  0.00000000000E+00  0.99999998245E-14  0.12500000000E+03  0.12500000000E+03 0.  0.
        -13    1    3    3    0    0 -0.22997602896E+02 -0.13448008573E+02  0.49714989084E+02  0.56403279845E+02  0.10566000000E+00 0. -1.
         23    2    1    0    0    0  0.81136179405E+01 -0.27107213556E+01  0.27723924148E+02  0.95986300192E+02  0.91496311664E+02 0.  0.
         13    1    3    3    0    0  0.31111220837E+02  0.10737287217E+02 -0.21991064936E+02  0.39583020347E+02  0.10566000000E+00 0.  1.
         22    1    1    0    0    0 -0.81136179405E+01  0.27107213556E+01 -0.27723924148E+02  0.29013699808E+02  0.00000000000E+00 0. -1.
</event>
<event>
 5    1  0.1325832E-009  0.9118800E+02  0.7818608E-02  0.1130116E+00
         25   -1    0    0    0    0  0.00000000000E+00  0.00000000000E+00  0.99999998245E-14  0.12500000000E+03  0.12500000000E+03 0.  0.
        -13    1    3    3    0    0 -0.14657704453E+02 -0.27607639599E+02 -0.14082577229E+02  0.34283526795E+02  0.10566000000E+00 0. -1.
         23    2    1    0    0    0  0.58351450427E+01  0.28901019067E+02 -0.55943610636E+01  0.94989756807E+02  0.90124576014E+02 0.  0.
         13    1    3    3    0    0  0.20492849495E+02  0.56508658666E+02  0.84882161652E+01  0.60706230013E+02  0.10566000000E+00 0.  1.
         22    1    1    0    0    0 -0.58351450427E+01 -0.28901019067E+02  0.55943610636E+01  0.30010243193E+02  0.00000000000E+00 0.  1.
</event>
<event>
 5    1  0.1325832E-009  0.9118800E+02  0.7818608E-02  0.1130116E+00
         25   -1    0    0    0    0  0.00000000000E+00  0.00000000000E+00  0.99999998245E-14  0.12500000000E+03  0.12500000000E+03 0.  0.
        -13    1    3    3    0    0 -0.43909716226E+02  0.12746489715E+01  0.37512444848E+02  0.57765756219E+02  0.10566000000E+00 0. -1.
         23    2    1    0    0    0 -0.83769479137E+01 -0.40605704995E+01  0.28792528970E+02  0.94739940290E+02  0.89777419614E+02 0.  0.
         13    1    3    3    0    0  0.35532768312E+02 -0.53352194710E+01 -0.87199158779E+01  0.36974184071E+02  0.10566000000E+00 0.  1.
         22    1    1    0    0    0  0.83769479137E+01  0.40605704995E+01 -0.28792528970E+02  0.30260059710E+02  0.00000000000E+00 0. -1.
</event>
<event>
 5    1  0.1325832E-009  0.9118800E+02  0.7818608E-02  0.1130116E+00
         25   -1    0    0    0    0  0.00000000000E+00  0.00000000000E+00  0.99999998245E-14  0.12500000000E+03  0.12500000000E+03 0.  0.
        -13    1    3    3    0    0 -0.27554984187E+02 -0.55482552242E+01 -0.36585209036E+02  0.46136200254E+02  0.10566000000E+00 0. -1.
         23    2    1    0    0    0  0.17232414951E+02 -0.12897848477E+02 -0.22970009129E+02  0.93520928544E+02  0.88063795829E+02 0.  0.
         13    1    3    3    0    0  0.44787399138E+02 -0.73495932531E+01  0.13615199907E+02  0.47384728290E+02  0.10566000000E+00 0.  1.
         22    1    1    0    0    0 -0.17232414951E+02  0.12897848477E+02  0.22970009129E+02  0.31479071456E+02  0.00000000000E+00 0.  1.
</event>
<event>
 5    1  0.1325832E-009  0.9118800E+02  0.7818608E-02  0.1130116E+00
         25   -1    0    0    0    0  0.00000000000E+00  0.00000000000E+00  0.99999998245E-14  0.12500000000E+03  0.12500000000E+03 0.  0.
        -13    1    3    3    0    0 -0.39040909000E+02  0.45638145069E+02  0.40445816378E+00  0.60060033394E+02  0.10566000000E+00 0.  1.
         23    2    1    0    0    0 -0.18660122913E+02  0.26119197891E+02  0.12218319105E+02  0.90653238765E+02  0.83894634460E+02 0.  0.
         13    1    3    3    0    0  0.20380786088E+02 -0.19518947178E+02  0.11813860941E+02  0.30593205370E+02  0.10566000000E+00 0. -1.
         22    1    1    0    0    0  0.18660122913E+02 -0.26119197891E+02 -0.12218319105E+02  0.34346761235E+02  0.00000000000E+00 0.  1.
</event>
<event>
 5    1  0.1325832E-009  0.9118800E+02  0.7818608E-02  0.1130116E+00
         25   -1    0    0    0    0  0.00000000000E+00  0.00000000000E+00  0.99999998245E-14  0.12500000000E+03  0.12500000000E+03 0.  0.
        -13    1    3    3    0    0 -0.38788972042E+02  0.39916146771E+02  0.10305085984E+02  0.56604673714E+02  0.10566000000E+00 0. -1.
         23    2    1    0    0    0 -0.10434582800E+02  0.21945749165E+02  0.22067309897E+02  0.92175274705E+02  0.86132564551E+02 0.  0.
         13    1    3    3    0    0  0.28354389242E+02 -0.17970397606E+02  0.11762223913E+02  0.35570600990E+02  0.10566000000E+00 0.  1.
         22    1    1    0    0    0  0.10434582800E+02 -0.21945749165E+02 -0.22067309897E+02  0.32824725295E+02  0.00000000000E+00 0. -1.
</event>
<event>
 5    1  0.1325832E-009  0.9118800E+02  0.7818608E-02  0.1130116E+00
         25   -1    0    0    0    0  0.00000000000E+00  0.00000000000E+00  0.99999998245E-14  0.12500000000E+03  0.12500000000E+03 0.  0.
        -13    1    3    3    0    0 -0.27432424071E+02  0.27446668437E+02  0.26482114038E+01  0.38895779802E+02  0.10566000000E+00 0.  1.
         23    2    1    0    0    0  0.20867152752E+02  0.10641887697E+02 -0.19399559943E+02  0.94585681601E+02  0.89562382730E+02 0.  0.
         13    1    3    3    0    0  0.48299576823E+02 -0.16804780740E+02 -0.22047771346E+02  0.55689901799E+02  0.10566000000E+00 0. -1.
         22    1    1    0    0    0 -0.20867152752E+02 -0.10641887697E+02  0.19399559943E+02  0.30414318399E+02  0.00000000000E+00 0. -1.
</event>
<event>
 5    1  0.1325832E-009  0.9118800E+02  0.7818608E-02  0.1130116E+00
         25   -1    0    0    0    0  0.00000000000E+00  0.00000000000E+00  0.99999998245E-14  0.12500000000E+03  0.12500000000E+03 0.  0.
        -13    1    3    3    0    0  0.92810118858E+01 -0.42593436674E+01  0.61020397981E+02  0.61869049806E+02  0.10566000000E+00 0.  1.
         23    2    1    0    0    0  0.10502599624E+02 -0.29098008130E+01  0.27789857321E+02  0.95149577732E+02  0.90345970762E+02 0.  0.
         13    1    3    3    0    0  0.12215877383E+01  0.13495428544E+01 -0.33230540659E+02  0.33280527926E+02  0.10566000000E+00 0. -1.
         22    1    1    0    0    0 -0.10502599624E+02  0.29098008130E+01 -0.27789857321E+02  0.29850422268E+02  0.00000000000E+00 0.  1.
</event>
<event>
 5    1  0.1325832E-009  0.9118800E+02  0.7818608E-02  0.1130116E+00
         25   -1    0    0    0    0  0.00000000000E+00  0.00000000000E+00  0.99999998245E-14  0.12500000000E+03  0.12500000000E+03 0.  0.
        -13    1    3    3    0    0 -0.56001151902E+01 -0.28754588258E+02  0.22039052814E+02  0.36659496028E+02  0.10566000000E+00 0.  1.
         23    2    1    0    0    0 -0.19295813251E+02  0.16855143456E+02 -0.13462042337E+02  0.96057801503E+02  0.91593942899E+02 0.  0.
         13    1    3    3    0    0 -0.13695698060E+02  0.45609731714E+02 -0.35501095151E+02  0.59398305476E+02  0.10566000000E+00 0. -1.
         22    1    1    0    0    0  0.19295813251E+02 -0.16855143456E+02  0.13462042337E+02  0.28942198497E+02  0.00000000000E+00 0. -1.
</event>
<event>
 5    1  0.1325832E-009  0.9118800E+02  0.7818608E-02  0.1130116E+00
         25   -1    0    0    0    0  0.00000000000E+00  0.00000000000E+00  0.99999998245E-14  0.12500000000E+03  0.12500000000E+03 0.  0.
        -13    1    3    3    0    0  0.18780804222E+02 -0.10639982020E+02 -0.14632185669E+02  0.26077573624E+02  0.10566000000E+00 0. -1.
         23    2    1    0    0    0 -0.12330142054E+02  0.37404646390E+02 -0.13627803694E+02  0.83324383530E+02  0.72153280469E+02 0.  0.
         13    1    3    3    0    0 -0.31110946276E+02  0.48044628410E+02  0.10043819744E+01  0.57246809906E+02  0.10566000000E+00 0.  1.
         22    1    1    0    0    0  0.12330142054E+02 -0.37404646390E+02  0.13627803694E+02  0.41675616470E+02  0.00000000000E+00 0.  1.
</event>
<event>
 5    1  0.1325832E-009  0.9118800E+02  0.7818608E-02  0.1130116E+00
         25   -1    0    0    0    0  0.00000000000E+00  0.00000000000E+00  0.99999998245E-14  0.12500000000E+03  0.12500000000E+03 0.  0.
        -13    1    3    3    0    0  0.19196030137E+02 -0.51954158512E+02 -0.22831264417E+02  0.59908262857E+02  0.10566000000E+00 0. -1.
         23    2    1    0    0    0 -0.14437985349E+01 -0.21913025351E+02 -0.17859283454E+02  0.96694183641E+02  0.92458346894E+02 0.  0.
         13    1    3    3    0    0 -0.20639828672E+02  0.30041133161E+02  0.49719809628E+01  0.36785920784E+02  0.10566000000E+00 0.  1.
         22    1    1    0    0    0  0.14437985349E+01  0.21913025351E+02  0.17859283454E+02  0.28305816359E+02  0.00000000000E+00 0. -1.
</event>
<event>
 5    1  0.1325832E-009  0.9118800E+02  0.7818608E-02  0.1130116E+00
         25   -1    0    0    0    0  0.00000000000E+00  0.00000000000E+00  0.99999998245E-14  0.12500000000E+03  0.12500000000E+03 0.  0.
        -13    1    3    3    0    0  0.59863759438E+01  0.50460872584E+02  0.17210068517E+02  0.53650107002E+02  0.10566000000E+00 0. -1.
         23    2    1    0    0    0 -0.60768748566E+01  0.27221694706E+02 -0.13504719189E+02  0.94010864629E+02  0.88756499239E+02 0.  0.
         13    1    3    3    0    0 -0.12063250800E+02 -0.23239177878E+02 -0.30714787707E+02  0.40360757627E+02  0.10566000000E+00 0.  1.
         22    1    1    0    0    0  0.60768748566E+01 -0.27221694706E+02  0.13504719189E+02  0.30989135371E+02  0.00000000000E+00 0. -1.
</event>
<event>
 5    1  0.1325832E-009  0.9118800E+02  0.7818608E-02  0.1130116E+00
         25   -1    0    0    0    0  0.00000000000E+00  0.00000000000E+00  0.99999998245E-14  0.12500000000E+03  0.12500000000E+03 0.  0.
        -13    1    3    3    0    0  0.11697389328E+02  0.13373377527E+02  0.34137991259E+02  0.38484928931E+02  0.10566000000E+00 0. -1.
         23    2    1    0    0    0 -0.52629291238E+01  0.20653504374E+02 -0.20054843921E+02  0.95734620614E+02  0.91151824741E+02 0.  0.
         13    1    3    3    0    0 -0.16960318452E+02  0.72801268468E+01 -0.54192835180E+02  0.57249691683E+02  0.10566000000E+00 0.  1.
         22    1    1    0    0    0  0.52629291238E+01 -0.20653504374E+02  0.20054843921E+02  0.29265379386E+02  0.00000000000E+00 0.  1.
</event>
<event>
 5    1  0.1325832E-009  0.9118800E+02  0.7818608E-02  0.1130116E+00
         25   -1    0    0    0    0  0.00000000000E+00  0.00000000000E+00  0.99999998245E-14  0.12500000000E+03  0.12500000000E+03 0.  0.
        -13    1    3    3    0    0 -0.21235023518E+02  0.34302458152E+02  0.45568537914E+01  0.40600011571E+02  0.10566000000E+00 0. -1.
         23    2    1    0    0    0  0.11441574692E+02  0.13974821259E+01 -0.26288767977E+02  0.96295263292E+02  0.91917440255E+02 0.  0.
         13    1    3    3    0    0  0.32676598210E+02 -0.32904976026E+02 -0.30845621769E+02  0.55695251720E+02  0.10566000000E+00 0.  1.
         22    1    1    0    0    0 -0.11441574692E+02 -0.13974821259E+01  0.26288767977E+02  0.28704736708E+02  0.00000000000E+00 0.  1.
</event>
<event>
 5    1  0.1325832E-009  0.9118800E+02  0.7818608E-02  0.1130116E+00
         25   -1    0    0    0    0  0.00000000000E+00  0.00000000000E+00  0.99999998245E-14  0.12500000000E+03  0.12500000000E+03 0.  0.
        -13    1    3    3    0    0  0.18982329665E+02 -0.13446535401E+02 -0.23640518472E+02  0.33166601144E+02  0.10566000000E+00 0. -1.
         23    2    1    0    0    0  0.12334777531E+01  0.28469725824E+02  0.14929631065E+02  0.92829506693E+02  0.87076843497E+02 0.  0.
         13    1    3    3    0    0 -0.17748851912E+02  0.41916261224E+02  0.38570149538E+02  0.59662905549E+02  0.10566000000E+00 0.  1.
         22    1    1    0    0    0 -0.12334777531E+01 -0.28469725824E+02 -0.14929631065E+02  0.32170493307E+02  0.00000000000E+00 0.  1.
</event>
<event>
 5    1  0.1325832E-009  0.9118800E+02  0.7818608E-02  0.1130116E+00
         25   -1    0    0    0    0  0.00000000000E+00  0.00000000000E+00  0.99999998245E-14  0.12500000000E+03  0.12500000000E+03 0.  0.
        -13    1    3    3    0    0 -0.47463800908E+01 -0.25567206746E+02  0.26280825024E+02  0.36971652827E+02  0.10566000000E+00 0. -1.
         23    2    1    0    0    0 -0.12322727634E+02  0.26413291290E+02 -0.31799423450E+00  0.95851883535E+02  0.91312490294E+02 0.  0.
         13    1    3    3    0    0 -0.75763475428E+01  0.51980498037E+02 -0.26598819258E+02  0.58880230708E+02  0.10566000000E+00 0.  1.
         22    1    1    0    0    0  0.12322727634E+02 -0.26413291290E+02  0.31799423450E+00  0.29148116465E+02  0.00000000000E+00 0.  1.
</event>
<event>
 5    1  0.1325832E-009  0.9118800E+02  0.7818608E-02  0.1130116E+00
         25   -1    0    0    0    0  0.00000000000E+00  0.00000000000E+00  0.99999998245E-14  0.12500000000E+03  0.12500000000E+03 0.  0.
        -13    1    3    3    0    0 -0.39731148164E+02 -0.38817028001E+02 -0.53479658221E+01  0.55802667497E+02  0.10566000000E+00 0.  1.
         23    2    1    0    0    0 -0.16630143775E+01 -0.27716564275E+02  0.50062597782E+01  0.96785886705E+02  0.92582242770E+02 0.  0.
         13    1    3    3    0    0  0.38068133786E+02  0.11100463726E+02  0.10354225600E+02  0.40983219209E+02  0.10566000000E+00 0. -1.
         22    1    1    0    0    0  0.16630143775E+01  0.27716564275E+02 -0.50062597782E+01  0.28214113295E+02  0.00000000000E+00 0.  1.
</event>
<event>
 5    1  0.1325832E-009  0.9118800E+02  0.7818608E-02  0.1130116E+00
         25   -1    0    0    0    0  0.00000000000E+00  0.00000000000E+00  0.99999998245E-14  0.12500000000E+03  0.12500000000E+03 0.  0.
        -13    1    3    3    0    0  0.14684205863E+02  0.15009519198E+02  0.57163032199E+02  0.60897742016E+02  0.10566000000E+00 0.  1.
         23    2    1    0    0    0  0.15503339463E+02  0.10886129025E+02  0.23533006171E+02  0.94789675290E+02  0.89846640575E+02 0.  0.
         13    1    3    3    0    0  0.81913359991E+00 -0.41233901730E+01 -0.33630026028E+02  0.33891933274E+02  0.10566000000E+00 0. -1.
         22    1    1    0    0    0 -0.15503339463E+02 -0.10886129025E+02 -0.23533006171E+02  0.30210324710E+02  0.00000000000E+00 0.  1.
</event>
<event>
 5    1  0.1325832E-009  0.9118800E+02  0.7818608E-02  0.1130116E+00
         25   -1    0    0    0    0  0.00000000000E+00  0.00000000000E+00  0.99999998245E-14  0.12500000000E+03  0.12500000000E+03 0.  0.
        -13    1    3    3    0    0  0.21785331000E+02  0.12156295954E+01  0.29455743931E+02  0.36656928631E+02  0.10566000000E+00 0.  1.
         23    2    1    0    0    0 -0.15252013744E+02  0.19979801476E+02 -0.13558297366E+02  0.96440521403E+02  0.92114767278E+02 0.  0.
         13    1    3    3    0    0 -0.37037344744E+02  0.18764171881E+02 -0.43014041297E+02  0.59783592772E+02  0.10566000000E+00 0. -1.
         22    1    1    0    0    0  0.15252013744E+02 -0.19979801476E+02  0.13558297366E+02  0.28559478597E+02  0.00000000000E+00 0. -1.
</event>
<event>
 5    1  0.1325832E-009  0.9118800E+02  0.7818608E-02  0.1130116E+00
         25   -1    0    0    0    0  0.00000000000E+00  0.00000000000E+00  0.99999998245E-14  0.12500000000E+03  0.12500000000E+03 0.  0.
        -13    1    3    3    0    0 -0.20067160149E+01 -0.46694645279E+02 -0.26318707979E+02  0.53638627505E+02  0.10566000000E+00 0. -1.
         23    2    1    0    0    0 -0.99634096987E+01 -0.54412569539E+01 -0.27055899668E+02  0.95658927816E+02  0.91047965128E+02 0.  0.
         13    1    3    3    0    0 -0.79566936838E+01  0.41253388325E+02 -0.73719168925E+00  0.42020300312E+02  0.10566000000E+00 0.  1.
         22    1    1    0    0    0  0.99634096987E+01  0.54412569539E+01  0.27055899668E+02  0.29341072184E+02  0.00000000000E+00 0.  1.
</event>
<event>
 5    1  0.1325832E-009  0.9118800E+02  0.7818608E-02  0.1130116E+00
         25   -1    0    0    0    0  0.00000000000E+00  0.00000000000E+00  0.99999998245E-14  0.12500000000E+03  0.12500000000E+03 0.  0.
        -13    1    3    3    0    0  0.32722569239E+01 -0.31875695770E+02 -0.36413514706E+02  0.48504874636E+02  0.10566000000E+00 0. -1.
         23    2    1    0    0    0 -0.94178335890E+01 -0.27538602237E+02  0.79320385733E+01  0.94834001945E+02  0.89908289308E+02 0.  0.
         13    1    3    3    0    0 -0.12690090513E+02  0.43370935327E+01  0.44345553279E+02  0.46329127309E+02  0.10566000000E+00 0.  1.
         22    1    1    0    0    0  0.94178335890E+01  0.27538602237E+02 -0.79320385733E+01  0.30165998055E+02  0.00000000000E+00 0. -1.
</event>
<event>
 5    1  0.1325832E-009  0.9118800E+02  0.7818608E-02  0.1130116E+00
         25   -1    0    0    0    0  0.00000000000E+00  0.00000000000E+00  0.99999998245E-14  0.12500000000E+03  0.12500000000E+03 0.  0.
        -13    1    3    3    0    0  0.36145651941E+02 -0.23602328530E+02 -0.44266703388E+02  0.61831466578E+02  0.10566000000E+00 0.  1.
         23    2    1    0    0    0  0.20052129056E+02 -0.54529084558E+01 -0.19357853642E+02  0.96600200917E+02  0.92331198569E+02 0.  0.
         13    1    3    3    0    0 -0.16093522885E+02  0.18149420075E+02  0.24908849745E+02  0.34768734339E+02  0.10566000000E+00 0. -1.
         22    1    1    0    0    0 -0.20052129056E+02  0.54529084558E+01  0.19357853642E+02  0.28399799083E+02  0.00000000000E+00 0.  1.
</event>
<event>
 5    1  0.1325832E-009  0.9118800E+02  0.7818608E-02  0.1130116E+00
         25   -1    0    0    0    0  0.00000000000E+00  0.00000000000E+00  0.99999998245E-14  0.12500000000E+03  0.12500000000E+03 0.  0.
        -13    1    3    3    0    0 -0.54000889261E+02 -0.19579189996E+01  0.18671870220E+02  0.57171491054E+02  0.10566000000E+00 0. -1.
         23    2    1    0    0    0 -0.22298115332E+02 -0.18350072919E+02  0.13084028416E+02  0.93296326347E+02  0.87744410572E+02 0.  0.
         13    1    3    3    0    0  0.31702773929E+02 -0.16392153920E+02 -0.55878418034E+01  0.36124835293E+02  0.10566000000E+00 0.  1.
         22    1    1    0    0    0  0.22298115332E+02  0.18350072919E+02 -0.13084028416E+02  0.31703673653E+02  0.00000000000E+00 0. -1.
</event>
<event>
 5    1  0.1325832E-009  0.9118800E+02  0.7818608E-02  0.1130116E+00
         25   -1    0    0    0    0  0.00000000000E+00  0.00000000000E+00  0.99999998245E-14  0.12500000000E+03  0.12500000000E+03 0.  0.
        -13    1    3    3    0    0  0.37859854958E+02 -0.14431964943E+02 -0.42644971165E+01  0.40741223954E+02  0.10566000000E+00 0.  1.
         23    2    1    0    0    0 -0.15902781847E+01 -0.18807802903E+02  0.27546137460E+02  0.91607603804E+02  0.85304753390E+02 0.  0.
         13    1    3    3    0    0 -0.39450133143E+02 -0.43758379607E+01  0.31810634577E+02  0.50866379850E+02  0.10566000000E+00 0. -1.
         22    1    1    0    0    0  0.15902781847E+01  0.18807802903E+02 -0.27546137460E+02  0.33392396196E+02  0.00000000000E+00 0.  1.
</event>
<event>
 5    1  0.1325832E-009  0.9118800E+02  0.7818608E-02  0.1130116E+00
         25   -1    0    0    0    0  0.00000000000E+00  0.00000000000E+00  0.99999998245E-14  0.12500000000E+03  0.12500000000E+03 0.  0.
        -13    1    3    3    0    0  0.18345273157E+02 -0.21277792628E+01 -0.37664404977E+02  0.41948719385E+02  0.10566000000E+00 0.  1.
         23    2    1    0    0    0  0.92744345384E+01 -0.26275649333E+02  0.93783091250E+01  0.95599701262E+02  0.90966616489E+02 0.  0.
         13    1    3    3    0    0 -0.90708386182E+01 -0.24147870070E+02  0.47042714102E+02  0.53650981876E+02  0.10566000000E+00 0. -1.
         22    1    1    0    0    0 -0.92744345384E+01  0.26275649333E+02 -0.93783091250E+01  0.29400298738E+02  0.00000000000E+00 0. -1.
</event>
<event>
 5    1  0.1325832E-009  0.9118800E+02  0.7818608E-02  0.1130116E+00
         25   -1    0    0    0    0  0.00000000000E+00  0.00000000000E+00  0.99999998245E-14  0.12500000000E+03  0.12500000000E+03 0.  0.
        -13    1    3    3    0    0  0.39883450822E+02 -0.72908931448E+01  0.53157825668E+01  0.40891508662E+02  0.10566000000E+00 0.  1.
         23    2    1    0    0    0  0.40923456656E+01  0.22433994375E+02 -0.20704820374E+02  0.94198685363E+02  0.89020623120E+02 0.  0.
         13    1    3    3    0    0 -0.35791105156E+02  0.29724887520E+02 -0.26020602941E+02  0.53307176701E+02  0.10566000000E+00 0. -1.
         22    1    1    0    0    0 -0.40923456656E+01 -0.22433994375E+02  0.20704820374E+02  0.30801314637E+02  0.00000000000E+00 0. -1.
</event>
<event>
 5    1  0.1325832E-009  0.9118800E+02  0.7818608E-02  0.1130116E+00
         25   -1    0    0    0    0  0.00000000000E+00  0.00000000000E+00  0.99999998245E-14  0.12500000000E+03  0.12500000000E+03 0.  0.
        -13    1    3    3    0    0 -0.14716730628E+02 -0.28772135952E+02 -0.45020323651E+02  0.55418937858E+02  0.10566000000E+00 0.  1.
         23    2    1    0    0    0  0.14485385947E+02 -0.14289844850E+02 -0.19501449101E+02  0.96816093441E+02  0.92623017443E+02 0.  0.
         13    1    3    3    0    0  0.29202116575E+02  0.14482291102E+02  0.25518874550E+02  0.41397155583E+02  0.10566000000E+00 0. -1.
         22    1    1    0    0    0 -0.14485385947E+02  0.14289844850E+02  0.19501449101E+02  0.28183906559E+02  0.00000000000E+00 0.  1.
</event>
<event>
 5    1  0.1325832E-009  0.9118800E+02  0.7818608E-02  0.1130116E+00
         25   -1    0    0    0    0  0.00000000000E+00  0.00000000000E+00  0.99999998245E-14  0.12500000000E+03  0.12500000000E+03 0.  0.
        -13    1    3    3    0    0  0.10047453782E+02 -0.20152075837E+02  0.37304428058E+02  0.43573948694E+02  0.10566000000E+00 0.  1.
         23    2    1    0    0    0  0.28696038280E+02 -0.62391917475E+01 -0.80517080491E+01  0.94549710524E+02  0.89512164710E+02 0.  0.
         13    1    3    3    0    0  0.18648584499E+02  0.13912884090E+02 -0.45356136107E+02  0.50975761830E+02  0.10566000000E+00 0. -1.
         22    1    1    0    0    0 -0.28696038280E+02  0.62391917475E+01  0.80517080491E+01  0.30450289476E+02  0.00000000000E+00 0.  1.
</event>
<event>
 5    1  0.1325832E-009  0.9118800E+02  0.7818608E-02  0.1130116E+00
         25   -1    0    0    0    0  0.00000000000E+00  0.00000000000E+00  0.99999998245E-14  0.12500000000E+03  0.12500000000E+03 0.  0.
        -13    1    3    3    0    0  0.36020495676E+02 -0.82276583592E+00  0.49385564566E+01  0.36366929431E+02  0.10566000000E+00 0.  1.
         23    2    1    0    0    0 -0.19663426646E+02  0.60403934904E+01 -0.18654253140E+02  0.97230990993E+02  0.93181262860E+02 0.  0.
         13    1    3    3    0    0 -0.55683922322E+02  0.68631593264E+01 -0.23592809597E+02  0.60864061562E+02  0.10566000000E+00 0. -1.
         22    1    1    0    0    0  0.19663426646E+02 -0.60403934904E+01  0.18654253140E+02  0.27769009007E+02  0.00000000000E+00 0. -1.
</event>
<event>
 5    1  0.1325832E-009  0.9118800E+02  0.7818608E-02  0.1130116E+00
         25   -1    0    0    0    0  0.00000000000E+00  0.00000000000E+00  0.99999998245E-14  0.12500000000E+03  0.12500000000E+03 0.  0.
        -13    1    3    3    0    0 -0.53944952568E+02 -0.53450400880E+01  0.20795041933E+02  0.58060936043E+02  0.10566000000E+00 0. -1.
         23    2    1    0    0    0 -0.26806536947E+02 -0.13756985944E+02 -0.24493183742E+01  0.94770143138E+02  0.89819462170E+02 0.  0.
         13    1    3    3    0    0  0.27138415620E+02 -0.84119458558E+01 -0.23244360307E+02  0.36709207096E+02  0.10566000000E+00 0.  1.
         22    1    1    0    0    0  0.26806536947E+02  0.13756985944E+02  0.24493183742E+01  0.30229856862E+02  0.00000000000E+00 0. -1.
</event>
<event>
 5    1  0.1325832E-009  0.9118800E+02  0.7818608E-02  0.1130116E+00
         25   -1    0    0    0    0  0.00000000000E+00  0.00000000000E+00  0.99999998245E-14  0.12500000000E+03  0.12500000000E+03 0.  0.
        -13    1    3    3    0    0  0.10050283959E+02  0.23309417990E+02 -0.32231257933E+01  0.25587826766E+02  0.10566000000E+00 0. -1.
         23    2    1    0    0    0 -0.13940353507E+02 -0.29336819487E+02 -0.21249546955E+02  0.86186011809E+02  0.76951302472E+02 0.  0.
         13    1    3    3    0    0 -0.23990637467E+02 -0.52646237477E+02 -0.18026421161E+02  0.60598185043E+02  0.10566000000E+00 0.  1.
         22    1    1    0    0    0  0.13940353507E+02  0.29336819487E+02  0.21249546955E+02  0.38813988191E+02  0.00000000000E+00 0.  1.
</event>
<event>
 5    1  0.1325832E-009  0.9118800E+02  0.7818608E-02  0.1130116E+00
         25   -1    0    0    0    0  0.00000000000E+00  0.00000000000E+00  0.99999998245E-14  0.12500000000E+03  0.12500000000E+03 0.  0.
        -13    1    3    3    0    0 -0.16451681669E+02  0.18972050118E+01  0.52880426496E+02  0.55413066032E+02  0.10566000000E+00 0.  1.
         23    2    1    0    0    0  0.65204669428E+01 -0.15061866295E+02  0.23013564315E+02  0.96733404027E+02  0.92511356096E+02 0.  0.
         13    1    3    3    0    0  0.22972148612E+02 -0.16959071307E+02 -0.29866862181E+02  0.41320337995E+02  0.10566000000E+00 0. -1.
         22    1    1    0    0    0 -0.65204669428E+01  0.15061866295E+02 -0.23013564315E+02  0.28266595973E+02  0.00000000000E+00 0.  1.
</event>
<event>
 5    1  0.1325832E-009  0.9118800E+02  0.7818608E-02  0.1130116E+00
         25   -1    0    0    0    0  0.00000000000E+00  0.00000000000E+00  0.99999998245E-14  0.12500000000E+03  0.12500000000E+03 0.  0.
        -13    1    3    3    0    0  0.22844378807E+02  0.12107361562E+01  0.27249745953E+02  0.35579366825E+02  0.10566000000E+00 0. -1.
         23    2    1    0    0    0 -0.34392125150E+01 -0.21710315370E+01 -0.27920836360E+02  0.96784496040E+02  0.92580365143E+02 0.  0.
         13    1    3    3    0    0 -0.26283591322E+02 -0.33817676932E+01 -0.55170582313E+02  0.61205129216E+02  0.10566000000E+00 0.  1.
         22    1    1    0    0    0  0.34392125150E+01  0.21710315370E+01  0.27920836360E+02  0.28215503960E+02  0.00000000000E+00 0.  1.
</event>
<event>
 5    1  0.1325832E-009  0.9118800E+02  0.7818608E-02  0.1130116E+00
         25   -1    0    0    0    0  0.00000000000E+00  0.00000000000E+00  0.99999998245E-14  0.12500000000E+03  0.12500000000E+03 0.  0.
        -13    1    3    3    0    0 -0.85248079699E+01 -0.15039919107E+01  0.38887145316E+02  0.39839121194E+02  0.10566000000E+00 0.  1.
         23    2    1    0    0    0 -0.85226684980E+01 -0.24313343220E+02 -0.12723620744E+02  0.96265611862E+02  0.91877107951E+02 0.  0.
         13    1    3    3    0    0  0.21394718312E-02 -0.22809351309E+02 -0.51610766060E+02  0.56426490668E+02  0.10566000000E+00 0. -1.
         22    1    1    0    0    0  0.85226684980E+01  0.24313343220E+02  0.12723620744E+02  0.28734388138E+02  0.00000000000E+00 0. -1.
</event>
<event>
 5    1  0.1325832E-009  0.9118800E+02  0.7818608E-02  0.1130116E+00
         25   -1    0    0    0    0  0.00000000000E+00  0.00000000000E+00  0.99999998245E-14  0.12500000000E+03  0.12500000000E+03 0.  0.
        -13    1    3    3    0    0  0.12763083185E+02 -0.42099100275E+02  0.21638433799E+01  0.44044567412E+02  0.10566000000E+00 0. -1.
         23    2    1    0    0    0  0.14368159184E+02  0.16619216383E+02 -0.20474246530E+01  0.10293567814E+03  0.10054312276E+03 0.  0.
         13    1    3    3    0    0  0.16050759992E+01  0.58718316657E+02 -0.42112680328E+01  0.58891110726E+02  0.10566000000E+00 0.  1.
         22    1    1    0    0    0 -0.14368159184E+02 -0.16619216383E+02  0.20474246530E+01  0.22064321862E+02  0.00000000000E+00 0.  1.
</event>
<event>
 5    1  0.1325832E-009  0.9118800E+02  0.7818608E-02  0.1130116E+00
         25   -1    0    0    0    0  0.00000000000E+00  0.00000000000E+00  0.99999998245E-14  0.12500000000E+03  0.12500000000E+03 0.  0.
        -13    1    3    3    0    0  0.15317024118E+02  0.35767676702E+01  0.36859959834E+02  0.40075831842E+02  0.10566000000E+00 0.  1.
         23    2    1    0    0    0 -0.45044617212E+01 -0.24930803955E+02 -0.94532435835E+01  0.97959308894E+02  0.94153211435E+02 0.  0.
         13    1    3    3    0    0 -0.19821485839E+02 -0.28507571625E+02 -0.46313203418E+02  0.57883477052E+02  0.10566000000E+00 0. -1.
         22    1    1    0    0    0  0.45044617212E+01  0.24930803955E+02  0.94532435835E+01  0.27040691106E+02  0.00000000000E+00 0. -1.
</event>
<event>
 5    1  0.1325832E-009  0.9118800E+02  0.7818608E-02  0.1130116E+00
         25   -1    0    0    0    0  0.00000000000E+00  0.00000000000E+00  0.99999998245E-14  0.12500000000E+03  0.12500000000E+03 0.  0.
        -13    1    3    3    0    0  0.21369789102E+02 -0.32709698731E+02  0.29930853852E+01  0.39186247607E+02  0.10566000000E+00 0.  1.
         23    2    1    0    0    0  0.16347745398E+02  0.22372724112E+02  0.11219742165E+02  0.95105683182E+02  0.90285219141E+02 0.  0.
         13    1    3    3    0    0 -0.50220437047E+01  0.55082422843E+02  0.82266567802E+01  0.55919435575E+02  0.10566000000E+00 0. -1.
         22    1    1    0    0    0 -0.16347745398E+02 -0.22372724112E+02 -0.11219742165E+02  0.29894316818E+02  0.00000000000E+00 0. -1.
</event>
<event>
 5    1  0.1325832E-009  0.9118800E+02  0.7818608E-02  0.1130116E+00
         25   -1    0    0    0    0  0.00000000000E+00  0.00000000000E+00  0.99999998245E-14  0.12500000000E+03  0.12500000000E+03 0.  0.
        -13    1    3    3    0    0  0.30550268404E+01 -0.59036137669E+02  0.11416441785E+02  0.60207516532E+02  0.10566000000E+00 0.  1.
         23    2    1    0    0    0 -0.80663534036E+01 -0.26814184126E+02  0.12552821890E+02  0.94313848971E+02  0.89182185681E+02 0.  0.
         13    1    3    3    0    0 -0.11121380244E+02  0.32221953543E+02  0.11363801054E+01  0.34106332439E+02  0.10566000000E+00 0. -1.
         22    1    1    0    0    0  0.80663534036E+01  0.26814184126E+02 -0.12552821890E+02  0.30686151029E+02  0.00000000000E+00 0.  1.
</event>
<event>
 5    1  0.1325832E-009  0.9118800E+02  0.7818608E-02  0.1130116E+00
         25   -1    0    0    0    0  0.00000000000E+00  0.00000000000E+00  0.99999998245E-14  0.12500000000E+03  0.12500000000E+03 0.  0.
        -13    1    3    3    0    0 -0.38566037165E+02 -0.13482408052E+02  0.15168140715E+02  0.43579791261E+02  0.10566000000E+00 0. -1.
         23    2    1    0    0    0  0.87008835243E+01 -0.28816764769E+02  0.85275043527E+01  0.93713746847E+02  0.88337063070E+02 0.  0.
         13    1    3    3    0    0  0.47266920690E+02 -0.15334356717E+02 -0.66406363627E+01  0.50133955586E+02  0.10566000000E+00 0.  1.
         22    1    1    0    0    0 -0.87008835243E+01  0.28816764769E+02 -0.85275043527E+01  0.31286253153E+02  0.00000000000E+00 0.  1.
</event>
<event>
 5    1  0.1325832E-009  0.9118800E+02  0.7818608E-02  0.1130116E+00
         25   -1    0    0    0    0  0.00000000000E+00  0.00000000000E+00  0.99999998245E-14  0.12500000000E+03  0.12500000000E+03 0.  0.
        -13    1    3    3    0    0 -0.38101991241E+02  0.38030372855E+02  0.22114419593E+02  0.58199052518E+02  0.10566000000E+00 0. -1.
         23    2    1    0    0    0 -0.75132894344E+01  0.17719991421E+02  0.23103074881E+02  0.94930086748E+02  0.90041777453E+02 0.  0.
         13    1    3    3    0    0  0.30588701807E+02 -0.20310381435E+02  0.98865528718E+00  0.36731034229E+02  0.10566000000E+00 0.  1.
         22    1    1    0    0    0  0.75132894344E+01 -0.17719991421E+02 -0.23103074881E+02  0.30069913252E+02  0.00000000000E+00 0. -1.
</event>
<event>
 5    1  0.1325832E-009  0.9118800E+02  0.7818608E-02  0.1130116E+00
         25   -1    0    0    0    0  0.00000000000E+00  0.00000000000E+00  0.99999998245E-14  0.12500000000E+03  0.12500000000E+03 0.  0.
        -13    1    3    3    0    0 -0.13836762930E+01 -0.26233994255E+02 -0.29779073041E+02  0.39710721095E+02  0.10566000000E+00 0.  1.
         23    2    1    0    0    0  0.35353580194E+01 -0.14997044654E+02  0.24883219045E+02  0.95732531802E+02  0.91148960228E+02 0.  0.
         13    1    3    3    0    0  0.49190343124E+01  0.11236949601E+02  0.54662292085E+02  0.56021810708E+02  0.10566000000E+00 0. -1.
         22    1    1    0    0    0 -0.35353580194E+01  0.14997044654E+02 -0.24883219045E+02  0.29267468198E+02  0.00000000000E+00 0. -1.
</event>
<event>
 5    1  0.1325832E-009  0.9118800E+02  0.7818608E-02  0.1130116E+00
         25   -1    0    0    0    0  0.00000000000E+00  0.00000000000E+00  0.99999998245E-14  0.12500000000E+03  0.12500000000E+03 0.  0.
        -13    1    3    3    0    0  0.46065085158E+01 -0.29294941939E+02 -0.27392052929E+02  0.40370153227E+02  0.10566000000E+00 0.  1.
         23    2    1    0    0    0  0.18458625273E+02  0.81842986732E+01  0.15911817201E+02  0.99292228444E+02  0.95906501922E+02 0.  0.
         13    1    3    3    0    0  0.13852116757E+02  0.37479240612E+02  0.43303870131E+02  0.58922075216E+02  0.10566000000E+00 0. -1.
         22    1    1    0    0    0 -0.18458625273E+02 -0.81842986732E+01 -0.15911817201E+02  0.25707771556E+02  0.00000000000E+00 0. -1.
</event>
<event>
 5    1  0.1325832E-009  0.9118800E+02  0.7818608E-02  0.1130116E+00
         25   -1    0    0    0    0  0.00000000000E+00  0.00000000000E+00  0.99999998245E-14  0.12500000000E+03  0.12500000000E+03 0.  0.
        -13    1    3    3    0    0  0.30430993037E+02  0.81780614517E+01  0.18252567206E+02  0.36415565353E+02  0.10566000000E+00 0.  1.
         23    2    1    0    0    0 -0.79071543774E+01  0.23710968465E+00 -0.27355510812E+02  0.96523636413E+02  0.92227485618E+02 0.  0.
         13    1    3    3    0    0 -0.38338147415E+02 -0.79409517671E+01 -0.45608078017E+02  0.60108071061E+02  0.10566000000E+00 0. -1.
         22    1    1    0    0    0  0.79071543774E+01 -0.23710968465E+00  0.27355510812E+02  0.28476363587E+02  0.00000000000E+00 0. -1.
</event>
<event>
 5    1  0.1325832E-009  0.9118800E+02  0.7818608E-02  0.1130116E+00
         25   -1    0    0    0    0  0.00000000000E+00  0.00000000000E+00  0.99999998245E-14  0.12500000000E+03  0.12500000000E+03 0.  0.
        -13    1    3    3    0    0 -0.24196218172E+02  0.45533134884E+02  0.23116470342E+02  0.56507572159E+02  0.10566000000E+00 0.  1.
         23    2    1    0    0    0  0.77400690685E+01  0.25503959171E+02  0.74952477954E+01  0.97313553098E+02  0.93291951820E+02 0.  0.
         13    1    3    3    0    0  0.31936287240E+02 -0.20029175714E+02 -0.15621222547E+02  0.40805980938E+02  0.10566000000E+00 0. -1.
         22    1    1    0    0    0 -0.77400690685E+01 -0.25503959171E+02 -0.74952477954E+01  0.27686446902E+02  0.00000000000E+00 0.  1.
</event>
<event>
 5    1  0.1325832E-009  0.9118800E+02  0.7818608E-02  0.1130116E+00
         25   -1    0    0    0    0  0.00000000000E+00  0.00000000000E+00  0.99999998245E-14  0.12500000000E+03  0.12500000000E+03 0.  0.
        -13    1    3    3    0    0  0.60360317276E+02 -0.55887967045E+01 -0.11199067937E+02  0.61644406372E+02  0.10566000000E+00 0.  1.
         23    2    1    0    0    0  0.36242833385E+02  0.13191692322E+01 -0.10185883462E+01  0.88718865764E+02  0.80961203308E+02 0.  0.
         13    1    3    3    0    0 -0.24117483891E+02  0.69079659367E+01  0.10180479590E+02  0.27074459392E+02  0.10566000000E+00 0. -1.
         22    1    1    0    0    0 -0.36242833385E+02 -0.13191692322E+01  0.10185883462E+01  0.36281134236E+02  0.00000000000E+00 0.  1.
</event>
<event>
 5    1  0.1325832E-009  0.9118800E+02  0.7818608E-02  0.1130116E+00
         25   -1    0    0    0    0  0.00000000000E+00  0.00000000000E+00  0.99999998245E-14  0.12500000000E+03  0.12500000000E+03 0.  0.
        -13    1    3    3    0    0  0.21286149769E+02  0.10039111367E+02  0.17165856747E+02  0.29130082920E+02  0.10566000000E+00 0.  1.
         23    2    1    0    0    0 -0.28723123192E+02 -0.12802595291E+01 -0.17793024819E+02  0.91188040540E+02  0.84687721276E+02 0.  0.
         13    1    3    3    0    0 -0.50009272961E+02 -0.11319370896E+02 -0.34958881565E+02  0.62057957620E+02  0.10566000000E+00 0. -1.
         22    1    1    0    0    0  0.28723123192E+02  0.12802595291E+01  0.17793024819E+02  0.33811959460E+02  0.00000000000E+00 0. -1.
</event>
<event>
 5    1  0.1325832E-009  0.9118800E+02  0.7818608E-02  0.1130116E+00
         25   -1    0    0    0    0  0.00000000000E+00  0.00000000000E+00  0.99999998245E-14  0.12500000000E+03  0.12500000000E+03 0.  0.
        -13    1    3    3    0    0  0.52856358578E+02 -0.18414673210E+02 -0.12245802496E+02  0.57296297214E+02  0.10566000000E+00 0. -1.
         23    2    1    0    0    0  0.22406337241E+02 -0.11981813584E+02 -0.23499022965E+02  0.90390580970E+02  0.83502366688E+02 0.  0.
         13    1    3    3    0    0 -0.30450021337E+02  0.64328596262E+01 -0.11253220468E+02  0.33094283756E+02  0.10566000000E+00 0.  1.
         22    1    1    0    0    0 -0.22406337241E+02  0.11981813584E+02  0.23499022965E+02  0.34609419030E+02  0.00000000000E+00 0. -1.
</event>
<event>
 5    1  0.1325832E-009  0.9118800E+02  0.7818608E-02  0.1130116E+00
         25   -1    0    0    0    0  0.00000000000E+00  0.00000000000E+00  0.99999998245E-14  0.12500000000E+03  0.12500000000E+03 0.  0.
        -13    1    3    3    0    0  0.50774120617E+02  0.27184553772E+02 -0.87356071369E+01  0.58252324283E+02  0.10566000000E+00 0. -1.
         23    2    1    0    0    0  0.32220009283E+02  0.16183490775E+01  0.43549357516E+01  0.92446758728E+02  0.86525659095E+02 0.  0.
         13    1    3    3    0    0 -0.18554111334E+02 -0.25566204694E+02  0.13090542889E+02  0.34194434445E+02  0.10566000000E+00 0.  1.
         22    1    1    0    0    0 -0.32220009283E+02 -0.16183490775E+01 -0.43549357516E+01  0.32553241272E+02  0.00000000000E+00 0. -1.
</event>
<event>
 5    1  0.1325832E-009  0.9118800E+02  0.7818608E-02  0.1130116E+00
         25   -1    0    0    0    0  0.00000000000E+00  0.00000000000E+00  0.99999998245E-14  0.12500000000E+03  0.12500000000E+03 0.  0.
        -13    1    3    3    0    0  0.32297836690E+02 -0.12808310457E+02 -0.56667651215E+01  0.35204068836E+02  0.10566000000E+00 0.  1.
         23    2    1    0    0    0 -0.14935390122E+02  0.11375326870E+02  0.22834736204E+02  0.95438384398E+02  0.90744675324E+02 0.  0.
         13    1    3    3    0    0 -0.47233226812E+02  0.24183637327E+02  0.28501501325E+02  0.60234315562E+02  0.10566000000E+00 0. -1.
         22    1    1    0    0    0  0.14935390122E+02 -0.11375326870E+02 -0.22834736204E+02  0.29561615602E+02  0.00000000000E+00 0. -1.
</event>
<event>
 5    1  0.1325832E-009  0.9118800E+02  0.7818608E-02  0.1130116E+00
         25   -1    0    0    0    0  0.00000000000E+00  0.00000000000E+00  0.99999998245E-14  0.12500000000E+03  0.12500000000E+03 0.  0.
        -13    1    3    3    0    0  0.40461736472E+02  0.24368404717E+02  0.14191088690E+02  0.49319057463E+02  0.10566000000E+00 0. -1.
         23    2    1    0    0    0  0.18932474995E+02  0.53222072062E+01 -0.21970263951E+02  0.95513443791E+02  0.90848010147E+02 0.  0.
         13    1    3    3    0    0 -0.21529261477E+02 -0.19046197511E+02 -0.36161352641E+02  0.46194386328E+02  0.10566000000E+00 0.  1.
         22    1    1    0    0    0 -0.18932474995E+02 -0.53222072062E+01  0.21970263951E+02  0.29486556209E+02  0.00000000000E+00 0.  1.
</event>
<event>
 5    1  0.1325832E-009  0.9118800E+02  0.7818608E-02  0.1130116E+00
         25   -1    0    0    0    0  0.00000000000E+00  0.00000000000E+00  0.99999998245E-14  0.12500000000E+03  0.12500000000E+03 0.  0.
        -13    1    3    3    0    0 -0.22943545515E+02  0.41544959634E+02 -0.16423044157E+02  0.50220687920E+02  0.10566000000E+00 0. -1.
         23    2    1    0    0    0  0.94940173694E+01  0.27811647857E+02  0.96755423407E+01  0.94060700688E+02  0.88826658003E+02 0.  0.
         13    1    3    3    0    0  0.32437562884E+02 -0.13733311777E+02  0.26098586498E+02  0.43840012767E+02  0.10566000000E+00 0.  1.
         22    1    1    0    0    0 -0.94940173694E+01 -0.27811647857E+02 -0.96755423407E+01  0.30939299312E+02  0.00000000000E+00 0. -1.
</event>
<event>
 5    1  0.1325832E-009  0.9118800E+02  0.7818608E-02  0.1130116E+00
         25   -1    0    0    0    0  0.00000000000E+00  0.00000000000E+00  0.99999998245E-14  0.12500000000E+03  0.12500000000E+03 0.  0.
        -13    1    3    3    0    0 -0.66155293565E+01 -0.47547724927E+02  0.14061849965E+02  0.50022976349E+02  0.10566000000E+00 0. -1.
         23    2    1    0    0    0 -0.11331672248E+02 -0.53337471938E+01  0.27671058811E+02  0.94626604556E+02  0.89619479686E+02 0.  0.
         13    1    3    3    0    0 -0.47161428918E+01  0.42213977733E+02  0.13609208845E+02  0.44603628207E+02  0.10566000000E+00 0.  1.
         22    1    1    0    0    0  0.11331672248E+02  0.53337471938E+01 -0.27671058811E+02  0.30373395444E+02  0.00000000000E+00 0. -1.
</event>
<event>
 5    1  0.1325832E-009  0.9118800E+02  0.7818608E-02  0.1130116E+00
         25   -1    0    0    0    0  0.00000000000E+00  0.00000000000E+00  0.99999998245E-14  0.12500000000E+03  0.12500000000E+03 0.  0.
        -13    1    3    3    0    0  0.21007763360E+02  0.25760478477E+02 -0.52208257057E+02  0.61892177548E+02  0.10566000000E+00 0. -1.
         23    2    1    0    0    0  0.38361537510E+01  0.12748318672E+02 -0.25741979766E+02  0.96019226600E+02  0.91541283857E+02 0.  0.
         13    1    3    3    0    0 -0.17171609609E+02 -0.13012159804E+02  0.26466277291E+02  0.34127049052E+02  0.10566000000E+00 0.  1.
         22    1    1    0    0    0 -0.38361537510E+01 -0.12748318672E+02  0.25741979766E+02  0.28980773400E+02  0.00000000000E+00 0. -1.
</event>
<event>
 5    1  0.1325832E-009  0.9118800E+02  0.7818608E-02  0.1130116E+00
         25   -1    0    0    0    0  0.00000000000E+00  0.00000000000E+00  0.99999998245E-14  0.12500000000E+03  0.12500000000E+03 0.  0.
        -13    1    3    3    0    0 -0.15757094972E+02  0.40165823430E+02 -0.19000847629E+02  0.47144700534E+02  0.10566000000E+00 0.  1.
         23    2    1    0    0    0  0.13756409442E+02  0.23427392450E+02  0.13966102772E+02  0.94452765356E+02  0.89376682301E+02 0.  0.
         13    1    3    3    0    0  0.29513504414E+02 -0.16738430980E+02  0.32966950401E+02  0.47308064822E+02  0.10566000000E+00 0. -1.
         22    1    1    0    0    0 -0.13756409442E+02 -0.23427392450E+02 -0.13966102772E+02  0.30547234644E+02  0.00000000000E+00 0. -1.
</event>
<event>
 5    1  0.1325832E-009  0.9118800E+02  0.7818608E-02  0.1130116E+00
         25   -1    0    0    0    0  0.00000000000E+00  0.00000000000E+00  0.99999998245E-14  0.12500000000E+03  0.12500000000E+03 0.  0.
        -13    1    3    3    0    0 -0.93560157876E+01 -0.47529992923E+02 -0.27036401894E+02  0.55476242213E+02  0.10566000000E+00 0. -1.
         23    2    1    0    0    0 -0.22973200715E+02 -0.18203503584E+02 -0.34756286040E+01  0.95483640333E+02  0.90806993581E+02 0.  0.
         13    1    3    3    0    0 -0.13617184927E+02  0.29326489339E+02  0.23560773290E+02  0.40007398120E+02  0.10566000000E+00 0.  1.
         22    1    1    0    0    0  0.22973200715E+02  0.18203503584E+02  0.34756286040E+01  0.29516359667E+02  0.00000000000E+00 0. -1.
</event>
<event>
 5    1  0.1325832E-009  0.9118800E+02  0.7818608E-02  0.1130116E+00
         25   -1    0    0    0    0  0.00000000000E+00  0.00000000000E+00  0.99999998245E-14  0.12500000000E+03  0.12500000000E+03 0.  0.
        -13    1    3    3    0    0  0.29682788514E+02 -0.12919875023E+02 -0.25935239310E+02  0.41480584695E+02  0.10566000000E+00 0. -1.
         23    2    1    0    0    0 -0.22263395316E+02 -0.13708853584E+02 -0.17234820017E+01  0.98797675145E+02  0.95259743786E+02 0.  0.
         13    1    3    3    0    0 -0.51946183830E+02 -0.78897856121E+00  0.24211757308E+02  0.57317090450E+02  0.10566000000E+00 0.  1.
         22    1    1    0    0    0  0.22263395316E+02  0.13708853584E+02  0.17234820017E+01  0.26202324855E+02  0.00000000000E+00 0.  1.
</event>
<event>
 5    1  0.1325832E-009  0.9118800E+02  0.7818608E-02  0.1130116E+00
         25   -1    0    0    0    0  0.00000000000E+00  0.00000000000E+00  0.99999998245E-14  0.12500000000E+03  0.12500000000E+03 0.  0.
        -13    1    3    3    0    0 -0.21966211084E+02  0.30511433970E+02  0.36687922273E+02  0.52530722792E+02  0.10566000000E+00 0.  1.
         23    2    1    0    0    0 -0.27493072687E+02  0.26382739365E+01  0.20907874799E+01  0.97301607855E+02  0.93275945258E+02 0.  0.
         13    1    3    3    0    0 -0.55268616021E+01 -0.27873160034E+02 -0.34597134793E+02  0.44770885063E+02  0.10566000000E+00 0. -1.
         22    1    1    0    0    0  0.27493072687E+02 -0.26382739365E+01 -0.20907874799E+01  0.27698392145E+02  0.00000000000E+00 0. -1.
</event>
<event>
 5    1  0.1325832E-009  0.9118800E+02  0.7818608E-02  0.1130116E+00
         25   -1    0    0    0    0  0.00000000000E+00  0.00000000000E+00  0.99999998245E-14  0.12500000000E+03  0.12500000000E+03 0.  0.
        -13    1    3    3    0    0 -0.27395649008E+02  0.41483173332E+02 -0.31815337758E+02  0.59022047872E+02  0.10566000000E+00 0. -1.
         23    2    1    0    0    0 -0.43914887817E+00  0.21668094351E+02 -0.22520221570E+02  0.93745247656E+02  0.88381626563E+02 0.  0.
         13    1    3    3    0    0  0.26956500130E+02 -0.19815078982E+02  0.92951161880E+01  0.34723199784E+02  0.10566000000E+00 0.  1.
         22    1    1    0    0    0  0.43914887817E+00 -0.21668094351E+02  0.22520221570E+02  0.31254752344E+02  0.00000000000E+00 0. -1.
</event>
<event>
 5    1  0.1325832E-009  0.9118800E+02  0.7818608E-02  0.1130116E+00
         25   -1    0    0    0    0  0.00000000000E+00  0.00000000000E+00  0.99999998245E-14  0.12500000000E+03  0.12500000000E+03 0.  0.
        -13    1    3    3    0    0 -0.13146122152E+02  0.29269642072E+02  0.38860751677E+02  0.50395452767E+02  0.10566000000E+00 0. -1.
         23    2    1    0    0    0 -0.24106284933E+02 -0.70297158194E+01  0.20793324046E+02  0.92397972415E+02  0.86455150822E+02 0.  0.
         13    1    3    3    0    0 -0.10960162781E+02 -0.36299357891E+02 -0.18067427631E+02  0.42002519648E+02  0.10566000000E+00 0.  1.
         22    1    1    0    0    0  0.24106284933E+02  0.70297158194E+01 -0.20793324046E+02  0.32602027585E+02  0.00000000000E+00 0. -1.
</event>
<event>
 5    1  0.1325832E-009  0.9118800E+02  0.7818608E-02  0.1130116E+00
         25   -1    0    0    0    0  0.00000000000E+00  0.00000000000E+00  0.99999998245E-14  0.12500000000E+03  0.12500000000E+03 0.  0.
        -13    1    3    3    0    0  0.97979975720E+01 -0.30427451767E+02 -0.41271065929E+02  0.52202898621E+02  0.10566000000E+00 0. -1.
         23    2    1    0    0    0 -0.93816867737E+01 -0.28021721418E+02 -0.27252813400E+01  0.95324082553E+02  0.90587088695E+02 0.  0.
         13    1    3    3    0    0 -0.19179684346E+02  0.24057303496E+01  0.38545784589E+02  0.43121183932E+02  0.10566000000E+00 0.  1.
         22    1    1    0    0    0  0.93816867737E+01  0.28021721418E+02  0.27252813400E+01  0.29675917447E+02  0.00000000000E+00 0. -1.
</event>
<event>
 5    1  0.1325832E-009  0.9118800E+02  0.7818608E-02  0.1130116E+00
         25   -1    0    0    0    0  0.00000000000E+00  0.00000000000E+00  0.99999998245E-14  0.12500000000E+03  0.12500000000E+03 0.  0.
        -13    1    3    3    0    0 -0.30207772949E+02  0.21501069560E+02 -0.50166759411E+02  0.62382052328E+02  0.10566000000E+00 0. -1.
         23    2    1    0    0    0 -0.12468453409E+02  0.69088370897E+01 -0.22794703489E+02  0.98115192627E+02  0.94359939364E+02 0.  0.
         13    1    3    3    0    0  0.17739319540E+02 -0.14592232471E+02  0.27372055922E+02  0.35733140300E+02  0.10566000000E+00 0.  1.
         22    1    1    0    0    0  0.12468453409E+02 -0.69088370897E+01  0.22794703489E+02  0.26884807373E+02  0.00000000000E+00 0. -1.
</event>
<event>
 5    1  0.1325832E-009  0.9118800E+02  0.7818608E-02  0.1130116E+00
         25   -1    0    0    0    0  0.00000000000E+00  0.00000000000E+00  0.99999998245E-14  0.12500000000E+03  0.12500000000E+03 0.  0.
        -13    1    3    3    0    0 -0.28650240682E+02 -0.36222384314E+01  0.34938804519E+02  0.45328667834E+02  0.10566000000E+00 0. -1.
         23    2    1    0    0    0 -0.27766120570E+02 -0.10586275379E+02 -0.12119497374E+02  0.92907806331E+02  0.87189171247E+02 0.  0.
         13    1    3    3    0    0  0.88412011181E+00 -0.69640369476E+01 -0.47058301893E+02  0.47579138497E+02  0.10566000000E+00 0.  1.
         22    1    1    0    0    0  0.27766120570E+02  0.10586275379E+02  0.12119497374E+02  0.32092193669E+02  0.00000000000E+00 0.  1.
</event>
<event>
 5    1  0.1325832E-009  0.9118800E+02  0.7818608E-02  0.1130116E+00
         25   -1    0    0    0    0  0.00000000000E+00  0.00000000000E+00  0.99999998245E-14  0.12500000000E+03  0.12500000000E+03 0.  0.
        -13    1    3    3    0    0  0.36162985737E+02 -0.35460007864E+02  0.97801707570E+01  0.51583297677E+02  0.10566000000E+00 0.  1.
         23    2    1    0    0    0  0.33239160414E+01 -0.39450793198E+02  0.71544064228E+01  0.84768183821E+02  0.74612639380E+02 0.  0.
         13    1    3    3    0    0 -0.32839069696E+02 -0.39907853340E+01 -0.26257643342E+01  0.33184886145E+02  0.10566000000E+00 0. -1.
         22    1    1    0    0    0 -0.33239160414E+01  0.39450793198E+02 -0.71544064228E+01  0.40231816179E+02  0.00000000000E+00 0.  1.
</event>
<event>
 5    1  0.1325832E-009  0.9118800E+02  0.7818608E-02  0.1130116E+00
         25   -1    0    0    0    0  0.00000000000E+00  0.00000000000E+00  0.99999998245E-14  0.12500000000E+03  0.12500000000E+03 0.  0.
        -13    1    3    3    0    0  0.26968587087E+02  0.16862714934E+02  0.41096037691E+02  0.51966829058E+02  0.10566000000E+00 0.  1.
         23    2    1    0    0    0 -0.43413137381E+00  0.28323374405E+02  0.10024414302E+02  0.94951857132E+02  0.90071994999E+02 0.  0.
         13    1    3    3    0    0 -0.27402718461E+02  0.11460659471E+02 -0.31071623389E+02  0.42985028075E+02  0.10566000000E+00 0. -1.
         22    1    1    0    0    0  0.43413137381E+00 -0.28323374405E+02 -0.10024414302E+02  0.30048142868E+02  0.00000000000E+00 0.  1.
</event>
<event>
 5    1  0.1325832E-009  0.9118800E+02  0.7818608E-02  0.1130116E+00
         25   -1    0    0    0    0  0.00000000000E+00  0.00000000000E+00  0.99999998245E-14  0.12500000000E+03  0.12500000000E+03 0.  0.
        -13    1    3    3    0    0  0.54196172357E+02 -0.19116586074E+02  0.12293076394E+02  0.58769038213E+02  0.10566000000E+00 0.  1.
         23    2    1    0    0    0  0.27981077002E+02 -0.42516069587E+00 -0.68003881050E+01  0.96201272421E+02  0.91789531566E+02 0.  0.
         13    1    3    3    0    0 -0.26215095355E+02  0.18691425378E+02 -0.19093464499E+02  0.37432234207E+02  0.10566000000E+00 0. -1.
         22    1    1    0    0    0 -0.27981077002E+02  0.42516069587E+00  0.68003881050E+01  0.28798727579E+02  0.00000000000E+00 0.  1.
</event>
<event>
 5    1  0.1325832E-009  0.9118800E+02  0.7818608E-02  0.1130116E+00
         25   -1    0    0    0    0  0.00000000000E+00  0.00000000000E+00  0.99999998245E-14  0.12500000000E+03  0.12500000000E+03 0.  0.
        -13    1    3    3    0    0  0.19936761156E+02 -0.46385469127E+02  0.35140925555E+02  0.61514079725E+02  0.10566000000E+00 0. -1.
         23    2    1    0    0    0  0.54758414771E+01 -0.24855106200E+02  0.99416651386E+01  0.97676057205E+02  0.93776405889E+02 0.  0.
         13    1    3    3    0    0 -0.14460919679E+02  0.21530362927E+02 -0.25199260416E+02  0.36161977480E+02  0.10566000000E+00 0.  1.
         22    1    1    0    0    0 -0.54758414771E+01  0.24855106200E+02 -0.99416651386E+01  0.27323942795E+02  0.00000000000E+00 0. -1.
</event>
<event>
 5    1  0.1325832E-009  0.9118800E+02  0.7818608E-02  0.1130116E+00
         25   -1    0    0    0    0  0.00000000000E+00  0.00000000000E+00  0.99999998245E-14  0.12500000000E+03  0.12500000000E+03 0.  0.
        -13    1    3    3    0    0  0.17372425260E+02 -0.11511497356E+02  0.39178891941E+02  0.44376936223E+02  0.10566000000E+00 0. -1.
         23    2    1    0    0    0 -0.24566723180E+02 -0.12198139453E+02  0.87043970076E+01  0.96223533553E+02  0.91819842018E+02 0.  0.
         13    1    3    3    0    0 -0.41939148440E+02 -0.68664209734E+00 -0.30474494933E+02  0.51846597330E+02  0.10566000000E+00 0.  1.
         22    1    1    0    0    0  0.24566723180E+02  0.12198139453E+02 -0.87043970076E+01  0.28776466447E+02  0.00000000000E+00 0.  1.
</event>
<event>
 5    1  0.1325832E-009  0.9118800E+02  0.7818608E-02  0.1130116E+00
         25   -1    0    0    0    0  0.00000000000E+00  0.00000000000E+00  0.99999998245E-14  0.12500000000E+03  0.12500000000E+03 0.  0.
        -13    1    3    3    0    0  0.27538959188E+02 -0.19671307531E+02 -0.14853541440E+02  0.36959348892E+02  0.10566000000E+00 0.  1.
         23    2    1    0    0    0 -0.18949392148E+01  0.29377027150E+02 -0.74074680533E+01  0.94644257516E+02  0.89644098406E+02 0.  0.
         13    1    3    3    0    0 -0.29433898403E+02  0.49048334681E+02  0.74460733866E+01  0.57684908625E+02  0.10566000000E+00 0. -1.
         22    1    1    0    0    0  0.18949392148E+01 -0.29377027150E+02  0.74074680533E+01  0.30355742484E+02  0.00000000000E+00 0. -1.
</event>
<event>
 5    1  0.1325832E-009  0.9118800E+02  0.7818608E-02  0.1130116E+00
         25   -1    0    0    0    0  0.00000000000E+00  0.00000000000E+00  0.99999998245E-14  0.12500000000E+03  0.12500000000E+03 0.  0.
        -13    1    3    3    0    0  0.42086030336E+02 -0.11079397808E+02 -0.29711828773E+02  0.52695264857E+02  0.10566000000E+00 0.  1.
         23    2    1    0    0    0  0.12921239715E+01 -0.21912619236E+02 -0.18307644322E+02  0.96416747792E+02  0.92082500770E+02 0.  0.
         13    1    3    3    0    0 -0.40793906365E+02 -0.10833221429E+02  0.11404184452E+02  0.43721482935E+02  0.10566000000E+00 0. -1.
         22    1    1    0    0    0 -0.12921239715E+01  0.21912619236E+02  0.18307644322E+02  0.28583252208E+02  0.00000000000E+00 0. -1.
</event>
<event>
 5    1  0.1325832E-009  0.9118800E+02  0.7818608E-02  0.1130116E+00
         25   -1    0    0    0    0  0.00000000000E+00  0.00000000000E+00  0.99999998245E-14  0.12500000000E+03  0.12500000000E+03 0.  0.
        -13    1    3    3    0    0  0.28819985856E+02 -0.27074256221E+02  0.14194426337E+02  0.42013091266E+02  0.10566000000E+00 0.  1.
         23    2    1    0    0    0  0.64094835201E+00 -0.78283656118E+01 -0.27792842101E+02  0.96118583916E+02  0.91676856289E+02 0.  0.
         13    1    3    3    0    0 -0.28179037504E+02  0.19245890609E+02 -0.41987268438E+02  0.54105492650E+02  0.10566000000E+00 0. -1.
         22    1    1    0    0    0 -0.64094835201E+00  0.78283656118E+01  0.27792842101E+02  0.28881416084E+02  0.00000000000E+00 0. -1.
</event>
<event>
 5    1  0.1325832E-009  0.9118800E+02  0.7818608E-02  0.1130116E+00
         25   -1    0    0    0    0  0.00000000000E+00  0.00000000000E+00  0.99999998245E-14  0.12500000000E+03  0.12500000000E+03 0.  0.
        -13    1    3    3    0    0  0.65301717185E+00  0.22221449079E+02  0.38118487233E+02  0.44127649649E+02  0.10566000000E+00 0. -1.
         23    2    1    0    0    0  0.26074520211E+02  0.96711546812E+01 -0.59806957637E+01  0.96553900814E+02  0.92268495184E+02 0.  0.
         13    1    3    3    0    0  0.25421503039E+02 -0.12550294398E+02 -0.44099182996E+02  0.52426251165E+02  0.10566000000E+00 0.  1.
         22    1    1    0    0    0 -0.26074520211E+02 -0.96711546812E+01  0.59806957637E+01  0.28446099186E+02  0.00000000000E+00 0.  1.
</event>
<event>
 5    1  0.1325832E-009  0.9118800E+02  0.7818608E-02  0.1130116E+00
         25   -1    0    0    0    0  0.00000000000E+00  0.00000000000E+00  0.99999998245E-14  0.12500000000E+03  0.12500000000E+03 0.  0.
        -13    1    3    3    0    0  0.41593008568E+02 -0.14564209976E+01 -0.76946606706E+01  0.42323970640E+02  0.10566000000E+00 0. -1.
         23    2    1    0    0    0 -0.53222834618E+01  0.15927783800E+02 -0.24668811022E+02  0.95157559831E+02  0.90357013883E+02 0.  0.
         13    1    3    3    0    0 -0.46915292030E+02  0.17384204797E+02 -0.16974150351E+02  0.52833589191E+02  0.10566000000E+00 0.  1.
         22    1    1    0    0    0  0.53222834618E+01 -0.15927783800E+02  0.24668811022E+02  0.29842440169E+02  0.00000000000E+00 0.  1.
</event>
<event>
 5    1  0.1325832E-009  0.9118800E+02  0.7818608E-02  0.1130116E+00
         25   -1    0    0    0    0  0.00000000000E+00  0.00000000000E+00  0.99999998245E-14  0.12500000000E+03  0.12500000000E+03 0.  0.
        -13    1    3    3    0    0 -0.59053493879E+02 -0.49606756340E+01  0.16231994073E+02  0.61444383289E+02  0.10566000000E+00 0.  1.
         23    2    1    0    0    0 -0.28636001806E+02 -0.45473167666E+01 -0.16951905898E+00  0.96004699934E+02  0.91521445484E+02 0.  0.
         13    1    3    3    0    0  0.30417492073E+02  0.41335886745E+00 -0.16401513132E+02  0.34560316646E+02  0.10566000000E+00 0. -1.
         22    1    1    0    0    0  0.28636001806E+02  0.45473167666E+01  0.16951905898E+00  0.28995300066E+02  0.00000000000E+00 0.  1.
</event>
<event>
 5    1  0.1325832E-009  0.9118800E+02  0.7818608E-02  0.1130116E+00
         25   -1    0    0    0    0  0.00000000000E+00  0.00000000000E+00  0.99999998245E-14  0.12500000000E+03  0.12500000000E+03 0.  0.
        -13    1    3    3    0    0  0.47234266274E+02 -0.20792383023E+02 -0.18572337629E+02  0.54848354499E+02  0.10566000000E+00 0.  1.
         23    2    1    0    0    0  0.11048986711E+02 -0.27634561352E+02 -0.21793869567E+01  0.95158773216E+02  0.90358692465E+02 0.  0.
         13    1    3    3    0    0 -0.36185279563E+02 -0.68421783292E+01  0.16392950672E+02  0.40310418717E+02  0.10566000000E+00 0. -1.
         22    1    1    0    0    0 -0.11048986711E+02  0.27634561352E+02  0.21793869567E+01  0.29841226784E+02  0.00000000000E+00 0.  1.
</event>
<event>
 5    1  0.1325832E-009  0.9118800E+02  0.7818608E-02  0.1130116E+00
         25   -1    0    0    0    0  0.00000000000E+00  0.00000000000E+00  0.99999998245E-14  0.12500000000E+03  0.12500000000E+03 0.  0.
        -13    1    3    3    0    0  0.10675945754E+02 -0.41975083287E+02 -0.18534779341E+02  0.47110854842E+02  0.10566000000E+00 0.  1.
         23    2    1    0    0    0 -0.21526843792E+02 -0.10826489802E+02  0.85124508130E+01  0.99444575841E+02  0.96104859192E+02 0.  0.
         13    1    3    3    0    0 -0.32202789546E+02  0.31148593485E+02  0.27047230154E+02  0.52333721000E+02  0.10566000000E+00 0. -1.
         22    1    1    0    0    0  0.21526843792E+02  0.10826489802E+02 -0.85124508130E+01  0.25555424159E+02  0.00000000000E+00 0. -1.
</event>
<event>
 5    1  0.1325832E-009  0.9118800E+02  0.7818608E-02  0.1130116E+00
         25   -1    0    0    0    0  0.00000000000E+00  0.00000000000E+00  0.99999998245E-14  0.12500000000E+03  0.12500000000E+03 0.  0.
        -13    1    3    3    0    0  0.95280584045E+01  0.35910408587E+02 -0.61441612327E+01  0.37657711337E+02  0.10566000000E+00 0. -1.
         23    2    1    0    0    0  0.14618627416E+02 -0.22077898728E+02 -0.11533719792E+02  0.96118092653E+02  0.91676186456E+02 0.  0.
         13    1    3    3    0    0  0.50905690117E+01 -0.57988307315E+02 -0.53895585593E+01  0.58460381316E+02  0.10566000000E+00 0.  1.
         22    1    1    0    0    0 -0.14618627416E+02  0.22077898728E+02  0.11533719792E+02  0.28881907347E+02  0.00000000000E+00 0.  1.
</event>
<event>
 5    1  0.1325832E-009  0.9118800E+02  0.7818608E-02  0.1130116E+00
         25   -1    0    0    0    0  0.00000000000E+00  0.00000000000E+00  0.99999998245E-14  0.12500000000E+03  0.12500000000E+03 0.  0.
        -13    1    3    3    0    0 -0.39565066094E+02  0.76436923824E+01 -0.30136383666E+02  0.50319313119E+02  0.10566000000E+00 0. -1.
         23    2    1    0    0    0 -0.30386875063E+02 -0.26747302862E+01  0.10105812606E+02  0.92865224341E+02  0.87128101582E+02 0.  0.
         13    1    3    3    0    0  0.91781910310E+01 -0.10318422669E+02  0.40242196271E+02  0.42545911223E+02  0.10566000000E+00 0.  1.
         22    1    1    0    0    0  0.30386875063E+02  0.26747302862E+01 -0.10105812606E+02  0.32134775659E+02  0.00000000000E+00 0. -1.
</event>
<event>
 5    1  0.1325832E-009  0.9118800E+02  0.7818608E-02  0.1130116E+00
         25   -1    0    0    0    0  0.00000000000E+00  0.00000000000E+00  0.99999998245E-14  0.12500000000E+03  0.12500000000E+03 0.  0.
        -13    1    3    3    0    0  0.23167095905E+02  0.54668852722E+02  0.10295759446E+02  0.60261194953E+02  0.10566000000E+00 0.  1.
         23    2    1    0    0    0  0.15697482102E+01  0.27264725229E+02  0.11945115378E+02  0.95192029042E+02  0.90404686054E+02 0.  0.
         13    1    3    3    0    0 -0.21597347695E+02 -0.27404127493E+02  0.16493559313E+01  0.34930834089E+02  0.10566000000E+00 0. -1.
         22    1    1    0    0    0 -0.15697482102E+01 -0.27264725229E+02 -0.11945115378E+02  0.29807970958E+02  0.00000000000E+00 0.  1.
</event>
<event>
 5    1  0.1325832E-009  0.9118800E+02  0.7818608E-02  0.1130116E+00
         25   -1    0    0    0    0  0.00000000000E+00  0.00000000000E+00  0.99999998245E-14  0.12500000000E+03  0.12500000000E+03 0.  0.
        -13    1    3    3    0    0  0.24892729025E+02  0.43458055474E+02  0.12786518431E+02  0.51689039085E+02  0.10566000000E+00 0.  1.
         23    2    1    0    0    0  0.53632325512E+01  0.57311451817E+01  0.27309390130E+02  0.96584984995E+02  0.92310596622E+02 0.  0.
         13    1    3    3    0    0 -0.19529496474E+02 -0.37726910292E+02  0.14522871699E+02  0.44895945910E+02  0.10566000000E+00 0. -1.
         22    1    1    0    0    0 -0.53632325512E+01 -0.57311451817E+01 -0.27309390130E+02  0.28415015005E+02  0.00000000000E+00 0.  1.
</event>
<event>
 5    1  0.1325832E-009  0.9118800E+02  0.7818608E-02  0.1130116E+00
         25   -1    0    0    0    0  0.00000000000E+00  0.00000000000E+00  0.99999998245E-14  0.12500000000E+03  0.12500000000E+03 0.  0.
        -13    1    3    3    0    0 -0.42276551795E+02  0.66383489271E+01 -0.90350787339E+01  0.43738064886E+02  0.10566000000E+00 0.  1.
         23    2    1    0    0    0  0.11179835851E+01 -0.13686834374E+02 -0.26834489963E+02  0.94855860038E+02  0.89938673603E+02 0.  0.
         13    1    3    3    0    0  0.43394535380E+02 -0.20325183302E+02 -0.17799411229E+02  0.51117795152E+02  0.10566000000E+00 0. -1.
         22    1    1    0    0    0 -0.11179835851E+01  0.13686834374E+02  0.26834489963E+02  0.30144139962E+02  0.00000000000E+00 0.  1.
</event>
<event>
 5    1  0.1325832E-009  0.9118800E+02  0.7818608E-02  0.1130116E+00
         25   -1    0    0    0    0  0.00000000000E+00  0.00000000000E+00  0.99999998245E-14  0.12500000000E+03  0.12500000000E+03 0.  0.
        -13    1    3    3    0    0  0.58651633964E+01 -0.41096982676E+02  0.12533991674E+02  0.43364435175E+02  0.10566000000E+00 0.  1.
         23    2    1    0    0    0 -0.39456666567E+01  0.77587607779E+01  0.28109938687E+02  0.95573221257E+02  0.90930222227E+02 0.  0.
         13    1    3    3    0    0 -0.98108300531E+01  0.48855743454E+02  0.15575947014E+02  0.52208786082E+02  0.10566000000E+00 0. -1.
         22    1    1    0    0    0  0.39456666567E+01 -0.77587607779E+01 -0.28109938687E+02  0.29426778743E+02  0.00000000000E+00 0. -1.
</event>
<event>
 5    1  0.1325832E-009  0.9118800E+02  0.7818608E-02  0.1130116E+00
         25   -1    0    0    0    0  0.00000000000E+00  0.00000000000E+00  0.99999998245E-14  0.12500000000E+03  0.12500000000E+03 0.  0.
        -13    1    3    3    0    0  0.45871670403E+02  0.34854468424E+02 -0.19044691129E+02  0.60677471428E+02  0.10566000000E+00 0.  1.
         23    2    1    0    0    0  0.17198142630E+02  0.22562514089E+02 -0.12285136355E+01  0.96603655206E+02  0.92335874943E+02 0.  0.
         13    1    3    3    0    0 -0.28673527773E+02 -0.12291954335E+02  0.17816177493E+02  0.35926183778E+02  0.10566000000E+00 0. -1.
         22    1    1    0    0    0 -0.17198142630E+02 -0.22562514089E+02  0.12285136355E+01  0.28396344794E+02  0.00000000000E+00 0.  1.
</event>
<event>
 5    1  0.1325832E-009  0.9118800E+02  0.7818608E-02  0.1130116E+00
         25   -1    0    0    0    0  0.00000000000E+00  0.00000000000E+00  0.99999998245E-14  0.12500000000E+03  0.12500000000E+03 0.  0.
        -13    1    3    3    0    0 -0.34413311295E+00  0.15786655322E+02  0.43346908424E+02  0.46133529540E+02  0.10566000000E+00 0.  1.
         23    2    1    0    0    0  0.25439014779E+02 -0.90799482455E+01  0.71492289258E+01  0.97058983424E+02  0.92950233221E+02 0.  0.
         13    1    3    3    0    0  0.25783147892E+02 -0.24866603567E+02 -0.36197679498E+02  0.50925453884E+02  0.10566000000E+00 0. -1.
         22    1    1    0    0    0 -0.25439014779E+02  0.90799482455E+01 -0.71492289258E+01  0.27941016576E+02  0.00000000000E+00 0. -1.
</event>
<event>
 5    1  0.1325832E-009  0.9118800E+02  0.7818608E-02  0.1130116E+00
         25   -1    0    0    0    0  0.00000000000E+00  0.00000000000E+00  0.99999998245E-14  0.12500000000E+03  0.12500000000E+03 0.  0.
        -13    1    3    3    0    0 -0.21638145026E+02  0.33273943297E+02 -0.17831753497E+02  0.43512609891E+02  0.10566000000E+00 0. -1.
         23    2    1    0    0    0  0.25226297975E+02  0.13540380359E+02 -0.53142212177E+01  0.95880436869E+02  0.91351569320E+02 0.  0.
         13    1    3    3    0    0  0.46864443001E+02 -0.19733562937E+02  0.12517532280E+02  0.52367826978E+02  0.10566000000E+00 0.  1.
         22    1    1    0    0    0 -0.25226297975E+02 -0.13540380359E+02  0.53142212177E+01  0.29119563131E+02  0.00000000000E+00 0.  1.
</event>
<event>
 5    1  0.1325832E-009  0.9118800E+02  0.7818608E-02  0.1130116E+00
         25   -1    0    0    0    0  0.00000000000E+00  0.00000000000E+00  0.99999998245E-14  0.12500000000E+03  0.12500000000E+03 0.  0.
        -13    1    3    3    0    0  0.21139024504E+02 -0.24125254129E+02  0.78423622562E+01  0.33021206119E+02  0.10566000000E+00 0. -1.
         23    2    1    0    0    0 -0.24819241947E+02  0.12243530813E+02 -0.11914515190E+02  0.94869376213E+02  0.89957456907E+02 0.  0.
         13    1    3    3    0    0 -0.45958266451E+02  0.36368784942E+02 -0.19756877447E+02  0.61848170093E+02  0.10566000000E+00 0.  1.
         22    1    1    0    0    0  0.24819241947E+02 -0.12243530813E+02  0.11914515190E+02  0.30130623787E+02  0.00000000000E+00 0.  1.
</event>
<event>
 5    1  0.1325832E-009  0.9118800E+02  0.7818608E-02  0.1130116E+00
         25   -1    0    0    0    0  0.00000000000E+00  0.00000000000E+00  0.99999998245E-14  0.12500000000E+03  0.12500000000E+03 0.  0.
        -13    1    3    3    0    0  0.18399307402E+02 -0.37582941845E+02 -0.86210343478E+01  0.42724061462E+02  0.10566000000E+00 0.  1.
         23    2    1    0    0    0 -0.26528256161E+02 -0.68786855909E+01 -0.28228613711E+01  0.97449442171E+02  0.93473849513E+02 0.  0.
         13    1    3    3    0    0 -0.44927563563E+02  0.30704256254E+02  0.57981729767E+01  0.54725380708E+02  0.10566000000E+00 0. -1.
         22    1    1    0    0    0  0.26528256161E+02  0.68786855909E+01  0.28228613711E+01  0.27550557829E+02  0.00000000000E+00 0. -1.
</event>
<event>
 5    1  0.1325832E-009  0.9118800E+02  0.7818608E-02  0.1130116E+00
         25   -1    0    0    0    0  0.00000000000E+00  0.00000000000E+00  0.99999998245E-14  0.12500000000E+03  0.12500000000E+03 0.  0.
        -13    1    3    3    0    0  0.41034795597E+02  0.18501537328E+02  0.18491362420E+01  0.45050991133E+02  0.10566000000E+00 0. -1.
         23    2    1    0    0    0  0.19662442395E+00  0.30234942747E+01  0.28583028212E+02  0.96256832455E+02  0.91865162677E+02 0.  0.
         13    1    3    3    0    0 -0.40838171173E+02 -0.15478043053E+02  0.26733891970E+02  0.51205841321E+02  0.10566000000E+00 0.  1.
         22    1    1    0    0    0 -0.19662442395E+00 -0.30234942747E+01 -0.28583028212E+02  0.28743167545E+02  0.00000000000E+00 0.  1.
</event>
<event>
 5    1  0.1325832E-009  0.9118800E+02  0.7818608E-02  0.1130116E+00
         25   -1    0    0    0    0  0.00000000000E+00  0.00000000000E+00  0.99999998245E-14  0.12500000000E+03  0.12500000000E+03 0.  0.
        -13    1    3    3    0    0 -0.25969093709E+02 -0.23640007115E+02 -0.83337305800E+01  0.36093018631E+02  0.10566000000E+00 0.  1.
         23    2    1    0    0    0  0.28188087692E+02  0.25768983611E+01 -0.14105679784E+01  0.96659244983E+02  0.92411099148E+02 0.  0.
         13    1    3    3    0    0  0.54157181402E+02  0.26216905476E+02  0.69231626016E+01  0.60566226352E+02  0.10566000000E+00 0. -1.
         22    1    1    0    0    0 -0.28188087692E+02 -0.25768983611E+01  0.14105679784E+01  0.28340755017E+02  0.00000000000E+00 0. -1.
</event>
<event>
 5    1  0.1325832E-009  0.9118800E+02  0.7818608E-02  0.1130116E+00
         25   -1    0    0    0    0  0.00000000000E+00  0.00000000000E+00  0.99999998245E-14  0.12500000000E+03  0.12500000000E+03 0.  0.
        -13    1    3    3    0    0 -0.34320612189E+02  0.19331370250E+02  0.18286889773E+02  0.43428421551E+02  0.10566000000E+00 0.  1.
         23    2    1    0    0    0 -0.13878942809E+02 -0.13735260625E+02 -0.19330162690E+02  0.97523871679E+02  0.93573329104E+02 0.  0.
         13    1    3    3    0    0  0.20441669380E+02 -0.33066630875E+02 -0.37617052463E+02  0.54095450128E+02  0.10566000000E+00 0. -1.
         22    1    1    0    0    0  0.13878942809E+02  0.13735260625E+02  0.19330162690E+02  0.27476128321E+02  0.00000000000E+00 0. -1.
</event>
<event>
 5    1  0.1325832E-009  0.9118800E+02  0.7818608E-02  0.1130116E+00
         25   -1    0    0    0    0  0.00000000000E+00  0.00000000000E+00  0.99999998245E-14  0.12500000000E+03  0.12500000000E+03 0.  0.
        -13    1    3    3    0    0  0.22887489425E+02 -0.24592428480E+02  0.24461836837E+01  0.33684116277E+02  0.10566000000E+00 0.  1.
         23    2    1    0    0    0 -0.18483658038E+02  0.21625516165E+02 -0.48491575953E+01  0.96141328976E+02  0.91707863589E+02 0.  0.
         13    1    3    3    0    0 -0.41371147463E+02  0.46217944646E+02 -0.72953412791E+01  0.62457212699E+02  0.10566000000E+00 0. -1.
         22    1    1    0    0    0  0.18483658038E+02 -0.21625516165E+02  0.48491575953E+01  0.28858671024E+02  0.00000000000E+00 0. -1.
</event>
<event>
 5    1  0.1325832E-009  0.9118800E+02  0.7818608E-02  0.1130116E+00
         25   -1    0    0    0    0  0.00000000000E+00  0.00000000000E+00  0.99999998245E-14  0.12500000000E+03  0.12500000000E+03 0.  0.
        -13    1    3    3    0    0 -0.22153696661E+02 -0.20090937254E+02 -0.15957126117E+02  0.33897980374E+02  0.10566000000E+00 0. -1.
         23    2    1    0    0    0  0.23914810676E+02 -0.50691492647E+01  0.19325036019E+02  0.93837980472E+02  0.88512683373E+02 0.  0.
         13    1    3    3    0    0  0.46068507337E+02  0.15021787990E+02  0.35282162136E+02  0.59940000098E+02  0.10566000000E+00 0.  1.
         22    1    1    0    0    0 -0.23914810676E+02  0.50691492647E+01 -0.19325036019E+02  0.31162019528E+02  0.00000000000E+00 0.  1.
</event>
<event>
 5    1  0.1325832E-009  0.9118800E+02  0.7818608E-02  0.1130116E+00
         25   -1    0    0    0    0  0.00000000000E+00  0.00000000000E+00  0.99999998245E-14  0.12500000000E+03  0.12500000000E+03 0.  0.
        -13    1    3    3    0    0  0.33046737290E+02  0.28035153818E+02 -0.88575155600E+01  0.44232606085E+02  0.10566000000E+00 0. -1.
         23    2    1    0    0    0 -0.12328214156E+02  0.69348662229E+01 -0.24541439260E+02  0.96674049447E+02  0.92431122257E+02 0.  0.
         13    1    3    3    0    0 -0.45374951445E+02 -0.21100287595E+02 -0.15683923700E+02  0.52441443362E+02  0.10566000000E+00 0.  1.
         22    1    1    0    0    0  0.12328214156E+02 -0.69348662229E+01  0.24541439260E+02  0.28325950553E+02  0.00000000000E+00 0.  1.
</event>
<event>
 5    1  0.1325832E-009  0.9118800E+02  0.7818608E-02  0.1130116E+00
         25   -1    0    0    0    0  0.00000000000E+00  0.00000000000E+00  0.99999998245E-14  0.12500000000E+03  0.12500000000E+03 0.  0.
        -13    1    3    3    0    0  0.28211059590E+02 -0.38709974221E+02 -0.36040478501E+02  0.59943750650E+02  0.10566000000E+00 0.  1.
         23    2    1    0    0    0  0.26462887090E+02 -0.16947480445E+02 -0.15335250446E+02  0.90033281641E+02  0.82965778549E+02 0.  0.
         13    1    3    3    0    0 -0.17481725000E+01  0.21762493775E+02  0.20705228055E+02  0.30089530991E+02  0.10566000000E+00 0. -1.
         22    1    1    0    0    0 -0.26462887090E+02  0.16947480445E+02  0.15335250446E+02  0.34966718359E+02  0.00000000000E+00 0.  1.
</event>
<event>
 5    1  0.1325832E-009  0.9118800E+02  0.7818608E-02  0.1130116E+00
         25   -1    0    0    0    0  0.00000000000E+00  0.00000000000E+00  0.99999998245E-14  0.12500000000E+03  0.12500000000E+03 0.  0.
        -13    1    3    3    0    0 -0.34840878469E+02  0.24308019207E+02 -0.16062295878E+02  0.45417784216E+02  0.10566000000E+00 0. -1.
         23    2    1    0    0    0  0.15856757800E+01 -0.39361831911E+01 -0.30876156929E+02  0.93833592242E+02  0.88506485980E+02 0.  0.
         13    1    3    3    0    0  0.36426554248E+02 -0.28244202398E+02 -0.14813861051E+02  0.48415808026E+02  0.10566000000E+00 0.  1.
         22    1    1    0    0    0 -0.15856757800E+01  0.39361831911E+01  0.30876156929E+02  0.31166407758E+02  0.00000000000E+00 0. -1.
</event>
<event>
 5    1  0.1325832E-009  0.9118800E+02  0.7818608E-02  0.1130116E+00
         25   -1    0    0    0    0  0.00000000000E+00  0.00000000000E+00  0.99999998245E-14  0.12500000000E+03  0.12500000000E+03 0.  0.
        -13    1    3    3    0    0  0.20281980349E+02  0.10235038676E+02  0.35035958879E+02  0.41756967349E+02  0.10566000000E+00 0.  1.
         23    2    1    0    0    0 -0.84654667218E+01 -0.26850204755E+02  0.88675871343E+01  0.95483365304E+02  0.90806614990E+02 0.  0.
         13    1    3    3    0    0 -0.28747447070E+02 -0.37085243432E+02 -0.26168371744E+02  0.53726397955E+02  0.10566000000E+00 0. -1.
         22    1    1    0    0    0  0.84654667218E+01  0.26850204755E+02 -0.88675871343E+01  0.29516634696E+02  0.00000000000E+00 0. -1.
</event>
<event>
 5    1  0.1325832E-009  0.9118800E+02  0.7818608E-02  0.1130116E+00
         25   -1    0    0    0    0  0.00000000000E+00  0.00000000000E+00  0.99999998245E-14  0.12500000000E+03  0.12500000000E+03 0.  0.
        -13    1    3    3    0    0  0.18067915313E+02 -0.30485387412E+02  0.83145260829E+01  0.36399875239E+02  0.10566000000E+00 0. -1.
         23    2    1    0    0    0 -0.22165107393E+02 -0.19698384588E+00 -0.20828032854E+02  0.94583922985E+02  0.89559928240E+02 0.  0.
         13    1    3    3    0    0 -0.40233022706E+02  0.30288403566E+02 -0.29142558937E+02  0.58184047746E+02  0.10566000000E+00 0.  1.
         22    1    1    0    0    0  0.22165107393E+02  0.19698384588E+00  0.20828032854E+02  0.30416077015E+02  0.00000000000E+00 0.  1.
</event>
<event>
 5    1  0.1325832E-009  0.9118800E+02  0.7818608E-02  0.1130116E+00
         25   -1    0    0    0    0  0.00000000000E+00  0.00000000000E+00  0.99999998245E-14  0.12500000000E+03  0.12500000000E+03 0.  0.
        -13    1    3    3    0    0  0.44314615359E+02 -0.69092260027E+01  0.22017778334E+02  0.49963149072E+02  0.10566000000E+00 0.  1.
         23    2    1    0    0    0  0.25049829224E+01 -0.19246401608E+02  0.24640016004E+02  0.93633946647E+02  0.88224070761E+02 0.  0.
         13    1    3    3    0    0 -0.41809632437E+02 -0.12337175605E+02  0.26222376700E+01  0.43670797575E+02  0.10566000000E+00 0. -1.
         22    1    1    0    0    0 -0.25049829224E+01  0.19246401608E+02 -0.24640016004E+02  0.31366053353E+02  0.00000000000E+00 0.  1.
</event>
<event>
 5    1  0.1325832E-009  0.9118800E+02  0.7818608E-02  0.1130116E+00
         25   -1    0    0    0    0  0.00000000000E+00  0.00000000000E+00  0.99999998245E-14  0.12500000000E+03  0.12500000000E+03 0.  0.
        -13    1    3    3    0    0  0.18916454214E+02  0.28356267041E+02  0.12884038890E+02  0.36440633127E+02  0.10566000000E+00 0. -1.
         23    2    1    0    0    0 -0.16635138970E+02 -0.58205679807E+01 -0.21973955883E+02  0.96831549611E+02  0.92643874070E+02 0.  0.
         13    1    3    3    0    0 -0.35551593184E+02 -0.34176835022E+02 -0.34857994773E+02  0.60390916483E+02  0.10566000000E+00 0.  1.
         22    1    1    0    0    0  0.16635138970E+02  0.58205679807E+01  0.21973955883E+02  0.28168450389E+02  0.00000000000E+00 0.  1.
</event>
<event>
 5    1  0.1325832E-009  0.9118800E+02  0.7818608E-02  0.1130116E+00
         25   -1    0    0    0    0  0.00000000000E+00  0.00000000000E+00  0.99999998245E-14  0.12500000000E+03  0.12500000000E+03 0.  0.
        -13    1    3    3    0    0  0.35922362103E+02  0.29135992416E+02 -0.39081604243E+02  0.60553324495E+02  0.10566000000E+00 0.  1.
         23    2    1    0    0    0  0.21295548642E+02  0.14490996388E+02 -0.77564903081E+01  0.98099209859E+02  0.94338764380E+02 0.  0.
         13    1    3    3    0    0 -0.14626813461E+02 -0.14644996028E+02  0.31325113935E+02  0.37545885364E+02  0.10566000000E+00 0. -1.
         22    1    1    0    0    0 -0.21295548642E+02 -0.14490996388E+02  0.77564903081E+01  0.26900790141E+02  0.00000000000E+00 0.  1.
</event>
<event>
 5    1  0.1325832E-009  0.9118800E+02  0.7818608E-02  0.1130116E+00
         25   -1    0    0    0    0  0.00000000000E+00  0.00000000000E+00  0.99999998245E-14  0.12500000000E+03  0.12500000000E+03 0.  0.
        -13    1    3    3    0    0  0.14564850859E+02 -0.36376336791E+02  0.43316412115E+02  0.58409720778E+02  0.10566000000E+00 0. -1.
         23    2    1    0    0    0  0.12707861777E+02 -0.25042820330E+02  0.76291884542E+01  0.95899534068E+02  0.91377697043E+02 0.  0.
         13    1    3    3    0    0 -0.18569890815E+01  0.11333516461E+02 -0.35687223661E+02  0.37489813289E+02  0.10566000000E+00 0.  1.
         22    1    1    0    0    0 -0.12707861777E+02  0.25042820330E+02 -0.76291884542E+01  0.29100465932E+02  0.00000000000E+00 0. -1.
</event>
<event>
 5    1  0.1325832E-009  0.9118800E+02  0.7818608E-02  0.1130116E+00
         25   -1    0    0    0    0  0.00000000000E+00  0.00000000000E+00  0.99999998245E-14  0.12500000000E+03  0.12500000000E+03 0.  0.
        -13    1    3    3    0    0 -0.18577472806E+02  0.51357947901E+02  0.95799390450E+01  0.55448604172E+02  0.10566000000E+00 0.  1.
         23    2    1    0    0    0  0.61703095791E+01  0.27161282154E+02 -0.10229184429E+02  0.95327720299E+02  0.90592108237E+02 0.  0.
         13    1    3    3    0    0  0.24747782386E+02 -0.24196665747E+02 -0.19809123474E+02  0.39879116127E+02  0.10566000000E+00 0. -1.
         22    1    1    0    0    0 -0.61703095791E+01 -0.27161282154E+02  0.10229184429E+02  0.29672279701E+02  0.00000000000E+00 0.  1.
</event>
<event>
 5    1  0.1325832E-009  0.9118800E+02  0.7818608E-02  0.1130116E+00
         25   -1    0    0    0    0  0.00000000000E+00  0.00000000000E+00  0.99999998245E-14  0.12500000000E+03  0.12500000000E+03 0.  0.
        -13    1    3    3    0    0 -0.22230882688E+02 -0.29178389185E+02  0.29984660893E+02  0.47378070807E+02  0.10566000000E+00 0.  1.
         23    2    1    0    0    0 -0.62722829008E+01 -0.24532863465E+02 -0.15161010436E+02  0.95486288610E+02  0.90810638983E+02 0.  0.
         13    1    3    3    0    0  0.15958599787E+02  0.46455257202E+01 -0.45145671329E+02  0.48108217803E+02  0.10566000000E+00 0. -1.
         22    1    1    0    0    0  0.62722829008E+01  0.24532863465E+02  0.15161010436E+02  0.29513711390E+02  0.00000000000E+00 0.  1.
</event>
<event>
 5    1  0.1325832E-009  0.9118800E+02  0.7818608E-02  0.1130116E+00
         25   -1    0    0    0    0  0.00000000000E+00  0.00000000000E+00  0.99999998245E-14  0.12500000000E+03  0.12500000000E+03 0.  0.
        -13    1    3    3    0    0  0.67610244353E+00 -0.99038053416E+01 -0.37522651698E+02  0.38813696413E+02  0.10566000000E+00 0.  1.
         23    2    1    0    0    0 -0.89472427063E+01 -0.20616525867E+02  0.18020398580E+02  0.96193246350E+02  0.91778600924E+02 0.  0.
         13    1    3    3    0    0 -0.96233451498E+01 -0.10712720525E+02  0.55543050277E+02  0.57379549938E+02  0.10566000000E+00 0. -1.
         22    1    1    0    0    0  0.89472427063E+01  0.20616525867E+02 -0.18020398580E+02  0.28806753650E+02  0.00000000000E+00 0. -1.
</event>
<event>
 5    1  0.1325832E-009  0.9118800E+02  0.7818608E-02  0.1130116E+00
         25   -1    0    0    0    0  0.00000000000E+00  0.00000000000E+00  0.99999998245E-14  0.12500000000E+03  0.12500000000E+03 0.  0.
        -13    1    3    3    0    0  0.44723819681E+02 -0.81634252206E+01  0.43116835397E+01  0.45666873521E+02  0.10566000000E+00 0.  1.
         23    2    1    0    0    0  0.32970987250E+01 -0.19988097895E+02 -0.21152669448E+02  0.95711259121E+02  0.91119782596E+02 0.  0.
         13    1    3    3    0    0 -0.41426720956E+02 -0.11824672674E+02 -0.25464352988E+02  0.50044385601E+02  0.10566000000E+00 0. -1.
         22    1    1    0    0    0 -0.32970987250E+01  0.19988097895E+02  0.21152669448E+02  0.29288740879E+02  0.00000000000E+00 0.  1.
</event>
<event>
 5    1  0.1325832E-009  0.9118800E+02  0.7818608E-02  0.1130116E+00
         25   -1    0    0    0    0  0.00000000000E+00  0.00000000000E+00  0.99999998245E-14  0.12500000000E+03  0.12500000000E+03 0.  0.
        -13    1    3    3    0    0  0.20965273054E+02 -0.52482185914E+02  0.16145882486E+02  0.58776042720E+02  0.10566000000E+00 0.  1.
         23    2    1    0    0    0  0.10452704239E+01 -0.21555547199E+02  0.19758981600E+02  0.95739932345E+02  0.91159108630E+02 0.  0.
         13    1    3    3    0    0 -0.19920002630E+02  0.30926638715E+02  0.36130991139E+01  0.36963889625E+02  0.10566000000E+00 0. -1.
         22    1    1    0    0    0 -0.10452704239E+01  0.21555547199E+02 -0.19758981600E+02  0.29260067655E+02  0.00000000000E+00 0.  1.
</event>
<event>
 5    1  0.1325832E-009  0.9118800E+02  0.7818608E-02  0.1130116E+00
         25   -1    0    0    0    0  0.00000000000E+00  0.00000000000E+00  0.99999998245E-14  0.12500000000E+03  0.12500000000E+03 0.  0.
        -13    1    3    3    0    0 -0.37486587771E+02  0.29462843272E+02  0.47962951320E+01  0.47919922865E+02  0.10566000000E+00 0.  1.
         23    2    1    0    0    0 -0.10494914042E+02  0.32218878522E+02  0.25946589415E+02  0.82321845679E+02  0.70395038318E+02 0.  0.
         13    1    3    3    0    0  0.26991673729E+02  0.27560352499E+01  0.21150294283E+02  0.34401922814E+02  0.10566000000E+00 0. -1.
         22    1    1    0    0    0  0.10494914042E+02 -0.32218878522E+02 -0.25946589415E+02  0.42678154321E+02  0.00000000000E+00 0.  1.
</event>
<event>
 5    1  0.1325832E-009  0.9118800E+02  0.7818608E-02  0.1130116E+00
         25   -1    0    0    0    0  0.00000000000E+00  0.00000000000E+00  0.99999998245E-14  0.12500000000E+03  0.12500000000E+03 0.  0.
        -13    1    3    3    0    0  0.14193643463E+02  0.14953785002E+02 -0.48174714573E+02  0.52401235566E+02  0.10566000000E+00 0.  1.
         23    2    1    0    0    0 -0.83186212566E+01 -0.13996404785E+02 -0.22742666613E+02  0.97029878599E+02  0.92911084644E+02 0.  0.
         13    1    3    3    0    0 -0.22512264720E+02 -0.28950189787E+02  0.25432047960E+02  0.44628643033E+02  0.10566000000E+00 0. -1.
         22    1    1    0    0    0  0.83186212566E+01  0.13996404785E+02  0.22742666613E+02  0.27970121401E+02  0.00000000000E+00 0.  1.
</event>
<event>
 5    1  0.1325832E-009  0.9118800E+02  0.7818608E-02  0.1130116E+00
         25   -1    0    0    0    0  0.00000000000E+00  0.00000000000E+00  0.99999998245E-14  0.12500000000E+03  0.12500000000E+03 0.  0.
        -13    1    3    3    0    0 -0.19792014493E+02 -0.39502226852E+02  0.91947155184E+01  0.45129853993E+02  0.10566000000E+00 0.  1.
         23    2    1    0    0    0 -0.24094900642E+02  0.10520468906E+02  0.13357906498E+02  0.95509693644E+02  0.90842850082E+02 0.  0.
         13    1    3    3    0    0 -0.43028861489E+01  0.50022695758E+02  0.41631909796E+01  0.50379839651E+02  0.10566000000E+00 0. -1.
         22    1    1    0    0    0  0.24094900642E+02 -0.10520468906E+02 -0.13357906498E+02  0.29490306356E+02  0.00000000000E+00 0. -1.
</event>
<event>
 5    1  0.1325832E-009  0.9118800E+02  0.7818608E-02  0.1130116E+00
         25   -1    0    0    0    0  0.00000000000E+00  0.00000000000E+00  0.99999998245E-14  0.12500000000E+03  0.12500000000E+03 0.  0.
        -13    1    3    3    0    0 -0.45879745815E+01  0.76290361868E+01  0.46300248149E+02  0.47148444796E+02  0.10566000000E+00 0. -1.
         23    2    1    0    0    0  0.26087740569E+02  0.51741081356E+01  0.62090443423E+01  0.97688942997E+02  0.93793580533E+02 0.  0.
         13    1    3    3    0    0  0.30675715150E+02 -0.24549280511E+01 -0.40091203807E+02  0.50540498201E+02  0.10566000000E+00 0.  1.
         22    1    1    0    0    0 -0.26087740569E+02 -0.51741081356E+01 -0.62090443423E+01  0.27311057003E+02  0.00000000000E+00 0. -1.
</event>
<event>
 5    1  0.1325832E-009  0.9118800E+02  0.7818608E-02  0.1130116E+00
         25   -1    0    0    0    0  0.00000000000E+00  0.00000000000E+00  0.99999998245E-14  0.12500000000E+03  0.12500000000E+03 0.  0.
        -13    1    3    3    0    0 -0.26715063302E+02 -0.31483850739E+02  0.44045722538E+01  0.41525159666E+02  0.10566000000E+00 0. -1.
         23    2    1    0    0    0  0.25143928352E+02 -0.12907195961E+02  0.90152313462E+00  0.96722348320E+02  0.92496416579E+02 0.  0.
         13    1    3    3    0    0  0.51858991654E+02  0.18576654778E+02 -0.35030491192E+01  0.55197188654E+02  0.10566000000E+00 0.  1.
         22    1    1    0    0    0 -0.25143928352E+02  0.12907195961E+02 -0.90152313462E+00  0.28277651680E+02  0.00000000000E+00 0.  1.
</event>
<event>
 5    1  0.1325832E-009  0.9118800E+02  0.7818608E-02  0.1130116E+00
         25   -1    0    0    0    0  0.00000000000E+00  0.00000000000E+00  0.99999998245E-14  0.12500000000E+03  0.12500000000E+03 0.  0.
        -13    1    3    3    0    0  0.11524826658E+02  0.38261364112E+02 -0.36567171001E+01  0.40126504423E+02  0.10566000000E+00 0.  1.
         23    2    1    0    0    0 -0.93193311771E+01 -0.81369275481E+01 -0.26399943817E+02  0.95844956576E+02  0.91303007311E+02 0.  0.
         13    1    3    3    0    0 -0.20844157835E+02 -0.46398291660E+02 -0.22743226717E+02  0.55718452153E+02  0.10566000000E+00 0. -1.
         22    1    1    0    0    0  0.93193311771E+01  0.81369275481E+01  0.26399943817E+02  0.29155043424E+02  0.00000000000E+00 0. -1.
</event>
<event>
 5    1  0.1325832E-009  0.9118800E+02  0.7818608E-02  0.1130116E+00
         25   -1    0    0    0    0  0.00000000000E+00  0.00000000000E+00  0.99999998245E-14  0.12500000000E+03  0.12500000000E+03 0.  0.
        -13    1    3    3    0    0  0.84965491619E+01  0.16585537042E+01  0.34595807499E+02  0.35662630422E+02  0.10566000000E+00 0. -1.
         23    2    1    0    0    0  0.49758465537E+01 -0.17856547401E+02 -0.22350404889E+02  0.95962852539E+02  0.91464272449E+02 0.  0.
         13    1    3    3    0    0 -0.35207026082E+01 -0.19515101105E+02 -0.56946212388E+02  0.60300222117E+02  0.10566000000E+00 0.  1.
         22    1    1    0    0    0 -0.49758465537E+01  0.17856547401E+02  0.22350404889E+02  0.29037147461E+02  0.00000000000E+00 0.  1.
</event>
<event>
 5    1  0.1325832E-009  0.9118800E+02  0.7818608E-02  0.1130116E+00
         25   -1    0    0    0    0  0.00000000000E+00  0.00000000000E+00  0.99999998245E-14  0.12500000000E+03  0.12500000000E+03 0.  0.
        -13    1    3    3    0    0  0.68609512449E+01  0.57477872128E+02  0.15609636420E+02  0.59953735076E+02  0.10566000000E+00 0.  1.
         23    2    1    0    0    0  0.36165170403E+01  0.28603718521E+02 -0.52136534973E+01  0.95700954085E+02  0.91105644837E+02 0.  0.
         13    1    3    3    0    0 -0.32444342047E+01 -0.28874153607E+02 -0.20823289918E+02  0.35747219009E+02  0.10566000000E+00 0. -1.
         22    1    1    0    0    0 -0.36165170403E+01 -0.28603718521E+02  0.52136534973E+01  0.29299045915E+02  0.00000000000E+00 0.  1.
</event>
<event>
 5    1  0.1325832E-009  0.9118800E+02  0.7818608E-02  0.1130116E+00
         25   -1    0    0    0    0  0.00000000000E+00  0.00000000000E+00  0.99999998245E-14  0.12500000000E+03  0.12500000000E+03 0.  0.
        -13    1    3    3    0    0 -0.38342213910E+02 -0.44243330351E+01 -0.22388832603E+02  0.44620298964E+02  0.10566000000E+00 0.  1.
         23    2    1    0    0    0  0.11867014482E+01  0.26086950448E+02 -0.14365442098E+02  0.95195584711E+02  0.90409602244E+02 0.  0.
         13    1    3    3    0    0  0.39528915358E+02  0.30511283483E+02  0.80233905052E+01  0.50575285747E+02  0.10566000000E+00 0. -1.
         22    1    1    0    0    0 -0.11867014482E+01 -0.26086950448E+02  0.14365442098E+02  0.29804415289E+02  0.00000000000E+00 0.  1.
</event>
<event>
 5    1  0.1325832E-009  0.9118800E+02  0.7818608E-02  0.1130116E+00
         25   -1    0    0    0    0  0.00000000000E+00  0.00000000000E+00  0.99999998245E-14  0.12500000000E+03  0.12500000000E+03 0.  0.
        -13    1    3    3    0    0 -0.24604738517E+02 -0.26090718676E+02 -0.17961065433E+02  0.40108973984E+02  0.10566000000E+00 0. -1.
         23    2    1    0    0    0 -0.29920314140E+01 -0.55634390149E+01  0.28774130849E+02  0.95540626080E+02  0.90885403229E+02 0.  0.
         13    1    3    3    0    0  0.21612707103E+02  0.20527279661E+02  0.46735196282E+02  0.55431652096E+02  0.10566000000E+00 0.  1.
         22    1    1    0    0    0  0.29920314140E+01  0.55634390149E+01 -0.28774130849E+02  0.29459373920E+02  0.00000000000E+00 0.  1.
</event>
<event>
 5    1  0.1325832E-009  0.9118800E+02  0.7818608E-02  0.1130116E+00
         25   -1    0    0    0    0  0.00000000000E+00  0.00000000000E+00  0.99999998245E-14  0.12500000000E+03  0.12500000000E+03 0.  0.
        -13    1    3    3    0    0  0.77603151328E+01  0.35638947223E+02 -0.72141811373E+01  0.37180809884E+02  0.10566000000E+00 0. -1.
         23    2    1    0    0    0 -0.13372661906E+02 -0.11223952622E+02  0.22471119362E+02  0.96543780920E+02  0.92254784321E+02 0.  0.
         13    1    3    3    0    0 -0.21132977039E+02 -0.46862899845E+02  0.29685300500E+02  0.59362971036E+02  0.10566000000E+00 0.  1.
         22    1    1    0    0    0  0.13372661906E+02  0.11223952622E+02 -0.22471119362E+02  0.28456219080E+02  0.00000000000E+00 0.  1.
</event>
<event>
 5    1  0.1325832E-009  0.9118800E+02  0.7818608E-02  0.1130116E+00
         25   -1    0    0    0    0  0.00000000000E+00  0.00000000000E+00  0.99999998245E-14  0.12500000000E+03  0.12500000000E+03 0.  0.
        -13    1    3    3    0    0  0.80814007051E+01  0.29183366918E+02 -0.15407103198E+02  0.33975990567E+02  0.10566000000E+00 0.  1.
         23    2    1    0    0    0 -0.69024506793E+01 -0.25159481119E+02  0.11559161615E+02  0.96464801862E+02  0.92147710039E+02 0.  0.
         13    1    3    3    0    0 -0.14983851384E+02 -0.54342848037E+02  0.26966264813E+02  0.62488811295E+02  0.10566000000E+00 0. -1.
         22    1    1    0    0    0  0.69024506793E+01  0.25159481119E+02 -0.11559161615E+02  0.28535198138E+02  0.00000000000E+00 0. -1.
</event>
<event>
 5    1  0.1325832E-009  0.9118800E+02  0.7818608E-02  0.1130116E+00
         25   -1    0    0    0    0  0.00000000000E+00  0.00000000000E+00  0.99999998245E-14  0.12500000000E+03  0.12500000000E+03 0.  0.
        -13    1    3    3    0    0  0.29009622095E+01 -0.42181809459E+02 -0.32460826795E+02  0.53305131753E+02  0.10566000000E+00 0. -1.
         23    2    1    0    0    0  0.25222701701E+02 -0.22489930686E+02 -0.13425766821E+02  0.88637479761E+02  0.80835449775E+02 0.  0.
         13    1    3    3    0    0  0.22321739492E+02  0.19691878772E+02  0.19035059975E+02  0.35332348008E+02  0.10566000000E+00 0.  1.
         22    1    1    0    0    0 -0.25222701701E+02  0.22489930686E+02  0.13425766821E+02  0.36362520239E+02  0.00000000000E+00 0.  1.
</event>
<event>
 4    1  0.1325832E-009  0.9118800E+02  0.7818608E-02  0.1130116E+00
         25   -1    0    0    0    0  0.00000000000E+00  0.00000000000E+00  0.99999998245E-14  0.12500000000E+03  0.12500000000E+03 0.  0.
        -13    1    1    0    0    0 -0.12807616358E+02  0.30426943412E+01  0.48018166424E+02  0.49790044149E+02  0.10566000000E+00 0.  1.
         13    1    1    0    0    0 -0.51082890712E+01  0.15068419328E+02  0.47577000817E+01  0.16607189780E+02  0.10566000000E+00 0. -1.
         22    1    1    0    0    0  0.17915905429E+02 -0.18111113669E+02 -0.52775866506E+02  0.58602766071E+02  0.00000000000E+00 0.  1.
</event>
<event>
 5    1  0.1325832E-009  0.9118800E+02  0.7818608E-02  0.1130116E+00
         25   -1    0    0    0    0  0.00000000000E+00  0.00000000000E+00  0.99999998245E-14  0.12500000000E+03  0.12500000000E+03 0.  0.
        -13    1    3    3    0    0  0.10355640723E+02  0.31899416880E+02  0.16470846369E+02  0.37364582644E+02  0.10566000000E+00 0. -1.
         23    2    1    0    0    0 -0.23710855851E+02 -0.13203697321E+02 -0.41779196885E+01  0.97540988346E+02  0.93596191623E+02 0.  0.
         13    1    3    3    0    0 -0.34066496574E+02 -0.45103114200E+02 -0.20648766057E+02  0.60176405701E+02  0.10566000000E+00 0.  1.
         22    1    1    0    0    0  0.23710855851E+02  0.13203697321E+02  0.41779196885E+01  0.27459011654E+02  0.00000000000E+00 0.  1.
</event>
<event>
 5    1  0.1325832E-009  0.9118800E+02  0.7818608E-02  0.1130116E+00
         25   -1    0    0    0    0  0.00000000000E+00  0.00000000000E+00  0.99999998245E-14  0.12500000000E+03  0.12500000000E+03 0.  0.
        -13    1    3    3    0    0 -0.72357284114E+01 -0.46592685746E+02 -0.21945043577E+02  0.52007982390E+02  0.10566000000E+00 0.  1.
         23    2    1    0    0    0  0.19059373499E+02 -0.11096617385E+02 -0.18316182486E+02  0.96331599689E+02  0.91966841428E+02 0.  0.
         13    1    3    3    0    0  0.26295101911E+02  0.35496068361E+02  0.36288610919E+01  0.44323617299E+02  0.10566000000E+00 0. -1.
         22    1    1    0    0    0 -0.19059373499E+02  0.11096617385E+02  0.18316182486E+02  0.28668400311E+02  0.00000000000E+00 0.  1.
</event>
<event>
 5    1  0.1325832E-009  0.9118800E+02  0.7818608E-02  0.1130116E+00
         25   -1    0    0    0    0  0.00000000000E+00  0.00000000000E+00  0.99999998245E-14  0.12500000000E+03  0.12500000000E+03 0.  0.
        -13    1    3    3    0    0  0.14524410259E+02 -0.27482514354E+02 -0.19778655401E+00  0.31085324063E+02  0.10566000000E+00 0.  1.
         23    2    1    0    0    0 -0.13215531175E+02  0.23420843895E+02  0.18910470704E+02  0.92124597414E+02  0.86058987639E+02 0.  0.
         13    1    3    3    0    0 -0.27739941433E+02  0.50903358249E+02  0.19108257258E+02  0.61039273350E+02  0.10566000000E+00 0. -1.
         22    1    1    0    0    0  0.13215531175E+02 -0.23420843895E+02 -0.18910470704E+02  0.32875402586E+02  0.00000000000E+00 0. -1.
</event>
<event>
 5    1  0.1325832E-009  0.9118800E+02  0.7818608E-02  0.1130116E+00
         25   -1    0    0    0    0  0.00000000000E+00  0.00000000000E+00  0.99999998245E-14  0.12500000000E+03  0.12500000000E+03 0.  0.
        -13    1    3    3    0    0  0.30372329058E+01  0.16519182235E+02  0.59216212985E+02  0.61552247804E+02  0.10566000000E+00 0.  1.
         23    2    1    0    0    0 -0.61295424984E-01  0.79737246195E+01  0.49515162506E+02  0.74846880861E+02  0.55558259649E+02 0.  0.
         13    1    3    3    0    0 -0.30985283308E+01 -0.85454576157E+01 -0.97010504790E+01  0.13294633057E+02  0.10566000000E+00 0. -1.
         22    1    1    0    0    0  0.61295424984E-01 -0.79737246195E+01 -0.49515162506E+02  0.50153119139E+02  0.00000000000E+00 0.  1.
</event>
<event>
 5    1  0.1325832E-009  0.9118800E+02  0.7818608E-02  0.1130116E+00
         25   -1    0    0    0    0  0.00000000000E+00  0.00000000000E+00  0.99999998245E-14  0.12500000000E+03  0.12500000000E+03 0.  0.
        -13    1    3    3    0    0  0.49324182227E+02 -0.46729141889E+01 -0.20048958069E+02  0.53447946294E+02  0.10566000000E+00 0.  1.
         23    2    1    0    0    0  0.90820517481E+01  0.96341179355E+01 -0.25265837671E+02  0.96475231016E+02  0.92161856286E+02 0.  0.
         13    1    3    3    0    0 -0.40242130479E+02  0.14307032124E+02 -0.52168796021E+01  0.43027284722E+02  0.10566000000E+00 0. -1.
         22    1    1    0    0    0 -0.90820517481E+01 -0.96341179355E+01  0.25265837671E+02  0.28524768984E+02  0.00000000000E+00 0.  1.
</event>
<event>
 5    1  0.1325832E-009  0.9118800E+02  0.7818608E-02  0.1130116E+00
         25   -1    0    0    0    0  0.00000000000E+00  0.00000000000E+00  0.99999998245E-14  0.12500000000E+03  0.12500000000E+03 0.  0.
        -13    1    3    3    0    0 -0.23114117787E+02  0.16778489098E+02  0.21928749404E+02  0.36009184272E+02  0.10566000000E+00 0. -1.
         23    2    1    0    0    0  0.13526004312E+02 -0.26362238495E+02  0.83592437262E+01  0.94213682149E+02  0.89041678653E+02 0.  0.
         13    1    3    3    0    0  0.36640122099E+02 -0.43140727593E+02 -0.13569505678E+02  0.58204497877E+02  0.10566000000E+00 0.  1.
         22    1    1    0    0    0 -0.13526004312E+02  0.26362238495E+02 -0.83592437262E+01  0.30786317851E+02  0.00000000000E+00 0.  1.
</event>
<event>
 5    1  0.1325832E-009  0.9118800E+02  0.7818608E-02  0.1130116E+00
         25   -1    0    0    0    0  0.00000000000E+00  0.00000000000E+00  0.99999998245E-14  0.12500000000E+03  0.12500000000E+03 0.  0.
        -13    1    3    3    0    0  0.10759328192E+02 -0.49849277359E+01 -0.32454312680E+02  0.34552948112E+02  0.10566000000E+00 0.  1.
         23    2    1    0    0    0 -0.51349798098E+01  0.16470128414E+02  0.23086947063E+02  0.96179169472E+02  0.91759426590E+02 0.  0.
         13    1    3    3    0    0 -0.15894308002E+02  0.21455056150E+02  0.55541259743E+02  0.61626221360E+02  0.10566000000E+00 0. -1.
         22    1    1    0    0    0  0.51349798098E+01 -0.16470128414E+02 -0.23086947063E+02  0.28820830528E+02  0.00000000000E+00 0. -1.
</event>
<event>
 5    1  0.1325832E-009  0.9118800E+02  0.7818608E-02  0.1130116E+00
         25   -1    0    0    0    0  0.00000000000E+00  0.00000000000E+00  0.99999998245E-14  0.12500000000E+03  0.12500000000E+03 0.  0.
        -13    1    3    3    0    0 -0.93508005087E+01  0.29227793304E+02 -0.18598428524E+02  0.35883339856E+02  0.10566000000E+00 0.  1.
         23    2    1    0    0    0 -0.85682104014E+01 -0.69556909238E+01  0.28010365429E+02  0.94893913619E+02  0.89991546296E+02 0.  0.
         13    1    3    3    0    0  0.78259010728E+00 -0.36183484228E+02  0.46608793953E+02  0.59010573764E+02  0.10566000000E+00 0. -1.
         22    1    1    0    0    0  0.85682104014E+01  0.69556909238E+01 -0.28010365429E+02  0.30106086381E+02  0.00000000000E+00 0. -1.
</event>
<event>
 5    1  0.1325832E-009  0.9118800E+02  0.7818608E-02  0.1130116E+00
         25   -1    0    0    0    0  0.00000000000E+00  0.00000000000E+00  0.99999998245E-14  0.12500000000E+03  0.12500000000E+03 0.  0.
        -13    1    3    3    0    0 -0.52757178309E+02  0.14390586388E+02  0.28165071862E+02  0.61511716581E+02  0.10566000000E+00 0.  1.
         23    2    1    0    0    0 -0.28575006586E+02  0.44220344045E+00  0.10470413502E+02  0.94563901298E+02  0.89531979340E+02 0.  0.
         13    1    3    3    0    0  0.24182171723E+02 -0.13948382948E+02 -0.17694658360E+02  0.33052184718E+02  0.10566000000E+00 0. -1.
         22    1    1    0    0    0  0.28575006586E+02 -0.44220344045E+00 -0.10470413502E+02  0.30436098702E+02  0.00000000000E+00 0.  1.
</event>
<event>
 5    1  0.1325832E-009  0.9118800E+02  0.7818608E-02  0.1130116E+00
         25   -1    0    0    0    0  0.00000000000E+00  0.00000000000E+00  0.99999998245E-14  0.12500000000E+03  0.12500000000E+03 0.  0.
        -13    1    3    3    0    0  0.19426861150E+02  0.41530489340E+02 -0.29871399330E+02  0.54721989556E+02  0.10566000000E+00 0.  1.
         23    2    1    0    0    0  0.52780520574E+01  0.33160793452E+01 -0.28849760035E+02  0.95484531686E+02  0.90808220561E+02 0.  0.
         13    1    3    3    0    0 -0.14148809093E+02 -0.38214409995E+02  0.10216392951E+01  0.40762542130E+02  0.10566000000E+00 0. -1.
         22    1    1    0    0    0 -0.52780520574E+01 -0.33160793452E+01  0.28849760035E+02  0.29515468314E+02  0.00000000000E+00 0.  1.
</event>
<event>
 5    1  0.1325832E-009  0.9118800E+02  0.7818608E-02  0.1130116E+00
         25   -1    0    0    0    0  0.00000000000E+00  0.00000000000E+00  0.99999998245E-14  0.12500000000E+03  0.12500000000E+03 0.  0.
        -13    1    3    3    0    0 -0.53078175037E+02  0.19955712305E+02  0.66372531634E+01  0.57092796502E+02  0.10566000000E+00 0.  1.
         23    2    1    0    0    0 -0.28954087748E+02 -0.66929855206E+01 -0.49764103268E+01  0.94868622463E+02  0.89956409531E+02 0.  0.
         13    1    3    3    0    0  0.24124087289E+02 -0.26648697826E+02 -0.11613663490E+02  0.37775825961E+02  0.10566000000E+00 0. -1.
         22    1    1    0    0    0  0.28954087748E+02  0.66929855206E+01  0.49764103268E+01  0.30131377537E+02  0.00000000000E+00 0. -1.
</event>
<event>
 5    1  0.1325832E-009  0.9118800E+02  0.7818608E-02  0.1130116E+00
         25   -1    0    0    0    0  0.00000000000E+00  0.00000000000E+00  0.99999998245E-14  0.12500000000E+03  0.12500000000E+03 0.  0.
        -13    1    3    3    0    0 -0.15731138837E+02 -0.29760225193E+02 -0.13958948119E+02  0.36441777252E+02  0.10566000000E+00 0.  1.
         23    2    1    0    0    0  0.20233249542E+02  0.90348665618E+01  0.16397609511E+02  0.97433810592E+02  0.93452943495E+02 0.  0.
         13    1    3    3    0    0  0.35964388379E+02  0.38795091755E+02  0.30356557631E+02  0.60992033340E+02  0.10566000000E+00 0. -1.
         22    1    1    0    0    0 -0.20233249542E+02 -0.90348665618E+01 -0.16397609511E+02  0.27566189408E+02  0.00000000000E+00 0. -1.
</event>
<event>
 5    1  0.1325832E-009  0.9118800E+02  0.7818608E-02  0.1130116E+00
         25   -1    0    0    0    0  0.00000000000E+00  0.00000000000E+00  0.99999998245E-14  0.12500000000E+03  0.12500000000E+03 0.  0.
        -13    1    3    3    0    0 -0.28818798337E+02  0.32573095173E+02 -0.30574387191E+02  0.53163276638E+02  0.10566000000E+00 0.  1.
         23    2    1    0    0    0 -0.16182838446E+02  0.17137301113E+02  0.10782777526E+02  0.99080130386E+02  0.95629663790E+02 0.  0.
         13    1    3    3    0    0  0.12635959891E+02 -0.15435794060E+02  0.41357164718E+02  0.45916853748E+02  0.10566000000E+00 0. -1.
         22    1    1    0    0    0  0.16182838446E+02 -0.17137301113E+02 -0.10782777526E+02  0.25919869614E+02  0.00000000000E+00 0.  1.
</event>
<event>
 5    1  0.1325832E-009  0.9118800E+02  0.7818608E-02  0.1130116E+00
         25   -1    0    0    0    0  0.00000000000E+00  0.00000000000E+00  0.99999998245E-14  0.12500000000E+03  0.12500000000E+03 0.  0.
        -13    1    3    3    0    0  0.13563582448E+02 -0.37586559860E+02 -0.69576471022E+01  0.40560328749E+02  0.10566000000E+00 0.  1.
         23    2    1    0    0    0  0.15942799258E+02  0.79730442766E+01  0.23566178623E+02  0.95451614967E+02  0.90762898486E+02 0.  0.
         13    1    3    3    0    0  0.23792168095E+01  0.45559604137E+02  0.30523825725E+02  0.54891286218E+02  0.10566000000E+00 0. -1.
         22    1    1    0    0    0 -0.15942799258E+02 -0.79730442766E+01 -0.23566178623E+02  0.29548385033E+02  0.00000000000E+00 0. -1.
</event>
<event>
 5    1  0.1325832E-009  0.9118800E+02  0.7818608E-02  0.1130116E+00
         25   -1    0    0    0    0  0.00000000000E+00  0.00000000000E+00  0.99999998245E-14  0.12500000000E+03  0.12500000000E+03 0.  0.
        -13    1    3    3    0    0  0.22490716500E+02 -0.46313322500E+02 -0.17705919529E+02  0.54445081688E+02  0.10566000000E+00 0.  1.
         23    2    1    0    0    0  0.23315896450E+02 -0.53924449570E+01 -0.17462037700E+02  0.95375141341E+02  0.90657516706E+02 0.  0.
         13    1    3    3    0    0  0.82517994999E+00  0.40920877543E+02  0.24388182833E+00  0.40930059653E+02  0.10566000000E+00 0. -1.
         22    1    1    0    0    0 -0.23315896450E+02  0.53924449570E+01  0.17462037700E+02  0.29624858659E+02  0.00000000000E+00 0.  1.
</event>
<event>
 4    1  0.1325832E-009  0.9118800E+02  0.7818608E-02  0.1130116E+00
         25   -1    0    0    0    0  0.00000000000E+00  0.00000000000E+00  0.99999998245E-14  0.12500000000E+03  0.12500000000E+03 0.  0.
        -13    1    1    0    0    0 -0.10287441100E+02 -0.37778660682E+01 -0.35752441389E+01  0.11528107004E+02  0.10566000000E+00 0. -1.
         13    1    1    0    0    0  0.31956180504E+02  0.22001285059E+02  0.47426679841E+02  0.61274424856E+02  0.10566000000E+00 0.  1.
         22    1    1    0    0    0 -0.21668739404E+02 -0.18223418991E+02 -0.43851435702E+02  0.52197468140E+02  0.00000000000E+00 0.  1.
</event>
<event>
 5    1  0.1325832E-009  0.9118800E+02  0.7818608E-02  0.1130116E+00
         25   -1    0    0    0    0  0.00000000000E+00  0.00000000000E+00  0.99999998245E-14  0.12500000000E+03  0.12500000000E+03 0.  0.
        -13    1    3    3    0    0  0.32580171108E+02  0.16333698231E+02  0.95155173505E+01  0.37667140611E+02  0.10566000000E+00 0.  1.
         23    2    1    0    0    0 -0.41214450243E+01 -0.25689219427E+02  0.16941108717E+02  0.93952883090E+02  0.88674803481E+02 0.  0.
         13    1    3    3    0    0 -0.36701616132E+02 -0.42022917658E+02  0.74255913668E+01  0.56285742479E+02  0.10566000000E+00 0. -1.
         22    1    1    0    0    0  0.41214450243E+01  0.25689219427E+02 -0.16941108717E+02  0.31047116910E+02  0.00000000000E+00 0. -1.
</event>
<event>
 5    1  0.1325832E-009  0.9118800E+02  0.7818608E-02  0.1130116E+00
         25   -1    0    0    0    0  0.00000000000E+00  0.00000000000E+00  0.99999998245E-14  0.12500000000E+03  0.12500000000E+03 0.  0.
        -13    1    3    3    0    0  0.12680764921E+02 -0.57751275700E+01 -0.60046932822E+02  0.61642511327E+02  0.10566000000E+00 0. -1.
         23    2    1    0    0    0  0.71583449339E+00 -0.23938903021E+01 -0.37712679836E+02  0.87204638510E+02  0.78588546414E+02 0.  0.
         13    1    3    3    0    0 -0.11964930428E+02  0.33812372679E+01  0.22334252986E+02  0.25562127182E+02  0.10566000000E+00 0.  1.
         22    1    1    0    0    0 -0.71583449339E+00  0.23938903021E+01  0.37712679836E+02  0.37795361490E+02  0.00000000000E+00 0. -1.
</event>
<event>
 5    1  0.1325832E-009  0.9118800E+02  0.7818608E-02  0.1130116E+00
         25   -1    0    0    0    0  0.00000000000E+00  0.00000000000E+00  0.99999998245E-14  0.12500000000E+03  0.12500000000E+03 0.  0.
        -13    1    3    3    0    0 -0.76004931927E-01 -0.36767163810E+01 -0.43076767944E+02  0.43233587876E+02  0.10566000000E+00 0.  1.
         23    2    1    0    0    0 -0.14700562089E+02 -0.26644510662E+02  0.43882656652E+00  0.94565988715E+02  0.89534893638E+02 0.  0.
         13    1    3    3    0    0 -0.14624557158E+02 -0.22967794281E+02  0.43515594511E+02  0.51332400839E+02  0.10566000000E+00 0. -1.
         22    1    1    0    0    0  0.14700562089E+02  0.26644510662E+02 -0.43882656652E+00  0.30434011285E+02  0.00000000000E+00 0.  1.
</event>
<event>
 4    1  0.1325832E-009  0.9118800E+02  0.7818608E-02  0.1130116E+00
         25   -1    0    0    0    0  0.00000000000E+00  0.00000000000E+00  0.99999998245E-14  0.12500000000E+03  0.12500000000E+03 0.  0.
        -13    1    1    0    0    0  0.29706960005E+02  0.10386124050E+02 -0.47286693114E+02  0.56801562964E+02  0.10566000000E+00 0.  1.
         13    1    1    0    0    0 -0.98368125966E+01  0.51122091077E+01 -0.33975217781E+01  0.11595338817E+02  0.10566000000E+00 0. -1.
         22    1    1    0    0    0 -0.19870147408E+02 -0.15498333157E+02  0.50684214892E+02  0.56603098218E+02  0.00000000000E+00 0.  1.
</event>
<event>
 5    1  0.1325832E-009  0.9118800E+02  0.7818608E-02  0.1130116E+00
         25   -1    0    0    0    0  0.00000000000E+00  0.00000000000E+00  0.99999998245E-14  0.12500000000E+03  0.12500000000E+03 0.  0.
        -13    1    3    3    0    0  0.16245750978E+02 -0.56807770886E+02 -0.90272082629E+01  0.59770803165E+02  0.10566000000E+00 0.  1.
         23    2    1    0    0    0 -0.18470694218E+01 -0.24888765764E+02 -0.13318695212E+02  0.96711310231E+02  0.92481498462E+02 0.  0.
         13    1    3    3    0    0 -0.18092820400E+02  0.31919005123E+02 -0.42914869495E+01  0.36940507066E+02  0.10566000000E+00 0. -1.
         22    1    1    0    0    0  0.18470694218E+01  0.24888765764E+02  0.13318695212E+02  0.28288689769E+02  0.00000000000E+00 0.  1.
</event>
<event>
 5    1  0.1325832E-009  0.9118800E+02  0.7818608E-02  0.1130116E+00
         25   -1    0    0    0    0  0.00000000000E+00  0.00000000000E+00  0.99999998245E-14  0.12500000000E+03  0.12500000000E+03 0.  0.
        -13    1    3    3    0    0 -0.13675966948E+02  0.11458848607E+01 -0.40860660230E+02  0.43103942309E+02  0.10566000000E+00 0.  1.
         23    2    1    0    0    0  0.77362072349E+01 -0.28523616133E+02 -0.37670890686E+01  0.95206770236E+02  0.90425065989E+02 0.  0.
         13    1    3    3    0    0  0.21412174183E+02 -0.29669500994E+02  0.37093571162E+02  0.52102827927E+02  0.10566000000E+00 0. -1.
         22    1    1    0    0    0 -0.77362072349E+01  0.28523616133E+02  0.37670890686E+01  0.29793229764E+02  0.00000000000E+00 0. -1.
</event>
<event>
 5    1  0.1325832E-009  0.9118800E+02  0.7818608E-02  0.1130116E+00
         25   -1    0    0    0    0  0.00000000000E+00  0.00000000000E+00  0.99999998245E-14  0.12500000000E+03  0.12500000000E+03 0.  0.
        -13    1    3    3    0    0 -0.21669261973E+02  0.24711126265E+02 -0.16163533669E+02  0.36626051663E+02  0.10566000000E+00 0.  1.
         23    2    1    0    0    0  0.22436368073E+02  0.16126753144E+02  0.17076653469E+02  0.92518083909E+02  0.86628638320E+02 0.  0.
         13    1    3    3    0    0  0.44105630045E+02 -0.85843731212E+01  0.33240187138E+02  0.55892032246E+02  0.10566000000E+00 0. -1.
         22    1    1    0    0    0 -0.22436368073E+02 -0.16126753144E+02 -0.17076653469E+02  0.32481916091E+02  0.00000000000E+00 0. -1.
</event>
<event>
 5    1  0.1325832E-009  0.9118800E+02  0.7818608E-02  0.1130116E+00
         25   -1    0    0    0    0  0.00000000000E+00  0.00000000000E+00  0.99999998245E-14  0.12500000000E+03  0.12500000000E+03 0.  0.
        -13    1    3    3    0    0  0.28831796051E+02  0.19445115976E+02 -0.47154381983E+02  0.58591227185E+02  0.10566000000E+00 0.  1.
         23    2    1    0    0    0  0.13171383645E+02 -0.64488481253E+01 -0.24703085284E+02  0.96271696677E+02  0.91885386048E+02 0.  0.
         13    1    3    3    0    0 -0.15660412406E+02 -0.25893964102E+02  0.22451296698E+02  0.37680469491E+02  0.10566000000E+00 0. -1.
         22    1    1    0    0    0 -0.13171383645E+02  0.64488481253E+01  0.24703085284E+02  0.28728303323E+02  0.00000000000E+00 0.  1.
</event>
<event>
 5    1  0.1325832E-009  0.9118800E+02  0.7818608E-02  0.1130116E+00
         25   -1    0    0    0    0  0.00000000000E+00  0.00000000000E+00  0.99999998245E-14  0.12500000000E+03  0.12500000000E+03 0.  0.
        -13    1    3    3    0    0  0.38095493123E+02  0.33733742612E+02  0.16849746498E+02  0.53601838662E+02  0.10566000000E+00 0. -1.
         23    2    1    0    0    0  0.12021802660E+02  0.23302644310E+02 -0.13963755825E+02  0.95292703795E+02  0.90543779183E+02 0.  0.
         13    1    3    3    0    0 -0.26073690462E+02 -0.10431098302E+02 -0.30813502323E+02  0.41690865133E+02  0.10566000000E+00 0.  1.
         22    1    1    0    0    0 -0.12021802660E+02 -0.23302644310E+02  0.13963755825E+02  0.29707296205E+02  0.00000000000E+00 0. -1.
</event>
<event>
 5    1  0.1325832E-009  0.9118800E+02  0.7818608E-02  0.1130116E+00
         25   -1    0    0    0    0  0.00000000000E+00  0.00000000000E+00  0.99999998245E-14  0.12500000000E+03  0.12500000000E+03 0.  0.
        -13    1    3    3    0    0 -0.21574852334E+02 -0.15781227952E+02 -0.32566875110E+02  0.42132338261E+02  0.10566000000E+00 0.  1.
         23    2    1    0    0    0 -0.26347956979E+02  0.14818701115E+02  0.85283538948E+01  0.93590740858E+02  0.88162833521E+02 0.  0.
         13    1    3    3    0    0 -0.47731046454E+01  0.30599929066E+02  0.41095229005E+02  0.51458402597E+02  0.10566000000E+00 0. -1.
         22    1    1    0    0    0  0.26347956979E+02 -0.14818701115E+02 -0.85283538948E+01  0.31409259142E+02  0.00000000000E+00 0. -1.
</event>
<event>
 5    1  0.1325832E-009  0.9118800E+02  0.7818608E-02  0.1130116E+00
         25   -1    0    0    0    0  0.00000000000E+00  0.00000000000E+00  0.99999998245E-14  0.12500000000E+03  0.12500000000E+03 0.  0.
        -13    1    3    3    0    0 -0.16807653244E+02  0.19389264435E+02 -0.41731484462E+02  0.48989475833E+02  0.10566000000E+00 0.  1.
         23    2    1    0    0    0  0.20160613072E+02  0.58266598153E+00 -0.22729603162E+02  0.94612096503E+02  0.89599241769E+02 0.  0.
         13    1    3    3    0    0  0.36968266316E+02 -0.18806598453E+02  0.19001881300E+02  0.45622620670E+02  0.10566000000E+00 0. -1.
         22    1    1    0    0    0 -0.20160613072E+02 -0.58266598153E+00  0.22729603162E+02  0.30387903497E+02  0.00000000000E+00 0. -1.
</event>
<event>
 5    1  0.1325832E-009  0.9118800E+02  0.7818608E-02  0.1130116E+00
         25   -1    0    0    0    0  0.00000000000E+00  0.00000000000E+00  0.99999998245E-14  0.12500000000E+03  0.12500000000E+03 0.  0.
        -13    1    3    3    0    0 -0.12112499861E+02 -0.28793100869E+02  0.15840552186E+01  0.31277399277E+02  0.10566000000E+00 0.  1.
         23    2    1    0    0    0  0.17119846991E+01  0.30545674516E+02 -0.89827972110E+01  0.93114897382E+02  0.87485566498E+02 0.  0.
         13    1    3    3    0    0  0.13824484560E+02  0.59338775385E+02 -0.10566852430E+02  0.61837498105E+02  0.10566000000E+00 0. -1.
         22    1    1    0    0    0 -0.17119846991E+01 -0.30545674516E+02  0.89827972110E+01  0.31885102618E+02  0.00000000000E+00 0. -1.
</event>
<event>
 5    1  0.1325832E-009  0.9118800E+02  0.7818608E-02  0.1130116E+00
         25   -1    0    0    0    0  0.00000000000E+00  0.00000000000E+00  0.99999998245E-14  0.12500000000E+03  0.12500000000E+03 0.  0.
        -13    1    3    3    0    0  0.31341050418E+02  0.53959034992E+00 -0.42886562267E+02  0.53120814999E+02  0.10566000000E+00 0.  1.
         23    2    1    0    0    0 -0.65336139389E+01  0.12777944174E+02 -0.23668181485E+02  0.97320643374E+02  0.93301451454E+02 0.  0.
         13    1    3    3    0    0 -0.37874664356E+02  0.12238353824E+02  0.19218380782E+02  0.44199828375E+02  0.10566000000E+00 0. -1.
         22    1    1    0    0    0  0.65336139389E+01 -0.12777944174E+02  0.23668181485E+02  0.27679356626E+02  0.00000000000E+00 0.  1.
</event>
<event>
 5    1  0.1325832E-009  0.9118800E+02  0.7818608E-02  0.1130116E+00
         25   -1    0    0    0    0  0.00000000000E+00  0.00000000000E+00  0.99999998245E-14  0.12500000000E+03  0.12500000000E+03 0.  0.
        -13    1    3    3    0    0 -0.38328375945E+02 -0.18457888300E+02 -0.23975169358E+01  0.42608887507E+02  0.10566000000E+00 0.  1.
         23    2    1    0    0    0 -0.79249034059E+01  0.26542707221E+02 -0.43880671071E+01  0.96954063868E+02  0.92809029555E+02 0.  0.
         13    1    3    3    0    0  0.30403472540E+02  0.45000595520E+02 -0.19905501713E+01  0.54345176361E+02  0.10566000000E+00 0. -1.
         22    1    1    0    0    0  0.79249034059E+01 -0.26542707221E+02  0.43880671071E+01  0.28045936132E+02  0.00000000000E+00 0. -1.
</event>
<event>
 5    1  0.1325832E-009  0.9118800E+02  0.7818608E-02  0.1130116E+00
         25   -1    0    0    0    0  0.00000000000E+00  0.00000000000E+00  0.99999998245E-14  0.12500000000E+03  0.12500000000E+03 0.  0.
        -13    1    3    3    0    0  0.53190508751E+02  0.30231760868E+02 -0.99218970715E+01  0.61981003476E+02  0.10566000000E+00 0. -1.
         23    2    1    0    0    0  0.13406533013E+02  0.24495838861E+01 -0.85979042313E+00  0.11134442135E+03  0.11050387024E+03 0.  0.
         13    1    3    3    0    0 -0.39783975738E+02 -0.27782176982E+02  0.90621066484E+01  0.49363417875E+02  0.10566000000E+00 0.  1.
         22    1    1    0    0    0 -0.13406533013E+02 -0.24495838861E+01  0.85979042313E+00  0.13655578648E+02  0.00000000000E+00 0. -1.
</event>
<event>
 5    1  0.1325832E-009  0.9118800E+02  0.7818608E-02  0.1130116E+00
         25   -1    0    0    0    0  0.00000000000E+00  0.00000000000E+00  0.99999998245E-14  0.12500000000E+03  0.12500000000E+03 0.  0.
        -13    1    3    3    0    0  0.45259990171E+02  0.99983443965E+01  0.40636234819E+02  0.61642098807E+02  0.10566000000E+00 0.  1.
         23    2    1    0    0    0  0.27833858615E+02  0.34187211066E+01  0.15405036995E+02  0.93004273657E+02  0.87327363491E+02 0.  0.
         13    1    3    3    0    0 -0.17426131556E+02 -0.65796232899E+01 -0.25231197824E+02  0.31362174850E+02  0.10566000000E+00 0. -1.
         22    1    1    0    0    0 -0.27833858615E+02 -0.34187211066E+01 -0.15405036995E+02  0.31995726343E+02  0.00000000000E+00 0.  1.
</event>
<event>
 5    1  0.1325832E-009  0.9118800E+02  0.7818608E-02  0.1130116E+00
         25   -1    0    0    0    0  0.00000000000E+00  0.00000000000E+00  0.99999998245E-14  0.12500000000E+03  0.12500000000E+03 0.  0.
        -13    1    3    3    0    0  0.47303179864E+01 -0.26363506371E+02  0.22360534007E+02  0.34891474912E+02  0.10566000000E+00 0. -1.
         23    2    1    0    0    0  0.10537079493E+02  0.15517946838E+02 -0.21942314899E+02  0.96133030962E+02  0.91696552500E+02 0.  0.
         13    1    3    3    0    0  0.58067615069E+01  0.41881453209E+02 -0.44302848906E+02  0.61241556050E+02  0.10566000000E+00 0.  1.
         22    1    1    0    0    0 -0.10537079493E+02 -0.15517946838E+02  0.21942314899E+02  0.28866969038E+02  0.00000000000E+00 0.  1.
</event>
<event>
 5    1  0.1325832E-009  0.9118800E+02  0.7818608E-02  0.1130116E+00
         25   -1    0    0    0    0  0.00000000000E+00  0.00000000000E+00  0.99999998245E-14  0.12500000000E+03  0.12500000000E+03 0.  0.
        -13    1    3    3    0    0  0.53788500058E+01 -0.18460600354E+02  0.31221094756E+02  0.36667338526E+02  0.10566000000E+00 0.  1.
         23    2    1    0    0    0  0.25110394157E+01  0.25295267218E+02 -0.10781700552E+02  0.97388391402E+02  0.93392172319E+02 0.  0.
         13    1    3    3    0    0 -0.28678105900E+01  0.43755867572E+02 -0.42002795308E+02  0.60721052875E+02  0.10566000000E+00 0. -1.
         22    1    1    0    0    0 -0.25110394157E+01 -0.25295267218E+02  0.10781700552E+02  0.27611608598E+02  0.00000000000E+00 0. -1.
</event>
<event>
 5    1  0.1325832E-009  0.9118800E+02  0.7818608E-02  0.1130116E+00
         25   -1    0    0    0    0  0.00000000000E+00  0.00000000000E+00  0.99999998245E-14  0.12500000000E+03  0.12500000000E+03 0.  0.
        -13    1    3    3    0    0 -0.33120018040E+02 -0.18710428398E+02 -0.41190158101E+02  0.56068315600E+02  0.10566000000E+00 0.  1.
         23    2    1    0    0    0 -0.30152284778E+02  0.17262319311E+01 -0.10569042019E+02  0.93002425042E+02  0.87324717351E+02 0.  0.
         13    1    3    3    0    0  0.29677332618E+01  0.20436660329E+02  0.30621116082E+02  0.36934109442E+02  0.10566000000E+00 0. -1.
         22    1    1    0    0    0  0.30152284778E+02 -0.17262319311E+01  0.10569042019E+02  0.31997574958E+02  0.00000000000E+00 0.  1.
</event>
<event>
 5    1  0.1325832E-009  0.9118800E+02  0.7818608E-02  0.1130116E+00
         25   -1    0    0    0    0  0.00000000000E+00  0.00000000000E+00  0.99999998245E-14  0.12500000000E+03  0.12500000000E+03 0.  0.
        -13    1    3    3    0    0  0.35686488498E+02 -0.84583472651E+01 -0.21576774245E+02  0.42551585759E+02  0.10566000000E+00 0.  1.
         23    2    1    0    0    0  0.15078818591E+02 -0.13864131070E+01  0.26018071177E+02  0.94896296919E+02  0.89994856685E+02 0.  0.
         13    1    3    3    0    0 -0.20607669907E+02  0.70719341581E+01  0.47594845422E+02  0.52344711161E+02  0.10566000000E+00 0. -1.
         22    1    1    0    0    0 -0.15078818591E+02  0.13864131070E+01 -0.26018071177E+02  0.30103703081E+02  0.00000000000E+00 0. -1.
</event>
<event>
 5    1  0.1325832E-009  0.9118800E+02  0.7818608E-02  0.1130116E+00
         25   -1    0    0    0    0  0.00000000000E+00  0.00000000000E+00  0.99999998245E-14  0.12500000000E+03  0.12500000000E+03 0.  0.
        -13    1    3    3    0    0 -0.22591172820E+02  0.28507054734E+02 -0.62437995190E-01  0.36373456277E+02  0.10566000000E+00 0.  1.
         23    2    1    0    0    0  0.27686132472E+02  0.13829450415E+01 -0.12097214335E+02  0.94754718336E+02  0.89797993208E+02 0.  0.
         13    1    3    3    0    0  0.50277305292E+02 -0.27124109693E+02 -0.12034776340E+02  0.58381262059E+02  0.10566000000E+00 0. -1.
         22    1    1    0    0    0 -0.27686132472E+02 -0.13829450415E+01  0.12097214335E+02  0.30245281664E+02  0.00000000000E+00 0. -1.
</event>
<event>
 5    1  0.1325832E-009  0.9118800E+02  0.7818608E-02  0.1130116E+00
         25   -1    0    0    0    0  0.00000000000E+00  0.00000000000E+00  0.99999998245E-14  0.12500000000E+03  0.12500000000E+03 0.  0.
        -13    1    3    3    0    0 -0.29105756808E+02  0.83259050826E+01  0.16673343981E+02  0.34561211472E+02  0.10566000000E+00 0. -1.
         23    2    1    0    0    0  0.20862803422E+02 -0.67166274469E+01 -0.17512338430E+02  0.96945559207E+02  0.92797574332E+02 0.  0.
         13    1    3    3    0    0  0.49968560231E+02 -0.15042532529E+02 -0.34185682411E+02  0.62384347736E+02  0.10566000000E+00 0.  1.
         22    1    1    0    0    0 -0.20862803422E+02  0.67166274469E+01  0.17512338430E+02  0.28054440793E+02  0.00000000000E+00 0.  1.
</event>
<event>
 5    1  0.1325832E-009  0.9118800E+02  0.7818608E-02  0.1130116E+00
         25   -1    0    0    0    0  0.00000000000E+00  0.00000000000E+00  0.99999998245E-14  0.12500000000E+03  0.12500000000E+03 0.  0.
        -13    1    3    3    0    0  0.55021107984E+02  0.20754590859E+02  0.28137444806E+01  0.58872775436E+02  0.10566000000E+00 0. -1.
         23    2    1    0    0    0  0.24438353085E+02  0.11575671714E+02 -0.13551667189E+02  0.94753066920E+02  0.89795694384E+02 0.  0.
         13    1    3    3    0    0 -0.30582754898E+02 -0.91789191450E+01 -0.16365411670E+02  0.35880291484E+02  0.10566000000E+00 0.  1.
         22    1    1    0    0    0 -0.24438353085E+02 -0.11575671714E+02  0.13551667189E+02  0.30246933080E+02  0.00000000000E+00 0. -1.
</event>
<event>
 5    1  0.1325832E-009  0.9118800E+02  0.7818608E-02  0.1130116E+00
         25   -1    0    0    0    0  0.00000000000E+00  0.00000000000E+00  0.99999998245E-14  0.12500000000E+03  0.12500000000E+03 0.  0.
        -13    1    3    3    0    0 -0.56133680189E+02  0.17133932846E+02  0.16146687123E+02  0.60871079959E+02  0.10566000000E+00 0.  1.
         23    2    1    0    0    0 -0.22551210155E+02  0.16734824722E+02  0.37614686582E+01  0.96666978904E+02  0.92421559855E+02 0.  0.
         13    1    3    3    0    0  0.33582470034E+02 -0.39910812384E+00 -0.12385218464E+02  0.35795898945E+02  0.10566000000E+00 0. -1.
         22    1    1    0    0    0  0.22551210155E+02 -0.16734824722E+02 -0.37614686582E+01  0.28333021096E+02  0.00000000000E+00 0.  1.
</event>
<event>
 5    1  0.1325832E-009  0.9118800E+02  0.7818608E-02  0.1130116E+00
         25   -1    0    0    0    0  0.00000000000E+00  0.00000000000E+00  0.99999998245E-14  0.12500000000E+03  0.12500000000E+03 0.  0.
        -13    1    3    3    0    0  0.26870266040E+02 -0.55581578638E+00 -0.18695858796E+02  0.32739371228E+02  0.10566000000E+00 0.  1.
         23    2    1    0    0    0 -0.25479095809E+02 -0.29793637804E+01  0.15229179784E+02  0.95167319117E+02  0.90370513881E+02 0.  0.
         13    1    3    3    0    0 -0.52349361849E+02 -0.24235479940E+01  0.33925038580E+02  0.62427947889E+02  0.10566000000E+00 0. -1.
         22    1    1    0    0    0  0.25479095809E+02  0.29793637804E+01 -0.15229179784E+02  0.29832680883E+02  0.00000000000E+00 0. -1.
</event>
<event>
 5    1  0.1325832E-009  0.9118800E+02  0.7818608E-02  0.1130116E+00
         25   -1    0    0    0    0  0.00000000000E+00  0.00000000000E+00  0.99999998245E-14  0.12500000000E+03  0.12500000000E+03 0.  0.
        -13    1    3    3    0    0 -0.38461098422E+02  0.20267724941E+01  0.21810266556E+02  0.44261301267E+02  0.10566000000E+00 0. -1.
         23    2    1    0    0    0  0.12366906828E+02  0.17121621894E+02  0.17701037104E+02  0.97442477700E+02  0.93464535654E+02 0.  0.
         13    1    3    3    0    0  0.50828005250E+02  0.15094849400E+02 -0.41092294527E+01  0.53181176433E+02  0.10566000000E+00 0.  1.
         22    1    1    0    0    0 -0.12366906828E+02 -0.17121621894E+02 -0.17701037104E+02  0.27557522300E+02  0.00000000000E+00 0.  1.
</event>
<event>
 5    1  0.1325832E-009  0.9118800E+02  0.7818608E-02  0.1130116E+00
         25   -1    0    0    0    0  0.00000000000E+00  0.00000000000E+00  0.99999998245E-14  0.12500000000E+03  0.12500000000E+03 0.  0.
        -13    1    3    3    0    0  0.23776353845E+02 -0.35222883680E+02 -0.35079413479E+02  0.55104836003E+02  0.10566000000E+00 0.  1.
         23    2    1    0    0    0  0.88203840889E+01 -0.29065083650E+02  0.96369879591E+00  0.94610742384E+02  0.89597352618E+02 0.  0.
         13    1    3    3    0    0 -0.14955969756E+02  0.61578000295E+01  0.36043112275E+02  0.39505906381E+02  0.10566000000E+00 0. -1.
         22    1    1    0    0    0 -0.88203840889E+01  0.29065083650E+02 -0.96369879591E+00  0.30389257616E+02  0.00000000000E+00 0.  1.
</event>
<event>
 5    1  0.1325832E-009  0.9118800E+02  0.7818608E-02  0.1130116E+00
         25   -1    0    0    0    0  0.00000000000E+00  0.00000000000E+00  0.99999998245E-14  0.12500000000E+03  0.12500000000E+03 0.  0.
        -13    1    3    3    0    0  0.27284026998E+02  0.34407839545E+02  0.42434905431E+02  0.61065947257E+02  0.10566000000E+00 0.  1.
         23    2    1    0    0    0  0.14765228832E+02  0.75568176013E+01  0.23535334108E+02  0.96207128898E+02  0.91797506636E+02 0.  0.
         13    1    3    3    0    0 -0.12518798166E+02 -0.26851021943E+02 -0.18899571324E+02  0.35141181642E+02  0.10566000000E+00 0. -1.
         22    1    1    0    0    0 -0.14765228832E+02 -0.75568176013E+01 -0.23535334108E+02  0.28792871102E+02  0.00000000000E+00 0.  1.
</event>
<event>
 5    1  0.1325832E-009  0.9118800E+02  0.7818608E-02  0.1130116E+00
         25   -1    0    0    0    0  0.00000000000E+00  0.00000000000E+00  0.99999998245E-14  0.12500000000E+03  0.12500000000E+03 0.  0.
        -13    1    3    3    0    0  0.16802340705E+02  0.38068474174E+02  0.28733712095E+00  0.41612751721E+02  0.10566000000E+00 0.  1.
         23    2    1    0    0    0  0.20145374149E+02 -0.13528824271E+02  0.16330637225E+02  0.95750129951E+02  0.91173090809E+02 0.  0.
         13    1    3    3    0    0  0.33430334435E+01 -0.51597298444E+02  0.16043300104E+02  0.54137378230E+02  0.10566000000E+00 0. -1.
         22    1    1    0    0    0 -0.20145374149E+02  0.13528824271E+02 -0.16330637225E+02  0.29249870049E+02  0.00000000000E+00 0. -1.
</event>
<event>
 5    1  0.1325832E-009  0.9118800E+02  0.7818608E-02  0.1130116E+00
         25   -1    0    0    0    0  0.00000000000E+00  0.00000000000E+00  0.99999998245E-14  0.12500000000E+03  0.12500000000E+03 0.  0.
        -13    1    3    3    0    0  0.19545058982E+01 -0.31300742852E+02 -0.35999693824E+02  0.47744588341E+02  0.10566000000E+00 0.  1.
         23    2    1    0    0    0 -0.68965594845E+01 -0.25862867504E+02  0.11134365545E+02  0.96009923347E+02  0.91528579345E+02 0.  0.
         13    1    3    3    0    0 -0.88510653827E+01  0.54378753484E+01  0.47134059369E+02  0.48265335007E+02  0.10566000000E+00 0. -1.
         22    1    1    0    0    0  0.68965594845E+01  0.25862867504E+02 -0.11134365545E+02  0.28990076653E+02  0.00000000000E+00 0. -1.
</event>
<event>
 5    1  0.1325832E-009  0.9118800E+02  0.7818608E-02  0.1130116E+00
         25   -1    0    0    0    0  0.00000000000E+00  0.00000000000E+00  0.99999998245E-14  0.12500000000E+03  0.12500000000E+03 0.  0.
        -13    1    3    3    0    0  0.98043426500E+00  0.20488745718E+02 -0.40091069043E+02  0.45033930913E+02  0.10566000000E+00 0.  1.
         23    2    1    0    0    0 -0.19492611203E+02 -0.17373884302E+02 -0.13906437724E+02  0.95416174057E+02  0.90714075612E+02 0.  0.
         13    1    3    3    0    0 -0.20473045468E+02 -0.37862630021E+02  0.26184631319E+02  0.50382243143E+02  0.10566000000E+00 0. -1.
         22    1    1    0    0    0  0.19492611203E+02  0.17373884302E+02  0.13906437724E+02  0.29583825943E+02  0.00000000000E+00 0. -1.
</event>
<event>
 5    1  0.1325832E-009  0.9118800E+02  0.7818608E-02  0.1130116E+00
         25   -1    0    0    0    0  0.00000000000E+00  0.00000000000E+00  0.99999998245E-14  0.12500000000E+03  0.12500000000E+03 0.  0.
        -13    1    3    3    0    0  0.35445924604E+02 -0.37383269751E+02  0.29575901158E+01  0.51601171805E+02  0.10566000000E+00 0. -1.
         23    2    1    0    0    0 -0.47456902350E+01 -0.26935228595E+02  0.13577502209E+02  0.94465156271E+02  0.89394010246E+02 0.  0.
         13    1    3    3    0    0 -0.40191614839E+02  0.10448041156E+02  0.10619912094E+02  0.42863984466E+02  0.10566000000E+00 0.  1.
         22    1    1    0    0    0  0.47456902350E+01  0.26935228595E+02 -0.13577502209E+02  0.30534843729E+02  0.00000000000E+00 0. -1.
</event>
<event>
 5    1  0.1325832E-009  0.9118800E+02  0.7818608E-02  0.1130116E+00
         25   -1    0    0    0    0  0.00000000000E+00  0.00000000000E+00  0.99999998245E-14  0.12500000000E+03  0.12500000000E+03 0.  0.
        -13    1    3    3    0    0  0.39667746258E+02 -0.41440598447E+02  0.21479613944E+02  0.61255516258E+02  0.10566000000E+00 0. -1.
         23    2    1    0    0    0  0.30312936663E+02 -0.19392292583E+02  0.11275563150E+02  0.87289610647E+02  0.78723583898E+02 0.  0.
         13    1    3    3    0    0 -0.93548095951E+01  0.22048305864E+02 -0.10204050794E+02  0.26034094389E+02  0.10566000000E+00 0.  1.
         22    1    1    0    0    0 -0.30312936663E+02  0.19392292583E+02 -0.11275563150E+02  0.37710389353E+02  0.00000000000E+00 0. -1.
</event>
<event>
 5    1  0.1325832E-009  0.9118800E+02  0.7818608E-02  0.1130116E+00
         25   -1    0    0    0    0  0.00000000000E+00  0.00000000000E+00  0.99999998245E-14  0.12500000000E+03  0.12500000000E+03 0.  0.
        -13    1    3    3    0    0  0.62931110032E+01  0.22718092856E+02  0.54243590221E+02  0.59144680515E+02  0.10566000000E+00 0.  1.
         23    2    1    0    0    0  0.81613092651E+01  0.21906462477E+02  0.17871326901E+02  0.95574086380E+02  0.90931411487E+02 0.  0.
         13    1    3    3    0    0  0.18681982619E+01 -0.81163037935E+00 -0.36372263320E+02  0.36429405865E+02  0.10566000000E+00 0. -1.
         22    1    1    0    0    0 -0.81613092651E+01 -0.21906462477E+02 -0.17871326901E+02  0.29425913620E+02  0.00000000000E+00 0.  1.
</event>
<event>
 5    1  0.1325832E-009  0.9118800E+02  0.7818608E-02  0.1130116E+00
         25   -1    0    0    0    0  0.00000000000E+00  0.00000000000E+00  0.99999998245E-14  0.12500000000E+03  0.12500000000E+03 0.  0.
        -13    1    3    3    0    0 -0.19016909306E+02  0.26250008352E+02 -0.17031188082E+02  0.36616639790E+02  0.10566000000E+00 0. -1.
         23    2    1    0    0    0  0.16900443845E+02 -0.18778777272E+02 -0.17585158105E+02  0.94218426558E+02  0.89048338781E+02 0.  0.
         13    1    3    3    0    0  0.35917353151E+02 -0.45028785623E+02 -0.55397002286E+00  0.57601786768E+02  0.10566000000E+00 0.  1.
         22    1    1    0    0    0 -0.16900443845E+02  0.18778777272E+02  0.17585158105E+02  0.30781573442E+02  0.00000000000E+00 0.  1.
</event>
<event>
 5    1  0.1325832E-009  0.9118800E+02  0.7818608E-02  0.1130116E+00
         25   -1    0    0    0    0  0.00000000000E+00  0.00000000000E+00  0.99999998245E-14  0.12500000000E+03  0.12500000000E+03 0.  0.
        -13    1    3    3    0    0 -0.26638428182E+02 -0.50107281758E+01  0.29729550292E+02  0.40231462532E+02  0.10566000000E+00 0. -1.
         23    2    1    0    0    0  0.26259542545E+02 -0.32109776585E+01  0.10039571449E+02  0.96703941138E+02  0.92471537700E+02 0.  0.
         13    1    3    3    0    0  0.52897970728E+02  0.17997505172E+01 -0.19689978843E+02  0.56472478606E+02  0.10566000000E+00 0.  1.
         22    1    1    0    0    0 -0.26259542545E+02  0.32109776585E+01 -0.10039571449E+02  0.28296058862E+02  0.00000000000E+00 0.  1.
</event>
<event>
 5    1  0.1325832E-009  0.9118800E+02  0.7818608E-02  0.1130116E+00
         25   -1    0    0    0    0  0.00000000000E+00  0.00000000000E+00  0.99999998245E-14  0.12500000000E+03  0.12500000000E+03 0.  0.
        -13    1    3    3    0    0 -0.40817621297E+02 -0.42429440864E+02  0.35027024459E+01  0.58979791021E+02  0.10566000000E+00 0. -1.
         23    2    1    0    0    0 -0.27872488368E+02 -0.78527945758E+01  0.27659861215E+00  0.96041089502E+02  0.91571132872E+02 0.  0.
         13    1    3    3    0    0  0.12945132929E+02  0.34576646288E+02 -0.32261038337E+01  0.37061298481E+02  0.10566000000E+00 0.  1.
         22    1    1    0    0    0  0.27872488368E+02  0.78527945758E+01 -0.27659861215E+00  0.28958910498E+02  0.00000000000E+00 0. -1.
</event>
<event>
 5    1  0.1325832E-009  0.9118800E+02  0.7818608E-02  0.1130116E+00
         25   -1    0    0    0    0  0.00000000000E+00  0.00000000000E+00  0.99999998245E-14  0.12500000000E+03  0.12500000000E+03 0.  0.
        -13    1    3    3    0    0 -0.17789502719E+01 -0.46182108002E+02  0.23153511076E+02  0.51691856252E+02  0.10566000000E+00 0.  1.
         23    2    1    0    0    0  0.17794806339E+02 -0.62383614174E+01  0.21774866861E+02  0.96195189419E+02  0.91781247293E+02 0.  0.
         13    1    3    3    0    0  0.19573756611E+02  0.39943746584E+02 -0.13786442151E+01  0.44503333167E+02  0.10566000000E+00 0. -1.
         22    1    1    0    0    0 -0.17794806339E+02  0.62383614174E+01 -0.21774866861E+02  0.28804810581E+02  0.00000000000E+00 0.  1.
</event>
<event>
 5    1  0.1325832E-009  0.9118800E+02  0.7818608E-02  0.1130116E+00
         25   -1    0    0    0    0  0.00000000000E+00  0.00000000000E+00  0.99999998245E-14  0.12500000000E+03  0.12500000000E+03 0.  0.
        -13    1    3    3    0    0 -0.50994076271E+02 -0.30424031023E+02 -0.42965503070E+01  0.59535611083E+02  0.10566000000E+00 0. -1.
         23    2    1    0    0    0 -0.24907572403E+02 -0.48763740939E+01 -0.12115070541E+02  0.96876324538E+02  0.92704267078E+02 0.  0.
         13    1    3    3    0    0  0.26086503868E+02  0.25547656930E+02 -0.78185202339E+01  0.37340713455E+02  0.10566000000E+00 0.  1.
         22    1    1    0    0    0  0.24907572403E+02  0.48763740939E+01  0.12115070541E+02  0.28123675462E+02  0.00000000000E+00 0. -1.
</event>
<event>
 5    1  0.1325832E-009  0.9118800E+02  0.7818608E-02  0.1130116E+00
         25   -1    0    0    0    0  0.00000000000E+00  0.00000000000E+00  0.99999998245E-14  0.12500000000E+03  0.12500000000E+03 0.  0.
        -13    1    3    3    0    0  0.37845277455E+02  0.21042493419E+02 -0.97169259548E+01  0.44378839203E+02  0.10566000000E+00 0. -1.
         23    2    1    0    0    0  0.16829221548E+02 -0.24193179683E+02  0.14519607715E+01  0.95493376486E+02  0.90820394855E+02 0.  0.
         13    1    3    3    0    0 -0.21016055907E+02 -0.45235673102E+02  0.11168886726E+02  0.51114537283E+02  0.10566000000E+00 0.  1.
         22    1    1    0    0    0 -0.16829221548E+02  0.24193179683E+02 -0.14519607715E+01  0.29506623514E+02  0.00000000000E+00 0.  1.
</event>
<event>
 5    1  0.1325832E-009  0.9118800E+02  0.7818608E-02  0.1130116E+00
         25   -1    0    0    0    0  0.00000000000E+00  0.00000000000E+00  0.99999998245E-14  0.12500000000E+03  0.12500000000E+03 0.  0.
        -13    1    3    3    0    0  0.62944578164E+01 -0.43631868166E+02  0.29870614550E+01  0.44184769084E+02  0.10566000000E+00 0.  1.
         23    2    1    0    0    0 -0.26691857022E+02 -0.41527916017E+01  0.10182379192E+02  0.96131647858E+02  0.91694667045E+02 0.  0.
         13    1    3    3    0    0 -0.32986314839E+02  0.39479076564E+02  0.71953177371E+01  0.51946878774E+02  0.10566000000E+00 0. -1.
         22    1    1    0    0    0  0.26691857022E+02  0.41527916017E+01 -0.10182379192E+02  0.28868352142E+02  0.00000000000E+00 0.  1.
</event>
<event>
 5    1  0.1325832E-009  0.9118800E+02  0.7818608E-02  0.1130116E+00
         25   -1    0    0    0    0  0.00000000000E+00  0.00000000000E+00  0.99999998245E-14  0.12500000000E+03  0.12500000000E+03 0.  0.
        -13    1    3    3    0    0  0.16990889203E+02 -0.26943518772E+02 -0.21415481286E+02  0.38383297442E+02  0.10566000000E+00 0.  1.
         23    2    1    0    0    0 -0.30919136772E+02 -0.11446407996E+02 -0.13577530330E+02  0.89343827959E+02  0.81920430845E+02 0.  0.
         13    1    3    3    0    0 -0.47910025976E+02  0.15497110777E+02  0.78379509557E+01  0.50960530518E+02  0.10566000000E+00 0. -1.
         22    1    1    0    0    0  0.30919136772E+02  0.11446407996E+02  0.13577530330E+02  0.35656172041E+02  0.00000000000E+00 0.  1.
</event>
<event>
 5    1  0.1325832E-009  0.9118800E+02  0.7818608E-02  0.1130116E+00
         25   -1    0    0    0    0  0.00000000000E+00  0.00000000000E+00  0.99999998245E-14  0.12500000000E+03  0.12500000000E+03 0.  0.
        -13    1    3    3    0    0 -0.38702283303E+02  0.65641183347E+01  0.23755299919E+02  0.45883328352E+02  0.10566000000E+00 0. -1.
         23    2    1    0    0    0  0.56856195290E+01 -0.15606534715E+02  0.24374565388E+02  0.95504074297E+02  0.90835117517E+02 0.  0.
         13    1    3    3    0    0  0.44387902832E+02 -0.22170653049E+02  0.61926546864E+00  0.49620745946E+02  0.10566000000E+00 0.  1.
         22    1    1    0    0    0 -0.56856195290E+01  0.15606534715E+02 -0.24374565388E+02  0.29495925703E+02  0.00000000000E+00 0. -1.
</event>
<event>
 5    1  0.1325832E-009  0.9118800E+02  0.7818608E-02  0.1130116E+00
         25   -1    0    0    0    0  0.00000000000E+00  0.00000000000E+00  0.99999998245E-14  0.12500000000E+03  0.12500000000E+03 0.  0.
        -13    1    3    3    0    0  0.70595030026E+01  0.22105390780E+02 -0.67082982734E+01  0.24155689060E+02  0.10566000000E+00 0. -1.
         23    2    1    0    0    0 -0.18771694571E+02 -0.32258487323E+02 -0.14728002330E+02  0.84876433683E+02  0.74793772606E+02 0.  0.
         13    1    3    3    0    0 -0.25831197573E+02 -0.54363878103E+02 -0.80197040562E+01  0.60720744623E+02  0.10566000000E+00 0.  1.
         22    1    1    0    0    0  0.18771694571E+02  0.32258487323E+02  0.14728002330E+02  0.40123566317E+02  0.00000000000E+00 0.  1.
</event>
<event>
 5    1  0.1325832E-009  0.9118800E+02  0.7818608E-02  0.1130116E+00
         25   -1    0    0    0    0  0.00000000000E+00  0.00000000000E+00  0.99999998245E-14  0.12500000000E+03  0.12500000000E+03 0.  0.
        -13    1    3    3    0    0  0.29589693652E+02 -0.16014229740E+02 -0.13999611652E+02  0.36441814102E+02  0.10566000000E+00 0.  1.
         23    2    1    0    0    0 -0.22455323671E+02 -0.14378515278E+02  0.13264605786E+02  0.95218579124E+02  0.90441388650E+02 0.  0.
         13    1    3    3    0    0 -0.52045017323E+02  0.16357144617E+01  0.27264217437E+02  0.58776765022E+02  0.10566000000E+00 0. -1.
         22    1    1    0    0    0  0.22455323671E+02  0.14378515278E+02 -0.13264605786E+02  0.29781420876E+02  0.00000000000E+00 0. -1.
</event>
<event>
 5    1  0.1325832E-009  0.9118800E+02  0.7818608E-02  0.1130116E+00
         25   -1    0    0    0    0  0.00000000000E+00  0.00000000000E+00  0.99999998245E-14  0.12500000000E+03  0.12500000000E+03 0.  0.
        -13    1    3    3    0    0  0.71572370746E+01  0.32676718306E+02  0.77004697041E+01  0.34326409068E+02  0.10566000000E+00 0. -1.
         23    2    1    0    0    0  0.29898618106E+01 -0.27159452473E+02  0.13380788100E+02  0.94575986089E+02  0.89548849921E+02 0.  0.
         13    1    3    3    0    0 -0.41673752640E+01 -0.59836170779E+02  0.56803183962E+01  0.60249577021E+02  0.10566000000E+00 0.  1.
         22    1    1    0    0    0 -0.29898618106E+01  0.27159452473E+02 -0.13380788100E+02  0.30424013911E+02  0.00000000000E+00 0.  1.
</event>
<event>
 5    1  0.1325832E-009  0.9118800E+02  0.7818608E-02  0.1130116E+00
         25   -1    0    0    0    0  0.00000000000E+00  0.00000000000E+00  0.99999998245E-14  0.12500000000E+03  0.12500000000E+03 0.  0.
        -13    1    3    3    0    0  0.97921704425E+01  0.50267915075E+02 -0.22416172055E+02  0.55903898090E+02  0.10566000000E+00 0.  1.
         23    2    1    0    0    0 -0.10760830978E+02  0.26752830520E+02  0.27781528045E+01  0.96030575478E+02  0.91556779484E+02 0.  0.
         13    1    3    3    0    0 -0.20553001421E+02 -0.23515084556E+02  0.25194324859E+02  0.40126677388E+02  0.10566000000E+00 0. -1.
         22    1    1    0    0    0  0.10760830978E+02 -0.26752830520E+02 -0.27781528045E+01  0.28969424522E+02  0.00000000000E+00 0.  1.
</event>
<event>
 5    1  0.1325832E-009  0.9118800E+02  0.7818608E-02  0.1130116E+00
         25   -1    0    0    0    0  0.00000000000E+00  0.00000000000E+00  0.99999998245E-14  0.12500000000E+03  0.12500000000E+03 0.  0.
        -13    1    3    3    0    0 -0.28516340182E+02 -0.25645592606E+02 -0.10425454753E+02  0.39743922156E+02  0.10566000000E+00 0.  1.
         23    2    1    0    0    0 -0.85423608530E+01  0.25620553441E+02 -0.13414287894E+02  0.94844937286E+02  0.89923491488E+02 0.  0.
         13    1    3    3    0    0  0.19973979329E+02  0.51266146047E+02 -0.29888331415E+01  0.55101015130E+02  0.10566000000E+00 0. -1.
         22    1    1    0    0    0  0.85423608530E+01 -0.25620553441E+02  0.13414287894E+02  0.30155062714E+02  0.00000000000E+00 0. -1.
</event>
<event>
 5    1  0.1325832E-009  0.9118800E+02  0.7818608E-02  0.1130116E+00
         25   -1    0    0    0    0  0.00000000000E+00  0.00000000000E+00  0.99999998245E-14  0.12500000000E+03  0.12500000000E+03 0.  0.
        -13    1    3    3    0    0  0.48783111843E+02  0.19532261679E+02 -0.31288346970E+01  0.52641257755E+02  0.10566000000E+00 0.  1.
         23    2    1    0    0    0  0.12259107073E+02  0.17551231236E+02  0.19822609386E+02  0.95823515171E+02  0.91273647855E+02 0.  0.
         13    1    3    3    0    0 -0.36524004770E+02 -0.19810304427E+01  0.22951444083E+02  0.43182257416E+02  0.10566000000E+00 0. -1.
         22    1    1    0    0    0 -0.12259107073E+02 -0.17551231236E+02 -0.19822609386E+02  0.29176484829E+02  0.00000000000E+00 0.  1.
</event>
<event>
 5    1  0.1325832E-009  0.9118800E+02  0.7818608E-02  0.1130116E+00
         25   -1    0    0    0    0  0.00000000000E+00  0.00000000000E+00  0.99999998245E-14  0.12500000000E+03  0.12500000000E+03 0.  0.
        -13    1    3    3    0    0 -0.16500451099E+02  0.35008866836E+02  0.26576867300E+02  0.46949192572E+02  0.10566000000E+00 0. -1.
         23    2    1    0    0    0  0.15568458549E+02  0.25196563947E+02 -0.71701438674E+01  0.94526163691E+02  0.89479276499E+02 0.  0.
         13    1    3    3    0    0  0.32068909649E+02 -0.98123028894E+01 -0.33747011168E+02  0.47576971119E+02  0.10566000000E+00 0.  1.
         22    1    1    0    0    0 -0.15568458549E+02 -0.25196563947E+02  0.71701438674E+01  0.30473836309E+02  0.00000000000E+00 0. -1.
</event>
<event>
 5    1  0.1325832E-009  0.9118800E+02  0.7818608E-02  0.1130116E+00
         25   -1    0    0    0    0  0.00000000000E+00  0.00000000000E+00  0.99999998245E-14  0.12500000000E+03  0.12500000000E+03 0.  0.
        -13    1    3    3    0    0 -0.29547564574E+02 -0.19269574122E+02  0.36281875864E+02  0.50603959720E+02  0.10566000000E+00 0.  1.
         23    2    1    0    0    0 -0.23572430200E+02  0.13502050720E+02  0.30396580241E+01  0.97664960946E+02  0.93761613876E+02 0.  0.
         13    1    3    3    0    0  0.59751343741E+01  0.32771624841E+02 -0.33242217839E+02  0.47061001227E+02  0.10566000000E+00 0. -1.
         22    1    1    0    0    0  0.23572430200E+02 -0.13502050720E+02 -0.30396580241E+01  0.27335039054E+02  0.00000000000E+00 0. -1.
</event>
<event>
 5    1  0.1325832E-009  0.9118800E+02  0.7818608E-02  0.1130116E+00
         25   -1    0    0    0    0  0.00000000000E+00  0.00000000000E+00  0.99999998245E-14  0.12500000000E+03  0.12500000000E+03 0.  0.
        -13    1    3    3    0    0 -0.44009470918E+02 -0.26907683315E+02  0.32411962920E+02  0.60921289023E+02  0.10566000000E+00 0. -1.
         23    2    1    0    0    0 -0.18200150618E+02 -0.70079000284E+01  0.23001926593E+02  0.94842997955E+02  0.89920795641E+02 0.  0.
         13    1    3    3    0    0  0.25809320300E+02  0.19899783286E+02 -0.94100363266E+01  0.33921708932E+02  0.10566000000E+00 0.  1.
         22    1    1    0    0    0  0.18200150618E+02  0.70079000284E+01 -0.23001926593E+02  0.30157002045E+02  0.00000000000E+00 0. -1.
</event>
<event>
 5    1  0.1325832E-009  0.9118800E+02  0.7818608E-02  0.1130116E+00
         25   -1    0    0    0    0  0.00000000000E+00  0.00000000000E+00  0.99999998245E-14  0.12500000000E+03  0.12500000000E+03 0.  0.
        -13    1    3    3    0    0 -0.27688892653E+02  0.16958347438E+02  0.48733013170E+01  0.32833223326E+02  0.10566000000E+00 0.  1.
         23    2    1    0    0    0  0.21586229032E+02 -0.75908391285E+01 -0.21253499527E+02  0.93770248725E+02  0.88416979033E+02 0.  0.
         13    1    3    3    0    0  0.49275121686E+02 -0.24549186566E+02 -0.26126800844E+02  0.60937025400E+02  0.10566000000E+00 0. -1.
         22    1    1    0    0    0 -0.21586229032E+02  0.75908391285E+01  0.21253499527E+02  0.31229751275E+02  0.00000000000E+00 0. -1.
</event>
<event>
 5    1  0.1325832E-009  0.9118800E+02  0.7818608E-02  0.1130116E+00
         25   -1    0    0    0    0  0.00000000000E+00  0.00000000000E+00  0.99999998245E-14  0.12500000000E+03  0.12500000000E+03 0.  0.
        -13    1    3    3    0    0  0.49215351014E+02 -0.28468396178E+02 -0.19794292445E+02  0.60203202023E+02  0.10566000000E+00 0.  1.
         23    2    1    0    0    0  0.20662934386E+02 -0.15846195094E+02 -0.21153772501E+02  0.91450918829E+02  0.85074847677E+02 0.  0.
         13    1    3    3    0    0 -0.28552416628E+02  0.12622201084E+02 -0.13594800559E+01  0.31247716806E+02  0.10566000000E+00 0. -1.
         22    1    1    0    0    0 -0.20662934386E+02  0.15846195094E+02  0.21153772501E+02  0.33549081171E+02  0.00000000000E+00 0.  1.
</event>
<event>
 5    1  0.1325832E-009  0.9118800E+02  0.7818608E-02  0.1130116E+00
         25   -1    0    0    0    0  0.00000000000E+00  0.00000000000E+00  0.99999998245E-14  0.12500000000E+03  0.12500000000E+03 0.  0.
        -13    1    3    3    0    0 -0.32579114285E+02  0.16959059785E+02 -0.81500395788E+01  0.37622369749E+02  0.10566000000E+00 0. -1.
         23    2    1    0    0    0  0.52251423303E+01 -0.27705163874E+02  0.66756204091E+00  0.96798513217E+02  0.92599288897E+02 0.  0.
         13    1    3    3    0    0  0.37804256615E+02 -0.44664223660E+02  0.88176016197E+01  0.59176143468E+02  0.10566000000E+00 0.  1.
         22    1    1    0    0    0 -0.52251423303E+01  0.27705163874E+02 -0.66756204091E+00  0.28201486783E+02  0.00000000000E+00 0.  1.
</event>
<event>
 5    1  0.1325832E-009  0.9118800E+02  0.7818608E-02  0.1130116E+00
         25   -1    0    0    0    0  0.00000000000E+00  0.00000000000E+00  0.99999998245E-14  0.12500000000E+03  0.12500000000E+03 0.  0.
        -13    1    3    3    0    0 -0.87360434109E+00 -0.25785104675E+02  0.27017916597E+02  0.37357914676E+02  0.10566000000E+00 0.  1.
         23    2    1    0    0    0 -0.21957937552E+02  0.15417429124E+01 -0.19711460337E+02  0.95452247778E+02  0.90763770000E+02 0.  0.
         13    1    3    3    0    0 -0.21084333211E+02  0.27326847587E+02 -0.46729376934E+02  0.58094333103E+02  0.10566000000E+00 0. -1.
         22    1    1    0    0    0  0.21957937552E+02 -0.15417429124E+01  0.19711460337E+02  0.29547752222E+02  0.00000000000E+00 0. -1.
</event>
<event>
 5    1  0.1325832E-009  0.9118800E+02  0.7818608E-02  0.1130116E+00
         25   -1    0    0    0    0  0.00000000000E+00  0.00000000000E+00  0.99999998245E-14  0.12500000000E+03  0.12500000000E+03 0.  0.
        -13    1    3    3    0    0  0.94719974166E+01 -0.33740233423E+02  0.39665037990E+00  0.35046976789E+02  0.10566000000E+00 0. -1.
         23    2    1    0    0    0  0.13474935598E+02  0.25080289248E+02 -0.98215819414E+01  0.94882591912E+02  0.89975818852E+02 0.  0.
         13    1    3    3    0    0  0.40029381813E+01  0.58820522671E+02 -0.10218232321E+02  0.59835615123E+02  0.10566000000E+00 0.  1.
         22    1    1    0    0    0 -0.13474935598E+02 -0.25080289248E+02  0.98215819414E+01  0.30117408088E+02  0.00000000000E+00 0.  1.
</event>
<event>
 5    1  0.1325832E-009  0.9118800E+02  0.7818608E-02  0.1130116E+00
         25   -1    0    0    0    0  0.00000000000E+00  0.00000000000E+00  0.99999998245E-14  0.12500000000E+03  0.12500000000E+03 0.  0.
        -13    1    3    3    0    0 -0.12646950585E+02  0.33270744367E+02 -0.99983178263E+01  0.36971141627E+02  0.10566000000E+00 0. -1.
         23    2    1    0    0    0  0.20839347100E+02 -0.26297957616E+01  0.21213849682E+02  0.95146664648E+02  0.90341940216E+02 0.  0.
         13    1    3    3    0    0  0.33486297685E+02 -0.35900540128E+02  0.31212167508E+02  0.58175523021E+02  0.10566000000E+00 0.  1.
         22    1    1    0    0    0 -0.20839347100E+02  0.26297957616E+01 -0.21213849682E+02  0.29853335352E+02  0.00000000000E+00 0.  1.
</event>
<event>
 5    1  0.1325832E-009  0.9118800E+02  0.7818608E-02  0.1130116E+00
         25   -1    0    0    0    0  0.00000000000E+00  0.00000000000E+00  0.99999998245E-14  0.12500000000E+03  0.12500000000E+03 0.  0.
        -13    1    3    3    0    0 -0.37777112946E+02  0.30143020387E+02  0.48157435182E+01  0.48568657489E+02  0.10566000000E+00 0.  1.
         23    2    1    0    0    0 -0.22360147790E+02 -0.12183401766E+02  0.15926609578E+02  0.94965546776E+02  0.90090991192E+02 0.  0.
         13    1    3    3    0    0  0.15416965156E+02 -0.42326422153E+02  0.11110866060E+02  0.46396889287E+02  0.10566000000E+00 0. -1.
         22    1    1    0    0    0  0.22360147790E+02  0.12183401766E+02 -0.15926609578E+02  0.30034453224E+02  0.00000000000E+00 0.  1.
</event>
<event>
 5    1  0.1325832E-009  0.9118800E+02  0.7818608E-02  0.1130116E+00
         25   -1    0    0    0    0  0.00000000000E+00  0.00000000000E+00  0.99999998245E-14  0.12500000000E+03  0.12500000000E+03 0.  0.
        -13    1    3    3    0    0  0.36107674769E+02 -0.38654639598E+02  0.33017401227E+02  0.62354673342E+02  0.10566000000E+00 0. -1.
         23    2    1    0    0    0  0.15329446790E+02 -0.17452324410E+02  0.17937196711E+02  0.95651770206E+02  0.91038137896E+02 0.  0.
         13    1    3    3    0    0 -0.20778227980E+02  0.21202315188E+02 -0.15080204516E+02  0.33297096864E+02  0.10566000000E+00 0.  1.
         22    1    1    0    0    0 -0.15329446790E+02  0.17452324410E+02 -0.17937196711E+02  0.29348229794E+02  0.00000000000E+00 0. -1.
</event>
<event>
 5    1  0.1325832E-009  0.9118800E+02  0.7818608E-02  0.1130116E+00
         25   -1    0    0    0    0  0.00000000000E+00  0.00000000000E+00  0.99999998245E-14  0.12500000000E+03  0.12500000000E+03 0.  0.
        -13    1    3    3    0    0  0.53569691773E+02 -0.81085298354E+01 -0.27785638635E+02  0.60889350556E+02  0.10566000000E+00 0. -1.
         23    2    1    0    0    0  0.28888383161E+02 -0.44984887847E+01 -0.37593548189E+01  0.95522757394E+02  0.90860824058E+02 0.  0.
         13    1    3    3    0    0 -0.24681308612E+02  0.36100410507E+01  0.24026283816E+02  0.34633406838E+02  0.10566000000E+00 0.  1.
         22    1    1    0    0    0 -0.28888383161E+02  0.44984887847E+01  0.37593548189E+01  0.29477242606E+02  0.00000000000E+00 0. -1.
</event>
<event>
 5    1  0.1325832E-009  0.9118800E+02  0.7818608E-02  0.1130116E+00
         25   -1    0    0    0    0  0.00000000000E+00  0.00000000000E+00  0.99999998245E-14  0.12500000000E+03  0.12500000000E+03 0.  0.
        -13    1    3    3    0    0 -0.68665621633E+01 -0.42790824872E+02 -0.39045142248E+02  0.58332998092E+02  0.10566000000E+00 0. -1.
         23    2    1    0    0    0  0.12847893304E+02 -0.20738114668E+02 -0.16075582699E+02  0.95784214516E+02  0.91219809411E+02 0.  0.
         13    1    3    3    0    0  0.19714455468E+02  0.22052710204E+02  0.22969559549E+02  0.37451216424E+02  0.10566000000E+00 0.  1.
         22    1    1    0    0    0 -0.12847893304E+02  0.20738114668E+02  0.16075582699E+02  0.29215785484E+02  0.00000000000E+00 0. -1.
</event>
<event>
 5    1  0.1325832E-009  0.9118800E+02  0.7818608E-02  0.1130116E+00
         25   -1    0    0    0    0  0.00000000000E+00  0.00000000000E+00  0.99999998245E-14  0.12500000000E+03  0.12500000000E+03 0.  0.
        -13    1    3    3    0    0  0.30875083263E+02  0.26381862737E+00  0.85438172008E+01  0.32036671849E+02  0.10566000000E+00 0.  1.
         23    2    1    0    0    0 -0.30053401845E+02 -0.13490095228E+01 -0.50794216173E+01  0.94490537318E+02  0.89429493623E+02 0.  0.
         13    1    3    3    0    0 -0.60928485108E+02 -0.16128281502E+01 -0.13623238818E+02  0.62453865470E+02  0.10566000000E+00 0. -1.
         22    1    1    0    0    0  0.30053401845E+02  0.13490095228E+01  0.50794216173E+01  0.30509462682E+02  0.00000000000E+00 0. -1.
</event>
<event>
 5    1  0.1325832E-009  0.9118800E+02  0.7818608E-02  0.1130116E+00
         25   -1    0    0    0    0  0.00000000000E+00  0.00000000000E+00  0.99999998245E-14  0.12500000000E+03  0.12500000000E+03 0.  0.
        -13    1    3    3    0    0  0.33270221551E+02  0.11736521051E+02 -0.34022894433E+02  0.49012468598E+02  0.10566000000E+00 0.  1.
         23    2    1    0    0    0  0.26098023598E+02  0.55730433609E+01  0.11814469888E+02  0.95815289161E+02  0.91262381573E+02 0.  0.
         13    1    3    3    0    0 -0.71721979529E+01 -0.61634776903E+01  0.45837364321E+02  0.46802820563E+02  0.10566000000E+00 0. -1.
         22    1    1    0    0    0 -0.26098023598E+02 -0.55730433609E+01 -0.11814469888E+02  0.29184710839E+02  0.00000000000E+00 0.  1.
</event>
<event>
 5    1  0.1325832E-009  0.9118800E+02  0.7818608E-02  0.1130116E+00
         25   -1    0    0    0    0  0.00000000000E+00  0.00000000000E+00  0.99999998245E-14  0.12500000000E+03  0.12500000000E+03 0.  0.
        -13    1    3    3    0    0 -0.12821415536E+02  0.25577592380E+02  0.25551259950E+02  0.38359874575E+02  0.10566000000E+00 0. -1.
         23    2    1    0    0    0  0.26153598182E+02  0.55344448954E+01 -0.11642741853E+02  0.95841909939E+02  0.91298836163E+02 0.  0.
         13    1    3    3    0    0  0.38975013718E+02 -0.20043147484E+02 -0.37194001803E+02  0.57482035364E+02  0.10566000000E+00 0.  1.
         22    1    1    0    0    0 -0.26153598182E+02 -0.55344448954E+01  0.11642741853E+02  0.29158090061E+02  0.00000000000E+00 0.  1.
</event>
<event>
 5    1  0.1325832E-009  0.9118800E+02  0.7818608E-02  0.1130116E+00
         25   -1    0    0    0    0  0.00000000000E+00  0.00000000000E+00  0.99999998245E-14  0.12500000000E+03  0.12500000000E+03 0.  0.
        -13    1    3    3    0    0  0.12539504342E+02  0.12543877462E+02 -0.51930940906E+02  0.54876423155E+02  0.10566000000E+00 0. -1.
         23    2    1    0    0    0 -0.10270455180E+02  0.19963901963E+02 -0.19179856243E+02  0.95471936794E+02  0.90790881692E+02 0.  0.
         13    1    3    3    0    0 -0.22809959522E+02  0.74200245009E+01  0.32751084662E+02  0.40595513638E+02  0.10566000000E+00 0.  1.
         22    1    1    0    0    0  0.10270455180E+02 -0.19963901963E+02  0.19179856243E+02  0.29528063206E+02  0.00000000000E+00 0. -1.
</event>
<event>
 5    1  0.1325832E-009  0.9118800E+02  0.7818608E-02  0.1130116E+00
         25   -1    0    0    0    0  0.00000000000E+00  0.00000000000E+00  0.99999998245E-14  0.12500000000E+03  0.12500000000E+03 0.  0.
        -13    1    3    3    0    0 -0.50330917706E+01 -0.17188354567E+02  0.35206331161E+02  0.39500233712E+02  0.10566000000E+00 0. -1.
         23    2    1    0    0    0 -0.65810962063E+01 -0.19274617963E+02 -0.20987709363E+02  0.95754390600E+02  0.91178932051E+02 0.  0.
         13    1    3    3    0    0 -0.15480044358E+01 -0.20862633961E+01 -0.56194040524E+02  0.56254156887E+02  0.10566000000E+00 0.  1.
         22    1    1    0    0    0  0.65810962063E+01  0.19274617963E+02  0.20987709363E+02  0.29245609400E+02  0.00000000000E+00 0.  1.
</event>
<event>
 5    1  0.1325832E-009  0.9118800E+02  0.7818608E-02  0.1130116E+00
         25   -1    0    0    0    0  0.00000000000E+00  0.00000000000E+00  0.99999998245E-14  0.12500000000E+03  0.12500000000E+03 0.  0.
        -13    1    3    3    0    0 -0.21756982250E+02  0.29594902644E+02 -0.17873514770E+02  0.40849702978E+02  0.10566000000E+00 0. -1.
         23    2    1    0    0    0  0.24786517676E+02  0.16666316298E+02  0.56866251476E+01  0.94594815195E+02  0.89575129354E+02 0.  0.
         13    1    3    3    0    0  0.46543499926E+02 -0.12928586346E+02  0.23560139918E+02  0.53745112217E+02  0.10566000000E+00 0.  1.
         22    1    1    0    0    0 -0.24786517676E+02 -0.16666316298E+02 -0.56866251476E+01  0.30405184805E+02  0.00000000000E+00 0.  1.
</event>
<event>
 5    1  0.1325832E-009  0.9118800E+02  0.7818608E-02  0.1130116E+00
         25   -1    0    0    0    0  0.00000000000E+00  0.00000000000E+00  0.99999998245E-14  0.12500000000E+03  0.12500000000E+03 0.  0.
        -13    1    3    3    0    0 -0.20626522745E+02  0.19365479023E+02 -0.20753899712E+02  0.35088612620E+02  0.10566000000E+00 0.  1.
         23    2    1    0    0    0  0.62199260342E+01 -0.28610650339E+02  0.41235127088E+01  0.95432109481E+02  0.90736031268E+02 0.  0.
         13    1    3    3    0    0  0.26846448779E+02 -0.47976129361E+02  0.24877412421E+02  0.60343496861E+02  0.10566000000E+00 0. -1.
         22    1    1    0    0    0 -0.62199260342E+01  0.28610650339E+02 -0.41235127088E+01  0.29567890519E+02  0.00000000000E+00 0. -1.
</event>
<event>
 5    1  0.1325832E-009  0.9118800E+02  0.7818608E-02  0.1130116E+00
         25   -1    0    0    0    0  0.00000000000E+00  0.00000000000E+00  0.99999998245E-14  0.12500000000E+03  0.12500000000E+03 0.  0.
        -13    1    3    3    0    0  0.22138458306E+02 -0.39579570781E+02 -0.94490801334E+01  0.46324400037E+02  0.10566000000E+00 0. -1.
         23    2    1    0    0    0  0.22714088974E+02  0.12233725447E+01  0.18411704560E+02  0.95735390945E+02  0.91152881119E+02 0.  0.
         13    1    3    3    0    0  0.57563066800E+00  0.40802943326E+02  0.27860784694E+02  0.49410990908E+02  0.10566000000E+00 0.  1.
         22    1    1    0    0    0 -0.22714088974E+02 -0.12233725447E+01 -0.18411704560E+02  0.29264609055E+02  0.00000000000E+00 0.  1.
</event>
<event>
 5    1  0.1325832E-009  0.9118800E+02  0.7818608E-02  0.1130116E+00
         25   -1    0    0    0    0  0.00000000000E+00  0.00000000000E+00  0.99999998245E-14  0.12500000000E+03  0.12500000000E+03 0.  0.
        -13    1    3    3    0    0  0.46654347799E+02 -0.18328085645E+02 -0.20568090879E+02  0.54181218318E+02  0.10566000000E+00 0. -1.
         23    2    1    0    0    0  0.18535536997E+02  0.25100743039E+01 -0.29286953153E+02  0.90249572236E+02  0.83291014275E+02 0.  0.
         13    1    3    3    0    0 -0.28118810802E+02  0.20838159949E+02 -0.87188622741E+01  0.36068353918E+02  0.10566000000E+00 0.  1.
         22    1    1    0    0    0 -0.18535536997E+02 -0.25100743039E+01  0.29286953153E+02  0.34750427764E+02  0.00000000000E+00 0. -1.
</event>
<event>
 5    1  0.1325832E-009  0.9118800E+02  0.7818608E-02  0.1130116E+00
         25   -1    0    0    0    0  0.00000000000E+00  0.00000000000E+00  0.99999998245E-14  0.12500000000E+03  0.12500000000E+03 0.  0.
        -13    1    3    3    0    0 -0.58421996439E+02 -0.86836704376E+01 -0.58717354386E+01  0.59355069213E+02  0.10566000000E+00 0. -1.
         23    2    1    0    0    0 -0.23805987664E+02 -0.15155978178E+02  0.52689182035E+01  0.96291286650E+02  0.91912032196E+02 0.  0.
         13    1    3    3    0    0  0.34616008774E+02 -0.64723077402E+01  0.11140653642E+02  0.36936217437E+02  0.10566000000E+00 0.  1.
         22    1    1    0    0    0  0.23805987664E+02  0.15155978178E+02 -0.52689182035E+01  0.28708713350E+02  0.00000000000E+00 0.  1.
</event>
<event>
 5    1  0.1325832E-009  0.9118800E+02  0.7818608E-02  0.1130116E+00
         25   -1    0    0    0    0  0.00000000000E+00  0.00000000000E+00  0.99999998245E-14  0.12500000000E+03  0.12500000000E+03 0.  0.
        -13    1    3    3    0    0  0.28733779866E+02  0.10786558043E+02 -0.24895887094E+02  0.39519568545E+02  0.10566000000E+00 0. -1.
         23    2    1    0    0    0 -0.22761662714E+02  0.17549414207E+02 -0.22783664307E+01  0.96168312882E+02  0.91744635922E+02 0.  0.
         13    1    3    3    0    0 -0.51495442579E+02  0.67628561637E+01  0.22617520663E+02  0.56648744337E+02  0.10566000000E+00 0.  1.
         22    1    1    0    0    0  0.22761662714E+02 -0.17549414207E+02  0.22783664307E+01  0.28831687118E+02  0.00000000000E+00 0.  1.
</event>
<event>
 5    1  0.1325832E-009  0.9118800E+02  0.7818608E-02  0.1130116E+00
         25   -1    0    0    0    0  0.00000000000E+00  0.00000000000E+00  0.99999998245E-14  0.12500000000E+03  0.12500000000E+03 0.  0.
        -13    1    3    3    0    0 -0.35380134616E+02  0.22447025274E+02  0.11823619612E+02  0.43536559508E+02  0.10566000000E+00 0.  1.
         23    2    1    0    0    0  0.59120267053E+01 -0.60717526852E+01  0.27589528809E+02  0.96138254725E+02  0.91703673216E+02 0.  0.
         13    1    3    3    0    0  0.41292161321E+02 -0.28518777959E+02  0.15765909196E+02  0.52601695216E+02  0.10566000000E+00 0. -1.
         22    1    1    0    0    0 -0.59120267053E+01  0.60717526852E+01 -0.27589528809E+02  0.28861745275E+02  0.00000000000E+00 0. -1.
</event>
<event>
 5    1  0.1325832E-009  0.9118800E+02  0.7818608E-02  0.1130116E+00
         25   -1    0    0    0    0  0.00000000000E+00  0.00000000000E+00  0.99999998245E-14  0.12500000000E+03  0.12500000000E+03 0.  0.
        -13    1    3    3    0    0  0.99204241769E+01  0.51867964163E+02 -0.30507431566E+02  0.60987007363E+02  0.10566000000E+00 0.  1.
         23    2    1    0    0    0  0.10136436998E+02  0.29418525583E+02 -0.77952350204E+01  0.92922551667E+02  0.87210308547E+02 0.  0.
         13    1    3    3    0    0  0.21601282096E+00 -0.22449438580E+02  0.22712196545E+02  0.31935544305E+02  0.10566000000E+00 0. -1.
         22    1    1    0    0    0 -0.10136436998E+02 -0.29418525583E+02  0.77952350204E+01  0.32077448333E+02  0.00000000000E+00 0.  1.
</event>
<event>
 5    1  0.1325832E-009  0.9118800E+02  0.7818608E-02  0.1130116E+00
         25   -1    0    0    0    0  0.00000000000E+00  0.00000000000E+00  0.99999998245E-14  0.12500000000E+03  0.12500000000E+03 0.  0.
        -13    1    3    3    0    0  0.10776495671E+02 -0.75746332109E+01  0.30872713414E+02  0.33565510942E+02  0.10566000000E+00 0.  1.
         23    2    1    0    0    0 -0.23967743720E+01  0.14342725707E+02 -0.25600054360E+02  0.95558174457E+02  0.90909535331E+02 0.  0.
         13    1    3    3    0    0 -0.13173270043E+02  0.21917358918E+02 -0.56472767774E+02  0.61992663515E+02  0.10566000000E+00 0. -1.
         22    1    1    0    0    0  0.23967743720E+01 -0.14342725707E+02  0.25600054360E+02  0.29441825543E+02  0.00000000000E+00 0. -1.
</event>
<event>
 5    1  0.1325832E-009  0.9118800E+02  0.7818608E-02  0.1130116E+00
         25   -1    0    0    0    0  0.00000000000E+00  0.00000000000E+00  0.99999998245E-14  0.12500000000E+03  0.12500000000E+03 0.  0.
        -13    1    3    3    0    0  0.19233916334E+02  0.64791720946E+01 -0.42044871069E+02  0.46687316863E+02  0.10566000000E+00 0. -1.
         23    2    1    0    0    0  0.27985171785E+02 -0.95085040641E+01  0.30114757662E+01  0.95290565881E+02  0.90540827643E+02 0.  0.
         13    1    3    3    0    0  0.87512554512E+01 -0.15987676159E+02  0.45056346836E+02  0.48603249018E+02  0.10566000000E+00 0.  1.
         22    1    1    0    0    0 -0.27985171785E+02  0.95085040641E+01 -0.30114757662E+01  0.29709434119E+02  0.00000000000E+00 0.  1.
</event>
<event>
 5    1  0.1325832E-009  0.9118800E+02  0.7818608E-02  0.1130116E+00
         25   -1    0    0    0    0  0.00000000000E+00  0.00000000000E+00  0.99999998245E-14  0.12500000000E+03  0.12500000000E+03 0.  0.
        -13    1    3    3    0    0 -0.71168630965E+01  0.34102677257E+01 -0.31276031981E+02  0.32256487825E+02  0.10566000000E+00 0. -1.
         23    2    1    0    0    0  0.10063081157E+02 -0.53081646847E+01  0.28102235246E+02  0.94682054151E+02  0.89696786664E+02 0.  0.
         13    1    3    3    0    0  0.17179944254E+02 -0.87184324104E+01  0.59378267227E+02  0.62425566326E+02  0.10566000000E+00 0.  1.
         22    1    1    0    0    0 -0.10063081157E+02  0.53081646847E+01 -0.28102235246E+02  0.30317945849E+02  0.00000000000E+00 0.  1.
</event>
<event>
 5    1  0.1325832E-009  0.9118800E+02  0.7818608E-02  0.1130116E+00
         25   -1    0    0    0    0  0.00000000000E+00  0.00000000000E+00  0.99999998245E-14  0.12500000000E+03  0.12500000000E+03 0.  0.
        -13    1    3    3    0    0 -0.20921427531E+02  0.22784461432E+02 -0.38261906597E+02  0.49201854367E+02  0.10566000000E+00 0. -1.
         23    2    1    0    0    0  0.61068724761E+01  0.27444169953E+02  0.73146380885E+00  0.96875075197E+02  0.92702582485E+02 0.  0.
         13    1    3    3    0    0  0.27028300007E+02  0.46597085205E+01  0.38993370406E+02  0.47673220831E+02  0.10566000000E+00 0.  1.
         22    1    1    0    0    0 -0.61068724761E+01 -0.27444169953E+02 -0.73146380885E+00  0.28124924803E+02  0.00000000000E+00 0. -1.
</event>
<event>
 5    1  0.1325832E-009  0.9118800E+02  0.7818608E-02  0.1130116E+00
         25   -1    0    0    0    0  0.00000000000E+00  0.00000000000E+00  0.99999998245E-14  0.12500000000E+03  0.12500000000E+03 0.  0.
        -13    1    3    3    0    0 -0.13829073029E+02  0.24134156432E+02  0.21576303033E+02  0.35202965559E+02  0.10566000000E+00 0.  1.
         23    2    1    0    0    0 -0.68624499601E+01 -0.12475852141E+02 -0.25830964197E+02  0.95504596673E+02  0.90835836365E+02 0.  0.
         13    1    3    3    0    0  0.69666230693E+01 -0.36610008574E+02 -0.47407267230E+02  0.60301631114E+02  0.10566000000E+00 0. -1.
         22    1    1    0    0    0  0.68624499601E+01  0.12475852141E+02  0.25830964197E+02  0.29495403327E+02  0.00000000000E+00 0. -1.
</event>
<event>
 5    1  0.1325832E-009  0.9118800E+02  0.7818608E-02  0.1130116E+00
         25   -1    0    0    0    0  0.00000000000E+00  0.00000000000E+00  0.99999998245E-14  0.12500000000E+03  0.12500000000E+03 0.  0.
        -13    1    3    3    0    0  0.12860619898E+02  0.59919112730E+02  0.41236360782E+01  0.61422399441E+02  0.10566000000E+00 0.  1.
         23    2    1    0    0    0 -0.22321291599E+01  0.28500652169E+02  0.18099999563E+01  0.96354831568E+02  0.91998412443E+02 0.  0.
         13    1    3    3    0    0 -0.15092749058E+02 -0.31418460561E+02 -0.23136361218E+01  0.34932432127E+02  0.10566000000E+00 0. -1.
         22    1    1    0    0    0  0.22321291599E+01 -0.28500652169E+02 -0.18099999563E+01  0.28645168432E+02  0.00000000000E+00 0.  1.
</event>
<event>
 5    1  0.1325832E-009  0.9118800E+02  0.7818608E-02  0.1130116E+00
         25   -1    0    0    0    0  0.00000000000E+00  0.00000000000E+00  0.99999998245E-14  0.12500000000E+03  0.12500000000E+03 0.  0.
        -13    1    3    3    0    0 -0.10144734169E+02  0.37696553334E+02 -0.43628814098E+02  0.58544259738E+02  0.10566000000E+00 0. -1.
         23    2    1    0    0    0  0.36564914889E+01  0.25894387097E+02 -0.95500603827E+01  0.97159510305E+02  0.93085324173E+02 0.  0.
         13    1    3    3    0    0  0.13801225658E+02 -0.11802166237E+02  0.34078753715E+02  0.38615250567E+02  0.10566000000E+00 0.  1.
         22    1    1    0    0    0 -0.36564914889E+01 -0.25894387097E+02  0.95500603827E+01  0.27840489695E+02  0.00000000000E+00 0. -1.
</event>
<event>
 5    1  0.1325832E-009  0.9118800E+02  0.7818608E-02  0.1130116E+00
         25   -1    0    0    0    0  0.00000000000E+00  0.00000000000E+00  0.99999998245E-14  0.12500000000E+03  0.12500000000E+03 0.  0.
        -13    1    3    3    0    0  0.38313301970E+02 -0.40797997594E+02  0.17682771437E+02  0.58694780733E+02  0.10566000000E+00 0. -1.
         23    2    1    0    0    0  0.14367311858E+02 -0.12611118276E+02  0.21911592752E+02  0.95921178650E+02  0.91407300926E+02 0.  0.
         13    1    3    3    0    0 -0.23945990112E+02  0.28186879318E+02  0.42288213150E+01  0.37226397917E+02  0.10566000000E+00 0.  1.
         22    1    1    0    0    0 -0.14367311858E+02  0.12611118276E+02 -0.21911592752E+02  0.29078821350E+02  0.00000000000E+00 0. -1.
</event>
<event>
 5    1  0.1325832E-009  0.9118800E+02  0.7818608E-02  0.1130116E+00
         25   -1    0    0    0    0  0.00000000000E+00  0.00000000000E+00  0.99999998245E-14  0.12500000000E+03  0.12500000000E+03 0.  0.
        -13    1    3    3    0    0  0.10293632243E+02 -0.38096060223E+02 -0.10753443329E+02  0.40901300429E+02  0.10566000000E+00 0. -1.
         23    2    1    0    0    0  0.25454522109E+02  0.13945644830E+02 -0.63804424304E+01  0.95282601878E+02  0.90529831931E+02 0.  0.
         13    1    3    3    0    0  0.15160889867E+02  0.52041705053E+02  0.43730008981E+01  0.54381301449E+02  0.10566000000E+00 0.  1.
         22    1    1    0    0    0 -0.25454522109E+02 -0.13945644830E+02  0.63804424304E+01  0.29717398122E+02  0.00000000000E+00 0.  1.
</event>
<event>
 5    1  0.1325832E-009  0.9118800E+02  0.7818608E-02  0.1130116E+00
         25   -1    0    0    0    0  0.00000000000E+00  0.00000000000E+00  0.99999998245E-14  0.12500000000E+03  0.12500000000E+03 0.  0.
        -13    1    3    3    0    0 -0.11683315568E+02  0.45688764660E+02 -0.67966141038E+01  0.47646282185E+02  0.10566000000E+00 0.  1.
         23    2    1    0    0    0  0.11652956398E+01  0.72798373099E+01 -0.29852827501E+02  0.94250280408E+02  0.89093041827E+02 0.  0.
         13    1    3    3    0    0  0.12848611208E+02 -0.38408927350E+02 -0.23056213397E+02  0.46603998223E+02  0.10566000000E+00 0. -1.
         22    1    1    0    0    0 -0.11652956398E+01 -0.72798373099E+01  0.29852827501E+02  0.30749719592E+02  0.00000000000E+00 0. -1.
</event>
<event>
 5    1  0.1325832E-009  0.9118800E+02  0.7818608E-02  0.1130116E+00
         25   -1    0    0    0    0  0.00000000000E+00  0.00000000000E+00  0.99999998245E-14  0.12500000000E+03  0.12500000000E+03 0.  0.
        -13    1    3    3    0    0  0.23514365364E+02  0.29977760501E+02 -0.86676832779E+01  0.39073410404E+02  0.10566000000E+00 0.  1.
         23    2    1    0    0    0 -0.17454804693E+02 -0.12662924811E+02 -0.15274077532E+02  0.98574305760E+02  0.94966185771E+02 0.  0.
         13    1    3    3    0    0 -0.40969170057E+02 -0.42640685312E+02 -0.66063942538E+01  0.59500895356E+02  0.10566000000E+00 0. -1.
         22    1    1    0    0    0  0.17454804693E+02  0.12662924811E+02  0.15274077532E+02  0.26425694240E+02  0.00000000000E+00 0. -1.
</event>
<event>
 5    1  0.1325832E-009  0.9118800E+02  0.7818608E-02  0.1130116E+00
         25   -1    0    0    0    0  0.00000000000E+00  0.00000000000E+00  0.99999998245E-14  0.12500000000E+03  0.12500000000E+03 0.  0.
        -13    1    3    3    0    0  0.84724513692E+01 -0.43503739473E+02 -0.33224311761E+02  0.55391550226E+02  0.10566000000E+00 0.  1.
         23    2    1    0    0    0  0.94305931365E+01 -0.12143750894E+01 -0.24687448640E+02  0.98544737496E+02  0.94927258330E+02 0.  0.
         13    1    3    3    0    0  0.95814176733E+00  0.42289364384E+02  0.85368631204E+01  0.43153187271E+02  0.10566000000E+00 0. -1.
         22    1    1    0    0    0 -0.94305931365E+01  0.12143750894E+01  0.24687448640E+02  0.26455262504E+02  0.00000000000E+00 0. -1.
</event>
<event>
 5    1  0.1325832E-009  0.9118800E+02  0.7818608E-02  0.1130116E+00
         25   -1    0    0    0    0  0.00000000000E+00  0.00000000000E+00  0.99999998245E-14  0.12500000000E+03  0.12500000000E+03 0.  0.
        -13    1    3    3    0    0 -0.34182959467E+02  0.31436452094E+02 -0.25366322171E+02  0.52916790367E+02  0.10566000000E+00 0.  1.
         23    2    1    0    0    0 -0.18825239311E+02 -0.84776737882E+01 -0.20407537683E+02  0.95970219045E+02  0.91474339360E+02 0.  0.
         13    1    3    3    0    0  0.15357720156E+02 -0.39914125882E+02  0.49587844880E+01  0.43053428679E+02  0.10566000000E+00 0. -1.
         22    1    1    0    0    0  0.18825239311E+02  0.84776737882E+01  0.20407537683E+02  0.29029780955E+02  0.00000000000E+00 0.  1.
</event>
<event>
 5    1  0.1325832E-009  0.9118800E+02  0.7818608E-02  0.1130116E+00
         25   -1    0    0    0    0  0.00000000000E+00  0.00000000000E+00  0.99999998245E-14  0.12500000000E+03  0.12500000000E+03 0.  0.
        -13    1    3    3    0    0 -0.33157255488E+01  0.38075421192E+02  0.39108094574E+02  0.54682592844E+02  0.10566000000E+00 0. -1.
         23    2    1    0    0    0 -0.52450782921E+01  0.75675682152E-01  0.30965989542E+02  0.93592849836E+02  0.88165823645E+02 0.  0.
         13    1    3    3    0    0 -0.19293527433E+01 -0.37999745510E+02 -0.81421050318E+01  0.38910256992E+02  0.10566000000E+00 0.  1.
         22    1    1    0    0    0  0.52450782921E+01 -0.75675682152E-01 -0.30965989542E+02  0.31407150164E+02  0.00000000000E+00 0. -1.
</event>
<event>
 5    1  0.1325832E-009  0.9118800E+02  0.7818608E-02  0.1130116E+00
         25   -1    0    0    0    0  0.00000000000E+00  0.00000000000E+00  0.99999998245E-14  0.12500000000E+03  0.12500000000E+03 0.  0.
        -13    1    3    3    0    0 -0.72086490670E+01  0.10627592956E+02  0.54393655707E+02  0.55889098209E+02  0.10566000000E+00 0.  1.
         23    2    1    0    0    0  0.84513349838E+00 -0.14807220504E+02  0.27405809422E+02  0.93838382267E+02  0.88513250797E+02 0.  0.
         13    1    3    3    0    0  0.80537825654E+01 -0.25434813460E+02 -0.26987846285E+02  0.37949284058E+02  0.10566000000E+00 0. -1.
         22    1    1    0    0    0 -0.84513349838E+00  0.14807220504E+02 -0.27405809422E+02  0.31161617733E+02  0.00000000000E+00 0.  1.
</event>
<event>
 5    1  0.1325832E-009  0.9118800E+02  0.7818608E-02  0.1130116E+00
         25   -1    0    0    0    0  0.00000000000E+00  0.00000000000E+00  0.99999998245E-14  0.12500000000E+03  0.12500000000E+03 0.  0.
        -13    1    3    3    0    0 -0.55451710821E+02  0.22238400375E+02  0.33807738788E+01  0.59840450201E+02  0.10566000000E+00 0. -1.
         23    2    1    0    0    0 -0.20166172908E+02  0.20410499690E+02 -0.42676457034E+01  0.95991797243E+02  0.91503821290E+02 0.  0.
         13    1    3    3    0    0  0.35285537914E+02 -0.18279006846E+01 -0.76484195822E+01  0.36151347041E+02  0.10566000000E+00 0.  1.
         22    1    1    0    0    0  0.20166172908E+02 -0.20410499690E+02  0.42676457034E+01  0.29008202757E+02  0.00000000000E+00 0. -1.
</event>
<event>
 5    1  0.1325832E-009  0.9118800E+02  0.7818608E-02  0.1130116E+00
         25   -1    0    0    0    0  0.00000000000E+00  0.00000000000E+00  0.99999998245E-14  0.12500000000E+03  0.12500000000E+03 0.  0.
        -13    1    3    3    0    0 -0.31491341857E+02 -0.49241819599E+02  0.84933627962E+00  0.58456769886E+02  0.10566000000E+00 0.  1.
         23    2    1    0    0    0 -0.25948205586E+02 -0.18468037705E+02 -0.10100034379E+02  0.91587599843E+02  0.85275435857E+02 0.  0.
         13    1    3    3    0    0  0.55431362708E+01  0.30773781894E+02 -0.10949370659E+02  0.33130829957E+02  0.10566000000E+00 0. -1.
         22    1    1    0    0    0  0.25948205586E+02  0.18468037705E+02  0.10100034379E+02  0.33412400157E+02  0.00000000000E+00 0.  1.
</event>
<event>
 5    1  0.1325832E-009  0.9118800E+02  0.7818608E-02  0.1130116E+00
         25   -1    0    0    0    0  0.00000000000E+00  0.00000000000E+00  0.99999998245E-14  0.12500000000E+03  0.12500000000E+03 0.  0.
        -13    1    3    3    0    0 -0.25237157272E+02 -0.10183645450E+01 -0.56358934350E+02  0.61759953195E+02  0.10566000000E+00 0. -1.
         23    2    1    0    0    0 -0.59352426721E+01  0.22064593250E+00 -0.29790622838E+02  0.94623084435E+02  0.89614569734E+02 0.  0.
         13    1    3    3    0    0  0.19301914600E+02  0.12390104775E+01  0.26568311513E+02  0.32863131239E+02  0.10566000000E+00 0.  1.
         22    1    1    0    0    0  0.59352426721E+01 -0.22064593250E+00  0.29790622838E+02  0.30376915565E+02  0.00000000000E+00 0. -1.
</event>
<event>
 5    1  0.1325832E-009  0.9118800E+02  0.7818608E-02  0.1130116E+00
         25   -1    0    0    0    0  0.00000000000E+00  0.00000000000E+00  0.99999998245E-14  0.12500000000E+03  0.12500000000E+03 0.  0.
        -13    1    3    3    0    0  0.32127272506E+02 -0.43604569658E+02 -0.10880028825E+02  0.55244061446E+02  0.10566000000E+00 0.  1.
         23    2    1    0    0    0  0.28581175256E+02 -0.52571012115E+01 -0.11464486413E+02  0.93759719258E+02  0.88402091686E+02 0.  0.
         13    1    3    3    0    0 -0.35460972507E+01  0.38347468447E+02 -0.58445758876E+00  0.38515657812E+02  0.10566000000E+00 0. -1.
         22    1    1    0    0    0 -0.28581175256E+02  0.52571012115E+01  0.11464486413E+02  0.31240280742E+02  0.00000000000E+00 0.  1.
</event>
<event>
 5    1  0.1325832E-009  0.9118800E+02  0.7818608E-02  0.1130116E+00
         25   -1    0    0    0    0  0.00000000000E+00  0.00000000000E+00  0.99999998245E-14  0.12500000000E+03  0.12500000000E+03 0.  0.
        -13    1    3    3    0    0 -0.30073855839E+02 -0.11808901452E+02 -0.46940375116E+02  0.56985058907E+02  0.10566000000E+00 0.  1.
         23    2    1    0    0    0  0.72606438255E+01 -0.87652144207E+01 -0.14708458700E+02  0.10640202457E+03  0.10476404986E+03 0.  0.
         13    1    3    3    0    0  0.37334499664E+02  0.30436870316E+01  0.32231916416E+02  0.49416965668E+02  0.10566000000E+00 0. -1.
         22    1    1    0    0    0 -0.72606438255E+01  0.87652144207E+01  0.14708458700E+02  0.18597975426E+02  0.00000000000E+00 0.  1.
</event>
<event>
 5    1  0.1325832E-009  0.9118800E+02  0.7818608E-02  0.1130116E+00
         25   -1    0    0    0    0  0.00000000000E+00  0.00000000000E+00  0.99999998245E-14  0.12500000000E+03  0.12500000000E+03 0.  0.
        -13    1    3    3    0    0  0.41432905905E+02 -0.22074325127E+01  0.31489260631E+02  0.52087840704E+02  0.10566000000E+00 0.  1.
         23    2    1    0    0    0  0.13085731309E+02  0.23759000592E+02  0.10279740124E+02  0.95993112369E+02  0.91505617818E+02 0.  0.
         13    1    3    3    0    0 -0.28347174597E+02  0.25966433105E+02 -0.21209520508E+02  0.43905271665E+02  0.10566000000E+00 0. -1.
         22    1    1    0    0    0 -0.13085731309E+02 -0.23759000592E+02 -0.10279740124E+02  0.29006887631E+02  0.00000000000E+00 0.  1.
</event>
<event>
 5    1  0.1325832E-009  0.9118800E+02  0.7818608E-02  0.1130116E+00
         25   -1    0    0    0    0  0.00000000000E+00  0.00000000000E+00  0.99999998245E-14  0.12500000000E+03  0.12500000000E+03 0.  0.
        -13    1    3    3    0    0  0.13886964915E+02 -0.97372348162E+01 -0.56708151666E+02  0.59190262424E+02  0.10566000000E+00 0. -1.
         23    2    1    0    0    0  0.52556300301E+01  0.97533042933E+01 -0.27519530145E+02  0.95333973454E+02  0.90600735998E+02 0.  0.
         13    1    3    3    0    0 -0.86313348849E+01  0.19490539110E+02  0.29188621521E+02  0.36143711030E+02  0.10566000000E+00 0.  1.
         22    1    1    0    0    0 -0.52556300301E+01 -0.97533042933E+01  0.27519530145E+02  0.29666026546E+02  0.00000000000E+00 0. -1.
</event>
<event>
 5    1  0.1325832E-009  0.9118800E+02  0.7818608E-02  0.1130116E+00
         25   -1    0    0    0    0  0.00000000000E+00  0.00000000000E+00  0.99999998245E-14  0.12500000000E+03  0.12500000000E+03 0.  0.
        -13    1    3    3    0    0  0.26000416435E+02 -0.39951617668E+02 -0.17618542636E+02  0.50819067463E+02  0.10566000000E+00 0.  1.
         23    2    1    0    0    0  0.26411010350E+02  0.35956627930E+01 -0.14924117773E+02  0.94451684991E+02  0.89375171315E+02 0.  0.
         13    1    3    3    0    0  0.41059391481E+00  0.43547280461E+02  0.26944248638E+01  0.43632617528E+02  0.10566000000E+00 0. -1.
         22    1    1    0    0    0 -0.26411010350E+02 -0.35956627930E+01  0.14924117773E+02  0.30548315009E+02  0.00000000000E+00 0. -1.
</event>
<event>
 5    1  0.1325832E-009  0.9118800E+02  0.7818608E-02  0.1130116E+00
         25   -1    0    0    0    0  0.00000000000E+00  0.00000000000E+00  0.99999998245E-14  0.12500000000E+03  0.12500000000E+03 0.  0.
        -13    1    3    3    0    0  0.43845746792E+02  0.10408375800E+02  0.39112933707E+02  0.59670902002E+02  0.10566000000E+00 0. -1.
         23    2    1    0    0    0  0.16853447811E+02  0.17103768938E+02  0.13639566837E+02  0.97384507998E+02  0.93386974464E+02 0.  0.
         13    1    3    3    0    0 -0.26992298980E+02  0.66953931381E+01 -0.25473366870E+02  0.37713605996E+02  0.10566000000E+00 0.  1.
         22    1    1    0    0    0 -0.16853447811E+02 -0.17103768938E+02 -0.13639566837E+02  0.27615492002E+02  0.00000000000E+00 0. -1.
</event>
<event>
 5    1  0.1325832E-009  0.9118800E+02  0.7818608E-02  0.1130116E+00
         25   -1    0    0    0    0  0.00000000000E+00  0.00000000000E+00  0.99999998245E-14  0.12500000000E+03  0.12500000000E+03 0.  0.
        -13    1    3    3    0    0  0.29639241799E+01 -0.17804039801E+02  0.32490080275E+02  0.37166990194E+02  0.10566000000E+00 0.  1.
         23    2    1    0    0    0  0.21728121695E+02  0.19352524127E+02 -0.75659217551E+01  0.94935492113E+02  0.90049281109E+02 0.  0.
         13    1    3    3    0    0  0.18764197515E+02  0.37156563928E+02 -0.40056002030E+02  0.57768501919E+02  0.10566000000E+00 0. -1.
         22    1    1    0    0    0 -0.21728121695E+02 -0.19352524127E+02  0.75659217551E+01  0.30064507887E+02  0.00000000000E+00 0. -1.
</event>
<event>
 5    1  0.1325832E-009  0.9118800E+02  0.7818608E-02  0.1130116E+00
         25   -1    0    0    0    0  0.00000000000E+00  0.00000000000E+00  0.99999998245E-14  0.12500000000E+03  0.12500000000E+03 0.  0.
        -13    1    3    3    0    0  0.16369501251E+02  0.22372108607E+02  0.35779327712E+02  0.45261940637E+02  0.10566000000E+00 0.  1.
         23    2    1    0    0    0 -0.22018021228E+02  0.22640587756E+02  0.86944883796E+01  0.92243571609E+02  0.86231623563E+02 0.  0.
         13    1    3    3    0    0 -0.38387522479E+02  0.26847914953E+00 -0.27084839332E+02  0.46981630972E+02  0.10566000000E+00 0. -1.
         22    1    1    0    0    0  0.22018021228E+02 -0.22640587756E+02 -0.86944883796E+01  0.32756428391E+02  0.00000000000E+00 0. -1.
</event>
<event>
 5    1  0.1325832E-009  0.9118800E+02  0.7818608E-02  0.1130116E+00
         25   -1    0    0    0    0  0.00000000000E+00  0.00000000000E+00  0.99999998245E-14  0.12500000000E+03  0.12500000000E+03 0.  0.
        -13    1    3    3    0    0 -0.11400544340E+02 -0.33975710877E+02 -0.71418610474E+01  0.36542286247E+02  0.10566000000E+00 0. -1.
         23    2    1    0    0    0  0.49033721513E+00  0.17838513041E+02  0.21604886889E+02  0.96978149319E+02  0.92841463419E+02 0.  0.
         13    1    3    3    0    0  0.11890881555E+02  0.51814223918E+02  0.28746747936E+02  0.60435863073E+02  0.10566000000E+00 0.  1.
         22    1    1    0    0    0 -0.49033721513E+00 -0.17838513041E+02 -0.21604886889E+02  0.28021850681E+02  0.00000000000E+00 0.  1.
</event>
<event>
 5    1  0.1325832E-009  0.9118800E+02  0.7818608E-02  0.1130116E+00
         25   -1    0    0    0    0  0.00000000000E+00  0.00000000000E+00  0.99999998245E-14  0.12500000000E+03  0.12500000000E+03 0.  0.
        -13    1    3    3    0    0 -0.12420070946E+02  0.55322226468E+02  0.14353427436E+01  0.56717530593E+02  0.10566000000E+00 0. -1.
         23    2    1    0    0    0  0.19485737611E+01  0.23634329749E+02  0.17975747793E+02  0.95242547301E+02  0.90474509257E+02 0.  0.
         13    1    3    3    0    0  0.14368644707E+02 -0.31687896719E+02  0.16540405049E+02  0.38525016709E+02  0.10566000000E+00 0.  1.
         22    1    1    0    0    0 -0.19485737611E+01 -0.23634329749E+02 -0.17975747793E+02  0.29757452699E+02  0.00000000000E+00 0. -1.
</event>
<event>
 5    1  0.1325832E-009  0.9118800E+02  0.7818608E-02  0.1130116E+00
         25   -1    0    0    0    0  0.00000000000E+00  0.00000000000E+00  0.99999998245E-14  0.12500000000E+03  0.12500000000E+03 0.  0.
        -13    1    3    3    0    0 -0.25437581769E+02  0.88181951468E+01 -0.54855927769E+02  0.61106588084E+02  0.10566000000E+00 0.  1.
         23    2    1    0    0    0 -0.37774495787E+01  0.12661091034E+01 -0.29229678183E+02  0.95500063657E+02  0.90829598228E+02 0.  0.
         13    1    3    3    0    0  0.21660132190E+02 -0.75520860434E+01  0.25626249586E+02  0.34393475573E+02  0.10566000000E+00 0. -1.
         22    1    1    0    0    0  0.37774495787E+01 -0.12661091034E+01  0.29229678183E+02  0.29499936343E+02  0.00000000000E+00 0.  1.
</event>
<event>
 5    1  0.1325832E-009  0.9118800E+02  0.7818608E-02  0.1130116E+00
         25   -1    0    0    0    0  0.00000000000E+00  0.00000000000E+00  0.99999998245E-14  0.12500000000E+03  0.12500000000E+03 0.  0.
        -13    1    3    3    0    0 -0.15855732040E+02 -0.88636727688E+01 -0.26645692114E+02  0.32248612462E+02  0.10566000000E+00 0.  1.
         23    2    1    0    0    0  0.16460245884E+02  0.19617108139E+02  0.17543475317E+02  0.93958992405E+02  0.88683415029E+02 0.  0.
         13    1    3    3    0    0  0.32315977924E+02  0.28480780908E+02  0.44189167431E+02  0.61710379942E+02  0.10566000000E+00 0. -1.
         22    1    1    0    0    0 -0.16460245884E+02 -0.19617108139E+02 -0.17543475317E+02  0.31041007595E+02  0.00000000000E+00 0. -1.
</event>
<event>
 5    1  0.1325832E-009  0.9118800E+02  0.7818608E-02  0.1130116E+00
         25   -1    0    0    0    0  0.00000000000E+00  0.00000000000E+00  0.99999998245E-14  0.12500000000E+03  0.12500000000E+03 0.  0.
        -13    1    3    3    0    0  0.28103298532E+02  0.23363463807E+02 -0.32188827667E+02  0.48700909848E+02  0.10566000000E+00 0.  1.
         23    2    1    0    0    0  0.16236433796E+02 -0.19038045411E+02 -0.94798113619E+01  0.98243023733E+02  0.94529127433E+02 0.  0.
         13    1    3    3    0    0 -0.11866864736E+02 -0.42401509218E+02  0.22709016305E+02  0.49542113885E+02  0.10566000000E+00 0. -1.
         22    1    1    0    0    0 -0.16236433796E+02  0.19038045411E+02  0.94798113619E+01  0.26756976267E+02  0.00000000000E+00 0.  1.
</event>
<event>
 5    1  0.1325832E-009  0.9118800E+02  0.7818608E-02  0.1130116E+00
         25   -1    0    0    0    0  0.00000000000E+00  0.00000000000E+00  0.99999998245E-14  0.12500000000E+03  0.12500000000E+03 0.  0.
        -13    1    3    3    0    0  0.29075035058E+02 -0.80601527712E+01 -0.19656036081E+02  0.36009646552E+02  0.10566000000E+00 0.  1.
         23    2    1    0    0    0 -0.42917038820E+01  0.18495635720E+02  0.22216899531E+02  0.95775046832E+02  0.91207245919E+02 0.  0.
         13    1    3    3    0    0 -0.33366738940E+02  0.26555788491E+02  0.41872935612E+02  0.59765400280E+02  0.10566000000E+00 0. -1.
         22    1    1    0    0    0  0.42917038820E+01 -0.18495635720E+02 -0.22216899531E+02  0.29224953168E+02  0.00000000000E+00 0. -1.
</event>
<event>
 5    1  0.1325832E-009  0.9118800E+02  0.7818608E-02  0.1130116E+00
         25   -1    0    0    0    0  0.00000000000E+00  0.00000000000E+00  0.99999998245E-14  0.12500000000E+03  0.12500000000E+03 0.  0.
        -13    1    3    3    0    0  0.35924466940E+02  0.30325566118E+02 -0.27307747473E+02  0.54368479116E+02  0.10566000000E+00 0.  1.
         23    2    1    0    0    0 -0.27137112893E+01  0.18143743912E+02 -0.23681787019E+02  0.95043586521E+02  0.90199205265E+02 0.  0.
         13    1    3    3    0    0 -0.38638178230E+02 -0.12181822206E+02  0.36259604540E+01  0.40675107405E+02  0.10566000000E+00 0. -1.
         22    1    1    0    0    0  0.27137112893E+01 -0.18143743912E+02  0.23681787019E+02  0.29956413479E+02  0.00000000000E+00 0.  1.
</event>
<event>
 5    1  0.1325832E-009  0.9118800E+02  0.7818608E-02  0.1130116E+00
         25   -1    0    0    0    0  0.00000000000E+00  0.00000000000E+00  0.99999998245E-14  0.12500000000E+03  0.12500000000E+03 0.  0.
        -13    1    3    3    0    0  0.22651216658E+02  0.15750049406E+02  0.41470922019E+02  0.49809539343E+02  0.10566000000E+00 0.  1.
         23    2    1    0    0    0  0.17709216415E+02  0.22699981949E+02 -0.38742596923E+01  0.95949777717E+02  0.91446401948E+02 0.  0.
         13    1    3    3    0    0 -0.49420002432E+01  0.69499325431E+01 -0.45345181711E+02  0.46140238374E+02  0.10566000000E+00 0. -1.
         22    1    1    0    0    0 -0.17709216415E+02 -0.22699981949E+02  0.38742596923E+01  0.29050222283E+02  0.00000000000E+00 0. -1.
</event>
<event>
 5    1  0.1325832E-009  0.9118800E+02  0.7818608E-02  0.1130116E+00
         25   -1    0    0    0    0  0.00000000000E+00  0.00000000000E+00  0.99999998245E-14  0.12500000000E+03  0.12500000000E+03 0.  0.
        -13    1    3    3    0    0  0.25772980335E+02  0.39397819996E+02 -0.37525563185E+02  0.60204765528E+02  0.10566000000E+00 0. -1.
         23    2    1    0    0    0  0.19653991019E+02  0.21522448235E+02 -0.88598586211E+01  0.94537035014E+02  0.89494462138E+02 0.  0.
         13    1    3    3    0    0 -0.61189893168E+01 -0.17875371762E+02  0.28665704564E+02  0.34332269486E+02  0.10566000000E+00 0.  1.
         22    1    1    0    0    0 -0.19653991019E+02 -0.21522448235E+02  0.88598586211E+01  0.30462964986E+02  0.00000000000E+00 0. -1.
</event>
<event>
 5    1  0.1325832E-009  0.9118800E+02  0.7818608E-02  0.1130116E+00
         25   -1    0    0    0    0  0.00000000000E+00  0.00000000000E+00  0.99999998245E-14  0.12500000000E+03  0.12500000000E+03 0.  0.
        -13    1    3    3    0    0 -0.53873989980E+02 -0.12871048276E+02  0.10676151964E+02  0.56409769232E+02  0.10566000000E+00 0.  1.
         23    2    1    0    0    0 -0.18918831309E+02 -0.20326314507E+02  0.16613740232E+02  0.92641112441E+02  0.86805979692E+02 0.  0.
         13    1    3    3    0    0  0.34955158670E+02 -0.74552662311E+01  0.59375882680E+01  0.36231343209E+02  0.10566000000E+00 0. -1.
         22    1    1    0    0    0  0.18918831309E+02  0.20326314507E+02 -0.16613740232E+02  0.32358887559E+02  0.00000000000E+00 0.  1.
</event>
<event>
 5    1  0.1325832E-009  0.9118800E+02  0.7818608E-02  0.1130116E+00
         25   -1    0    0    0    0  0.00000000000E+00  0.00000000000E+00  0.99999998245E-14  0.12500000000E+03  0.12500000000E+03 0.  0.
        -13    1    3    3    0    0 -0.39335714370E+02 -0.83010190162E+01  0.30237595331E+02  0.50304360419E+02  0.10566000000E+00 0.  1.
         23    2    1    0    0    0  0.44508180905E+01 -0.20511645217E+02  0.17921898201E+02  0.97400510760E+02  0.93408391968E+02 0.  0.
         13    1    3    3    0    0  0.43786532461E+02 -0.12210626201E+02 -0.12315697130E+02  0.47096150341E+02  0.10566000000E+00 0. -1.
         22    1    1    0    0    0 -0.44508180905E+01  0.20511645217E+02 -0.17921898201E+02  0.27599489240E+02  0.00000000000E+00 0. -1.
</event>
<event>
 5    1  0.1325832E-009  0.9118800E+02  0.7818608E-02  0.1130116E+00
         25   -1    0    0    0    0  0.00000000000E+00  0.00000000000E+00  0.99999998245E-14  0.12500000000E+03  0.12500000000E+03 0.  0.
        -13    1    3    3    0    0  0.43463890126E+01  0.33873885481E+02 -0.18804626915E+02  0.38986617864E+02  0.10566000000E+00 0. -1.
         23    2    1    0    0    0  0.92923999388E+00  0.25210361973E+01  0.28791319737E+02  0.96083582471E+02  0.91629119923E+02 0.  0.
         13    1    3    3    0    0 -0.34171490188E+01 -0.31352849284E+02  0.47595946652E+02  0.57096964607E+02  0.10566000000E+00 0.  1.
         22    1    1    0    0    0 -0.92923999388E+00 -0.25210361973E+01 -0.28791319737E+02  0.28916417529E+02  0.00000000000E+00 0.  1.
</event>
<event>
 5    1  0.1325832E-009  0.9118800E+02  0.7818608E-02  0.1130116E+00
         25   -1    0    0    0    0  0.00000000000E+00  0.00000000000E+00  0.99999998245E-14  0.12500000000E+03  0.12500000000E+03 0.  0.
        -13    1    3    3    0    0 -0.24474283176E+02  0.44927759320E+02  0.87080321955E+01  0.51897351409E+02  0.10566000000E+00 0. -1.
         23    2    1    0    0    0 -0.26926384710E+02  0.13897866320E+01  0.11703587840E+02  0.95607217404E+02  0.90976944063E+02 0.  0.
         13    1    3    3    0    0 -0.24521015335E+01 -0.43537972688E+02  0.29955556442E+01  0.43709865995E+02  0.10566000000E+00 0.  1.
         22    1    1    0    0    0  0.26926384710E+02 -0.13897866320E+01 -0.11703587840E+02  0.29392782596E+02  0.00000000000E+00 0. -1.
</event>
<event>
 5    1  0.1325832E-009  0.9118800E+02  0.7818608E-02  0.1130116E+00
         25   -1    0    0    0    0  0.00000000000E+00  0.00000000000E+00  0.99999998245E-14  0.12500000000E+03  0.12500000000E+03 0.  0.
        -13    1    3    3    0    0 -0.21473371244E+01 -0.48153672292E+02  0.22206095389E+02  0.53070792799E+02  0.10566000000E+00 0.  1.
         23    2    1    0    0    0  0.20812499121E+02 -0.20584114990E+02 -0.84449013817E+00  0.95715548952E+02  0.91125667285E+02 0.  0.
         13    1    3    3    0    0  0.22959836245E+02  0.27569557302E+02 -0.23050585527E+02  0.42644756153E+02  0.10566000000E+00 0. -1.
         22    1    1    0    0    0 -0.20812499121E+02  0.20584114990E+02  0.84449013817E+00  0.29284451048E+02  0.00000000000E+00 0.  1.
</event>
<event>
 5    1  0.1325832E-009  0.9118800E+02  0.7818608E-02  0.1130116E+00
         25   -1    0    0    0    0  0.00000000000E+00  0.00000000000E+00  0.99999998245E-14  0.12500000000E+03  0.12500000000E+03 0.  0.
        -13    1    3    3    0    0  0.17563585519E+02  0.27455272459E+02 -0.13065040949E+02  0.35113786197E+02  0.10566000000E+00 0.  1.
         23    2    1    0    0    0 -0.21117060901E+00 -0.28941934569E+02  0.15180253010E+01  0.96017512694E+02  0.91538943481E+02 0.  0.
         13    1    3    3    0    0 -0.17774756128E+02 -0.56397207028E+02  0.14583066250E+02  0.60903726497E+02  0.10566000000E+00 0. -1.
         22    1    1    0    0    0  0.21117060901E+00  0.28941934569E+02 -0.15180253010E+01  0.28982487306E+02  0.00000000000E+00 0. -1.
</event>
<event>
 5    1  0.1325832E-009  0.9118800E+02  0.7818608E-02  0.1130116E+00
         25   -1    0    0    0    0  0.00000000000E+00  0.00000000000E+00  0.99999998245E-14  0.12500000000E+03  0.12500000000E+03 0.  0.
        -13    1    3    3    0    0 -0.13246754230E+02 -0.35519882030E+02  0.12618727597E+02  0.39954748995E+02  0.10566000000E+00 0. -1.
         23    2    1    0    0    0 -0.75012446260E+00  0.13554806830E+02  0.28835347624E+02  0.93128810071E+02  0.87505442789E+02 0.  0.
         13    1    3    3    0    0  0.12496629768E+02  0.49074688860E+02  0.16216620026E+02  0.53174061076E+02  0.10566000000E+00 0.  1.
         22    1    1    0    0    0  0.75012446260E+00 -0.13554806830E+02 -0.28835347624E+02  0.31871189929E+02  0.00000000000E+00 0.  1.
</event>
<event>
 5    1  0.1325832E-009  0.9118800E+02  0.7818608E-02  0.1130116E+00
         25   -1    0    0    0    0  0.00000000000E+00  0.00000000000E+00  0.99999998245E-14  0.12500000000E+03  0.12500000000E+03 0.  0.
        -13    1    3    3    0    0  0.19378703121E+02 -0.92363867826E+01 -0.40467117651E+02  0.45808773728E+02  0.10566000000E+00 0.  1.
         23    2    1    0    0    0 -0.15645926715E+02 -0.23302573757E+02 -0.74389320780E+01  0.95963080795E+02  0.91464584396E+02 0.  0.
         13    1    3    3    0    0 -0.35024629836E+02 -0.14066186974E+02  0.33028185573E+02  0.50154307067E+02  0.10566000000E+00 0. -1.
         22    1    1    0    0    0  0.15645926715E+02  0.23302573757E+02  0.74389320780E+01  0.29036919205E+02  0.00000000000E+00 0. -1.
</event>
<event>
 5    1  0.1325832E-009  0.9118800E+02  0.7818608E-02  0.1130116E+00
         25   -1    0    0    0    0  0.00000000000E+00  0.00000000000E+00  0.99999998245E-14  0.12500000000E+03  0.12500000000E+03 0.  0.
        -13    1    3    3    0    0  0.75008600638E+01 -0.59837496978E+02 -0.11567906375E+02  0.61405346414E+02  0.10566000000E+00 0.  1.
         23    2    1    0    0    0 -0.37269284935E+01 -0.26573469677E+02 -0.93530792673E+01  0.96583114554E+02  0.92308063778E+02 0.  0.
         13    1    3    3    0    0 -0.11227788557E+02  0.33264027301E+02  0.22148271073E+01  0.35177768140E+02  0.10566000000E+00 0. -1.
         22    1    1    0    0    0  0.37269284935E+01  0.26573469677E+02  0.93530792673E+01  0.28416885446E+02  0.00000000000E+00 0.  1.
</event>
<event>
 5    1  0.1325832E-009  0.9118800E+02  0.7818608E-02  0.1130116E+00
         25   -1    0    0    0    0  0.00000000000E+00  0.00000000000E+00  0.99999998245E-14  0.12500000000E+03  0.12500000000E+03 0.  0.
        -13    1    3    3    0    0 -0.29215936144E+02  0.30826989909E+02  0.30102909438E+02  0.52058337971E+02  0.10566000000E+00 0. -1.
         23    2    1    0    0    0  0.11599234174E+02  0.19467808406E+02  0.17825637027E+02  0.96167880186E+02  0.91744046382E+02 0.  0.
         13    1    3    3    0    0  0.40815170318E+02 -0.11359181504E+02 -0.12277272411E+02  0.44109542215E+02  0.10566000000E+00 0.  1.
         22    1    1    0    0    0 -0.11599234174E+02 -0.19467808406E+02 -0.17825637027E+02  0.28832119814E+02  0.00000000000E+00 0. -1.
</event>
<event>
 5    1  0.1325832E-009  0.9118800E+02  0.7818608E-02  0.1130116E+00
         25   -1    0    0    0    0  0.00000000000E+00  0.00000000000E+00  0.99999998245E-14  0.12500000000E+03  0.12500000000E+03 0.  0.
        -13    1    3    3    0    0  0.18926010997E+01 -0.40790080437E+02 -0.85326818987E-01  0.40834189666E+02  0.10566000000E+00 0. -1.
         23    2    1    0    0    0  0.29308313608E+02  0.59726983742E+01 -0.13929347467E+01  0.95056876588E+02  0.90217621046E+02 0.  0.
         13    1    3    3    0    0  0.27415712509E+02  0.46762778812E+02 -0.13076079278E+01  0.54222686922E+02  0.10566000000E+00 0.  1.
         22    1    1    0    0    0 -0.29308313608E+02 -0.59726983742E+01  0.13929347467E+01  0.29943123412E+02  0.00000000000E+00 0.  1.
</event>
<event>
 5    1  0.1325832E-009  0.9118800E+02  0.7818608E-02  0.1130116E+00
         25   -1    0    0    0    0  0.00000000000E+00  0.00000000000E+00  0.99999998245E-14  0.12500000000E+03  0.12500000000E+03 0.  0.
        -13    1    3    3    0    0 -0.28076522205E+02  0.12398634472E+01  0.23344349728E+02  0.36534890020E+02  0.10566000000E+00 0.  1.
         23    2    1    0    0    0  0.29717246464E+01 -0.16931575477E+02 -0.23677570766E+02  0.95740185358E+02  0.91159455569E+02 0.  0.
         13    1    3    3    0    0  0.31048246851E+02 -0.18171438924E+02 -0.47021920494E+02  0.59205295338E+02  0.10566000000E+00 0. -1.
         22    1    1    0    0    0 -0.29717246464E+01  0.16931575477E+02  0.23677570766E+02  0.29259814642E+02  0.00000000000E+00 0. -1.
</event>
<event>
 5    1  0.1325832E-009  0.9118800E+02  0.7818608E-02  0.1130116E+00
         25   -1    0    0    0    0  0.00000000000E+00  0.00000000000E+00  0.99999998245E-14  0.12500000000E+03  0.12500000000E+03 0.  0.
        -13    1    3    3    0    0 -0.67469665358E+01 -0.15481556615E+02 -0.28652014281E+02  0.33258821973E+02  0.10566000000E+00 0. -1.
         23    2    1    0    0    0  0.12657374082E+01  0.12750129591E+02  0.26405928974E+02  0.95649685167E+02  0.91035274986E+02 0.  0.
         13    1    3    3    0    0  0.80127039440E+01  0.28231686206E+02  0.55057943255E+02  0.62390863194E+02  0.10566000000E+00 0.  1.
         22    1    1    0    0    0 -0.12657374082E+01 -0.12750129591E+02 -0.26405928974E+02  0.29350314833E+02  0.00000000000E+00 0.  1.
</event>
<event>
 5    1  0.1325832E-009  0.9118800E+02  0.7818608E-02  0.1130116E+00
         25   -1    0    0    0    0  0.00000000000E+00  0.00000000000E+00  0.99999998245E-14  0.12500000000E+03  0.12500000000E+03 0.  0.
        -13    1    3    3    0    0 -0.10154022763E+02 -0.24260616362E+02  0.35947988749E+02  0.44541561981E+02  0.10566000000E+00 0. -1.
         23    2    1    0    0    0  0.27694107680E+02 -0.13247237096E+01  0.13822898984E+02  0.94019505662E+02  0.88768667983E+02 0.  0.
         13    1    3    3    0    0  0.37848130443E+02  0.22935892653E+02 -0.22125089765E+02  0.49477943681E+02  0.10566000000E+00 0.  1.
         22    1    1    0    0    0 -0.27694107680E+02  0.13247237096E+01 -0.13822898984E+02  0.30980494338E+02  0.00000000000E+00 0. -1.
</event>
<event>
 5    1  0.1325832E-009  0.9118800E+02  0.7818608E-02  0.1130116E+00
         25   -1    0    0    0    0  0.00000000000E+00  0.00000000000E+00  0.99999998245E-14  0.12500000000E+03  0.12500000000E+03 0.  0.
        -13    1    3    3    0    0  0.52088496988E+02  0.29780741277E+02  0.36638235940E+01  0.60112717762E+02  0.10566000000E+00 0.  1.
         23    2    1    0    0    0  0.19465619827E+02  0.20152420128E+02 -0.76444989864E+01  0.95957466415E+02  0.91456911186E+02 0.  0.
         13    1    3    3    0    0 -0.32622877160E+02 -0.96283211485E+01 -0.11308322580E+02  0.35844748653E+02  0.10566000000E+00 0. -1.
         22    1    1    0    0    0 -0.19465619827E+02 -0.20152420128E+02  0.76444989864E+01  0.29042533585E+02  0.00000000000E+00 0.  1.
</event>
<event>
 5    1  0.1325832E-009  0.9118800E+02  0.7818608E-02  0.1130116E+00
         25   -1    0    0    0    0  0.00000000000E+00  0.00000000000E+00  0.99999998245E-14  0.12500000000E+03  0.12500000000E+03 0.  0.
        -13    1    3    3    0    0  0.32189202402E+02 -0.10124416347E+01  0.33708282359E+02  0.46620052048E+02  0.10566000000E+00 0.  1.
         23    2    1    0    0    0  0.76226102254E+01  0.27231526260E+02  0.41222613313E+00  0.96718731650E+02  0.92491528869E+02 0.  0.
         13    1    3    3    0    0 -0.24566592177E+02  0.28243967895E+02 -0.33296056226E+02  0.50098679602E+02  0.10566000000E+00 0. -1.
         22    1    1    0    0    0 -0.76226102254E+01 -0.27231526260E+02 -0.41222613313E+00  0.28281268350E+02  0.00000000000E+00 0. -1.
</event>
<event>
 5    1  0.1325832E-009  0.9118800E+02  0.7818608E-02  0.1130116E+00
         25   -1    0    0    0    0  0.00000000000E+00  0.00000000000E+00  0.99999998245E-14  0.12500000000E+03  0.12500000000E+03 0.  0.
        -13    1    3    3    0    0  0.28993289187E+02 -0.42088469662E+02  0.35937738616E+02  0.62478654893E+02  0.10566000000E+00 0. -1.
         23    2    1    0    0    0  0.13197917076E+02 -0.18847055202E+02  0.17568596774E+02  0.96050870522E+02  0.91584483568E+02 0.  0.
         13    1    3    3    0    0 -0.15795372111E+02  0.23241414459E+02 -0.18369141842E+02  0.33572215629E+02  0.10566000000E+00 0.  1.
         22    1    1    0    0    0 -0.13197917076E+02  0.18847055202E+02 -0.17568596774E+02  0.28949129478E+02  0.00000000000E+00 0. -1.
</event>
<event>
 5    1  0.1325832E-009  0.9118800E+02  0.7818608E-02  0.1130116E+00
         25   -1    0    0    0    0  0.00000000000E+00  0.00000000000E+00  0.99999998245E-14  0.12500000000E+03  0.12500000000E+03 0.  0.
        -13    1    3    3    0    0 -0.10992382592E+02 -0.23460960746E+02  0.39155623252E+02  0.46951284865E+02  0.10566000000E+00 0.  1.
         23    2    1    0    0    0  0.17836800583E+02 -0.23318729258E+02 -0.81912653140E-01  0.95641503803E+02  0.91024040510E+02 0.  0.
         13    1    3    3    0    0  0.28829183175E+02  0.14223148817E+00 -0.39237535905E+02  0.48690218938E+02  0.10566000000E+00 0. -1.
         22    1    1    0    0    0 -0.17836800583E+02  0.23318729258E+02  0.81912653140E-01  0.29358496197E+02  0.00000000000E+00 0. -1.
</event>
<event>
 5    1  0.1325832E-009  0.9118800E+02  0.7818608E-02  0.1130116E+00
         25   -1    0    0    0    0  0.00000000000E+00  0.00000000000E+00  0.99999998245E-14  0.12500000000E+03  0.12500000000E+03 0.  0.
        -13    1    3    3    0    0  0.53703620059E+02 -0.10287539893E+02  0.25944326988E+02  0.60522983662E+02  0.10566000000E+00 0. -1.
         23    2    1    0    0    0  0.26432207929E+02  0.61322440952E+01  0.10497555410E+02  0.95905933540E+02  0.91386450773E+02 0.  0.
         13    1    3    3    0    0 -0.27271412130E+02  0.16419783989E+02 -0.15446771578E+02  0.35382949877E+02  0.10566000000E+00 0.  1.
         22    1    1    0    0    0 -0.26432207929E+02 -0.61322440952E+01 -0.10497555410E+02  0.29094066460E+02  0.00000000000E+00 0. -1.
</event>
<event>
 5    1  0.1325832E-009  0.9118800E+02  0.7818608E-02  0.1130116E+00
         25   -1    0    0    0    0  0.00000000000E+00  0.00000000000E+00  0.99999998245E-14  0.12500000000E+03  0.12500000000E+03 0.  0.
        -13    1    3    3    0    0 -0.89378617195E+01  0.45542640513E+02  0.38754463163E+02  0.60464345329E+02  0.10566000000E+00 0. -1.
         23    2    1    0    0    0 -0.34301048270E+01  0.17760768467E+02  0.29746852456E+02  0.90184978146E+02  0.83194017432E+02 0.  0.
         13    1    3    3    0    0  0.55077568926E+01 -0.27781872045E+02 -0.90076107071E+01  0.29720632817E+02  0.10566000000E+00 0.  1.
         22    1    1    0    0    0  0.34301048270E+01 -0.17760768467E+02 -0.29746852456E+02  0.34815021854E+02  0.00000000000E+00 0. -1.
</event>
<event>
 5    1  0.1325832E-009  0.9118800E+02  0.7818608E-02  0.1130116E+00
         25   -1    0    0    0    0  0.00000000000E+00  0.00000000000E+00  0.99999998245E-14  0.12500000000E+03  0.12500000000E+03 0.  0.
        -13    1    3    3    0    0 -0.32902862040E+02 -0.61293685596E+01  0.10471340414E+02  0.35068898236E+02  0.10566000000E+00 0. -1.
         23    2    1    0    0    0  0.25213149422E+02 -0.16092331386E+02 -0.69570096959E+00  0.95080941976E+02  0.90250958410E+02 0.  0.
         13    1    3    3    0    0  0.58116011462E+02 -0.99629628269E+01 -0.11167041383E+02  0.60012043740E+02  0.10566000000E+00 0.  1.
         22    1    1    0    0    0 -0.25213149422E+02  0.16092331386E+02  0.69570096959E+00  0.29919058024E+02  0.00000000000E+00 0.  1.
</event>
<event>
 5    1  0.1325832E-009  0.9118800E+02  0.7818608E-02  0.1130116E+00
         25   -1    0    0    0    0  0.00000000000E+00  0.00000000000E+00  0.99999998245E-14  0.12500000000E+03  0.12500000000E+03 0.  0.
        -13    1    3    3    0    0 -0.31262043961E+02  0.30278839762E+02 -0.29142748873E+02  0.52377805470E+02  0.10566000000E+00 0. -1.
         23    2    1    0    0    0 -0.12766264713E+02  0.25198923444E+02  0.92338329763E+01  0.95280865947E+02  0.90527434994E+02 0.  0.
         13    1    3    3    0    0  0.18495779248E+02 -0.50799163178E+01  0.38376581849E+02  0.42903060477E+02  0.10566000000E+00 0.  1.
         22    1    1    0    0    0  0.12766264713E+02 -0.25198923444E+02 -0.92338329763E+01  0.29719134053E+02  0.00000000000E+00 0.  1.
</event>
<event>
 5    1  0.1325832E-009  0.9118800E+02  0.7818608E-02  0.1130116E+00
         25   -1    0    0    0    0  0.00000000000E+00  0.00000000000E+00  0.99999998245E-14  0.12500000000E+03  0.12500000000E+03 0.  0.
        -13    1    3    3    0    0  0.34894865239E+02 -0.19151877549E+02  0.25759222423E+02  0.47413022869E+02  0.10566000000E+00 0.  1.
         23    2    1    0    0    0  0.27156958732E+02 -0.62514717479E+01 -0.16736724799E+02  0.92493088987E+02  0.86592564616E+02 0.  0.
         13    1    3    3    0    0 -0.77379065067E+01  0.12900405802E+02 -0.42495947222E+02  0.45080066119E+02  0.10566000000E+00 0. -1.
         22    1    1    0    0    0 -0.27156958732E+02  0.62514717479E+01  0.16736724799E+02  0.32506911013E+02  0.00000000000E+00 0.  1.
</event>
<event>
 5    1  0.1325832E-009  0.9118800E+02  0.7818608E-02  0.1130116E+00
         25   -1    0    0    0    0  0.00000000000E+00  0.00000000000E+00  0.99999998245E-14  0.12500000000E+03  0.12500000000E+03 0.  0.
        -13    1    3    3    0    0 -0.73391004841E+01 -0.94382456118E+01 -0.53845366578E+02  0.55156844925E+02  0.10566000000E+00 0.  1.
         23    2    1    0    0    0  0.51107463406E+01  0.15466487871E+02 -0.24210533521E+02  0.95819837070E+02  0.91268610527E+02 0.  0.
         13    1    3    3    0    0  0.12449846825E+02  0.24904733483E+02  0.29634833057E+02  0.40662992145E+02  0.10566000000E+00 0. -1.
         22    1    1    0    0    0 -0.51107463406E+01 -0.15466487871E+02  0.24210533521E+02  0.29180162930E+02  0.00000000000E+00 0.  1.
</event>
<event>
 5    1  0.1325832E-009  0.9118800E+02  0.7818608E-02  0.1130116E+00
         25   -1    0    0    0    0  0.00000000000E+00  0.00000000000E+00  0.99999998245E-14  0.12500000000E+03  0.12500000000E+03 0.  0.
        -13    1    3    3    0    0  0.13319347391E+02 -0.12774690473E+02 -0.42194775852E+02  0.46054402665E+02  0.10566000000E+00 0. -1.
         23    2    1    0    0    0 -0.18689488883E+02  0.15278505277E+02 -0.16229717498E+02  0.95911626923E+02  0.91394237952E+02 0.  0.
         13    1    3    3    0    0 -0.32008836274E+02  0.28053195750E+02  0.25965058354E+02  0.49857224258E+02  0.10566000000E+00 0.  1.
         22    1    1    0    0    0  0.18689488883E+02 -0.15278505277E+02  0.16229717498E+02  0.29088373077E+02  0.00000000000E+00 0.  1.
</event>
<event>
 5    1  0.1325832E-009  0.9118800E+02  0.7818608E-02  0.1130116E+00
         25   -1    0    0    0    0  0.00000000000E+00  0.00000000000E+00  0.99999998245E-14  0.12500000000E+03  0.12500000000E+03 0.  0.
        -13    1    3    3    0    0 -0.41889008510E+02 -0.30292835396E+02 -0.27134519941E+02  0.58383544314E+02  0.10566000000E+00 0. -1.
         23    2    1    0    0    0 -0.17731659161E+02  0.45984689454E+01 -0.65955082721E+01  0.10553057827E+03  0.10371906559E+03 0.  0.
         13    1    3    3    0    0  0.24157349348E+02  0.34891304341E+02  0.20539011669E+02  0.47147033953E+02  0.10566000000E+00 0.  1.
         22    1    1    0    0    0  0.17731659161E+02 -0.45984689454E+01  0.65955082721E+01  0.19469421733E+02  0.00000000000E+00 0. -1.
</event>
<event>
 5    1  0.1325832E-009  0.9118800E+02  0.7818608E-02  0.1130116E+00
         25   -1    0    0    0    0  0.00000000000E+00  0.00000000000E+00  0.99999998245E-14  0.12500000000E+03  0.12500000000E+03 0.  0.
        -13    1    3    3    0    0  0.40251829015E+02  0.20833350001E+02  0.38582009462E+02  0.59521599689E+02  0.10566000000E+00 0.  1.
         23    2    1    0    0    0  0.15977236209E+02 -0.17888100543E+01  0.24784742107E+02  0.95457566797E+02  0.90771095064E+02 0.  0.
         13    1    3    3    0    0 -0.24274592806E+02 -0.22622160055E+02 -0.13797267356E+02  0.35935967108E+02  0.10566000000E+00 0. -1.
         22    1    1    0    0    0 -0.15977236209E+02  0.17888100543E+01 -0.24784742107E+02  0.29542433203E+02  0.00000000000E+00 0.  1.
</event>
<event>
 5    1  0.1325832E-009  0.9118800E+02  0.7818608E-02  0.1130116E+00
         25   -1    0    0    0    0  0.00000000000E+00  0.00000000000E+00  0.99999998245E-14  0.12500000000E+03  0.12500000000E+03 0.  0.
        -13    1    3    3    0    0 -0.41215765111E+02 -0.11743535966E+02 -0.40838267785E+02  0.59198185871E+02  0.10566000000E+00 0.  1.
         23    2    1    0    0    0 -0.80787295197E+01 -0.19881155359E+01 -0.27569879227E+02  0.96202140451E+02  0.91790713652E+02 0.  0.
         13    1    3    3    0    0  0.33137035591E+02  0.97554204305E+01  0.13268388559E+02  0.37003954580E+02  0.10566000000E+00 0. -1.
         22    1    1    0    0    0  0.80787295197E+01  0.19881155359E+01  0.27569879227E+02  0.28797859549E+02  0.00000000000E+00 0.  1.
</event>
<event>
 5    1  0.1325832E-009  0.9118800E+02  0.7818608E-02  0.1130116E+00
         25   -1    0    0    0    0  0.00000000000E+00  0.00000000000E+00  0.99999998245E-14  0.12500000000E+03  0.12500000000E+03 0.  0.
        -13    1    3    3    0    0  0.38235407402E+02  0.13868448277E+02 -0.46140470472E+02  0.61508002864E+02  0.10566000000E+00 0.  1.
         23    2    1    0    0    0  0.24137163304E+02  0.61935416844E+01 -0.16818550464E+02  0.94936296791E+02  0.90050398098E+02 0.  0.
         13    1    3    3    0    0 -0.14098244098E+02 -0.76749065929E+01  0.29321920008E+02  0.33428293927E+02  0.10566000000E+00 0. -1.
         22    1    1    0    0    0 -0.24137163304E+02 -0.61935416844E+01  0.16818550464E+02  0.30063703209E+02  0.00000000000E+00 0.  1.
</event>
<event>
 5    1  0.1325832E-009  0.9118800E+02  0.7818608E-02  0.1130116E+00
         25   -1    0    0    0    0  0.00000000000E+00  0.00000000000E+00  0.99999998245E-14  0.12500000000E+03  0.12500000000E+03 0.  0.
        -13    1    3    3    0    0  0.10737982598E+02  0.32718611263E+02  0.92248687675E+01  0.35649981221E+02  0.10566000000E+00 0. -1.
         23    2    1    0    0    0 -0.23112920122E+01 -0.24366724042E+02  0.17667770789E+02  0.94813422918E+02  0.89879673616E+02 0.  0.
         13    1    3    3    0    0 -0.13049274610E+02 -0.57085335305E+02  0.84429020218E+01  0.59163441696E+02  0.10566000000E+00 0.  1.
         22    1    1    0    0    0  0.23112920122E+01  0.24366724042E+02 -0.17667770789E+02  0.30186577082E+02  0.00000000000E+00 0.  1.
</event>
<event>
 5    1  0.1325832E-009  0.9118800E+02  0.7818608E-02  0.1130116E+00
         25   -1    0    0    0    0  0.00000000000E+00  0.00000000000E+00  0.99999998245E-14  0.12500000000E+03  0.12500000000E+03 0.  0.
        -13    1    3    3    0    0 -0.35620432686E+02  0.40108060142E+02 -0.29723872090E+02  0.61326922710E+02  0.10566000000E+00 0. -1.
         23    2    1    0    0    0 -0.10246230732E+02  0.21706919257E+02 -0.18765793064E+02  0.94531482196E+02  0.89486705990E+02 0.  0.
         13    1    3    3    0    0  0.25374201954E+02 -0.18401140885E+02  0.10958079026E+02  0.33204559486E+02  0.10566000000E+00 0.  1.
         22    1    1    0    0    0  0.10246230732E+02 -0.21706919257E+02  0.18765793064E+02  0.30468517804E+02  0.00000000000E+00 0. -1.
</event>
<event>
 5    1  0.1325832E-009  0.9118800E+02  0.7818608E-02  0.1130116E+00
         25   -1    0    0    0    0  0.00000000000E+00  0.00000000000E+00  0.99999998245E-14  0.12500000000E+03  0.12500000000E+03 0.  0.
        -13    1    3    3    0    0  0.26852523314E+02 -0.18214680731E+02  0.30822544641E+02  0.44753469414E+02  0.10566000000E+00 0. -1.
         23    2    1    0    0    0  0.16235089961E+02  0.22920085683E+02  0.57114439941E+00  0.96906679091E+02  0.92745187329E+02 0.  0.
         13    1    3    3    0    0 -0.10617433353E+02  0.41134766415E+02 -0.30251400241E+02  0.52153209677E+02  0.10566000000E+00 0.  1.
         22    1    1    0    0    0 -0.16235089961E+02 -0.22920085683E+02 -0.57114439941E+00  0.28093320909E+02  0.00000000000E+00 0.  1.
</event>
<event>
 5    1  0.1325832E-009  0.9118800E+02  0.7818608E-02  0.1130116E+00
         25   -1    0    0    0    0  0.00000000000E+00  0.00000000000E+00  0.99999998245E-14  0.12500000000E+03  0.12500000000E+03 0.  0.
        -13    1    3    3    0    0  0.10468040512E+02  0.38032519735E+02  0.39200382902E+02  0.55612351265E+02  0.10566000000E+00 0.  1.
         23    2    1    0    0    0  0.27821507420E+01  0.30954655837E+02  0.24445080080E+01  0.93824581797E+02  0.88493759380E+02 0.  0.
         13    1    3    3    0    0 -0.76858897699E+01 -0.70778638974E+01 -0.36755874894E+02  0.38212230531E+02  0.10566000000E+00 0. -1.
         22    1    1    0    0    0 -0.27821507420E+01 -0.30954655837E+02 -0.24445080080E+01  0.31175418203E+02  0.00000000000E+00 0.  1.
</event>
<event>
 5    1  0.1325832E-009  0.9118800E+02  0.7818608E-02  0.1130116E+00
         25   -1    0    0    0    0  0.00000000000E+00  0.00000000000E+00  0.99999998245E-14  0.12500000000E+03  0.12500000000E+03 0.  0.
        -13    1    3    3    0    0  0.10865752752E+02 -0.87125049051E+01  0.37996024912E+02  0.40468276437E+02  0.10566000000E+00 0.  1.
         23    2    1    0    0    0  0.97229643176E+01  0.28859691635E+02 -0.86445307843E+00  0.94534197606E+02  0.89490498946E+02 0.  0.
         13    1    3    3    0    0 -0.11427884341E+01  0.37572196540E+02 -0.38860477991E+02  0.54065921170E+02  0.10566000000E+00 0. -1.
         22    1    1    0    0    0 -0.97229643176E+01 -0.28859691635E+02  0.86445307843E+00  0.30465802394E+02  0.00000000000E+00 0. -1.
</event>
<event>
 5    1  0.1325832E-009  0.9118800E+02  0.7818608E-02  0.1130116E+00
         25   -1    0    0    0    0  0.00000000000E+00  0.00000000000E+00  0.99999998245E-14  0.12500000000E+03  0.12500000000E+03 0.  0.
        -13    1    3    3    0    0 -0.29353438240E+02  0.42606472241E+01 -0.40180612709E+02  0.49942669662E+02  0.10566000000E+00 0. -1.
         23    2    1    0    0    0 -0.20575567855E+02 -0.21820624032E+02 -0.50212722000E+01  0.94591007905E+02  0.89569816212E+02 0.  0.
         13    1    3    3    0    0  0.87778703844E+01 -0.26081271256E+02  0.35159340509E+02  0.44648338243E+02  0.10566000000E+00 0.  1.
         22    1    1    0    0    0  0.20575567855E+02  0.21820624032E+02  0.50212722000E+01  0.30408992095E+02  0.00000000000E+00 0. -1.
</event>
<event>
 5    1  0.1325832E-009  0.9118800E+02  0.7818608E-02  0.1130116E+00
         25   -1    0    0    0    0  0.00000000000E+00  0.00000000000E+00  0.99999998245E-14  0.12500000000E+03  0.12500000000E+03 0.  0.
        -13    1    3    3    0    0 -0.32392236018E+02 -0.20448310995E+02 -0.11637622846E+02  0.40035431886E+02  0.10566000000E+00 0.  1.
         23    2    1    0    0    0  0.20584388332E+02 -0.22112026942E+02  0.18685158457E+01  0.94732027984E+02  0.89766402379E+02 0.  0.
         13    1    3    3    0    0  0.52976624350E+02 -0.16637159470E+01  0.13506138691E+02  0.54696596097E+02  0.10566000000E+00 0. -1.
         22    1    1    0    0    0 -0.20584388332E+02  0.22112026942E+02 -0.18685158457E+01  0.30267972016E+02  0.00000000000E+00 0. -1.
</event>
<event>
 5    1  0.1325832E-009  0.9118800E+02  0.7818608E-02  0.1130116E+00
         25   -1    0    0    0    0  0.00000000000E+00  0.00000000000E+00  0.99999998245E-14  0.12500000000E+03  0.12500000000E+03 0.  0.
        -13    1    3    3    0    0 -0.19365996766E+01  0.36777869963E+02  0.45280675079E+01  0.37106289180E+02  0.10566000000E+00 0. -1.
         23    2    1    0    0    0 -0.75360664558E+00 -0.22490969122E+02 -0.13110965218E+02  0.98955633546E+02  0.95466792062E+02 0.  0.
         13    1    3    3    0    0  0.11829930310E+01 -0.59268839085E+02 -0.17639032725E+02  0.61849344366E+02  0.10566000000E+00 0.  1.
         22    1    1    0    0    0  0.75360664558E+00  0.22490969122E+02  0.13110965218E+02  0.26044366454E+02  0.00000000000E+00 0.  1.
</event>
<event>
 5    1  0.1325832E-009  0.9118800E+02  0.7818608E-02  0.1130116E+00
         25   -1    0    0    0    0  0.00000000000E+00  0.00000000000E+00  0.99999998245E-14  0.12500000000E+03  0.12500000000E+03 0.  0.
        -13    1    3    3    0    0 -0.39263030578E+02  0.16063310661E+01 -0.11690493657E+02  0.40998105757E+02  0.10566000000E+00 0.  1.
         23    2    1    0    0    0 -0.16126268939E+01 -0.57394894078E+01  0.28103596562E+02  0.96271017354E+02  0.91884461899E+02 0.  0.
         13    1    3    3    0    0  0.37650403684E+02 -0.73458204739E+01  0.39794090219E+02  0.55272911597E+02  0.10566000000E+00 0. -1.
         22    1    1    0    0    0  0.16126268939E+01  0.57394894078E+01 -0.28103596562E+02  0.28728982646E+02  0.00000000000E+00 0. -1.
</event>
<event>
 5    1  0.1325832E-009  0.9118800E+02  0.7818608E-02  0.1130116E+00
         25   -1    0    0    0    0  0.00000000000E+00  0.00000000000E+00  0.99999998245E-14  0.12500000000E+03  0.12500000000E+03 0.  0.
        -13    1    3    3    0    0 -0.16722563362E+01  0.25628760272E+02  0.27636629784E+02  0.37728295273E+02  0.10566000000E+00 0. -1.
         23    2    1    0    0    0 -0.12599103830E+02 -0.19719774478E+02 -0.11782515051E+02  0.98800103365E+02  0.95262930047E+02 0.  0.
         13    1    3    3    0    0 -0.10926847494E+02 -0.45348534750E+02 -0.39419144835E+02  0.61071808092E+02  0.10566000000E+00 0.  1.
         22    1    1    0    0    0  0.12599103830E+02  0.19719774478E+02  0.11782515051E+02  0.26199896635E+02  0.00000000000E+00 0.  1.
</event>
<event>
 5    1  0.1325832E-009  0.9118800E+02  0.7818608E-02  0.1130116E+00
         25   -1    0    0    0    0  0.00000000000E+00  0.00000000000E+00  0.99999998245E-14  0.12500000000E+03  0.12500000000E+03 0.  0.
        -13    1    3    3    0    0 -0.13966055504E+01 -0.30109853823E+02  0.20764922404E+02  0.36602554157E+02  0.10566000000E+00 0. -1.
         23    2    1    0    0    0  0.43870689892E+01  0.27331867368E+02  0.11277664917E+02  0.95109147317E+02  0.90290015114E+02 0.  0.
         13    1    3    3    0    0  0.57836745396E+01  0.57441721191E+02 -0.94872574865E+01  0.58506593160E+02  0.10566000000E+00 0.  1.
         22    1    1    0    0    0 -0.43870689892E+01 -0.27331867368E+02 -0.11277664917E+02  0.29890852683E+02  0.00000000000E+00 0.  1.
</event>
<event>
 5    1  0.1325832E-009  0.9118800E+02  0.7818608E-02  0.1130116E+00
         25   -1    0    0    0    0  0.00000000000E+00  0.00000000000E+00  0.99999998245E-14  0.12500000000E+03  0.12500000000E+03 0.  0.
        -13    1    3    3    0    0  0.51106394440E+02 -0.15469908232E+02  0.14595311857E+02  0.55355360225E+02  0.10566000000E+00 0. -1.
         23    2    1    0    0    0  0.22435857531E+02 -0.20123097028E+02 -0.98228447329E+01  0.93301498209E+02  0.87751778057E+02 0.  0.
         13    1    3    3    0    0 -0.28670536909E+02 -0.46531887957E+01 -0.24418156590E+02  0.37946137984E+02  0.10566000000E+00 0.  1.
         22    1    1    0    0    0 -0.22435857531E+02  0.20123097028E+02  0.98228447329E+01  0.31698501791E+02  0.00000000000E+00 0. -1.
</event>
<event>
 5    1  0.1325832E-009  0.9118800E+02  0.7818608E-02  0.1130116E+00
         25   -1    0    0    0    0  0.00000000000E+00  0.00000000000E+00  0.99999998245E-14  0.12500000000E+03  0.12500000000E+03 0.  0.
        -13    1    3    3    0    0  0.33536419195E+02 -0.29770458273E+01 -0.10884232067E+02  0.35384062599E+02  0.10566000000E+00 0. -1.
         23    2    1    0    0    0 -0.23462230969E+02  0.16517352609E+02 -0.43797971314E+01  0.95974462241E+02  0.91480137518E+02 0.  0.
         13    1    3    3    0    0 -0.56998650164E+02  0.19494398437E+02  0.65044349351E+01  0.60590399642E+02  0.10566000000E+00 0.  1.
         22    1    1    0    0    0  0.23462230969E+02 -0.16517352609E+02  0.43797971314E+01  0.29025537759E+02  0.00000000000E+00 0.  1.
</event>
<event>
 5    1  0.1325832E-009  0.9118800E+02  0.7818608E-02  0.1130116E+00
         25   -1    0    0    0    0  0.00000000000E+00  0.00000000000E+00  0.99999998245E-14  0.12500000000E+03  0.12500000000E+03 0.  0.
        -13    1    3    3    0    0  0.33741693895E+01  0.54124653143E+02  0.16949527996E+02  0.56816905585E+02  0.10566000000E+00 0. -1.
         23    2    1    0    0    0  0.12443365144E+02  0.16521340493E+02  0.20771698347E+02  0.95686940112E+02  0.91086415167E+02 0.  0.
         13    1    3    3    0    0  0.90691957544E+01 -0.37603312650E+02  0.38221703501E+01  0.38870034527E+02  0.10566000000E+00 0.  1.
         22    1    1    0    0    0 -0.12443365144E+02 -0.16521340493E+02 -0.20771698347E+02  0.29313059888E+02  0.00000000000E+00 0. -1.
</event>
<event>
 5    1  0.1325832E-009  0.9118800E+02  0.7818608E-02  0.1130116E+00
         25   -1    0    0    0    0  0.00000000000E+00  0.00000000000E+00  0.99999998245E-14  0.12500000000E+03  0.12500000000E+03 0.  0.
        -13    1    3    3    0    0 -0.10066438257E+02  0.46062459485E+02 -0.99483414593E+01  0.48187799439E+02  0.10566000000E+00 0.  1.
         23    2    1    0    0    0 -0.47083669543E+01  0.17750885172E+02  0.25314224110E+02  0.93725847956E+02  0.88354184898E+02 0.  0.
         13    1    3    3    0    0  0.53580713023E+01 -0.28311574313E+02  0.35262565569E+02  0.45538048517E+02  0.10566000000E+00 0. -1.
         22    1    1    0    0    0  0.47083669543E+01 -0.17750885172E+02 -0.25314224110E+02  0.31274152044E+02  0.00000000000E+00 0.  1.
</event>
<event>
 5    1  0.1325832E-009  0.9118800E+02  0.7818608E-02  0.1130116E+00
         25   -1    0    0    0    0  0.00000000000E+00  0.00000000000E+00  0.99999998245E-14  0.12500000000E+03  0.12500000000E+03 0.  0.
        -13    1    3    3    0    0 -0.16580924449E+02  0.21091192631E+02 -0.27532788872E+02  0.38442568713E+02  0.10566000000E+00 0. -1.
         23    2    1    0    0    0 -0.18027275287E+02 -0.11821216211E+02  0.19544210794E+02  0.95901890395E+02  0.91380920322E+02 0.  0.
         13    1    3    3    0    0 -0.14463508381E+01 -0.32912408842E+02  0.47076999666E+02  0.57459321682E+02  0.10566000000E+00 0.  1.
         22    1    1    0    0    0  0.18027275287E+02  0.11821216211E+02 -0.19544210794E+02  0.29098109605E+02  0.00000000000E+00 0.  1.
</event>
<event>
 5    1  0.1325832E-009  0.9118800E+02  0.7818608E-02  0.1130116E+00
         25   -1    0    0    0    0  0.00000000000E+00  0.00000000000E+00  0.99999998245E-14  0.12500000000E+03  0.12500000000E+03 0.  0.
        -13    1    3    3    0    0  0.32695269396E+02 -0.25265518585E+00  0.63323614436E+01  0.33303970349E+02  0.10566000000E+00 0. -1.
         23    2    1    0    0    0 -0.27106619777E+02 -0.10458137108E+02 -0.62974701217E+01  0.95271232830E+02  0.90514132640E+02 0.  0.
         13    1    3    3    0    0 -0.59801889173E+02 -0.10205481922E+02 -0.12629831565E+02  0.61967262481E+02  0.10566000000E+00 0.  1.
         22    1    1    0    0    0  0.27106619777E+02  0.10458137108E+02  0.62974701217E+01  0.29728767170E+02  0.00000000000E+00 0.  1.
</event>
<event>
 5    1  0.1325832E-009  0.9118800E+02  0.7818608E-02  0.1130116E+00
         25   -1    0    0    0    0  0.00000000000E+00  0.00000000000E+00  0.99999998245E-14  0.12500000000E+03  0.12500000000E+03 0.  0.
        -13    1    3    3    0    0 -0.96699436552E+01  0.32023948180E+02  0.28470600893E+02  0.43927523793E+02  0.10566000000E+00 0. -1.
         23    2    1    0    0    0  0.65936149240E+01 -0.14867078332E+02  0.26877970518E+02  0.93584540826E+02  0.88154042486E+02 0.  0.
         13    1    3    3    0    0  0.16263558579E+02 -0.46891026513E+02 -0.15926303745E+01  0.49657017033E+02  0.10566000000E+00 0.  1.
         22    1    1    0    0    0 -0.65936149240E+01  0.14867078332E+02 -0.26877970518E+02  0.31415459174E+02  0.00000000000E+00 0.  1.
</event>
<event>
 5    1  0.1325832E-009  0.9118800E+02  0.7818608E-02  0.1130116E+00
         25   -1    0    0    0    0  0.00000000000E+00  0.00000000000E+00  0.99999998245E-14  0.12500000000E+03  0.12500000000E+03 0.  0.
        -13    1    3    3    0    0 -0.20768422324E+01 -0.77086386443E+01  0.39291784015E+02  0.40094785678E+02  0.10566000000E+00 0. -1.
         23    2    1    0    0    0  0.14523494049E+02  0.29269032449E+02  0.78424091979E+01  0.91397745286E+02  0.84996684179E+02 0.  0.
         13    1    3    3    0    0  0.16600336282E+02  0.36977671093E+02 -0.31449374817E+02  0.51302959608E+02  0.10566000000E+00 0.  1.
         22    1    1    0    0    0 -0.14523494049E+02 -0.29269032449E+02 -0.78424091979E+01  0.33602254714E+02  0.00000000000E+00 0.  1.
</event>
<event>
 5    1  0.1325832E-009  0.9118800E+02  0.7818608E-02  0.1130116E+00
         25   -1    0    0    0    0  0.00000000000E+00  0.00000000000E+00  0.99999998245E-14  0.12500000000E+03  0.12500000000E+03 0.  0.
        -13    1    3    3    0    0  0.15678809054E+02  0.55917839746E+02 -0.58630848287E+01  0.58369656354E+02  0.10566000000E+00 0.  1.
         23    2    1    0    0    0  0.22881881745E+02  0.24180801366E+02 -0.71914139813E+01  0.90941108328E+02  0.84322458942E+02 0.  0.
         13    1    3    3    0    0  0.72030726909E+01 -0.31737038380E+02 -0.13283291526E+01  0.32571451974E+02  0.10566000000E+00 0. -1.
         22    1    1    0    0    0 -0.22881881745E+02 -0.24180801366E+02  0.71914139813E+01  0.34058891672E+02  0.00000000000E+00 0.  1.
</event>
<event>
 5    1  0.1325832E-009  0.9118800E+02  0.7818608E-02  0.1130116E+00
         25   -1    0    0    0    0  0.00000000000E+00  0.00000000000E+00  0.99999998245E-14  0.12500000000E+03  0.12500000000E+03 0.  0.
        -13    1    3    3    0    0  0.36436888903E+02 -0.47783086385E+02 -0.11537960264E+02  0.61188282445E+02  0.10566000000E+00 0.  1.
         23    2    1    0    0    0  0.81122436296E+01 -0.25055158907E+02 -0.67019457915E+01  0.97824909164E+02  0.93974609820E+02 0.  0.
         13    1    3    3    0    0 -0.28324645274E+02  0.22727927478E+02  0.48360144724E+01  0.36636626719E+02  0.10566000000E+00 0. -1.
         22    1    1    0    0    0 -0.81122436296E+01  0.25055158907E+02  0.67019457915E+01  0.27175090836E+02  0.00000000000E+00 0.  1.
</event>
<event>
 5    1  0.1325832E-009  0.9118800E+02  0.7818608E-02  0.1130116E+00
         25   -1    0    0    0    0  0.00000000000E+00  0.00000000000E+00  0.99999998245E-14  0.12500000000E+03  0.12500000000E+03 0.  0.
        -13    1    3    3    0    0  0.13278509644E+02  0.95001862741E+00 -0.29071489481E+02  0.31974740319E+02  0.10566000000E+00 0. -1.
         23    2    1    0    0    0 -0.10029228502E+02  0.13402713230E+02  0.26583583357E+02  0.93584955032E+02  0.88154629816E+02 0.  0.
         13    1    3    3    0    0 -0.23307738147E+02  0.12452694603E+02  0.55655072838E+02  0.61610214713E+02  0.10566000000E+00 0.  1.
         22    1    1    0    0    0  0.10029228502E+02 -0.13402713230E+02 -0.26583583357E+02  0.31415044968E+02  0.00000000000E+00 0.  1.
</event>
<event>
 5    1  0.1325832E-009  0.9118800E+02  0.7818608E-02  0.1130116E+00
         25   -1    0    0    0    0  0.00000000000E+00  0.00000000000E+00  0.99999998245E-14  0.12500000000E+03  0.12500000000E+03 0.  0.
        -13    1    3    3    0    0 -0.12790888770E+02 -0.40782957556E+02 -0.14401926303E+02  0.45103027701E+02  0.10566000000E+00 0. -1.
         23    2    1    0    0    0  0.94408652699E+01  0.54754696538E+00 -0.29196429239E+02  0.94310242343E+02  0.89177130396E+02 0.  0.
         13    1    3    3    0    0  0.22231754040E+02  0.41330504521E+02 -0.14794502936E+02  0.49207214642E+02  0.10566000000E+00 0.  1.
         22    1    1    0    0    0 -0.94408652699E+01 -0.54754696538E+00  0.29196429239E+02  0.30689757657E+02  0.00000000000E+00 0.  1.
</event>
<event>
 5    1  0.1325832E-009  0.9118800E+02  0.7818608E-02  0.1130116E+00
         25   -1    0    0    0    0  0.00000000000E+00  0.00000000000E+00  0.99999998245E-14  0.12500000000E+03  0.12500000000E+03 0.  0.
        -13    1    3    3    0    0  0.31261266177E+02 -0.34651155993E+01 -0.18453147290E+02  0.36466472246E+02  0.10566000000E+00 0.  1.
         23    2    1    0    0    0 -0.23825324368E+02 -0.14963232793E+02  0.30327286813E+01  0.96702617434E+02  0.92469748342E+02 0.  0.
         13    1    3    3    0    0 -0.55086590545E+02 -0.11498117193E+02  0.21485875971E+02  0.60236145188E+02  0.10566000000E+00 0. -1.
         22    1    1    0    0    0  0.23825324368E+02  0.14963232793E+02 -0.30327286813E+01  0.28297382566E+02  0.00000000000E+00 0. -1.
</event>
<event>
 5    1  0.1325832E-009  0.9118800E+02  0.7818608E-02  0.1130116E+00
         25   -1    0    0    0    0  0.00000000000E+00  0.00000000000E+00  0.99999998245E-14  0.12500000000E+03  0.12500000000E+03 0.  0.
        -13    1    3    3    0    0  0.95643640904E+01 -0.23989853268E+02 -0.16793193103E+02  0.30806048414E+02  0.10566000000E+00 0. -1.
         23    2    1    0    0    0  0.22407267405E+02  0.24201474745E+02  0.13725673071E+02  0.89276182824E+02  0.81817147994E+02 0.  0.
         13    1    3    3    0    0  0.12842903314E+02  0.48191328014E+02  0.30518866174E+02  0.58470134409E+02  0.10566000000E+00 0.  1.
         22    1    1    0    0    0 -0.22407267405E+02 -0.24201474745E+02 -0.13725673071E+02  0.35723817176E+02  0.00000000000E+00 0.  1.
</event>
<event>
 5    1  0.1325832E-009  0.9118800E+02  0.7818608E-02  0.1130116E+00
         25   -1    0    0    0    0  0.00000000000E+00  0.00000000000E+00  0.99999998245E-14  0.12500000000E+03  0.12500000000E+03 0.  0.
        -13    1    3    3    0    0 -0.41867278971E+02 -0.31887990839E+01  0.23170701893E+02  0.47957586243E+02  0.10566000000E+00 0.  1.
         23    2    1    0    0    0 -0.29779838987E+02  0.97355973041E+01 -0.15173468147E+02  0.90188295064E+02  0.83199000991E+02 0.  0.
         13    1    3    3    0    0  0.12087439984E+02  0.12924396388E+02 -0.38344170040E+02  0.42230708820E+02  0.10566000000E+00 0. -1.
         22    1    1    0    0    0  0.29779838987E+02 -0.97355973041E+01  0.15173468147E+02  0.34811704936E+02  0.00000000000E+00 0.  1.
</event>
<event>
 5    1  0.1325832E-009  0.9118800E+02  0.7818608E-02  0.1130116E+00
         25   -1    0    0    0    0  0.00000000000E+00  0.00000000000E+00  0.99999998245E-14  0.12500000000E+03  0.12500000000E+03 0.  0.
        -13    1    3    3    0    0  0.24807732936E+02  0.13616173978E+02 -0.51318240470E+02  0.58603726641E+02  0.10566000000E+00 0.  1.
         23    2    1    0    0    0  0.95045775952E+01  0.20825009559E+02 -0.18338896751E+02  0.95668563750E+02  0.91061193368E+02 0.  0.
         13    1    3    3    0    0 -0.15303155341E+02  0.72088355813E+01  0.32979343719E+02  0.37064837110E+02  0.10566000000E+00 0. -1.
         22    1    1    0    0    0 -0.95045775952E+01 -0.20825009559E+02  0.18338896751E+02  0.29331436250E+02  0.00000000000E+00 0.  1.
</event>
<event>
 5    1  0.1325832E-009  0.9118800E+02  0.7818608E-02  0.1130116E+00
         25   -1    0    0    0    0  0.00000000000E+00  0.00000000000E+00  0.99999998245E-14  0.12500000000E+03  0.12500000000E+03 0.  0.
        -13    1    3    3    0    0  0.15107632135E+02 -0.28593737535E+02  0.53440330862E+02  0.62463769512E+02  0.10566000000E+00 0. -1.
         23    2    1    0    0    0  0.60274483464E+01 -0.14499437692E+02  0.25042868176E+02  0.95441429780E+02  0.90748870214E+02 0.  0.
         13    1    3    3    0    0 -0.90801837885E+01  0.14094299842E+02 -0.28397462687E+02  0.32977660268E+02  0.10566000000E+00 0.  1.
         22    1    1    0    0    0 -0.60274483464E+01  0.14499437692E+02 -0.25042868176E+02  0.29558570220E+02  0.00000000000E+00 0. -1.
</event>
<event>
 5    1  0.1325832E-009  0.9118800E+02  0.7818608E-02  0.1130116E+00
         25   -1    0    0    0    0  0.00000000000E+00  0.00000000000E+00  0.99999998245E-14  0.12500000000E+03  0.12500000000E+03 0.  0.
        -13    1    3    3    0    0  0.46644641523E+02 -0.15307133516E+02 -0.27751988667E+02  0.56393394633E+02  0.10566000000E+00 0.  1.
         23    2    1    0    0    0  0.10156941260E+02 -0.18799952612E+02 -0.23409660507E+02  0.93304355519E+02  0.87755848123E+02 0.  0.
         13    1    3    3    0    0 -0.36487700262E+02 -0.34928190969E+01  0.43423281599E+01  0.36910960886E+02  0.10566000000E+00 0. -1.
         22    1    1    0    0    0 -0.10156941260E+02  0.18799952612E+02  0.23409660507E+02  0.31695644481E+02  0.00000000000E+00 0.  1.
</event>
<event>
 5    1  0.1325832E-009  0.9118800E+02  0.7818608E-02  0.1130116E+00
         25   -1    0    0    0    0  0.00000000000E+00  0.00000000000E+00  0.99999998245E-14  0.12500000000E+03  0.12500000000E+03 0.  0.
        -13    1    3    3    0    0  0.14355496467E+02 -0.22608191835E+02  0.52956996495E+02  0.59343620202E+02  0.10566000000E+00 0. -1.
         23    2    1    0    0    0  0.15861855114E+02 -0.17510721454E+02  0.16509982983E+02  0.96176340419E+02  0.91755572609E+02 0.  0.
         13    1    3    3    0    0  0.15063586473E+01  0.50974703805E+01 -0.36447013512E+02  0.36832720218E+02  0.10566000000E+00 0.  1.
         22    1    1    0    0    0 -0.15861855114E+02  0.17510721454E+02 -0.16509982983E+02  0.28823659581E+02  0.00000000000E+00 0. -1.
</event>
<event>
 5    1  0.1325832E-009  0.9118800E+02  0.7818608E-02  0.1130116E+00
         25   -1    0    0    0    0  0.00000000000E+00  0.00000000000E+00  0.99999998245E-14  0.12500000000E+03  0.12500000000E+03 0.  0.
        -13    1    3    3    0    0 -0.24920871282E+00  0.27732764686E+02  0.55909225207E+02  0.62410103104E+02  0.10566000000E+00 0. -1.
         23    2    1    0    0    0  0.69888927522E+00  0.22096370316E+02  0.40279095976E+02  0.79052817279E+02  0.64328876252E+02 0.  0.
         13    1    3    3    0    0  0.94809798804E+00 -0.56363943706E+01 -0.15630129232E+02  0.16642714176E+02  0.10566000000E+00 0.  1.
         22    1    1    0    0    0 -0.69888927522E+00 -0.22096370316E+02 -0.40279095976E+02  0.45947182721E+02  0.00000000000E+00 0. -1.
</event>
<event>
 5    1  0.1325832E-009  0.9118800E+02  0.7818608E-02  0.1130116E+00
         25   -1    0    0    0    0  0.00000000000E+00  0.00000000000E+00  0.99999998245E-14  0.12500000000E+03  0.12500000000E+03 0.  0.
        -13    1    3    3    0    0 -0.57532386568E+01 -0.18518349004E+02  0.40914520751E+02  0.45277347285E+02  0.10566000000E+00 0.  1.
         23    2    1    0    0    0  0.22382868062E+02  0.13050271249E+02  0.12433622475E+02  0.96261570499E+02  0.91871609459E+02 0.  0.
         13    1    3    3    0    0  0.28136106719E+02  0.31568620253E+02 -0.28480898276E+02  0.50984223213E+02  0.10566000000E+00 0. -1.
         22    1    1    0    0    0 -0.22382868062E+02 -0.13050271249E+02 -0.12433622475E+02  0.28738429501E+02  0.00000000000E+00 0.  1.
</event>
<event>
 5    1  0.1325832E-009  0.9118800E+02  0.7818608E-02  0.1130116E+00
         25   -1    0    0    0    0  0.00000000000E+00  0.00000000000E+00  0.99999998245E-14  0.12500000000E+03  0.12500000000E+03 0.  0.
        -13    1    3    3    0    0  0.18648578947E+01  0.38362102719E+02  0.18140748977E+00  0.38407976941E+02  0.10566000000E+00 0.  1.
         23    2    1    0    0    0 -0.27899250988E+02 -0.10035418541E+02  0.22707585490E+01  0.95263924681E+02  0.90504039525E+02 0.  0.
         13    1    3    3    0    0 -0.29764108882E+02 -0.48397521259E+02  0.20893510593E+01  0.56855947741E+02  0.10566000000E+00 0. -1.
         22    1    1    0    0    0  0.27899250988E+02  0.10035418541E+02 -0.22707585490E+01  0.29736075319E+02  0.00000000000E+00 0. -1.
</event>
<event>
 5    1  0.1325832E-009  0.9118800E+02  0.7818608E-02  0.1130116E+00
         25   -1    0    0    0    0  0.00000000000E+00  0.00000000000E+00  0.99999998245E-14  0.12500000000E+03  0.12500000000E+03 0.  0.
        -13    1    3    3    0    0 -0.57146153438E+01  0.42553257603E+02  0.36359012972E+02  0.56262114691E+02  0.10566000000E+00 0. -1.
         23    2    1    0    0    0 -0.12222108488E+02  0.53891503976E+01  0.26601630543E+02  0.95233078334E+02  0.90461425943E+02 0.  0.
         13    1    3    3    0    0 -0.65074931445E+01 -0.37164107205E+02 -0.97573824295E+01  0.38970963643E+02  0.10566000000E+00 0.  1.
         22    1    1    0    0    0  0.12222108488E+02 -0.53891503976E+01 -0.26601630543E+02  0.29766921666E+02  0.00000000000E+00 0. -1.
</event>
<event>
 5    1  0.1325832E-009  0.9118800E+02  0.7818608E-02  0.1130116E+00
         25   -1    0    0    0    0  0.00000000000E+00  0.00000000000E+00  0.99999998245E-14  0.12500000000E+03  0.12500000000E+03 0.  0.
        -13    1    3    3    0    0 -0.30991770752E+02 -0.88101087136E+01  0.14035654517E+02  0.35144254604E+02  0.10566000000E+00 0. -1.
         23    2    1    0    0    0  0.26027495265E+02 -0.15598660738E+02 -0.14622367882E+01  0.94620946969E+02  0.89611588215E+02 0.  0.
         13    1    3    3    0    0  0.57019266018E+02 -0.67885520245E+01 -0.15497891305E+02  0.59476692365E+02  0.10566000000E+00 0.  1.
         22    1    1    0    0    0 -0.26027495265E+02  0.15598660738E+02  0.14622367882E+01  0.30379053031E+02  0.00000000000E+00 0.  1.
</event>
<event>
 5    1  0.1325832E-009  0.9118800E+02  0.7818608E-02  0.1130116E+00
         25   -1    0    0    0    0  0.00000000000E+00  0.00000000000E+00  0.99999998245E-14  0.12500000000E+03  0.12500000000E+03 0.  0.
        -13    1    3    3    0    0  0.30727352856E+02 -0.74693469489E+01 -0.10334847333E+02  0.33268327142E+02  0.10566000000E+00 0.  1.
         23    2    1    0    0    0 -0.28348214776E+02  0.65061141890E+01  0.39915702401E+01  0.95642148651E+02  0.91024926052E+02 0.  0.
         13    1    3    3    0    0 -0.59075567633E+02  0.13975461138E+02  0.14326417573E+02  0.62373821509E+02  0.10566000000E+00 0. -1.
         22    1    1    0    0    0  0.28348214776E+02 -0.65061141890E+01 -0.39915702401E+01  0.29357851349E+02  0.00000000000E+00 0. -1.
</event>
<event>
 5    1  0.1325832E-009  0.9118800E+02  0.7818608E-02  0.1130116E+00
         25   -1    0    0    0    0  0.00000000000E+00  0.00000000000E+00  0.99999998245E-14  0.12500000000E+03  0.12500000000E+03 0.  0.
        -13    1    3    3    0    0 -0.33129677976E+01 -0.18796808866E+02 -0.54716013191E+02  0.57949538762E+02  0.10566000000E+00 0. -1.
         23    2    1    0    0    0  0.42593059332E+01 -0.22996586745E+02 -0.18518459306E+02  0.95168506172E+02  0.90372155794E+02 0.  0.
         13    1    3    3    0    0  0.75722737308E+01 -0.41997778796E+01  0.36197553885E+02  0.37218967409E+02  0.10566000000E+00 0.  1.
         22    1    1    0    0    0 -0.42593059332E+01  0.22996586745E+02  0.18518459306E+02  0.29831493828E+02  0.00000000000E+00 0. -1.
</event>
<event>
 5    1  0.1325832E-009  0.9118800E+02  0.7818608E-02  0.1130116E+00
         25   -1    0    0    0    0  0.00000000000E+00  0.00000000000E+00  0.99999998245E-14  0.12500000000E+03  0.12500000000E+03 0.  0.
        -13    1    3    3    0    0  0.28331392865E+02  0.19871616806E+02  0.43305140737E+01  0.34875686264E+02  0.10566000000E+00 0. -1.
         23    2    1    0    0    0 -0.52299948497E+01 -0.29320103329E+02 -0.37903871618E+01  0.94976869914E+02  0.90106700519E+02 0.  0.
         13    1    3    3    0    0 -0.33561387715E+02 -0.49191720135E+02 -0.81209012354E+01  0.60101183650E+02  0.10566000000E+00 0.  1.
         22    1    1    0    0    0  0.52299948497E+01  0.29320103329E+02  0.37903871618E+01  0.30023130086E+02  0.00000000000E+00 0.  1.
</event>
<event>
 5    1  0.1325832E-009  0.9118800E+02  0.7818608E-02  0.1130116E+00
         25   -1    0    0    0    0  0.00000000000E+00  0.00000000000E+00  0.99999998245E-14  0.12500000000E+03  0.12500000000E+03 0.  0.
        -13    1    3    3    0    0  0.21301015528E+02  0.50187167484E+02 -0.24567784060E+02  0.59800269399E+02  0.10566000000E+00 0. -1.
         23    2    1    0    0    0 -0.20062890734E+01  0.28154271865E+02 -0.13327410107E+02  0.93786091558E+02  0.88439374090E+02 0.  0.
         13    1    3    3    0    0 -0.23307304602E+02 -0.22032895618E+02  0.11240373954E+02  0.33985822158E+02  0.10566000000E+00 0.  1.
         22    1    1    0    0    0  0.20062890734E+01 -0.28154271865E+02  0.13327410107E+02  0.31213908442E+02  0.00000000000E+00 0. -1.
</event>
<event>
 5    1  0.1325832E-009  0.9118800E+02  0.7818608E-02  0.1130116E+00
         25   -1    0    0    0    0  0.00000000000E+00  0.00000000000E+00  0.99999998245E-14  0.12500000000E+03  0.12500000000E+03 0.  0.
        -13    1    3    3    0    0 -0.12794909140E+02 -0.39617179720E+01  0.39435482261E+02  0.41648209258E+02  0.10566000000E+00 0. -1.
         23    2    1    0    0    0 -0.18373051903E+02  0.24002469167E+02 -0.49159988005E+01  0.94375588062E+02  0.89268678804E+02 0.  0.
         13    1    3    3    0    0 -0.55781427638E+01  0.27964187139E+02 -0.44351481062E+02  0.52727378803E+02  0.10566000000E+00 0.  1.
         22    1    1    0    0    0  0.18373051903E+02 -0.24002469167E+02  0.49159988005E+01  0.30624411938E+02  0.00000000000E+00 0. -1.
</event>
<event>
 5    1  0.1325832E-009  0.9118800E+02  0.7818608E-02  0.1130116E+00
         25   -1    0    0    0    0  0.00000000000E+00  0.00000000000E+00  0.99999998245E-14  0.12500000000E+03  0.12500000000E+03 0.  0.
        -13    1    3    3    0    0  0.24646930738E+02  0.18256317713E+02 -0.62352013457E+01  0.31299412632E+02  0.10566000000E+00 0.  1.
         23    2    1    0    0    0  0.10094040041E+02 -0.35219657034E+02 -0.10509379528E+02  0.86884898740E+02  0.78078324041E+02 0.  0.
         13    1    3    3    0    0 -0.14552890697E+02 -0.53475974747E+02 -0.42741781824E+01  0.55585486109E+02  0.10566000000E+00 0. -1.
         22    1    1    0    0    0 -0.10094040041E+02  0.35219657034E+02  0.10509379528E+02  0.38115101260E+02  0.00000000000E+00 0. -1.
</event>
<event>
 5    1  0.1325832E-009  0.9118800E+02  0.7818608E-02  0.1130116E+00
         25   -1    0    0    0    0  0.00000000000E+00  0.00000000000E+00  0.99999998245E-14  0.12500000000E+03  0.12500000000E+03 0.  0.
        -13    1    3    3    0    0 -0.71475657985E+01 -0.27537810423E+02  0.17897950779E+02  0.33611999433E+02  0.10566000000E+00 0.  1.
         23    2    1    0    0    0  0.79932503885E+01  0.27761847365E+02 -0.55950960923E+01  0.95573526864E+02  0.90930642339E+02 0.  0.
         13    1    3    3    0    0  0.15140816187E+02  0.55299657789E+02 -0.23493046871E+02  0.61961527432E+02  0.10566000000E+00 0. -1.
         22    1    1    0    0    0 -0.79932503885E+01 -0.27761847365E+02  0.55950960923E+01  0.29426473136E+02  0.00000000000E+00 0. -1.
</event>
<event>
 5    1  0.1325832E-009  0.9118800E+02  0.7818608E-02  0.1130116E+00
         25   -1    0    0    0    0  0.00000000000E+00  0.00000000000E+00  0.99999998245E-14  0.12500000000E+03  0.12500000000E+03 0.  0.
        -13    1    3    3    0    0 -0.82599111155E+01  0.17251961634E+02  0.31823856204E+02  0.37129843786E+02  0.10566000000E+00 0.  1.
         23    2    1    0    0    0  0.97380683600E+01  0.15795797253E+02 -0.23344883133E+02  0.95178518569E+02  0.90386003575E+02 0.  0.
         13    1    3    3    0    0  0.17997979476E+02 -0.14561643805E+01 -0.55168739337E+02  0.58048674783E+02  0.10566000000E+00 0. -1.
         22    1    1    0    0    0 -0.97380683600E+01 -0.15795797253E+02  0.23344883133E+02  0.29821481431E+02  0.00000000000E+00 0. -1.
</event>
<event>
 4    1  0.1325832E-009  0.9118800E+02  0.7818608E-02  0.1130116E+00
         25   -1    0    0    0    0  0.00000000000E+00  0.00000000000E+00  0.99999998245E-14  0.12500000000E+03  0.12500000000E+03 0.  0.
        -13    1    1    0    0    0 -0.10400162425E+01  0.10657846097E+01 -0.19616906508E+02  0.19673629955E+02  0.10566000000E+00 0.  1.
         13    1    1    0    0    0 -0.46057908165E+02 -0.23030974682E+02  0.10799217765E+02  0.52615501212E+02  0.10566000000E+00 0. -1.
         22    1    1    0    0    0  0.47097924408E+02  0.21965190072E+02  0.88176887427E+01  0.52710868834E+02  0.00000000000E+00 0. -1.
</event>
<event>
 5    1  0.1325832E-009  0.9118800E+02  0.7818608E-02  0.1130116E+00
         25   -1    0    0    0    0  0.00000000000E+00  0.00000000000E+00  0.99999998245E-14  0.12500000000E+03  0.12500000000E+03 0.  0.
        -13    1    3    3    0    0 -0.27435881474E+00 -0.61451623343E+02  0.10490419838E+02  0.62341297361E+02  0.10566000000E+00 0.  1.
         23    2    1    0    0    0  0.29138331557E+01 -0.28267584073E+02  0.40345179904E+01  0.96297664408E+02  0.91920705513E+02 0.  0.
         13    1    3    3    0    0  0.31881919704E+01  0.33184039270E+02 -0.64559018476E+01  0.33956367047E+02  0.10566000000E+00 0. -1.
         22    1    1    0    0    0 -0.29138331557E+01  0.28267584073E+02 -0.40345179904E+01  0.28702335592E+02  0.00000000000E+00 0.  1.
</event>
<event>
 5    1  0.1325832E-009  0.9118800E+02  0.7818608E-02  0.1130116E+00
         25   -1    0    0    0    0  0.00000000000E+00  0.00000000000E+00  0.99999998245E-14  0.12500000000E+03  0.12500000000E+03 0.  0.
        -13    1    3    3    0    0 -0.12069555187E+02  0.22280977702E+02 -0.42391278406E+02  0.49387729029E+02  0.10566000000E+00 0. -1.
         23    2    1    0    0    0 -0.24707957492E+02  0.16445208279E+02  0.13480339819E+01  0.95288971166E+02  0.90538625965E+02 0.  0.
         13    1    3    3    0    0 -0.12638402304E+02 -0.58357694232E+01  0.43739312387E+02  0.45901242137E+02  0.10566000000E+00 0.  1.
         22    1    1    0    0    0  0.24707957492E+02 -0.16445208279E+02 -0.13480339819E+01  0.29711028834E+02  0.00000000000E+00 0.  1.
</event>
<event>
 5    1  0.1325832E-009  0.9118800E+02  0.7818608E-02  0.1130116E+00
         25   -1    0    0    0    0  0.00000000000E+00  0.00000000000E+00  0.99999998245E-14  0.12500000000E+03  0.12500000000E+03 0.  0.
        -13    1    3    3    0    0  0.44114469244E+02  0.30264451307E+02  0.29858681020E+02  0.61266429681E+02  0.10566000000E+00 0. -1.
         23    2    1    0    0    0  0.18390263324E+02  0.21556508288E+02  0.98423678529E+01  0.95004049613E+02  0.90144397514E+02 0.  0.
         13    1    3    3    0    0 -0.25724205920E+02 -0.87079430193E+01 -0.20016313167E+02  0.33737619932E+02  0.10566000000E+00 0.  1.
         22    1    1    0    0    0 -0.18390263324E+02 -0.21556508288E+02 -0.98423678529E+01  0.29995950387E+02  0.00000000000E+00 0. -1.
</event>
<event>
 5    1  0.1325832E-009  0.9118800E+02  0.7818608E-02  0.1130116E+00
         25   -1    0    0    0    0  0.00000000000E+00  0.00000000000E+00  0.99999998245E-14  0.12500000000E+03  0.12500000000E+03 0.  0.
        -13    1    3    3    0    0  0.20230313398E+02  0.38709449012E+02  0.42334508881E+02  0.60826875879E+02  0.10566000000E+00 0. -1.
         23    2    1    0    0    0  0.12906262656E+02  0.23763881630E+02  0.12027396146E+02  0.95403514669E+02  0.90696629857E+02 0.  0.
         13    1    3    3    0    0 -0.73240507420E+01 -0.14945567381E+02 -0.30307112736E+02  0.34576638790E+02  0.10566000000E+00 0.  1.
         22    1    1    0    0    0 -0.12906262656E+02 -0.23763881630E+02 -0.12027396146E+02  0.29596485331E+02  0.00000000000E+00 0. -1.
</event>
<event>
 5    1  0.1325832E-009  0.9118800E+02  0.7818608E-02  0.1130116E+00
         25   -1    0    0    0    0  0.00000000000E+00  0.00000000000E+00  0.99999998245E-14  0.12500000000E+03  0.12500000000E+03 0.  0.
        -13    1    3    3    0    0  0.29946492934E+02 -0.49629336175E+02 -0.11067118884E+01  0.57974989637E+02  0.10566000000E+00 0. -1.
         23    2    1    0    0    0  0.26907831779E+02 -0.12654356506E+02  0.19550734077E+01  0.95200898308E+02  0.90416948505E+02 0.  0.
         13    1    3    3    0    0 -0.30386611552E+01  0.36974979669E+02  0.30617852961E+01  0.37225908671E+02  0.10566000000E+00 0.  1.
         22    1    1    0    0    0 -0.26907831779E+02  0.12654356506E+02 -0.19550734077E+01  0.29799101692E+02  0.00000000000E+00 0. -1.
</event>
<event>
 5    1  0.1325832E-009  0.9118800E+02  0.7818608E-02  0.1130116E+00
         25   -1    0    0    0    0  0.00000000000E+00  0.00000000000E+00  0.99999998245E-14  0.12500000000E+03  0.12500000000E+03 0.  0.
        -13    1    3    3    0    0  0.45316295608E+01 -0.32443308897E+02 -0.59218531811E+01  0.33289389718E+02  0.10566000000E+00 0.  1.
         23    2    1    0    0    0 -0.54447157113E-01  0.28836976797E+02  0.50820846201E+01  0.95718576206E+02  0.91129819772E+02 0.  0.
         13    1    3    3    0    0 -0.45860767179E+01  0.61280285694E+02  0.11003937801E+02  0.62429186488E+02  0.10566000000E+00 0. -1.
         22    1    1    0    0    0  0.54447157113E-01 -0.28836976797E+02 -0.50820846201E+01  0.29281423794E+02  0.00000000000E+00 0. -1.
</event>
<event>
 5    1  0.1325832E-009  0.9118800E+02  0.7818608E-02  0.1130116E+00
         25   -1    0    0    0    0  0.00000000000E+00  0.00000000000E+00  0.99999998245E-14  0.12500000000E+03  0.12500000000E+03 0.  0.
        -13    1    3    3    0    0  0.38643207512E+02  0.30313566285E+02  0.10970997008E+02  0.50324782435E+02  0.10566000000E+00 0.  1.
         23    2    1    0    0    0  0.25052331495E+02 -0.30109855630E+01 -0.15843779993E+02  0.95205525482E+02  0.90423345273E+02 0.  0.
         13    1    3    3    0    0 -0.13590876018E+02 -0.33324551848E+02 -0.26814777001E+02  0.44880743047E+02  0.10566000000E+00 0. -1.
         22    1    1    0    0    0 -0.25052331495E+02  0.30109855630E+01  0.15843779993E+02  0.29794474518E+02  0.00000000000E+00 0.  1.
</event>
<event>
 5    1  0.1325832E-009  0.9118800E+02  0.7818608E-02  0.1130116E+00
         25   -1    0    0    0    0  0.00000000000E+00  0.00000000000E+00  0.99999998245E-14  0.12500000000E+03  0.12500000000E+03 0.  0.
        -13    1    3    3    0    0  0.22477341475E+02  0.24246640751E+02  0.86022313915E+00  0.33073881166E+02  0.10566000000E+00 0. -1.
         23    2    1    0    0    0 -0.17128151668E+02 -0.20961452418E+02  0.13892667815E+02  0.94573658023E+02  0.89545600148E+02 0.  0.
         13    1    3    3    0    0 -0.39605493144E+02 -0.45208093169E+02  0.13032444676E+02  0.61499776857E+02  0.10566000000E+00 0.  1.
         22    1    1    0    0    0  0.17128151668E+02  0.20961452418E+02 -0.13892667815E+02  0.30426341977E+02  0.00000000000E+00 0.  1.
</event>
<event>
 5    1  0.1325832E-009  0.9118800E+02  0.7818608E-02  0.1130116E+00
         25   -1    0    0    0    0  0.00000000000E+00  0.00000000000E+00  0.99999998245E-14  0.12500000000E+03  0.12500000000E+03 0.  0.
        -13    1    3    3    0    0  0.11138779098E+02 -0.48719756261E+02 -0.30387491515E+02  0.58490151773E+02  0.10566000000E+00 0. -1.
         23    2    1    0    0    0 -0.90287625143E+01 -0.20322772899E+02 -0.20642752582E+02  0.94657671727E+02  0.89662801271E+02 0.  0.
         13    1    3    3    0    0 -0.20167541612E+02  0.28396983362E+02  0.97447389324E+01  0.36167519954E+02  0.10566000000E+00 0.  1.
         22    1    1    0    0    0  0.90287625143E+01  0.20322772899E+02  0.20642752582E+02  0.30342328273E+02  0.00000000000E+00 0. -1.
</event>
<event>
 5    1  0.1325832E-009  0.9118800E+02  0.7818608E-02  0.1130116E+00
         25   -1    0    0    0    0  0.00000000000E+00  0.00000000000E+00  0.99999998245E-14  0.12500000000E+03  0.12500000000E+03 0.  0.
        -13    1    3    3    0    0 -0.30693071828E+02 -0.31041854090E+01 -0.15416643135E+02  0.34487456776E+02  0.10566000000E+00 0.  1.
         23    2    1    0    0    0  0.16796351434E+02  0.13650476501E+02  0.19581251264E+02  0.95813045187E+02  0.91259308001E+02 0.  0.
         13    1    3    3    0    0  0.47489423263E+02  0.16754661910E+02  0.34997894399E+02  0.61325588411E+02  0.10566000000E+00 0. -1.
         22    1    1    0    0    0 -0.16796351434E+02 -0.13650476501E+02 -0.19581251264E+02  0.29186954813E+02  0.00000000000E+00 0. -1.
</event>
<event>
 5    1  0.1325832E-009  0.9118800E+02  0.7818608E-02  0.1130116E+00
         25   -1    0    0    0    0  0.00000000000E+00  0.00000000000E+00  0.99999998245E-14  0.12500000000E+03  0.12500000000E+03 0.  0.
        -13    1    3    3    0    0  0.21108939450E+02 -0.66300340087E+01  0.27740961568E+02  0.35484035684E+02  0.10566000000E+00 0. -1.
         23    2    1    0    0    0 -0.17172316695E+02  0.16025493369E+02 -0.14965520141E+02  0.97149116863E+02  0.93071366251E+02 0.  0.
         13    1    3    3    0    0 -0.38281256145E+02  0.22655527378E+02 -0.42706481709E+02  0.61665081179E+02  0.10566000000E+00 0.  1.
         22    1    1    0    0    0  0.17172316695E+02 -0.16025493369E+02  0.14965520141E+02  0.27850883137E+02  0.00000000000E+00 0.  1.
</event>
<event>
 5    1  0.1325832E-009  0.9118800E+02  0.7818608E-02  0.1130116E+00
         25   -1    0    0    0    0  0.00000000000E+00  0.00000000000E+00  0.99999998245E-14  0.12500000000E+03  0.12500000000E+03 0.  0.
        -13    1    3    3    0    0 -0.25066576114E+02  0.18076169946E+02  0.19131515822E+02  0.36347038665E+02  0.10566000000E+00 0.  1.
         23    2    1    0    0    0  0.18029751751E+01 -0.25975903416E+02 -0.11696984441E+02  0.96454987778E+02  0.92134396098E+02 0.  0.
         13    1    3    3    0    0  0.26869551289E+02 -0.44052073363E+02 -0.30828500263E+02  0.60107949113E+02  0.10566000000E+00 0. -1.
         22    1    1    0    0    0 -0.18029751751E+01  0.25975903416E+02  0.11696984441E+02  0.28545012222E+02  0.00000000000E+00 0. -1.
</event>
<event>
 5    1  0.1325832E-009  0.9118800E+02  0.7818608E-02  0.1130116E+00
         25   -1    0    0    0    0  0.00000000000E+00  0.00000000000E+00  0.99999998245E-14  0.12500000000E+03  0.12500000000E+03 0.  0.
        -13    1    3    3    0    0 -0.35479349909E+02 -0.32922804203E+01 -0.36552374470E+02  0.51046161695E+02  0.10566000000E+00 0.  1.
         23    2    1    0    0    0  0.37681331634E+01  0.14696740220E+02 -0.25029229576E+02  0.95731325042E+02  0.91147305284E+02 0.  0.
         13    1    3    3    0    0  0.39247483072E+02  0.17989020640E+02  0.11523144894E+02  0.44685163347E+02  0.10566000000E+00 0. -1.
         22    1    1    0    0    0 -0.37681331634E+01 -0.14696740220E+02  0.25029229576E+02  0.29268674958E+02  0.00000000000E+00 0. -1.
</event>
<event>
 5    1  0.1325832E-009  0.9118800E+02  0.7818608E-02  0.1130116E+00
         25   -1    0    0    0    0  0.00000000000E+00  0.00000000000E+00  0.99999998245E-14  0.12500000000E+03  0.12500000000E+03 0.  0.
        -13    1    3    3    0    0  0.46959702169E+02  0.29941245086E+02  0.34105704680E+01  0.55797266421E+02  0.10566000000E+00 0.  1.
         23    2    1    0    0    0  0.31694935956E+02 -0.28459534135E+01 -0.46177757393E+01  0.92844249832E+02  0.87098004902E+02 0.  0.
         13    1    3    3    0    0 -0.15264766213E+02 -0.32787198499E+02 -0.80283462073E+01  0.37046983411E+02  0.10566000000E+00 0. -1.
         22    1    1    0    0    0 -0.31694935956E+02  0.28459534135E+01  0.46177757393E+01  0.32155750168E+02  0.00000000000E+00 0.  1.
</event>
<event>
 5    1  0.1325832E-009  0.9118800E+02  0.7818608E-02  0.1130116E+00
         25   -1    0    0    0    0  0.00000000000E+00  0.00000000000E+00  0.99999998245E-14  0.12500000000E+03  0.12500000000E+03 0.  0.
        -13    1    3    3    0    0  0.41271737725E+02 -0.37003889358E+02 -0.25072463416E+02  0.60838176733E+02  0.10566000000E+00 0.  1.
         23    2    1    0    0    0  0.85440158051E+01 -0.20265147582E+02 -0.62521743477E+01  0.10213592126E+03  0.99543861261E+02 0.  0.
         13    1    3    3    0    0 -0.32727721920E+02  0.16738741776E+02  0.18820289068E+02  0.41297744526E+02  0.10566000000E+00 0. -1.
         22    1    1    0    0    0 -0.85440158051E+01  0.20265147582E+02  0.62521743477E+01  0.22864078741E+02  0.00000000000E+00 0.  1.
</event>
<event>
 5    1  0.1325832E-009  0.9118800E+02  0.7818608E-02  0.1130116E+00
         25   -1    0    0    0    0  0.00000000000E+00  0.00000000000E+00  0.99999998245E-14  0.12500000000E+03  0.12500000000E+03 0.  0.
        -13    1    3    3    0    0 -0.17495820773E+02  0.27402040332E+02 -0.28276041392E+02  0.43087367519E+02  0.10566000000E+00 0. -1.
         23    2    1    0    0    0 -0.11234284160E+02 -0.22915637013E+02 -0.14568204351E+02  0.95613470121E+02  0.90985534731E+02 0.  0.
         13    1    3    3    0    0  0.62615366129E+01 -0.50317677346E+02  0.13707837041E+02  0.52526102602E+02  0.10566000000E+00 0.  1.
         22    1    1    0    0    0  0.11234284160E+02  0.22915637013E+02  0.14568204351E+02  0.29386529879E+02  0.00000000000E+00 0.  1.
</event>
<event>
 5    1  0.1325832E-009  0.9118800E+02  0.7818608E-02  0.1130116E+00
         25   -1    0    0    0    0  0.00000000000E+00  0.00000000000E+00  0.99999998245E-14  0.12500000000E+03  0.12500000000E+03 0.  0.
        -13    1    3    3    0    0 -0.52939974217E+02  0.91626580089E+01 -0.63779164288E+01  0.54104382021E+02  0.10566000000E+00 0.  1.
         23    2    1    0    0    0 -0.24284204288E+02  0.43649453254E+00  0.19627243558E+02  0.93772739553E+02  0.88420500384E+02 0.  0.
         13    1    3    3    0    0  0.28655769929E+02 -0.87261634763E+01  0.26005159987E+02  0.39668357531E+02  0.10566000000E+00 0. -1.
         22    1    1    0    0    0  0.24284204288E+02 -0.43649453254E+00 -0.19627243558E+02  0.31227260447E+02  0.00000000000E+00 0.  1.
</event>
<event>
 5    1  0.1325832E-009  0.9118800E+02  0.7818608E-02  0.1130116E+00
         25   -1    0    0    0    0  0.00000000000E+00  0.00000000000E+00  0.99999998245E-14  0.12500000000E+03  0.12500000000E+03 0.  0.
        -13    1    3    3    0    0  0.17419220999E+02 -0.19163722028E+02  0.22382935253E+02  0.34229876669E+02  0.10566000000E+00 0.  1.
         23    2    1    0    0    0 -0.46821556761E+01  0.10517485651E+02 -0.26830190567E+02  0.95804123373E+02  0.91247086766E+02 0.  0.
         13    1    3    3    0    0 -0.22101376675E+02  0.29681207679E+02 -0.49213125819E+02  0.61574246704E+02  0.10566000000E+00 0. -1.
         22    1    1    0    0    0  0.46821556761E+01 -0.10517485651E+02  0.26830190567E+02  0.29195876627E+02  0.00000000000E+00 0. -1.
</event>
<event>
 5    1  0.1325832E-009  0.9118800E+02  0.7818608E-02  0.1130116E+00
         25   -1    0    0    0    0  0.00000000000E+00  0.00000000000E+00  0.99999998245E-14  0.12500000000E+03  0.12500000000E+03 0.  0.
        -13    1    3    3    0    0  0.30067055259E+02  0.17497899943E+02 -0.10101524785E+02  0.36225078073E+02  0.10566000000E+00 0.  1.
         23    2    1    0    0    0 -0.23907863727E+02  0.14618479946E+02  0.11863386307E+02  0.94569327339E+02  0.89539554582E+02 0.  0.
         13    1    3    3    0    0 -0.53974918987E+02 -0.28794199970E+01  0.21964911092E+02  0.58344249266E+02  0.10566000000E+00 0. -1.
         22    1    1    0    0    0  0.23907863727E+02 -0.14618479946E+02 -0.11863386307E+02  0.30430672661E+02  0.00000000000E+00 0. -1.
</event>
<event>
 5    1  0.1325832E-009  0.9118800E+02  0.7818608E-02  0.1130116E+00
         25   -1    0    0    0    0  0.00000000000E+00  0.00000000000E+00  0.99999998245E-14  0.12500000000E+03  0.12500000000E+03 0.  0.
        -13    1    3    3    0    0  0.29917733163E+02  0.34256806340E+02  0.20715923123E+02  0.49977596712E+02  0.10566000000E+00 0. -1.
         23    2    1    0    0    0 -0.12000773584E+02  0.25574899592E+02  0.20598910983E+01  0.96674442511E+02  0.92431653819E+02 0.  0.
         13    1    3    3    0    0 -0.41918506747E+02 -0.86819067484E+01 -0.18656032024E+02  0.46696845799E+02  0.10566000000E+00 0.  1.
         22    1    1    0    0    0  0.12000773584E+02 -0.25574899592E+02 -0.20598910983E+01  0.28325557489E+02  0.00000000000E+00 0. -1.
</event>
<event>
 5    1  0.1325832E-009  0.9118800E+02  0.7818608E-02  0.1130116E+00
         25   -1    0    0    0    0  0.00000000000E+00  0.00000000000E+00  0.99999998245E-14  0.12500000000E+03  0.12500000000E+03 0.  0.
        -13    1    3    3    0    0  0.12467375489E+02  0.13263053518E+02 -0.30228605901E+02  0.35286312062E+02  0.10566000000E+00 0.  1.
         23    2    1    0    0    0  0.28694162396E+01  0.90434285633E+01  0.28509665106E+02  0.94953067474E+02  0.90073674670E+02 0.  0.
         13    1    3    3    0    0 -0.95979592497E+01 -0.42196249546E+01  0.58738271007E+02  0.59666755412E+02  0.10566000000E+00 0. -1.
         22    1    1    0    0    0 -0.28694162396E+01 -0.90434285633E+01 -0.28509665106E+02  0.30046932526E+02  0.00000000000E+00 0. -1.
</event>
<event>
 5    1  0.1325832E-009  0.9118800E+02  0.7818608E-02  0.1130116E+00
         25   -1    0    0    0    0  0.00000000000E+00  0.00000000000E+00  0.99999998245E-14  0.12500000000E+03  0.12500000000E+03 0.  0.
        -13    1    3    3    0    0  0.40863536692E+02 -0.93386442704E+01  0.31224011876E+01  0.42033313705E+02  0.10566000000E+00 0. -1.
         23    2    1    0    0    0 -0.68383626274E+01 -0.17982540006E+01  0.27833402541E+02  0.96282492833E+02  0.91900071862E+02 0.  0.
         13    1    3    3    0    0 -0.47701899320E+02  0.75403902698E+01  0.24711001353E+02  0.54249179128E+02  0.10566000000E+00 0.  1.
         22    1    1    0    0    0  0.68383626274E+01  0.17982540006E+01 -0.27833402541E+02  0.28717507167E+02  0.00000000000E+00 0.  1.
</event>
<event>
 5    1  0.1325832E-009  0.9118800E+02  0.7818608E-02  0.1130116E+00
         25   -1    0    0    0    0  0.00000000000E+00  0.00000000000E+00  0.99999998245E-14  0.12500000000E+03  0.12500000000E+03 0.  0.
        -13    1    3    3    0    0  0.14078887686E+02 -0.26540589652E+02  0.25705483344E+02  0.39539866155E+02  0.10566000000E+00 0.  1.
         23    2    1    0    0    0  0.23211554476E+02  0.14484047954E+02 -0.11165324302E+02  0.95449562218E+02  0.90760071367E+02 0.  0.
         13    1    3    3    0    0  0.91326667894E+01  0.41024637606E+02 -0.36870807646E+02  0.55909696063E+02  0.10566000000E+00 0. -1.
         22    1    1    0    0    0 -0.23211554476E+02 -0.14484047954E+02  0.11165324302E+02  0.29550437782E+02  0.00000000000E+00 0. -1.
</event>
<event>
 5    1  0.1325832E-009  0.9118800E+02  0.7818608E-02  0.1130116E+00
         25   -1    0    0    0    0  0.00000000000E+00  0.00000000000E+00  0.99999998245E-14  0.12500000000E+03  0.12500000000E+03 0.  0.
        -13    1    3    3    0    0 -0.38985124826E+01  0.10989082286E+01 -0.52773877452E+02  0.52929191419E+02  0.10566000000E+00 0. -1.
         23    2    1    0    0    0 -0.11373167643E+02  0.21609754741E+02 -0.15651433420E+02  0.95994865795E+02  0.91508013030E+02 0.  0.
         13    1    3    3    0    0 -0.74746551604E+01  0.20510846512E+02  0.37122444033E+02  0.43065674376E+02  0.10566000000E+00 0.  1.
         22    1    1    0    0    0  0.11373167643E+02 -0.21609754741E+02  0.15651433420E+02  0.29005134205E+02  0.00000000000E+00 0. -1.
</event>
<event>
 5    1  0.1325832E-009  0.9118800E+02  0.7818608E-02  0.1130116E+00
         25   -1    0    0    0    0  0.00000000000E+00  0.00000000000E+00  0.99999998245E-14  0.12500000000E+03  0.12500000000E+03 0.  0.
        -13    1    3    3    0    0  0.13565117345E+02  0.20162195738E+02 -0.52036650219E+02  0.57431269145E+02  0.10566000000E+00 0. -1.
         23    2    1    0    0    0  0.17906971392E+02  0.18354219629E+02 -0.13947651357E+02  0.95809693715E+02  0.91254717296E+02 0.  0.
         13    1    3    3    0    0  0.43418540474E+01 -0.18079761086E+01  0.38088998862E+02  0.38378424570E+02  0.10566000000E+00 0.  1.
         22    1    1    0    0    0 -0.17906971392E+02 -0.18354219629E+02  0.13947651357E+02  0.29190306285E+02  0.00000000000E+00 0. -1.
</event>
<event>
 5    1  0.1325832E-009  0.9118800E+02  0.7818608E-02  0.1130116E+00
         25   -1    0    0    0    0  0.00000000000E+00  0.00000000000E+00  0.99999998245E-14  0.12500000000E+03  0.12500000000E+03 0.  0.
        -13    1    3    3    0    0  0.26102624525E+02  0.17316845661E+02  0.46998898327E+02  0.56481215981E+02  0.10566000000E+00 0.  1.
         23    2    1    0    0    0 -0.38056466459E+01  0.19467278513E+02  0.20022245310E+02  0.96815816734E+02  0.92622644011E+02 0.  0.
         13    1    3    3    0    0 -0.29908271171E+02  0.21504328526E+01 -0.26976653017E+02  0.40334600753E+02  0.10566000000E+00 0. -1.
         22    1    1    0    0    0  0.38056466459E+01 -0.19467278513E+02 -0.20022245310E+02  0.28184183266E+02  0.00000000000E+00 0.  1.
</event>
<event>
 5    1  0.1325832E-009  0.9118800E+02  0.7818608E-02  0.1130116E+00
         25   -1    0    0    0    0  0.00000000000E+00  0.00000000000E+00  0.99999998245E-14  0.12500000000E+03  0.12500000000E+03 0.  0.
        -13    1    3    3    0    0  0.41692112271E+02  0.31401262513E+02  0.13114451726E+01  0.52211134497E+02  0.10566000000E+00 0.  1.
         23    2    1    0    0    0  0.24608943199E+02 -0.36045976130E+01 -0.16614059441E+02  0.95089798054E+02  0.90263223483E+02 0.  0.
         13    1    3    3    0    0 -0.17083169071E+02 -0.35005860126E+02 -0.17925504614E+02  0.42878663557E+02  0.10566000000E+00 0. -1.
         22    1    1    0    0    0 -0.24608943199E+02  0.36045976130E+01  0.16614059441E+02  0.29910201946E+02  0.00000000000E+00 0.  1.
</event>
<event>
 5    1  0.1325832E-009  0.9118800E+02  0.7818608E-02  0.1130116E+00
         25   -1    0    0    0    0  0.00000000000E+00  0.00000000000E+00  0.99999998245E-14  0.12500000000E+03  0.12500000000E+03 0.  0.
        -13    1    3    3    0    0  0.21576837581E+02  0.51540940836E+02 -0.26543807649E+02  0.61859626501E+02  0.10566000000E+00 0. -1.
         23    2    1    0    0    0  0.10318579792E+02  0.24574935958E+02 -0.57263844991E+01  0.97738451150E+02  0.93859537542E+02 0.  0.
         13    1    3    3    0    0 -0.11258257790E+02 -0.26966004878E+02  0.20817423150E+02  0.35878824649E+02  0.10566000000E+00 0.  1.
         22    1    1    0    0    0 -0.10318579792E+02 -0.24574935958E+02  0.57263844991E+01  0.27261548850E+02  0.00000000000E+00 0. -1.
</event>
<event>
 5    1  0.1325832E-009  0.9118800E+02  0.7818608E-02  0.1130116E+00
         25   -1    0    0    0    0  0.00000000000E+00  0.00000000000E+00  0.99999998245E-14  0.12500000000E+03  0.12500000000E+03 0.  0.
        -13    1    3    3    0    0  0.98305586362E+01 -0.38168422549E+02 -0.28806505770E+02  0.48818995296E+02  0.10566000000E+00 0. -1.
         23    2    1    0    0    0 -0.23015995401E+02 -0.61241967337E+01 -0.15447020436E+02  0.96612462764E+02  0.92347797435E+02 0.  0.
         13    1    3    3    0    0 -0.32846554038E+02  0.32044225815E+02  0.13359485333E+02  0.47793467468E+02  0.10566000000E+00 0.  1.
         22    1    1    0    0    0  0.23015995401E+02  0.61241967337E+01  0.15447020436E+02  0.28387537236E+02  0.00000000000E+00 0.  1.
</event>
<event>
 5    1  0.1325832E-009  0.9118800E+02  0.7818608E-02  0.1130116E+00
         25   -1    0    0    0    0  0.00000000000E+00  0.00000000000E+00  0.99999998245E-14  0.12500000000E+03  0.12500000000E+03 0.  0.
        -13    1    3    3    0    0  0.19862874218E+02 -0.11384097664E+02  0.32557756641E+02  0.39801383561E+02  0.10566000000E+00 0. -1.
         23    2    1    0    0    0  0.30497497674E+02 -0.23697534255E+02 -0.97807960396E+01  0.85158633741E+02  0.75263925192E+02 0.  0.
         13    1    3    3    0    0  0.10634623456E+02 -0.12313436591E+02 -0.42338552681E+02  0.45357250180E+02  0.10566000000E+00 0.  1.
         22    1    1    0    0    0 -0.30497497674E+02  0.23697534255E+02  0.97807960396E+01  0.39841366259E+02  0.00000000000E+00 0. -1.
</event>
<event>
 5    1  0.1325832E-009  0.9118800E+02  0.7818608E-02  0.1130116E+00
         25   -1    0    0    0    0  0.00000000000E+00  0.00000000000E+00  0.99999998245E-14  0.12500000000E+03  0.12500000000E+03 0.  0.
        -13    1    3    3    0    0 -0.27191762233E+02 -0.20186262988E+02 -0.13065675291E+02  0.36298762811E+02  0.10566000000E+00 0.  1.
         23    2    1    0    0    0  0.28104418304E+02 -0.71753672895E+01  0.42471922186E+01  0.95684767343E+02  0.91083433378E+02 0.  0.
         13    1    3    3    0    0  0.55296180537E+02  0.13010895699E+02  0.17312867510E+02  0.59386004532E+02  0.10566000000E+00 0. -1.
         22    1    1    0    0    0 -0.28104418304E+02  0.71753672895E+01 -0.42471922186E+01  0.29315232657E+02  0.00000000000E+00 0. -1.
</event>
<event>
 5    1  0.1325832E-009  0.9118800E+02  0.7818608E-02  0.1130116E+00
         25   -1    0    0    0    0  0.00000000000E+00  0.00000000000E+00  0.99999998245E-14  0.12500000000E+03  0.12500000000E+03 0.  0.
        -13    1    3    3    0    0  0.37725219534E+02 -0.35390073195E+02 -0.25958279268E+02  0.57874803639E+02  0.10566000000E+00 0. -1.
         23    2    1    0    0    0  0.66764122629E+01 -0.27997876360E+02 -0.57584478034E+01  0.95646715985E+02  0.91031197928E+02 0.  0.
         13    1    3    3    0    0 -0.31048807271E+02  0.73921968356E+01  0.20199831465E+02  0.37771912346E+02  0.10566000000E+00 0.  1.
         22    1    1    0    0    0 -0.66764122629E+01  0.27997876360E+02  0.57584478034E+01  0.29353284015E+02  0.00000000000E+00 0. -1.
</event>
<event>
 5    1  0.1325832E-009  0.9118800E+02  0.7818608E-02  0.1130116E+00
         25   -1    0    0    0    0  0.00000000000E+00  0.00000000000E+00  0.99999998245E-14  0.12500000000E+03  0.12500000000E+03 0.  0.
        -13    1    3    3    0    0  0.22879799792E+02 -0.17785676191E+01  0.24692392431E+02  0.33710146089E+02  0.10566000000E+00 0.  1.
         23    2    1    0    0    0 -0.27469964418E+02  0.45468946157E+01 -0.10257633062E+02  0.95326910646E+02  0.90590991062E+02 0.  0.
         13    1    3    3    0    0 -0.50349764210E+02  0.63254622349E+01 -0.34950025493E+02  0.61616764557E+02  0.10566000000E+00 0. -1.
         22    1    1    0    0    0  0.27469964418E+02 -0.45468946157E+01  0.10257633062E+02  0.29673089354E+02  0.00000000000E+00 0. -1.
</event>
<event>
 5    1  0.1325832E-009  0.9118800E+02  0.7818608E-02  0.1130116E+00
         25   -1    0    0    0    0  0.00000000000E+00  0.00000000000E+00  0.99999998245E-14  0.12500000000E+03  0.12500000000E+03 0.  0.
        -13    1    3    3    0    0  0.11310079974E+02 -0.14158170760E+02 -0.31838664666E+02  0.36634457005E+02  0.10566000000E+00 0. -1.
         23    2    1    0    0    0 -0.23508463487E+02 -0.59379880202E+01  0.15687382731E+02  0.96120915281E+02  0.91680035015E+02 0.  0.
         13    1    3    3    0    0 -0.34818543461E+02  0.82201827403E+01  0.47526047397E+02  0.59486458276E+02  0.10566000000E+00 0.  1.
         22    1    1    0    0    0  0.23508463487E+02  0.59379880202E+01 -0.15687382731E+02  0.28879084719E+02  0.00000000000E+00 0.  1.
</event>
<event>
 5    1  0.1325832E-009  0.9118800E+02  0.7818608E-02  0.1130116E+00
         25   -1    0    0    0    0  0.00000000000E+00  0.00000000000E+00  0.99999998245E-14  0.12500000000E+03  0.12500000000E+03 0.  0.
        -13    1    3    3    0    0 -0.46591022133E+01  0.46151563909E+02  0.33153862491E+02  0.57016347189E+02  0.10566000000E+00 0. -1.
         23    2    1    0    0    0  0.17665013127E+01  0.28285149336E+02 -0.15957190772E+01  0.96614853898E+02  0.92351033966E+02 0.  0.
         13    1    3    3    0    0  0.64256035260E+01 -0.17866414573E+02 -0.34749581568E+02  0.39598506709E+02  0.10566000000E+00 0.  1.
         22    1    1    0    0    0 -0.17665013127E+01 -0.28285149336E+02  0.15957190772E+01  0.28385146102E+02  0.00000000000E+00 0. -1.
</event>
<event>
 5    1  0.1325832E-009  0.9118800E+02  0.7818608E-02  0.1130116E+00
         25   -1    0    0    0    0  0.00000000000E+00  0.00000000000E+00  0.99999998245E-14  0.12500000000E+03  0.12500000000E+03 0.  0.
        -13    1    3    3    0    0 -0.26418957199E+02  0.27281391972E+02  0.69145932555E+01  0.38601274738E+02  0.10566000000E+00 0. -1.
         23    2    1    0    0    0  0.26988049727E+02  0.69924396691E+01 -0.42081001225E+01  0.96805015566E+02  0.92608066018E+02 0.  0.
         13    1    3    3    0    0  0.53407006926E+02 -0.20288952303E+02 -0.11122693378E+02  0.58203740828E+02  0.10566000000E+00 0.  1.
         22    1    1    0    0    0 -0.26988049727E+02 -0.69924396691E+01  0.42081001225E+01  0.28194984434E+02  0.00000000000E+00 0.  1.
</event>
<event>
 5    1  0.1325832E-009  0.9118800E+02  0.7818608E-02  0.1130116E+00
         25   -1    0    0    0    0  0.00000000000E+00  0.00000000000E+00  0.99999998245E-14  0.12500000000E+03  0.12500000000E+03 0.  0.
        -13    1    3    3    0    0 -0.50406950089E+02 -0.10035989229E+02 -0.30040218998E+02  0.59531568252E+02  0.10566000000E+00 0.  1.
         23    2    1    0    0    0 -0.28930028241E+02  0.47586436791E+01 -0.58491395369E+01  0.95103450750E+02  0.90282128285E+02 0.  0.
         13    1    3    3    0    0  0.21476921848E+02  0.14794632908E+02  0.24191079461E+02  0.35571882498E+02  0.10566000000E+00 0. -1.
         22    1    1    0    0    0  0.28930028241E+02 -0.47586436791E+01  0.58491395369E+01  0.29896549250E+02  0.00000000000E+00 0.  1.
</event>
<event>
 5    1  0.1325832E-009  0.9118800E+02  0.7818608E-02  0.1130116E+00
         25   -1    0    0    0    0  0.00000000000E+00  0.00000000000E+00  0.99999998245E-14  0.12500000000E+03  0.12500000000E+03 0.  0.
        -13    1    3    3    0    0  0.94275785271E+01 -0.21316939904E+02 -0.23578804492E+02  0.33155125532E+02  0.10566000000E+00 0. -1.
         23    2    1    0    0    0 -0.37551378447E+01  0.23474392434E+02  0.17608344368E+02  0.95416187673E+02  0.90714094375E+02 0.  0.
         13    1    3    3    0    0 -0.13182716372E+02  0.44791332338E+02  0.41187148861E+02  0.62261062141E+02  0.10566000000E+00 0.  1.
         22    1    1    0    0    0  0.37551378447E+01 -0.23474392434E+02 -0.17608344368E+02  0.29583812327E+02  0.00000000000E+00 0.  1.
</event>
<event>
 5    1  0.1325832E-009  0.9118800E+02  0.7818608E-02  0.1130116E+00
         25   -1    0    0    0    0  0.00000000000E+00  0.00000000000E+00  0.99999998245E-14  0.12500000000E+03  0.12500000000E+03 0.  0.
        -13    1    3    3    0    0  0.42113740150E+02 -0.15047838116E+02  0.15335327922E+02  0.47277774777E+02  0.10566000000E+00 0.  1.
         23    2    1    0    0    0  0.18146385573E+02  0.23562922670E+02  0.12275773575E+02  0.92825518637E+02  0.87071118400E+02 0.  0.
         13    1    3    3    0    0 -0.23967354577E+02  0.38610760786E+02 -0.30595543469E+01  0.45547743860E+02  0.10566000000E+00 0. -1.
         22    1    1    0    0    0 -0.18146385573E+02 -0.23562922670E+02 -0.12275773575E+02  0.32174481363E+02  0.00000000000E+00 0. -1.
</event>
<event>
 5    1  0.1325832E-009  0.9118800E+02  0.7818608E-02  0.1130116E+00
         25   -1    0    0    0    0  0.00000000000E+00  0.00000000000E+00  0.99999998245E-14  0.12500000000E+03  0.12500000000E+03 0.  0.
        -13    1    3    3    0    0  0.54821160463E+02  0.99549386905E+01 -0.95978197806E+01  0.56538391801E+02  0.10566000000E+00 0. -1.
         23    2    1    0    0    0  0.22376716223E+02  0.15579809391E+02  0.11241590323E+02  0.95507267970E+02  0.90839512287E+02 0.  0.
         13    1    3    3    0    0 -0.32444444239E+02  0.56248707007E+01  0.20839410103E+02  0.38968876169E+02  0.10566000000E+00 0.  1.
         22    1    1    0    0    0 -0.22376716223E+02 -0.15579809391E+02 -0.11241590323E+02  0.29492732030E+02  0.00000000000E+00 0. -1.
</event>
<event>
 5    1  0.1325832E-009  0.9118800E+02  0.7818608E-02  0.1130116E+00
         25   -1    0    0    0    0  0.00000000000E+00  0.00000000000E+00  0.99999998245E-14  0.12500000000E+03  0.12500000000E+03 0.  0.
        -13    1    3    3    0    0  0.19237031454E+02 -0.24853974471E+02  0.25643349630E+02  0.40563234221E+02  0.10566000000E+00 0. -1.
         23    2    1    0    0    0  0.19912997541E+02 -0.73826941776E+01 -0.23856277524E+02  0.93060156204E+02  0.87407316920E+02 0.  0.
         13    1    3    3    0    0  0.67596608713E+00  0.17471280294E+02 -0.49499627154E+02  0.52496921983E+02  0.10566000000E+00 0.  1.
         22    1    1    0    0    0 -0.19912997541E+02  0.73826941776E+01  0.23856277524E+02  0.31939843796E+02  0.00000000000E+00 0.  1.
</event>
<event>
 5    1  0.1325832E-009  0.9118800E+02  0.7818608E-02  0.1130116E+00
         25   -1    0    0    0    0  0.00000000000E+00  0.00000000000E+00  0.99999998245E-14  0.12500000000E+03  0.12500000000E+03 0.  0.
        -13    1    3    3    0    0  0.27039809420E+02 -0.14326725276E+02  0.31005253389E+02  0.43563095073E+02  0.10566000000E+00 0. -1.
         23    2    1    0    0    0  0.12930779717E+02 -0.23801432302E+02 -0.15995722003E+02  0.93542467260E+02  0.88094363128E+02 0.  0.
         13    1    3    3    0    0 -0.14109029703E+02 -0.94747070256E+01 -0.47000975392E+02  0.49979372187E+02  0.10566000000E+00 0.  1.
         22    1    1    0    0    0 -0.12930779717E+02  0.23801432302E+02  0.15995722003E+02  0.31457532740E+02  0.00000000000E+00 0. -1.
</event>
<event>
 5    1  0.1325832E-009  0.9118800E+02  0.7818608E-02  0.1130116E+00
         25   -1    0    0    0    0  0.00000000000E+00  0.00000000000E+00  0.99999998245E-14  0.12500000000E+03  0.12500000000E+03 0.  0.
        -13    1    3    3    0    0 -0.17814826506E+02  0.41021916703E+02 -0.64618817239E+01  0.45187750252E+02  0.10566000000E+00 0.  1.
         23    2    1    0    0    0 -0.25947526781E+02 -0.51597943232E+01  0.12463899086E+02  0.95755403850E+02  0.91180321137E+02 0.  0.
         13    1    3    3    0    0 -0.81327002754E+01 -0.46181711026E+02  0.18925780810E+02  0.50567653598E+02  0.10566000000E+00 0. -1.
         22    1    1    0    0    0  0.25947526781E+02  0.51597943232E+01 -0.12463899086E+02  0.29244596150E+02  0.00000000000E+00 0. -1.
</event>
<event>
 5    1  0.1325832E-009  0.9118800E+02  0.7818608E-02  0.1130116E+00
         25   -1    0    0    0    0  0.00000000000E+00  0.00000000000E+00  0.99999998245E-14  0.12500000000E+03  0.12500000000E+03 0.  0.
        -13    1    3    3    0    0  0.38915532314E+02  0.70989967363E+01 -0.11505886215E+02  0.41197220678E+02  0.10566000000E+00 0. -1.
         23    2    1    0    0    0 -0.12106199332E+01  0.10651421947E+02  0.26397327133E+02  0.96508996686E+02  0.92207641611E+02 0.  0.
         13    1    3    3    0    0 -0.40126152247E+02  0.35524252107E+01  0.37903213347E+02  0.55311776008E+02  0.10566000000E+00 0.  1.
         22    1    1    0    0    0  0.12106199332E+01 -0.10651421947E+02 -0.26397327133E+02  0.28491003314E+02  0.00000000000E+00 0.  1.
</event>
<event>
 5    1  0.1325832E-009  0.9118800E+02  0.7818608E-02  0.1130116E+00
         25   -1    0    0    0    0  0.00000000000E+00  0.00000000000E+00  0.99999998245E-14  0.12500000000E+03  0.12500000000E+03 0.  0.
        -13    1    3    3    0    0  0.47585530768E+02  0.28788877657E+02  0.74752275681E+01  0.56116596533E+02  0.10566000000E+00 0. -1.
         23    2    1    0    0    0  0.17445238964E+02  0.67587418162E+01  0.21950860360E+02  0.96158064836E+02  0.91730672128E+02 0.  0.
         13    1    3    3    0    0 -0.30140291804E+02 -0.22030135840E+02  0.14475632792E+02  0.40041468304E+02  0.10566000000E+00 0.  1.
         22    1    1    0    0    0 -0.17445238964E+02 -0.67587418162E+01 -0.21950860360E+02  0.28841935164E+02  0.00000000000E+00 0. -1.
</event>
<event>
 5    1  0.1325832E-009  0.9118800E+02  0.7818608E-02  0.1130116E+00
         25   -1    0    0    0    0  0.00000000000E+00  0.00000000000E+00  0.99999998245E-14  0.12500000000E+03  0.12500000000E+03 0.  0.
        -13    1    3    3    0    0  0.26017385846E+02 -0.32580454728E+02  0.42329788809E+02  0.59415592071E+02  0.10566000000E+00 0.  1.
         23    2    1    0    0    0  0.89130399677E+01 -0.42964324280E+01  0.27743776198E+02  0.95544631546E+02  0.90890912012E+02 0.  0.
         13    1    3    3    0    0 -0.17104345879E+02  0.28284022300E+02 -0.14586012611E+02  0.36129039474E+02  0.10566000000E+00 0. -1.
         22    1    1    0    0    0 -0.89130399677E+01  0.42964324280E+01 -0.27743776198E+02  0.29455368454E+02  0.00000000000E+00 0.  1.
</event>
<event>
 5    1  0.1325832E-009  0.9118800E+02  0.7818608E-02  0.1130116E+00
         25   -1    0    0    0    0  0.00000000000E+00  0.00000000000E+00  0.99999998245E-14  0.12500000000E+03  0.12500000000E+03 0.  0.
        -13    1    3    3    0    0 -0.16235784333E+02 -0.30901290553E+02  0.13836292788E+00  0.34907316698E+02  0.10566000000E+00 0.  1.
         23    2    1    0    0    0  0.25975774608E+02  0.11565170991E+02 -0.83084915355E+01  0.95376950223E+02  0.90660010786E+02 0.  0.
         13    1    3    3    0    0  0.42211558940E+02  0.42466461544E+02 -0.84468544634E+01  0.60469633524E+02  0.10566000000E+00 0. -1.
         22    1    1    0    0    0 -0.25975774608E+02 -0.11565170991E+02  0.83084915355E+01  0.29623049777E+02  0.00000000000E+00 0. -1.
</event>
<event>
 5    1  0.1325832E-009  0.9118800E+02  0.7818608E-02  0.1130116E+00
         25   -1    0    0    0    0  0.00000000000E+00  0.00000000000E+00  0.99999998245E-14  0.12500000000E+03  0.12500000000E+03 0.  0.
        -13    1    3    3    0    0  0.49685290890E+02 -0.54096457897E+01 -0.15526920686E+02  0.52335349702E+02  0.10566000000E+00 0.  1.
         23    2    1    0    0    0  0.70734413766E+01 -0.98375684276E+01 -0.25892315934E+02  0.96412881399E+02  0.92077252075E+02 0.  0.
         13    1    3    3    0    0 -0.42611849513E+02 -0.44279226380E+01 -0.10365395248E+02  0.44077531697E+02  0.10566000000E+00 0. -1.
         22    1    1    0    0    0 -0.70734413766E+01  0.98375684276E+01  0.25892315934E+02  0.28587118601E+02  0.00000000000E+00 0. -1.
</event>
<event>
 5    1  0.1325832E-009  0.9118800E+02  0.7818608E-02  0.1130116E+00
         25   -1    0    0    0    0  0.00000000000E+00  0.00000000000E+00  0.99999998245E-14  0.12500000000E+03  0.12500000000E+03 0.  0.
        -13    1    3    3    0    0  0.47152683825E+02 -0.30421075358E+02 -0.18505494633E+02  0.59087070612E+02  0.10566000000E+00 0. -1.
         23    2    1    0    0    0  0.20754880278E+02 -0.26384419574E+01 -0.17978373541E+02  0.97414707787E+02  0.93427388633E+02 0.  0.
         13    1    3    3    0    0 -0.26397803546E+02  0.27782633401E+02  0.52712109235E+00  0.38327637175E+02  0.10566000000E+00 0.  1.
         22    1    1    0    0    0 -0.20754880278E+02  0.26384419574E+01  0.17978373541E+02  0.27585292213E+02  0.00000000000E+00 0. -1.
</event>
<event>
 5    1  0.1325832E-009  0.9118800E+02  0.7818608E-02  0.1130116E+00
         25   -1    0    0    0    0  0.00000000000E+00  0.00000000000E+00  0.99999998245E-14  0.12500000000E+03  0.12500000000E+03 0.  0.
        -13    1    3    3    0    0 -0.52159012180E+02 -0.20639733953E+01  0.24144161337E+02  0.57513252634E+02  0.10566000000E+00 0.  1.
         23    2    1    0    0    0 -0.27296550488E+02 -0.12296500509E+02 -0.19737792160E+01  0.94996643559E+02  0.90134127221E+02 0.  0.
         13    1    3    3    0    0  0.24862461692E+02 -0.10232527114E+02 -0.26117940553E+02  0.37483390926E+02  0.10566000000E+00 0. -1.
         22    1    1    0    0    0  0.27296550488E+02  0.12296500509E+02  0.19737792160E+01  0.30003356441E+02  0.00000000000E+00 0.  1.
</event>
<event>
 5    1  0.1325832E-009  0.9118800E+02  0.7818608E-02  0.1130116E+00
         25   -1    0    0    0    0  0.00000000000E+00  0.00000000000E+00  0.99999998245E-14  0.12500000000E+03  0.12500000000E+03 0.  0.
        -13    1    3    3    0    0 -0.33541289131E+01 -0.54569390913E+02  0.28539886214E+02  0.61673372492E+02  0.10566000000E+00 0. -1.
         23    2    1    0    0    0 -0.37544570209E+01 -0.28557923861E+02  0.72277484993E+01  0.95303345119E+02  0.90558468846E+02 0.  0.
         13    1    3    3    0    0 -0.40032810773E+00  0.26011467052E+02 -0.21312137715E+02  0.33629972626E+02  0.10566000000E+00 0.  1.
         22    1    1    0    0    0  0.37544570209E+01  0.28557923861E+02 -0.72277484993E+01  0.29696654881E+02  0.00000000000E+00 0. -1.
</event>
<event>
 5    1  0.1325832E-009  0.9118800E+02  0.7818608E-02  0.1130116E+00
         25   -1    0    0    0    0  0.00000000000E+00  0.00000000000E+00  0.99999998245E-14  0.12500000000E+03  0.12500000000E+03 0.  0.
        -13    1    3    3    0    0  0.10125043859E+02  0.92576326602E+01 -0.37368188568E+02  0.39807197295E+02  0.10566000000E+00 0.  1.
         23    2    1    0    0    0  0.23010427584E+02  0.44236369696E+01  0.17103126891E+02  0.95990255239E+02  0.91501714792E+02 0.  0.
         13    1    3    3    0    0  0.12885383724E+02 -0.48339956906E+01  0.54471315459E+02  0.56183057944E+02  0.10566000000E+00 0. -1.
         22    1    1    0    0    0 -0.23010427584E+02 -0.44236369696E+01 -0.17103126891E+02  0.29009744761E+02  0.00000000000E+00 0. -1.
</event>
<event>
 5    1  0.1325832E-009  0.9118800E+02  0.7818608E-02  0.1130116E+00
         25   -1    0    0    0    0  0.00000000000E+00  0.00000000000E+00  0.99999998245E-14  0.12500000000E+03  0.12500000000E+03 0.  0.
        -13    1    3    3    0    0 -0.50119251341E+02  0.35395947243E+02 -0.64937095111E+01  0.61700825468E+02  0.10566000000E+00 0. -1.
         23    2    1    0    0    0 -0.26440830949E+02  0.11658938452E+02 -0.71352132851E+01  0.95234925572E+02  0.90463978428E+02 0.  0.
         13    1    3    3    0    0  0.23678420393E+02 -0.23737008790E+02 -0.64150377401E+00  0.33534100103E+02  0.10566000000E+00 0.  1.
         22    1    1    0    0    0  0.26440830949E+02 -0.11658938452E+02  0.71352132851E+01  0.29765074428E+02  0.00000000000E+00 0. -1.
</event>
<event>
 5    1  0.1325832E-009  0.9118800E+02  0.7818608E-02  0.1130116E+00
         25   -1    0    0    0    0  0.00000000000E+00  0.00000000000E+00  0.99999998245E-14  0.12500000000E+03  0.12500000000E+03 0.  0.
        -13    1    3    3    0    0 -0.82890808939E-01 -0.43808357979E+02  0.21142009740E+02  0.48643343220E+02  0.10566000000E+00 0.  1.
         23    2    1    0    0    0 -0.17177951398E+02 -0.95444446833E+01 -0.14202296455E+02  0.10075368764E+03  0.97792749780E+02 0.  0.
         13    1    3    3    0    0 -0.17095060589E+02  0.34263913296E+02 -0.35344306195E+02  0.52110344418E+02  0.10566000000E+00 0. -1.
         22    1    1    0    0    0  0.17177951398E+02  0.95444446833E+01  0.14202296455E+02  0.24246312362E+02  0.00000000000E+00 0. -1.
</event>
<event>
 5    1  0.1325832E-009  0.9118800E+02  0.7818608E-02  0.1130116E+00
         25   -1    0    0    0    0  0.00000000000E+00  0.00000000000E+00  0.99999998245E-14  0.12500000000E+03  0.12500000000E+03 0.  0.
        -13    1    3    3    0    0 -0.74929607659E+01  0.49812578963E+02  0.62002223467E+01  0.50753240342E+02  0.10566000000E+00 0.  1.
         23    2    1    0    0    0 -0.97789694003E+01  0.90392348408E+01  0.25735870114E+02  0.96022922515E+02  0.91546330504E+02 0.  0.
         13    1    3    3    0    0 -0.22860086343E+01 -0.40773344122E+02  0.19535647767E+02  0.45269682174E+02  0.10566000000E+00 0. -1.
         22    1    1    0    0    0  0.97789694003E+01 -0.90392348408E+01 -0.25735870114E+02  0.28977077485E+02  0.00000000000E+00 0.  1.
</event>
<event>
 5    1  0.1325832E-009  0.9118800E+02  0.7818608E-02  0.1130116E+00
         25   -1    0    0    0    0  0.00000000000E+00  0.00000000000E+00  0.99999998245E-14  0.12500000000E+03  0.12500000000E+03 0.  0.
        -13    1    3    3    0    0  0.49362623328E+02  0.24580912372E+02  0.23038216186E+02  0.59763370085E+02  0.10566000000E+00 0. -1.
         23    2    1    0    0    0  0.27906448313E+02  0.11056961561E+02 -0.13541968923E+01  0.94952369384E+02  0.90072705888E+02 0.  0.
         13    1    3    3    0    0 -0.21456175015E+02 -0.13523950811E+02 -0.24392413078E+02  0.35188999299E+02  0.10566000000E+00 0.  1.
         22    1    1    0    0    0 -0.27906448313E+02 -0.11056961561E+02  0.13541968923E+01  0.30047630616E+02  0.00000000000E+00 0. -1.
</event>
<event>
 5    1  0.1325832E-009  0.9118800E+02  0.7818608E-02  0.1130116E+00
         25   -1    0    0    0    0  0.00000000000E+00  0.00000000000E+00  0.99999998245E-14  0.12500000000E+03  0.12500000000E+03 0.  0.
        -13    1    3    3    0    0  0.85956165392E+01  0.15098415059E+02  0.40252819922E+02  0.43842301909E+02  0.10566000000E+00 0.  1.
         23    2    1    0    0    0  0.20085356962E+02  0.18716393472E+02 -0.10199287980E+02  0.95712623467E+02  0.91121654214E+02 0.  0.
         13    1    3    3    0    0  0.11489740422E+02  0.36179784135E+01 -0.50452107902E+02  0.51870321558E+02  0.10566000000E+00 0. -1.
         22    1    1    0    0    0 -0.20085356962E+02 -0.18716393472E+02  0.10199287980E+02  0.29287376533E+02  0.00000000000E+00 0. -1.
</event>
<event>
 5    1  0.1325832E-009  0.9118800E+02  0.7818608E-02  0.1130116E+00
         25   -1    0    0    0    0  0.00000000000E+00  0.00000000000E+00  0.99999998245E-14  0.12500000000E+03  0.12500000000E+03 0.  0.
        -13    1    3    3    0    0  0.44559107463E+02 -0.15859850999E+02  0.18694621559E+02  0.50858125908E+02  0.10566000000E+00 0. -1.
         23    2    1    0    0    0 -0.50781005281E+01 -0.11868579365E+02  0.20596842374E+02  0.10069197258E+03  0.97713832930E+02 0.  0.
         13    1    3    3    0    0 -0.49637207991E+02  0.39912716339E+01  0.19022208147E+01  0.49833846675E+02  0.10566000000E+00 0.  1.
         22    1    1    0    0    0  0.50781005281E+01  0.11868579365E+02 -0.20596842374E+02  0.24308027417E+02  0.00000000000E+00 0. -1.
</event>
<event>
 5    1  0.1325832E-009  0.9118800E+02  0.7818608E-02  0.1130116E+00
         25   -1    0    0    0    0  0.00000000000E+00  0.00000000000E+00  0.99999998245E-14  0.12500000000E+03  0.12500000000E+03 0.  0.
        -13    1    3    3    0    0 -0.24115029058E+02 -0.28220923708E+02 -0.25513656848E+02  0.45043456919E+02  0.10566000000E+00 0.  1.
         23    2    1    0    0    0  0.91465748911E+01  0.98773229737E+01 -0.26112270409E+02  0.95621912804E+02  0.90997132927E+02 0.  0.
         13    1    3    3    0    0  0.33261603949E+02  0.38098246682E+02 -0.59861356110E+00  0.50578455885E+02  0.10566000000E+00 0. -1.
         22    1    1    0    0    0 -0.91465748911E+01 -0.98773229737E+01  0.26112270409E+02  0.29378087196E+02  0.00000000000E+00 0. -1.
</event>
<event>
 5    1  0.1325832E-009  0.9118800E+02  0.7818608E-02  0.1130116E+00
         25   -1    0    0    0    0  0.00000000000E+00  0.00000000000E+00  0.99999998245E-14  0.12500000000E+03  0.12500000000E+03 0.  0.
        -13    1    3    3    0    0 -0.43788986077E+02  0.21162153459E+02 -0.11900774609E+02  0.50069468151E+02  0.10566000000E+00 0.  1.
         23    2    1    0    0    0 -0.20143225616E+02 -0.13359708401E+02  0.11739164641E+02  0.98129210409E+02  0.94378507099E+02 0.  0.
         13    1    3    3    0    0  0.23645760461E+02 -0.34521861860E+02  0.23639939250E+02  0.48059742258E+02  0.10566000000E+00 0. -1.
         22    1    1    0    0    0  0.20143225616E+02  0.13359708401E+02 -0.11739164641E+02  0.26870789591E+02  0.00000000000E+00 0.  1.
</event>
<event>
 5    1  0.1325832E-009  0.9118800E+02  0.7818608E-02  0.1130116E+00
         25   -1    0    0    0    0  0.00000000000E+00  0.00000000000E+00  0.99999998245E-14  0.12500000000E+03  0.12500000000E+03 0.  0.
        -13    1    3    3    0    0 -0.10342422842E+01  0.28265308096E+02 -0.39612657468E+02  0.48674131678E+02  0.10566000000E+00 0. -1.
         23    2    1    0    0    0 -0.27652639350E+02  0.43075076435E+01 -0.95581222099E+01  0.95426687955E+02  0.90728562145E+02 0.  0.
         13    1    3    3    0    0 -0.26618397066E+02 -0.23957800452E+02  0.30054535258E+02  0.46752556278E+02  0.10566000000E+00 0.  1.
         22    1    1    0    0    0  0.27652639350E+02 -0.43075076435E+01  0.95581222099E+01  0.29573312045E+02  0.00000000000E+00 0.  1.
</event>
<event>
 5    1  0.1325832E-009  0.9118800E+02  0.7818608E-02  0.1130116E+00
         25   -1    0    0    0    0  0.00000000000E+00  0.00000000000E+00  0.99999998245E-14  0.12500000000E+03  0.12500000000E+03 0.  0.
        -13    1    3    3    0    0  0.20821262953E+02  0.44706953710E+02 -0.28559296828E+02  0.56990186000E+02  0.10566000000E+00 0.  1.
         23    2    1    0    0    0 -0.34853322062E+01  0.26481406015E+02 -0.59220496036E+00  0.98283654594E+02  0.94582840138E+02 0.  0.
         13    1    3    3    0    0 -0.24306595159E+02 -0.18225547695E+02  0.27967091868E+02  0.41293468595E+02  0.10566000000E+00 0. -1.
         22    1    1    0    0    0  0.34853322062E+01 -0.26481406015E+02  0.59220496036E+00  0.26716345406E+02  0.00000000000E+00 0.  1.
</event>
<event>
 5    1  0.1325832E-009  0.9118800E+02  0.7818608E-02  0.1130116E+00
         25   -1    0    0    0    0  0.00000000000E+00  0.00000000000E+00  0.99999998245E-14  0.12500000000E+03  0.12500000000E+03 0.  0.
        -13    1    3    3    0    0 -0.14675491272E+02 -0.52700929033E+01  0.38593113297E+02  0.41624313583E+02  0.10566000000E+00 0.  1.
         23    2    1    0    0    0 -0.44928489620E+01  0.24687016589E+02 -0.86277504642E+01  0.98465634398E+02  0.94823038337E+02 0.  0.
         13    1    3    3    0    0  0.10182642310E+02  0.29957109492E+02 -0.47220863761E+02  0.56841320814E+02  0.10566000000E+00 0. -1.
         22    1    1    0    0    0  0.44928489620E+01 -0.24687016589E+02  0.86277504642E+01  0.26534365602E+02  0.00000000000E+00 0. -1.
</event>
<event>
 5    1  0.1325832E-009  0.9118800E+02  0.7818608E-02  0.1130116E+00
         25   -1    0    0    0    0  0.00000000000E+00  0.00000000000E+00  0.99999998245E-14  0.12500000000E+03  0.12500000000E+03 0.  0.
        -13    1    3    3    0    0  0.35839693373E+02 -0.26664196032E+02  0.94079138219E+01  0.45650662400E+02  0.10566000000E+00 0. -1.
         23    2    1    0    0    0 -0.14186486599E+02 -0.21289407441E+02  0.13394481768E+02  0.96122544900E+02  0.91682256871E+02 0.  0.
         13    1    3    3    0    0 -0.50026179972E+02  0.53747885905E+01  0.39865679460E+01  0.50471882499E+02  0.10566000000E+00 0.  1.
         22    1    1    0    0    0  0.14186486599E+02  0.21289407441E+02 -0.13394481768E+02  0.28877455100E+02  0.00000000000E+00 0.  1.
</event>
<event>
 5    1  0.1325832E-009  0.9118800E+02  0.7818608E-02  0.1130116E+00
         25   -1    0    0    0    0  0.00000000000E+00  0.00000000000E+00  0.99999998245E-14  0.12500000000E+03  0.12500000000E+03 0.  0.
        -13    1    3    3    0    0  0.11401629228E+02 -0.25872820547E+02 -0.23111169305E+02  0.36517630027E+02  0.10566000000E+00 0.  1.
         23    2    1    0    0    0  0.12317640578E+02  0.18741991976E+02  0.17264837912E+02  0.96696976120E+02  0.92462122136E+02 0.  0.
         13    1    3    3    0    0  0.91601135024E+00  0.44614812523E+02  0.40376007217E+02  0.60179346092E+02  0.10566000000E+00 0. -1.
         22    1    1    0    0    0 -0.12317640578E+02 -0.18741991976E+02 -0.17264837912E+02  0.28303023880E+02  0.00000000000E+00 0. -1.
</event>
<event>
 5    1  0.1325832E-009  0.9118800E+02  0.7818608E-02  0.1130116E+00
         25   -1    0    0    0    0  0.00000000000E+00  0.00000000000E+00  0.99999998245E-14  0.12500000000E+03  0.12500000000E+03 0.  0.
        -13    1    3    3    0    0  0.39481213759E+01  0.47970059957E+02 -0.26428190765E+02  0.54910606861E+02  0.10566000000E+00 0.  1.
         23    2    1    0    0    0  0.15204199227E+02  0.91179867404E+01 -0.23632233343E+02  0.95457017600E+02  0.90770338768E+02 0.  0.
         13    1    3    3    0    0  0.11256077851E+02 -0.38852073217E+02  0.27959574228E+01  0.40546410739E+02  0.10566000000E+00 0. -1.
         22    1    1    0    0    0 -0.15204199227E+02 -0.91179867404E+01  0.23632233343E+02  0.29542982400E+02  0.00000000000E+00 0.  1.
</event>
<event>
 5    1  0.1325832E-009  0.9118800E+02  0.7818608E-02  0.1130116E+00
         25   -1    0    0    0    0  0.00000000000E+00  0.00000000000E+00  0.99999998245E-14  0.12500000000E+03  0.12500000000E+03 0.  0.
        -13    1    3    3    0    0  0.32830593623E+02  0.11476974477E+02  0.38363610390E+02  0.51781720587E+02  0.10566000000E+00 0.  1.
         23    2    1    0    0    0 -0.60971458680E+01 -0.50997740048E+01  0.28751150548E+02  0.95170290976E+02  0.90374624447E+02 0.  0.
         13    1    3    3    0    0 -0.38927739491E+02 -0.16576748482E+02 -0.96124598417E+01  0.43388570388E+02  0.10566000000E+00 0. -1.
         22    1    1    0    0    0  0.60971458680E+01  0.50997740048E+01 -0.28751150548E+02  0.29829709024E+02  0.00000000000E+00 0. -1.
</event>
<event>
 5    1  0.1325832E-009  0.9118800E+02  0.7818608E-02  0.1130116E+00
         25   -1    0    0    0    0  0.00000000000E+00  0.00000000000E+00  0.99999998245E-14  0.12500000000E+03  0.12500000000E+03 0.  0.
        -13    1    3    3    0    0 -0.10699591051E+02  0.40461367268E+02  0.39081540323E+02  0.57262391218E+02  0.10566000000E+00 0. -1.
         23    2    1    0    0    0  0.11684002646E+02  0.96424518968E+01  0.20130098819E+02  0.99806475537E+02  0.96574421480E+02 0.  0.
         13    1    3    3    0    0  0.22383593696E+02 -0.30818915372E+02 -0.18951441504E+02  0.42544084319E+02  0.10566000000E+00 0.  1.
         22    1    1    0    0    0 -0.11684002646E+02 -0.96424518968E+01 -0.20130098819E+02  0.25193524463E+02  0.00000000000E+00 0. -1.
</event>
<event>
 5    1  0.1325832E-009  0.9118800E+02  0.7818608E-02  0.1130116E+00
         25   -1    0    0    0    0  0.00000000000E+00  0.00000000000E+00  0.99999998245E-14  0.12500000000E+03  0.12500000000E+03 0.  0.
        -13    1    3    3    0    0 -0.34958876224E+01  0.60340838829E+02 -0.40268162943E-01  0.60442128077E+02  0.10566000000E+00 0. -1.
         23    2    1    0    0    0  0.93082683097E+01  0.26835358166E+02 -0.30278713480E+01  0.96435191026E+02  0.92107533657E+02 0.  0.
         13    1    3    3    0    0  0.12804155932E+02 -0.33505480663E+02 -0.29876031850E+01  0.35993062949E+02  0.10566000000E+00 0.  1.
         22    1    1    0    0    0 -0.93082683097E+01 -0.26835358166E+02  0.30278713480E+01  0.28564808974E+02  0.00000000000E+00 0. -1.
</event>
<event>
 5    1  0.1325832E-009  0.9118800E+02  0.7818608E-02  0.1130116E+00
         25   -1    0    0    0    0  0.00000000000E+00  0.00000000000E+00  0.99999998245E-14  0.12500000000E+03  0.12500000000E+03 0.  0.
        -13    1    3    3    0    0 -0.20220792600E+02 -0.31785310134E+02 -0.23861289024E+02  0.44593258141E+02  0.10566000000E+00 0. -1.
         23    2    1    0    0    0  0.18407992938E+02 -0.21654881193E+02  0.77671864204E+01  0.95536170167E+02  0.90879274545E+02 0.  0.
         13    1    3    3    0    0  0.38628785539E+02  0.10130428941E+02  0.31628475444E+02  0.50942912026E+02  0.10566000000E+00 0.  1.
         22    1    1    0    0    0 -0.18407992938E+02  0.21654881193E+02 -0.77671864204E+01  0.29463829833E+02  0.00000000000E+00 0.  1.
</event>
<event>
 5    1  0.1325832E-009  0.9118800E+02  0.7818608E-02  0.1130116E+00
         25   -1    0    0    0    0  0.00000000000E+00  0.00000000000E+00  0.99999998245E-14  0.12500000000E+03  0.12500000000E+03 0.  0.
        -13    1    3    3    0    0  0.13636311596E+02 -0.29267779517E+02 -0.49748062837E+02  0.59307949146E+02  0.10566000000E+00 0. -1.
         23    2    1    0    0    0  0.19679738582E+02 -0.16170722951E+02 -0.19158558762E+02  0.93127837142E+02  0.87504052966E+02 0.  0.
         13    1    3    3    0    0  0.60434269858E+01  0.13097056566E+02  0.30589504076E+02  0.33819887996E+02  0.10566000000E+00 0.  1.
         22    1    1    0    0    0 -0.19679738582E+02  0.16170722951E+02  0.19158558762E+02  0.31872162858E+02  0.00000000000E+00 0. -1.
</event>
<event>
 5    1  0.1325832E-009  0.9118800E+02  0.7818608E-02  0.1130116E+00
         25   -1    0    0    0    0  0.00000000000E+00  0.00000000000E+00  0.99999998245E-14  0.12500000000E+03  0.12500000000E+03 0.  0.
        -13    1    3    3    0    0 -0.44702230698E+02  0.20117574752E+02 -0.35333208165E+02  0.60427253839E+02  0.10566000000E+00 0. -1.
         23    2    1    0    0    0 -0.23226813623E+02 -0.17477508167E+01 -0.17285666503E+02  0.95994245908E+02  0.91507166261E+02 0.  0.
         13    1    3    3    0    0  0.21475417075E+02 -0.21865325569E+02  0.18047541662E+02  0.35566992069E+02  0.10566000000E+00 0.  1.
         22    1    1    0    0    0  0.23226813623E+02  0.17477508167E+01  0.17285666503E+02  0.29005754092E+02  0.00000000000E+00 0. -1.
</event>
<event>
 5    1  0.1325832E-009  0.9118800E+02  0.7818608E-02  0.1130116E+00
         25   -1    0    0    0    0  0.00000000000E+00  0.00000000000E+00  0.99999998245E-14  0.12500000000E+03  0.12500000000E+03 0.  0.
        -13    1    3    3    0    0  0.52501681571E+02  0.11438913851E+02 -0.29039039178E+02  0.61078247177E+02  0.10566000000E+00 0.  1.
         23    2    1    0    0    0  0.21620397323E+02  0.12789509750E+02 -0.18740330763E+02  0.93659720213E+02  0.88260580403E+02 0.  0.
         13    1    3    3    0    0 -0.30881284248E+02  0.13505958993E+01  0.10298708415E+02  0.32581473035E+02  0.10566000000E+00 0. -1.
         22    1    1    0    0    0 -0.21620397323E+02 -0.12789509750E+02  0.18740330763E+02  0.31340279787E+02  0.00000000000E+00 0.  1.
</event>
<event>
 5    1  0.1325832E-009  0.9118800E+02  0.7818608E-02  0.1130116E+00
         25   -1    0    0    0    0  0.00000000000E+00  0.00000000000E+00  0.99999998245E-14  0.12500000000E+03  0.12500000000E+03 0.  0.
        -13    1    3    3    0    0 -0.25744590501E+02  0.17681223071E+02 -0.12127960786E+02  0.33503853304E+02  0.10566000000E+00 0. -1.
         23    2    1    0    0    0  0.22762844174E+02 -0.15810581658E+02  0.85886164438E+01  0.95984729889E+02  0.91494166328E+02 0.  0.
         13    1    3    3    0    0  0.48507434675E+02 -0.33491804728E+02  0.20716577230E+02  0.62480876585E+02  0.10566000000E+00 0.  1.
         22    1    1    0    0    0 -0.22762844174E+02  0.15810581658E+02 -0.85886164438E+01  0.29015270111E+02  0.00000000000E+00 0.  1.
</event>
<event>
 5    1  0.1325832E-009  0.9118800E+02  0.7818608E-02  0.1130116E+00
         25   -1    0    0    0    0  0.00000000000E+00  0.00000000000E+00  0.99999998245E-14  0.12500000000E+03  0.12500000000E+03 0.  0.
        -13    1    3    3    0    0 -0.25817778421E+02  0.33991999356E+02  0.12041919371E+02  0.44351242249E+02  0.10566000000E+00 0.  1.
         23    2    1    0    0    0 -0.82241737697E+01 -0.15727279950E+02  0.20630057941E+02  0.97786333223E+02  0.93923284151E+02 0.  0.
         13    1    3    3    0    0  0.17593604652E+02 -0.49719279306E+02  0.85881385700E+01  0.53435090974E+02  0.10566000000E+00 0. -1.
         22    1    1    0    0    0  0.82241737697E+01  0.15727279950E+02 -0.20630057941E+02  0.27213666777E+02  0.00000000000E+00 0. -1.
</event>
<event>
 5    1  0.1325832E-009  0.9118800E+02  0.7818608E-02  0.1130116E+00
         25   -1    0    0    0    0  0.00000000000E+00  0.00000000000E+00  0.99999998245E-14  0.12500000000E+03  0.12500000000E+03 0.  0.
        -13    1    3    3    0    0  0.21400267962E+02  0.21412712754E+02 -0.21761461188E+02  0.37283348742E+02  0.10566000000E+00 0.  1.
         23    2    1    0    0    0  0.97671598802E+01  0.40389682410E+02  0.15468830012E+02  0.80660304926E+02  0.67380087797E+02 0.  0.
         13    1    3    3    0    0 -0.11633108081E+02  0.18976969656E+02  0.37230291200E+02  0.43376956184E+02  0.10566000000E+00 0. -1.
         22    1    1    0    0    0 -0.97671598802E+01 -0.40389682410E+02 -0.15468830012E+02  0.44339695074E+02  0.00000000000E+00 0. -1.
</event>
<event>
 5    1  0.1325832E-009  0.9118800E+02  0.7818608E-02  0.1130116E+00
         25   -1    0    0    0    0  0.00000000000E+00  0.00000000000E+00  0.99999998245E-14  0.12500000000E+03  0.12500000000E+03 0.  0.
        -13    1    3    3    0    0 -0.29176784133E+02  0.22872124160E+02 -0.47770426041E+01  0.37379808667E+02  0.10566000000E+00 0. -1.
         23    2    1    0    0    0  0.24911657568E+01  0.46846897218E+02 -0.86792783637E+01  0.77290802158E+02  0.60808720917E+02 0.  0.
         13    1    3    3    0    0  0.31667949890E+02  0.23974773059E+02 -0.39022357596E+01  0.39910993491E+02  0.10566000000E+00 0.  1.
         22    1    1    0    0    0 -0.24911657568E+01 -0.46846897218E+02  0.86792783637E+01  0.47709197842E+02  0.00000000000E+00 0. -1.
</event>
<event>
 5    1  0.1325832E-009  0.9118800E+02  0.7818608E-02  0.1130116E+00
         25   -1    0    0    0    0  0.00000000000E+00  0.00000000000E+00  0.99999998245E-14  0.12500000000E+03  0.12500000000E+03 0.  0.
        -13    1    3    3    0    0  0.41914411201E+02  0.14714248509E+02 -0.34843549987E+02  0.56457161771E+02  0.10566000000E+00 0. -1.
         23    2    1    0    0    0  0.17985258923E+01  0.14204757133E+02 -0.22313695014E+02  0.98487534898E+02  0.94851904169E+02 0.  0.
         13    1    3    3    0    0 -0.40115885308E+02 -0.50949137604E+00  0.12529854972E+02  0.42030373127E+02  0.10566000000E+00 0.  1.
         22    1    1    0    0    0 -0.17985258923E+01 -0.14204757133E+02  0.22313695014E+02  0.26512465102E+02  0.00000000000E+00 0. -1.
</event>
<event>
 5    1  0.1325832E-009  0.9118800E+02  0.7818608E-02  0.1130116E+00
         25   -1    0    0    0    0  0.00000000000E+00  0.00000000000E+00  0.99999998245E-14  0.12500000000E+03  0.12500000000E+03 0.  0.
        -13    1    3    3    0    0  0.36411939577E+02  0.39847695183E+01  0.50937501186E+01  0.36981957577E+02  0.10566000000E+00 0. -1.
         23    2    1    0    0    0 -0.12090861070E+02 -0.17745669188E+02 -0.19908840460E+02  0.95717588473E+02  0.91128464918E+02 0.  0.
         13    1    3    3    0    0 -0.48502800648E+02 -0.21730438707E+02 -0.25002590579E+02  0.58735630896E+02  0.10566000000E+00 0.  1.
         22    1    1    0    0    0  0.12090861070E+02  0.17745669188E+02  0.19908840460E+02  0.29282411527E+02  0.00000000000E+00 0.  1.
</event>
<event>
 5    1  0.1325832E-009  0.9118800E+02  0.7818608E-02  0.1130116E+00
         25   -1    0    0    0    0  0.00000000000E+00  0.00000000000E+00  0.99999998245E-14  0.12500000000E+03  0.12500000000E+03 0.  0.
        -13    1    3    3    0    0  0.25414045833E+01  0.15457954299E+02 -0.44430994979E+02  0.47111904730E+02  0.10566000000E+00 0.  1.
         23    2    1    0    0    0  0.17355677176E+02  0.25338119158E+02 -0.75494366674E+00  0.94278513177E+02  0.89132644380E+02 0.  0.
         13    1    3    3    0    0  0.14814272593E+02  0.98801648592E+01  0.43676051313E+02  0.47166608447E+02  0.10566000000E+00 0. -1.
         22    1    1    0    0    0 -0.17355677176E+02 -0.25338119158E+02  0.75494366674E+00  0.30721486823E+02  0.00000000000E+00 0.  1.
</event>
<event>
 5    1  0.1325832E-009  0.9118800E+02  0.7818608E-02  0.1130116E+00
         25   -1    0    0    0    0  0.00000000000E+00  0.00000000000E+00  0.99999998245E-14  0.12500000000E+03  0.12500000000E+03 0.  0.
        -13    1    3    3    0    0 -0.15275890229E+02 -0.55087859276E+02  0.54035880284E+01  0.57421555095E+02  0.10566000000E+00 0.  1.
         23    2    1    0    0    0 -0.16953576090E+02 -0.18477794163E+02  0.15605737820E+02  0.95463722775E+02  0.90779572008E+02 0.  0.
         13    1    3    3    0    0 -0.16776858613E+01  0.36610065113E+02  0.10202149791E+02  0.38042167680E+02  0.10566000000E+00 0. -1.
         22    1    1    0    0    0  0.16953576090E+02  0.18477794163E+02 -0.15605737820E+02  0.29536277225E+02  0.00000000000E+00 0.  1.
</event>
<event>
 5    1  0.1325832E-009  0.9118800E+02  0.7818608E-02  0.1130116E+00
         25   -1    0    0    0    0  0.00000000000E+00  0.00000000000E+00  0.99999998245E-14  0.12500000000E+03  0.12500000000E+03 0.  0.
        -13    1    3    3    0    0 -0.13233573134E+02  0.12554947653E+02  0.31288554525E+02  0.36217937224E+02  0.10566000000E+00 0. -1.
         23    2    1    0    0    0 -0.11654691793E+02 -0.67062222800E+01 -0.25482013144E+02  0.96187880121E+02  0.91771291972E+02 0.  0.
         13    1    3    3    0    0  0.15788813416E+01 -0.19261169933E+02 -0.56770567669E+02  0.59969942897E+02  0.10566000000E+00 0.  1.
         22    1    1    0    0    0  0.11654691793E+02  0.67062222800E+01  0.25482013144E+02  0.28812119879E+02  0.00000000000E+00 0.  1.
</event>
<event>
 5    1  0.1325832E-009  0.9118800E+02  0.7818608E-02  0.1130116E+00
         25   -1    0    0    0    0  0.00000000000E+00  0.00000000000E+00  0.99999998245E-14  0.12500000000E+03  0.12500000000E+03 0.  0.
        -13    1    3    3    0    0  0.18386357427E+02 -0.34959611590E+02 -0.43149534514E+02  0.58498940800E+02  0.10566000000E+00 0.  1.
         23    2    1    0    0    0  0.27192831782E+01 -0.27478442448E+02 -0.10536728478E+02  0.95445271996E+02  0.90754162433E+02 0.  0.
         13    1    3    3    0    0 -0.15667074249E+02  0.74811691419E+01  0.32612806035E+02  0.36946331195E+02  0.10566000000E+00 0. -1.
         22    1    1    0    0    0 -0.27192831782E+01  0.27478442448E+02  0.10536728478E+02  0.29554728004E+02  0.00000000000E+00 0.  1.
</event>
<event>
 5    1  0.1325832E-009  0.9118800E+02  0.7818608E-02  0.1130116E+00
         25   -1    0    0    0    0  0.00000000000E+00  0.00000000000E+00  0.99999998245E-14  0.12500000000E+03  0.12500000000E+03 0.  0.
        -13    1    3    3    0    0  0.43540685168E+01  0.16993436893E+02 -0.41043608282E+01  0.18016430055E+02  0.10566000000E+00 0. -1.
         23    2    1    0    0    0  0.26715932732E+01 -0.44613758203E+02  0.37695579092E+01  0.80147637760E+02  0.66422205926E+02 0.  0.
         13    1    3    3    0    0 -0.16824752436E+01 -0.61607195096E+02  0.78739187374E+01  0.62131207705E+02  0.10566000000E+00 0.  1.
         22    1    1    0    0    0 -0.26715932732E+01  0.44613758203E+02 -0.37695579092E+01  0.44852362240E+02  0.00000000000E+00 0.  1.
</event>
<event>
 5    1  0.1325832E-009  0.9118800E+02  0.7818608E-02  0.1130116E+00
         25   -1    0    0    0    0  0.00000000000E+00  0.00000000000E+00  0.99999998245E-14  0.12500000000E+03  0.12500000000E+03 0.  0.
        -13    1    3    3    0    0  0.15981434903E+02  0.29627712798E+02 -0.32912763302E+02  0.47079388053E+02  0.10566000000E+00 0.  1.
         23    2    1    0    0    0  0.29747687014E+02 -0.55854856365E+00  0.19215152969E+01  0.95185086278E+02  0.90395085981E+02 0.  0.
         13    1    3    3    0    0  0.13766252111E+02 -0.30186261361E+02  0.34834278599E+02  0.48105698225E+02  0.10566000000E+00 0. -1.
         22    1    1    0    0    0 -0.29747687014E+02  0.55854856365E+00 -0.19215152969E+01  0.29814913722E+02  0.00000000000E+00 0.  1.
</event>
<event>
 5    1  0.1325832E-009  0.9118800E+02  0.7818608E-02  0.1130116E+00
         25   -1    0    0    0    0  0.00000000000E+00  0.00000000000E+00  0.99999998245E-14  0.12500000000E+03  0.12500000000E+03 0.  0.
        -13    1    3    3    0    0 -0.44686624165E+02  0.26033317445E+02 -0.34746275578E+01  0.51833504581E+02  0.10566000000E+00 0. -1.
         23    2    1    0    0    0 -0.10913990700E+01  0.23691668603E+02 -0.14937125657E+02  0.96971371136E+02  0.92832336952E+02 0.  0.
         13    1    3    3    0    0  0.43595225095E+02 -0.23416488425E+01 -0.11462498099E+02  0.45137866555E+02  0.10566000000E+00 0.  1.
         22    1    1    0    0    0  0.10913990700E+01 -0.23691668603E+02  0.14937125657E+02  0.28028628864E+02  0.00000000000E+00 0. -1.
</event>
<event>
 5    1  0.1325832E-009  0.9118800E+02  0.7818608E-02  0.1130116E+00
         25   -1    0    0    0    0  0.00000000000E+00  0.00000000000E+00  0.99999998245E-14  0.12500000000E+03  0.12500000000E+03 0.  0.
        -13    1    3    3    0    0 -0.22799228882E+02 -0.16174275703E+02 -0.21814353883E+02  0.35458274514E+02  0.10566000000E+00 0. -1.
         23    2    1    0    0    0  0.29210933200E+02  0.60022838950E+01 -0.12050787644E+02  0.92835928224E+02  0.87086061204E+02 0.  0.
         13    1    3    3    0    0  0.52010162082E+02  0.22176559598E+02  0.97635662399E+01  0.57377653710E+02  0.10566000000E+00 0.  1.
         22    1    1    0    0    0 -0.29210933200E+02 -0.60022838950E+01  0.12050787644E+02  0.32164071776E+02  0.00000000000E+00 0.  1.
</event>
<event>
 5    1  0.1325832E-009  0.9118800E+02  0.7818608E-02  0.1130116E+00
         25   -1    0    0    0    0  0.00000000000E+00  0.00000000000E+00  0.99999998245E-14  0.12500000000E+03  0.12500000000E+03 0.  0.
        -13    1    3    3    0    0 -0.49594876323E+01 -0.32700483862E+02  0.47228700284E+02  0.57658299116E+02  0.10566000000E+00 0.  1.
         23    2    1    0    0    0  0.87553884424E+01 -0.26893991113E+02  0.15407956289E+02  0.92792101873E+02  0.87023131800E+02 0.  0.
         13    1    3    3    0    0  0.13714876075E+02  0.58064927493E+01 -0.31820743994E+02  0.35133802757E+02  0.10566000000E+00 0. -1.
         22    1    1    0    0    0 -0.87553884424E+01  0.26893991113E+02 -0.15407956289E+02  0.32207898127E+02  0.00000000000E+00 0.  1.
</event>
<event>
 5    1  0.1325832E-009  0.9118800E+02  0.7818608E-02  0.1130116E+00
         25   -1    0    0    0    0  0.00000000000E+00  0.00000000000E+00  0.99999998245E-14  0.12500000000E+03  0.12500000000E+03 0.  0.
        -13    1    3    3    0    0  0.38120502447E+02 -0.22660228263E+02 -0.50431046403E+01  0.44632977945E+02  0.10566000000E+00 0. -1.
         23    2    1    0    0    0 -0.12753847063E+02 -0.20448022579E+02 -0.15129814449E+02  0.96544885740E+02  0.92256281276E+02 0.  0.
         13    1    3    3    0    0 -0.50874349511E+02  0.22122056842E+01 -0.10086709809E+02  0.51911907795E+02  0.10566000000E+00 0.  1.
         22    1    1    0    0    0  0.12753847063E+02  0.20448022579E+02  0.15129814449E+02  0.28455114260E+02  0.00000000000E+00 0.  1.
</event>
<event>
 5    1  0.1325832E-009  0.9118800E+02  0.7818608E-02  0.1130116E+00
         25   -1    0    0    0    0  0.00000000000E+00  0.00000000000E+00  0.99999998245E-14  0.12500000000E+03  0.12500000000E+03 0.  0.
        -13    1    3    3    0    0  0.21539351756E+02 -0.48630306639E+02  0.20078652294E+02  0.56850803335E+02  0.10566000000E+00 0. -1.
         23    2    1    0    0    0  0.10917739101E+02 -0.25230371926E+02  0.29919113244E+02  0.84368460134E+02  0.73939942071E+02 0.  0.
         13    1    3    3    0    0 -0.10621612655E+02  0.23399934713E+02  0.98404609501E+01  0.27517656799E+02  0.10566000000E+00 0.  1.
         22    1    1    0    0    0 -0.10917739101E+02  0.25230371926E+02 -0.29919113244E+02  0.40631539866E+02  0.00000000000E+00 0. -1.
</event>
<event>
 5    1  0.1325832E-009  0.9118800E+02  0.7818608E-02  0.1130116E+00
         25   -1    0    0    0    0  0.00000000000E+00  0.00000000000E+00  0.99999998245E-14  0.12500000000E+03  0.12500000000E+03 0.  0.
        -13    1    3    3    0    0 -0.28286260725E+02  0.11308371715E+02 -0.49979930294E+02  0.58532011864E+02  0.10566000000E+00 0.  1.
         23    2    1    0    0    0  0.13044081900E+01 -0.34100281807E+01 -0.24411164159E+02  0.10031731966E+03  0.97233378611E+02 0.  0.
         13    1    3    3    0    0  0.29590668915E+02 -0.14718399896E+02  0.25568766134E+02  0.41785307801E+02  0.10566000000E+00 0. -1.
         22    1    1    0    0    0 -0.13044081900E+01  0.34100281807E+01  0.24411164159E+02  0.24682680335E+02  0.00000000000E+00 0.  1.
</event>
<event>
 5    1  0.1325832E-009  0.9118800E+02  0.7818608E-02  0.1130116E+00
         25   -1    0    0    0    0  0.00000000000E+00  0.00000000000E+00  0.99999998245E-14  0.12500000000E+03  0.12500000000E+03 0.  0.
        -13    1    3    3    0    0 -0.30681997770E+02  0.34111461151E+01  0.52528525393E+02  0.60928466656E+02  0.10566000000E+00 0.  1.
         23    2    1    0    0    0 -0.17042297919E+02  0.10868919412E+02  0.22420437761E+02  0.94813092955E+02  0.89879214720E+02 0.  0.
         13    1    3    3    0    0  0.13639699851E+02  0.74577732967E+01 -0.30108087632E+02  0.33884626299E+02  0.10566000000E+00 0. -1.
         22    1    1    0    0    0  0.17042297919E+02 -0.10868919412E+02 -0.22420437761E+02  0.30186907045E+02  0.00000000000E+00 0.  1.
</event>
<event>
 5    1  0.1325832E-009  0.9118800E+02  0.7818608E-02  0.1130116E+00
         25   -1    0    0    0    0  0.00000000000E+00  0.00000000000E+00  0.99999998245E-14  0.12500000000E+03  0.12500000000E+03 0.  0.
        -13    1    3    3    0    0  0.25457743428E+02  0.43869852198E+02 -0.10196287094E+02  0.51736216201E+02  0.10566000000E+00 0.  1.
         23    2    1    0    0    0 -0.31691555531E+01  0.82866388020E+01 -0.23972873995E+02  0.99438102239E+02  0.96096438850E+02 0.  0.
         13    1    3    3    0    0 -0.28626898981E+02 -0.35583213396E+02 -0.13776586902E+02  0.47701886038E+02  0.10566000000E+00 0. -1.
         22    1    1    0    0    0  0.31691555531E+01 -0.82866388020E+01  0.23972873995E+02  0.25561897761E+02  0.00000000000E+00 0.  1.
</event>
<event>
 5    1  0.1325832E-009  0.9118800E+02  0.7818608E-02  0.1130116E+00
         25   -1    0    0    0    0  0.00000000000E+00  0.00000000000E+00  0.99999998245E-14  0.12500000000E+03  0.12500000000E+03 0.  0.
        -13    1    3    3    0    0 -0.22460660071E+02 -0.28806885032E+02  0.74426931588E+01  0.37278984985E+02  0.10566000000E+00 0. -1.
         23    2    1    0    0    0  0.27706447193E+02 -0.14635224731E+02  0.15522108456E+02  0.90031830619E+02  0.82963592345E+02 0.  0.
         13    1    3    3    0    0  0.50167107263E+02  0.14171660301E+02  0.80794152968E+01  0.52752845634E+02  0.10566000000E+00 0.  1.
         22    1    1    0    0    0 -0.27706447193E+02  0.14635224731E+02 -0.15522108456E+02  0.34968169381E+02  0.00000000000E+00 0.  1.
</event>
<event>
 5    1  0.1325832E-009  0.9118800E+02  0.7818608E-02  0.1130116E+00
         25   -1    0    0    0    0  0.00000000000E+00  0.00000000000E+00  0.99999998245E-14  0.12500000000E+03  0.12500000000E+03 0.  0.
        -13    1    3    3    0    0  0.27727429765E+02 -0.21174475365E+02 -0.14416174823E+02  0.37749252031E+02  0.10566000000E+00 0.  1.
         23    2    1    0    0    0 -0.18710564989E+02  0.17239567600E+02 -0.78581421987E+01  0.98372226303E+02  0.94699823525E+02 0.  0.
         13    1    3    3    0    0 -0.46437994754E+02  0.38414042965E+02  0.65580326242E+01  0.60622974272E+02  0.10566000000E+00 0. -1.
         22    1    1    0    0    0  0.18710564989E+02 -0.17239567600E+02  0.78581421987E+01  0.26627773697E+02  0.00000000000E+00 0. -1.
</event>
<event>
 5    1  0.1325832E-009  0.9118800E+02  0.7818608E-02  0.1130116E+00
         25   -1    0    0    0    0  0.00000000000E+00  0.00000000000E+00  0.99999998245E-14  0.12500000000E+03  0.12500000000E+03 0.  0.
        -13    1    3    3    0    0  0.67338552654E+01  0.40220897509E+02 -0.30410976930E+02  0.50871446658E+02  0.10566000000E+00 0.  1.
         23    2    1    0    0    0 -0.72821371151E+01 -0.29001836555E+01 -0.27609045443E+02  0.96299826194E+02  0.91923645209E+02 0.  0.
         13    1    3    3    0    0 -0.14015992381E+02 -0.43121081165E+02  0.28019314869E+01  0.45428379537E+02  0.10566000000E+00 0. -1.
         22    1    1    0    0    0  0.72821371151E+01  0.29001836555E+01  0.27609045443E+02  0.28700173806E+02  0.00000000000E+00 0. -1.
</event>
<event>
 5    1  0.1325832E-009  0.9118800E+02  0.7818608E-02  0.1130116E+00
         25   -1    0    0    0    0  0.00000000000E+00  0.00000000000E+00  0.99999998245E-14  0.12500000000E+03  0.12500000000E+03 0.  0.
        -13    1    3    3    0    0 -0.27198668756E+02  0.23681655957E+02 -0.30159781860E+02  0.47012892029E+02  0.10566000000E+00 0. -1.
         23    2    1    0    0    0  0.16252808313E+02  0.43460767893E+01 -0.25020478424E+02  0.94849270289E+02  0.89929514467E+02 0.  0.
         13    1    3    3    0    0  0.43451477069E+02 -0.19335579168E+02  0.51393034361E+01  0.47836378261E+02  0.10566000000E+00 0.  1.
         22    1    1    0    0    0 -0.16252808313E+02 -0.43460767893E+01  0.25020478424E+02  0.30150729711E+02  0.00000000000E+00 0. -1.
</event>
<event>
 5    1  0.1325832E-009  0.9118800E+02  0.7818608E-02  0.1130116E+00
         25   -1    0    0    0    0  0.00000000000E+00  0.00000000000E+00  0.99999998245E-14  0.12500000000E+03  0.12500000000E+03 0.  0.
        -13    1    3    3    0    0 -0.44656662970E+02  0.13493177173E+02 -0.39868014222E+02  0.61365732293E+02  0.10566000000E+00 0.  1.
         23    2    1    0    0    0 -0.18094256342E+02  0.47238258823E+01 -0.26999663483E+02  0.92156454641E+02  0.86105247577E+02 0.  0.
         13    1    3    3    0    0  0.26562406628E+02 -0.87693512907E+01  0.12868350739E+02  0.30790722348E+02  0.10566000000E+00 0. -1.
         22    1    1    0    0    0  0.18094256342E+02 -0.47238258823E+01  0.26999663483E+02  0.32843545359E+02  0.00000000000E+00 0.  1.
</event>
<event>
 5    1  0.1325832E-009  0.9118800E+02  0.7818608E-02  0.1130116E+00
         25   -1    0    0    0    0  0.00000000000E+00  0.00000000000E+00  0.99999998245E-14  0.12500000000E+03  0.12500000000E+03 0.  0.
        -13    1    3    3    0    0  0.42224661863E+02 -0.10516039879E+02 -0.43026816616E+02  0.61194993883E+02  0.10566000000E+00 0.  1.
         23    2    1    0    0    0  0.30210224846E+02  0.96186725407E+00 -0.30972842516E+02  0.81722987079E+02  0.69323493634E+02 0.  0.
         13    1    3    3    0    0 -0.12014437017E+02  0.11477907133E+02  0.12053974100E+02  0.20527993195E+02  0.10566000000E+00 0. -1.
         22    1    1    0    0    0 -0.30210224846E+02 -0.96186725407E+00  0.30972842516E+02  0.43277012921E+02  0.00000000000E+00 0.  1.
</event>
<event>
 5    1  0.1325832E-009  0.9118800E+02  0.7818608E-02  0.1130116E+00
         25   -1    0    0    0    0  0.00000000000E+00  0.00000000000E+00  0.99999998245E-14  0.12500000000E+03  0.12500000000E+03 0.  0.
        -13    1    3    3    0    0 -0.35649817197E+02 -0.12833534296E+02  0.26869068246E+02  0.46449618526E+02  0.10566000000E+00 0. -1.
         23    2    1    0    0    0  0.41670656112E+01  0.17593394970E+02  0.21591003410E+02  0.96838618453E+02  0.92653411233E+02 0.  0.
         13    1    3    3    0    0  0.39816882809E+02  0.30426929267E+02 -0.52780648359E+01  0.50388999927E+02  0.10566000000E+00 0.  1.
         22    1    1    0    0    0 -0.41670656112E+01 -0.17593394970E+02 -0.21591003410E+02  0.28161381547E+02  0.00000000000E+00 0. -1.
</event>
<event>
 5    1  0.1325832E-009  0.9118800E+02  0.7818608E-02  0.1130116E+00
         25   -1    0    0    0    0  0.00000000000E+00  0.00000000000E+00  0.99999998245E-14  0.12500000000E+03  0.12500000000E+03 0.  0.
        -13    1    3    3    0    0 -0.50060164572E+01  0.21286069224E+02  0.55667658552E+02  0.59808497026E+02  0.10566000000E+00 0.  1.
         23    2    1    0    0    0 -0.14394229420E+02  0.52089357432E+01  0.25419273179E+02  0.95327347589E+02  0.90591593965E+02 0.  0.
         13    1    3    3    0    0 -0.93882129630E+01 -0.16077133481E+02 -0.30248385373E+02  0.35518850563E+02  0.10566000000E+00 0. -1.
         22    1    1    0    0    0  0.14394229420E+02 -0.52089357432E+01 -0.25419273179E+02  0.29672652411E+02  0.00000000000E+00 0.  1.
</event>
<event>
 5    1  0.1325832E-009  0.9118800E+02  0.7818608E-02  0.1130116E+00
         25   -1    0    0    0    0  0.00000000000E+00  0.00000000000E+00  0.99999998245E-14  0.12500000000E+03  0.12500000000E+03 0.  0.
        -13    1    3    3    0    0  0.28212392657E+02  0.39339537244E+02  0.27212049768E+02  0.55534179625E+02  0.10566000000E+00 0.  1.
         23    2    1    0    0    0  0.15352136218E+01  0.24368085702E+02 -0.51284032400E+01  0.10005083165E+03  0.96890184807E+02 0.  0.
         13    1    3    3    0    0 -0.26677179035E+02 -0.14971451541E+02 -0.32340453008E+02  0.44516652023E+02  0.10566000000E+00 0. -1.
         22    1    1    0    0    0 -0.15352136218E+01 -0.24368085702E+02  0.51284032400E+01  0.24949168352E+02  0.00000000000E+00 0. -1.
</event>
<event>
 5    1  0.1325832E-009  0.9118800E+02  0.7818608E-02  0.1130116E+00
         25   -1    0    0    0    0  0.00000000000E+00  0.00000000000E+00  0.99999998245E-14  0.12500000000E+03  0.12500000000E+03 0.  0.
        -13    1    3    3    0    0  0.11838659738E+02  0.50602337169E+02 -0.38537740376E+01  0.52111545071E+02  0.10566000000E+00 0. -1.
         23    2    1    0    0    0  0.10304147107E+02  0.12736265567E+02 -0.24697660927E+02  0.95362821263E+02  0.90640527999E+02 0.  0.
         13    1    3    3    0    0 -0.15345126311E+01 -0.37866071602E+02 -0.20843886889E+02  0.43251276192E+02  0.10566000000E+00 0.  1.
         22    1    1    0    0    0 -0.10304147107E+02 -0.12736265567E+02  0.24697660927E+02  0.29637178737E+02  0.00000000000E+00 0. -1.
</event>
<event>
 5    1  0.1325832E-009  0.9118800E+02  0.7818608E-02  0.1130116E+00
         25   -1    0    0    0    0  0.00000000000E+00  0.00000000000E+00  0.99999998245E-14  0.12500000000E+03  0.12500000000E+03 0.  0.
        -13    1    3    3    0    0  0.38456489829E+02  0.27202176651E+02 -0.10438437992E+02  0.48247613166E+02  0.10566000000E+00 0. -1.
         23    2    1    0    0    0 -0.54594170789E+01  0.14871444508E+02 -0.24362482236E+02  0.95939792890E+02  0.91432752460E+02 0.  0.
         13    1    3    3    0    0 -0.43915906908E+02 -0.12330732142E+02 -0.13924044244E+02  0.47692179724E+02  0.10566000000E+00 0.  1.
         22    1    1    0    0    0  0.54594170789E+01 -0.14871444508E+02  0.24362482236E+02  0.29060207110E+02  0.00000000000E+00 0.  1.
</event>
<event>
 5    1  0.1325832E-009  0.9118800E+02  0.7818608E-02  0.1130116E+00
         25   -1    0    0    0    0  0.00000000000E+00  0.00000000000E+00  0.99999998245E-14  0.12500000000E+03  0.12500000000E+03 0.  0.
        -13    1    3    3    0    0  0.12573928997E+02 -0.56014193702E+00 -0.53173741782E+02  0.54643164518E+02  0.10566000000E+00 0. -1.
         23    2    1    0    0    0  0.20236501387E+02 -0.15247893498E+02 -0.16837874712E+02  0.94577503894E+02  0.89550968579E+02 0.  0.
         13    1    3    3    0    0  0.76625723902E+01 -0.14687751561E+02  0.36335867070E+02  0.39934339375E+02  0.10566000000E+00 0.  1.
         22    1    1    0    0    0 -0.20236501387E+02  0.15247893498E+02  0.16837874712E+02  0.30422496106E+02  0.00000000000E+00 0. -1.
</event>
<event>
 5    1  0.1325832E-009  0.9118800E+02  0.7818608E-02  0.1130116E+00
         25   -1    0    0    0    0  0.00000000000E+00  0.00000000000E+00  0.99999998245E-14  0.12500000000E+03  0.12500000000E+03 0.  0.
        -13    1    3    3    0    0  0.17515541458E+02 -0.11743849994E+02  0.27438405513E+02  0.34606205605E+02  0.10566000000E+00 0. -1.
         23    2    1    0    0    0 -0.59677470798E+01 -0.15094560715E+01 -0.28347112616E+02  0.95992220759E+02  0.91504399838E+02 0.  0.
         13    1    3    3    0    0 -0.23483288538E+02  0.10234393922E+02 -0.55785518129E+02  0.61386015154E+02  0.10566000000E+00 0.  1.
         22    1    1    0    0    0  0.59677470798E+01  0.15094560715E+01  0.28347112616E+02  0.29007779241E+02  0.00000000000E+00 0.  1.
</event>
<event>
 5    1  0.1325832E-009  0.9118800E+02  0.7818608E-02  0.1130116E+00
         25   -1    0    0    0    0  0.00000000000E+00  0.00000000000E+00  0.99999998245E-14  0.12500000000E+03  0.12500000000E+03 0.  0.
        -13    1    3    3    0    0  0.33192080969E+02  0.39337498867E+02 -0.65741064973E+01  0.51888178774E+02  0.10566000000E+00 0.  1.
         23    2    1    0    0    0  0.26485316107E+02  0.12767318537E+01 -0.18882027430E+02  0.92447995862E+02  0.86527446314E+02 0.  0.
         13    1    3    3    0    0 -0.67067648615E+01 -0.38060767013E+02 -0.12307920932E+02  0.40559817089E+02  0.10566000000E+00 0. -1.
         22    1    1    0    0    0 -0.26485316107E+02 -0.12767318537E+01  0.18882027430E+02  0.32552004138E+02  0.00000000000E+00 0. -1.
</event>
<event>
 5    1  0.1325832E-009  0.9118800E+02  0.7818608E-02  0.1130116E+00
         25   -1    0    0    0    0  0.00000000000E+00  0.00000000000E+00  0.99999998245E-14  0.12500000000E+03  0.12500000000E+03 0.  0.
        -13    1    3    3    0    0  0.18405789171E+02  0.35446051846E+02  0.15230589757E+02  0.42745499118E+02  0.10566000000E+00 0. -1.
         23    2    1    0    0    0  0.26018538756E+02 -0.13414724062E+02 -0.32730357805E+01  0.95544407257E+02  0.90890603553E+02 0.  0.
         13    1    3    3    0    0  0.76127495850E+01 -0.48860775908E+02 -0.18503625537E+02  0.52798908139E+02  0.10566000000E+00 0.  1.
         22    1    1    0    0    0 -0.26018538756E+02  0.13414724062E+02  0.32730357805E+01  0.29455592743E+02  0.00000000000E+00 0.  1.
</event>
<event>
 5    1  0.1325832E-009  0.9118800E+02  0.7818608E-02  0.1130116E+00
         25   -1    0    0    0    0  0.00000000000E+00  0.00000000000E+00  0.99999998245E-14  0.12500000000E+03  0.12500000000E+03 0.  0.
        -13    1    3    3    0    0 -0.41482567280E+01  0.28676323318E+02  0.27519970111E+02  0.39961224604E+02  0.10566000000E+00 0.  1.
         23    2    1    0    0    0  0.32336525524E+02 -0.21779120214E+01  0.77190199116E+01  0.91683675891E+02  0.85416151709E+02 0.  0.
         13    1    3    3    0    0  0.36484782252E+02 -0.30854235340E+02 -0.19800950199E+02  0.51722451287E+02  0.10566000000E+00 0. -1.
         22    1    1    0    0    0 -0.32336525524E+02  0.21779120214E+01 -0.77190199116E+01  0.33316324109E+02  0.00000000000E+00 0. -1.
</event>
<event>
 5    1  0.1325832E-009  0.9118800E+02  0.7818608E-02  0.1130116E+00
         25   -1    0    0    0    0  0.00000000000E+00  0.00000000000E+00  0.99999998245E-14  0.12500000000E+03  0.12500000000E+03 0.  0.
        -13    1    3    3    0    0  0.25750572986E+02 -0.28235756352E+02  0.42278148090E+02  0.56989498294E+02  0.10566000000E+00 0. -1.
         23    2    1    0    0    0  0.78878077069E+00 -0.27568709685E+02  0.16588094933E+02  0.92815829632E+02  0.87057207673E+02 0.  0.
         13    1    3    3    0    0 -0.24961792215E+02  0.66704666660E+00 -0.25690053157E+02  0.35826331338E+02  0.10566000000E+00 0.  1.
         22    1    1    0    0    0 -0.78878077069E+00  0.27568709685E+02 -0.16588094933E+02  0.32184170368E+02  0.00000000000E+00 0. -1.
</event>
<event>
 5    1  0.1325832E-009  0.9118800E+02  0.7818608E-02  0.1130116E+00
         25   -1    0    0    0    0  0.00000000000E+00  0.00000000000E+00  0.99999998245E-14  0.12500000000E+03  0.12500000000E+03 0.  0.
        -13    1    3    3    0    0 -0.49883531429E+02  0.83104083939E+01 -0.18474487330E+02  0.53840017103E+02  0.10566000000E+00 0.  1.
         23    2    1    0    0    0 -0.24958297648E+02 -0.18540857530E+02 -0.24999850283E+01  0.93808175036E+02  0.88470581320E+02 0.  0.
         13    1    3    3    0    0  0.24925233781E+02 -0.26851265924E+02  0.15974502302E+02  0.39968157933E+02  0.10566000000E+00 0. -1.
         22    1    1    0    0    0  0.24958297648E+02  0.18540857530E+02  0.24999850283E+01  0.31191824964E+02  0.00000000000E+00 0.  1.
</event>
<event>
 5    1  0.1325832E-009  0.9118800E+02  0.7818608E-02  0.1130116E+00
         25   -1    0    0    0    0  0.00000000000E+00  0.00000000000E+00  0.99999998245E-14  0.12500000000E+03  0.12500000000E+03 0.  0.
        -13    1    3    3    0    0 -0.10373625658E+02  0.36193423095E+02 -0.30195525642E+02  0.48263411789E+02  0.10566000000E+00 0.  1.
         23    2    1    0    0    0  0.15349066525E+02 -0.38714627908E+01 -0.23962068890E+02  0.96281315963E+02  0.91898471101E+02 0.  0.
         13    1    3    3    0    0  0.25722692183E+02 -0.40064885886E+02  0.62334567524E+01  0.48017904175E+02  0.10566000000E+00 0. -1.
         22    1    1    0    0    0 -0.15349066525E+02  0.38714627908E+01  0.23962068890E+02  0.28718684037E+02  0.00000000000E+00 0. -1.
</event>
<event>
 5    1  0.1325832E-009  0.9118800E+02  0.7818608E-02  0.1130116E+00
         25   -1    0    0    0    0  0.00000000000E+00  0.00000000000E+00  0.99999998245E-14  0.12500000000E+03  0.12500000000E+03 0.  0.
        -13    1    3    3    0    0  0.28626970566E+02  0.42108684714E+02  0.23244242379E+02  0.55972767843E+02  0.10566000000E+00 0.  1.
         23    2    1    0    0    0  0.12693207012E+02  0.53590410294E+01  0.25418848046E+02  0.96087119462E+02  0.91633944941E+02 0.  0.
         13    1    3    3    0    0 -0.15933763554E+02 -0.36749643685E+02  0.21746056666E+01  0.40114351619E+02  0.10566000000E+00 0. -1.
         22    1    1    0    0    0 -0.12693207012E+02 -0.53590410294E+01 -0.25418848046E+02  0.28912880538E+02  0.00000000000E+00 0.  1.
</event>
<event>
 4    1  0.1325832E-009  0.9118800E+02  0.7818608E-02  0.1130116E+00
         25   -1    0    0    0    0  0.00000000000E+00  0.00000000000E+00  0.99999998245E-14  0.12500000000E+03  0.12500000000E+03 0.  0.
        -13    1    1    0    0    0 -0.20257509659E+02  0.13784890687E+01  0.30790748894E+02  0.36882899983E+02  0.10566000000E+00 0.  1.
         13    1    1    0    0    0 -0.44610316307E+01  0.35378487916E+02 -0.29092903089E+01  0.35777274135E+02  0.10566000000E+00 0. -1.
         22    1    1    0    0    0  0.24718541289E+02 -0.36756976984E+02 -0.27881458585E+02  0.52339825882E+02  0.00000000000E+00 0.  1.
</event>
<event>
 5    1  0.1325832E-009  0.9118800E+02  0.7818608E-02  0.1130116E+00
         25   -1    0    0    0    0  0.00000000000E+00  0.00000000000E+00  0.99999998245E-14  0.12500000000E+03  0.12500000000E+03 0.  0.
        -13    1    3    3    0    0  0.45399184814E+02 -0.10079635750E+02 -0.32602475273E+02  0.56794520833E+02  0.10566000000E+00 0. -1.
         23    2    1    0    0    0  0.28278999158E+02 -0.95293140649E+01  0.16728038293E+01  0.95111743233E+02  0.90293608901E+02 0.  0.
         13    1    3    3    0    0 -0.17120185656E+02  0.55032168535E+00  0.34275279103E+02  0.38317222400E+02  0.10566000000E+00 0.  1.
         22    1    1    0    0    0 -0.28278999158E+02  0.95293140649E+01 -0.16728038293E+01  0.29888256767E+02  0.00000000000E+00 0. -1.
</event>
<event>
 5    1  0.1325832E-009  0.9118800E+02  0.7818608E-02  0.1130116E+00
         25   -1    0    0    0    0  0.00000000000E+00  0.00000000000E+00  0.99999998245E-14  0.12500000000E+03  0.12500000000E+03 0.  0.
        -13    1    3    3    0    0  0.13283128891E+02 -0.41606317921E+01  0.21482546075E+02  0.25598111648E+02  0.10566000000E+00 0.  1.
         23    2    1    0    0    0  0.27727445809E+02  0.28535513880E+02 -0.20092365843E+02  0.80426577777E+02  0.66945085288E+02 0.  0.
         13    1    3    3    0    0  0.14444316919E+02  0.32696145672E+02 -0.41574911918E+02  0.54828466129E+02  0.10566000000E+00 0. -1.
         22    1    1    0    0    0 -0.27727445809E+02 -0.28535513880E+02  0.20092365843E+02  0.44573422223E+02  0.00000000000E+00 0. -1.
</event>
<event>
 5    1  0.1325832E-009  0.9118800E+02  0.7818608E-02  0.1130116E+00
         25   -1    0    0    0    0  0.00000000000E+00  0.00000000000E+00  0.99999998245E-14  0.12500000000E+03  0.12500000000E+03 0.  0.
        -13    1    3    3    0    0 -0.22837381325E+02 -0.21380865844E+02  0.17044654948E+02  0.35626097686E+02  0.10566000000E+00 0.  1.
         23    2    1    0    0    0  0.93950852978E+01  0.25263435932E+02 -0.69068109038E+01  0.97175319235E+02  0.93106550837E+02 0.  0.
         13    1    3    3    0    0  0.32232466623E+02  0.46644301776E+02 -0.23951465852E+02  0.61549221548E+02  0.10566000000E+00 0. -1.
         22    1    1    0    0    0 -0.93950852978E+01 -0.25263435932E+02  0.69068109038E+01  0.27824680765E+02  0.00000000000E+00 0. -1.
</event>
<event>
 5    1  0.1325832E-009  0.9118800E+02  0.7818608E-02  0.1130116E+00
         25   -1    0    0    0    0  0.00000000000E+00  0.00000000000E+00  0.99999998245E-14  0.12500000000E+03  0.12500000000E+03 0.  0.
        -13    1    3    3    0    0 -0.52816370689E+02  0.26157946872E+02  0.14686958061E+02  0.60741461115E+02  0.10566000000E+00 0.  1.
         23    2    1    0    0    0 -0.24551923251E+02  0.58278306757E+01  0.15161462912E+02  0.95561411323E+02  0.90913985891E+02 0.  0.
         13    1    3    3    0    0  0.28264447438E+02 -0.20330116197E+02  0.47450485077E+00  0.34819950207E+02  0.10566000000E+00 0. -1.
         22    1    1    0    0    0  0.24551923251E+02 -0.58278306757E+01 -0.15161462912E+02  0.29438588677E+02  0.00000000000E+00 0.  1.
</event>
<event>
 5    1  0.1325832E-009  0.9118800E+02  0.7818608E-02  0.1130116E+00
         25   -1    0    0    0    0  0.00000000000E+00  0.00000000000E+00  0.99999998245E-14  0.12500000000E+03  0.12500000000E+03 0.  0.
        -13    1    3    3    0    0  0.34999216617E+02 -0.39636626886E+01 -0.16010788073E+02  0.38691242994E+02  0.10566000000E+00 0.  1.
         23    2    1    0    0    0 -0.17489237738E+02 -0.23021069142E+02 -0.39441108488E+01  0.95821256512E+02  0.91270554551E+02 0.  0.
         13    1    3    3    0    0 -0.52488454355E+02 -0.19057406454E+02  0.12066677224E+02  0.57130013518E+02  0.10566000000E+00 0. -1.
         22    1    1    0    0    0  0.17489237738E+02  0.23021069142E+02  0.39441108488E+01  0.29178743488E+02  0.00000000000E+00 0. -1.
</event>
<event>
 5    1  0.1325832E-009  0.9118800E+02  0.7818608E-02  0.1130116E+00
         25   -1    0    0    0    0  0.00000000000E+00  0.00000000000E+00  0.99999998245E-14  0.12500000000E+03  0.12500000000E+03 0.  0.
        -13    1    3    3    0    0  0.33532955839E+02  0.37604040004E+02 -0.30200870291E+02  0.58742035054E+02  0.10566000000E+00 0.  1.
         23    2    1    0    0    0  0.15586568472E+02  0.69504187540E+01 -0.25129928279E+02  0.94622990060E+02  0.89614438094E+02 0.  0.
         13    1    3    3    0    0 -0.17946387367E+02 -0.30653621250E+02  0.50709420116E+01  0.35880955006E+02  0.10566000000E+00 0. -1.
         22    1    1    0    0    0 -0.15586568472E+02 -0.69504187540E+01  0.25129928279E+02  0.30377009940E+02  0.00000000000E+00 0.  1.
</event>
<event>
 5    1  0.1325832E-009  0.9118800E+02  0.7818608E-02  0.1130116E+00
         25   -1    0    0    0    0  0.00000000000E+00  0.00000000000E+00  0.99999998245E-14  0.12500000000E+03  0.12500000000E+03 0.  0.
        -13    1    3    3    0    0  0.45717655300E+02 -0.41542884593E+02 -0.86889362221E+01  0.62381279589E+02  0.10566000000E+00 0. -1.
         23    2    1    0    0    0  0.22628527744E+02 -0.17034234151E+02 -0.32245437118E+01  0.96493630832E+02  0.92186808753E+02 0.  0.
         13    1    3    3    0    0 -0.23089127557E+02  0.24508650442E+02  0.54643925103E+01  0.34112351243E+02  0.10566000000E+00 0.  1.
         22    1    1    0    0    0 -0.22628527744E+02  0.17034234151E+02  0.32245437118E+01  0.28506369168E+02  0.00000000000E+00 0. -1.
</event>
<event>
 5    1  0.1325832E-009  0.9118800E+02  0.7818608E-02  0.1130116E+00
         25   -1    0    0    0    0  0.00000000000E+00  0.00000000000E+00  0.99999998245E-14  0.12500000000E+03  0.12500000000E+03 0.  0.
        -13    1    3    3    0    0  0.20150256280E+02  0.27117468423E+02  0.57289930553E+01  0.34266929353E+02  0.10566000000E+00 0. -1.
         23    2    1    0    0    0 -0.26740067504E+01 -0.29435120474E+02  0.12124073303E+01  0.95418814071E+02  0.90717713363E+02 0.  0.
         13    1    3    3    0    0 -0.22824263031E+02 -0.56552588897E+02 -0.45165857250E+01  0.61151884718E+02  0.10566000000E+00 0.  1.
         22    1    1    0    0    0  0.26740067504E+01  0.29435120474E+02 -0.12124073303E+01  0.29581185929E+02  0.00000000000E+00 0.  1.
</event>
<event>
 5    1  0.1325832E-009  0.9118800E+02  0.7818608E-02  0.1130116E+00
         25   -1    0    0    0    0  0.00000000000E+00  0.00000000000E+00  0.99999998245E-14  0.12500000000E+03  0.12500000000E+03 0.  0.
        -13    1    3    3    0    0 -0.10651680583E+00  0.14715496892E+02 -0.60235827160E+02  0.62007444974E+02  0.10566000000E+00 0. -1.
         23    2    1    0    0    0 -0.55928220877E+01  0.71030480412E+01 -0.28721739139E+02  0.94889017792E+02  0.89984745640E+02 0.  0.
         13    1    3    3    0    0 -0.54863052819E+01 -0.76124488505E+01  0.31514088021E+02  0.32881572817E+02  0.10566000000E+00 0.  1.
         22    1    1    0    0    0  0.55928220877E+01 -0.71030480412E+01  0.28721739139E+02  0.30110982208E+02  0.00000000000E+00 0. -1.
</event>
<event>
 5    1  0.1325832E-009  0.9118800E+02  0.7818608E-02  0.1130116E+00
         25   -1    0    0    0    0  0.00000000000E+00  0.00000000000E+00  0.99999998245E-14  0.12500000000E+03  0.12500000000E+03 0.  0.
        -13    1    3    3    0    0 -0.61913891420E+01 -0.45586005880E+02  0.22942280811E+02  0.51407943398E+02  0.10566000000E+00 0. -1.
         23    2    1    0    0    0 -0.25729282494E+02 -0.70688595154E+01  0.73781777810E+01  0.97316028828E+02  0.93295268942E+02 0.  0.
         13    1    3    3    0    0 -0.19537893352E+02  0.38517146364E+02 -0.15564103030E+02  0.45908085430E+02  0.10566000000E+00 0.  1.
         22    1    1    0    0    0  0.25729282494E+02  0.70688595154E+01 -0.73781777810E+01  0.27683971172E+02  0.00000000000E+00 0. -1.
</event>
<event>
 5    1  0.1325832E-009  0.9118800E+02  0.7818608E-02  0.1130116E+00
         25   -1    0    0    0    0  0.00000000000E+00  0.00000000000E+00  0.99999998245E-14  0.12500000000E+03  0.12500000000E+03 0.  0.
        -13    1    3    3    0    0  0.44810914407E+02 -0.38163891727E-01  0.23862280718E+02  0.50768485418E+02  0.10566000000E+00 0.  1.
         23    2    1    0    0    0  0.25961633740E+01  0.16490189884E+02  0.23585592819E+02  0.96104557188E+02  0.91657729063E+02 0.  0.
         13    1    3    3    0    0 -0.42214751033E+02  0.16528353776E+02 -0.27668789956E+00  0.45336071770E+02  0.10566000000E+00 0. -1.
         22    1    1    0    0    0 -0.25961633740E+01 -0.16490189884E+02 -0.23585592819E+02  0.28895442812E+02  0.00000000000E+00 0.  1.
</event>
<event>
 5    1  0.1325832E-009  0.9118800E+02  0.7818608E-02  0.1130116E+00
         25   -1    0    0    0    0  0.00000000000E+00  0.00000000000E+00  0.99999998245E-14  0.12500000000E+03  0.12500000000E+03 0.  0.
        -13    1    3    3    0    0  0.19187650834E+02  0.13739952988E+02 -0.24926732122E+02  0.34326453225E+02  0.10566000000E+00 0. -1.
         23    2    1    0    0    0 -0.23028145457E+02  0.61672171538E+01  0.18091683735E+02  0.95072770409E+02  0.90239639861E+02 0.  0.
         13    1    3    3    0    0 -0.42215796291E+02 -0.75727358342E+01  0.43018415858E+02  0.60746317184E+02  0.10566000000E+00 0.  1.
         22    1    1    0    0    0  0.23028145457E+02 -0.61672171538E+01 -0.18091683735E+02  0.29927229591E+02  0.00000000000E+00 0.  1.
</event>
<event>
 5    1  0.1325832E-009  0.9118800E+02  0.7818608E-02  0.1130116E+00
         25   -1    0    0    0    0  0.00000000000E+00  0.00000000000E+00  0.99999998245E-14  0.12500000000E+03  0.12500000000E+03 0.  0.
        -13    1    3    3    0    0  0.17082498393E+02 -0.38050995898E+02 -0.22994469790E+02  0.47628214801E+02  0.10566000000E+00 0.  1.
         23    2    1    0    0    0  0.29156154338E+02  0.27789364481E+01 -0.66914703225E+00  0.95704068861E+02  0.91109918314E+02 0.  0.
         13    1    3    3    0    0  0.12073655945E+02  0.40829932346E+02  0.22325322758E+02  0.48075854060E+02  0.10566000000E+00 0. -1.
         22    1    1    0    0    0 -0.29156154338E+02 -0.27789364481E+01  0.66914703225E+00  0.29295931139E+02  0.00000000000E+00 0.  1.
</event>
<event>
 5    1  0.1325832E-009  0.9118800E+02  0.7818608E-02  0.1130116E+00
         25   -1    0    0    0    0  0.00000000000E+00  0.00000000000E+00  0.99999998245E-14  0.12500000000E+03  0.12500000000E+03 0.  0.
        -13    1    3    3    0    0 -0.33311900555E+02 -0.11091199128E+02 -0.17178508325E+02  0.39087206718E+02  0.10566000000E+00 0. -1.
         23    2    1    0    0    0  0.18690465871E+02 -0.21660225832E+02  0.37803968454E+01  0.96141893723E+02  0.91708633350E+02 0.  0.
         13    1    3    3    0    0  0.52002366425E+02 -0.10569026704E+02  0.20958905171E+02  0.57054687006E+02  0.10566000000E+00 0.  1.
         22    1    1    0    0    0 -0.18690465871E+02  0.21660225832E+02 -0.37803968454E+01  0.28858106277E+02  0.00000000000E+00 0.  1.
</event>
<event>
 5    1  0.1325832E-009  0.9118800E+02  0.7818608E-02  0.1130116E+00
         25   -1    0    0    0    0  0.00000000000E+00  0.00000000000E+00  0.99999998245E-14  0.12500000000E+03  0.12500000000E+03 0.  0.
        -13    1    3    3    0    0  0.93815292534E+01  0.23298465430E+02  0.28098819822E+02  0.37688014301E+02  0.10566000000E+00 0. -1.
         23    2    1    0    0    0  0.18352999599E+01 -0.28969490465E+02  0.41400855613E+01  0.95678676493E+02  0.91075074105E+02 0.  0.
         13    1    3    3    0    0 -0.75462292935E+01 -0.52267955895E+02 -0.23958734260E+02  0.57990662192E+02  0.10566000000E+00 0.  1.
         22    1    1    0    0    0 -0.18352999599E+01  0.28969490465E+02 -0.41400855613E+01  0.29321323507E+02  0.00000000000E+00 0.  1.
</event>
<event>
 5    1  0.1325832E-009  0.9118800E+02  0.7818608E-02  0.1130116E+00
         25   -1    0    0    0    0  0.00000000000E+00  0.00000000000E+00  0.99999998245E-14  0.12500000000E+03  0.12500000000E+03 0.  0.
        -13    1    3    3    0    0 -0.44148108526E+01 -0.11609176486E+02 -0.33395060143E+02  0.35630110013E+02  0.10566000000E+00 0. -1.
         23    2    1    0    0    0  0.10851629942E+02 -0.97490027185E+01  0.25021131084E+02  0.96036955838E+02  0.91565490003E+02 0.  0.
         13    1    3    3    0    0  0.15266440795E+02  0.18601737673E+01  0.58416191227E+02  0.60406845825E+02  0.10566000000E+00 0.  1.
         22    1    1    0    0    0 -0.10851629942E+02  0.97490027185E+01 -0.25021131084E+02  0.28963044162E+02  0.00000000000E+00 0.  1.
</event>
<event>
 5    1  0.1325832E-009  0.9118800E+02  0.7818608E-02  0.1130116E+00
         25   -1    0    0    0    0  0.00000000000E+00  0.00000000000E+00  0.99999998245E-14  0.12500000000E+03  0.12500000000E+03 0.  0.
        -13    1    3    3    0    0  0.28944495820E+02 -0.19233069737E+02 -0.43820306772E+02  0.55927857633E+02  0.10566000000E+00 0.  1.
         23    2    1    0    0    0  0.27498136346E+02 -0.19109010925E+01 -0.71288846760E+01  0.96528610111E+02  0.92234226445E+02 0.  0.
         13    1    3    3    0    0 -0.14463594744E+01  0.17322168645E+02  0.36691422096E+02  0.40600752478E+02  0.10566000000E+00 0. -1.
         22    1    1    0    0    0 -0.27498136346E+02  0.19109010925E+01  0.71288846760E+01  0.28471389889E+02  0.00000000000E+00 0.  1.
</event>
<event>
 5    1  0.1325832E-009  0.9118800E+02  0.7818608E-02  0.1130116E+00
         25   -1    0    0    0    0  0.00000000000E+00  0.00000000000E+00  0.99999998245E-14  0.12500000000E+03  0.12500000000E+03 0.  0.
        -13    1    3    3    0    0 -0.42826140512E+02  0.60515360149E+00  0.11913100155E+02  0.44456469061E+02  0.10566000000E+00 0. -1.
         23    2    1    0    0    0 -0.56784980585E+01 -0.20041212025E+02 -0.18838296640E+02  0.96914827044E+02  0.92756168318E+02 0.  0.
         13    1    3    3    0    0  0.37147642453E+02 -0.20646365627E+02 -0.30751396795E+02  0.52458357983E+02  0.10566000000E+00 0.  1.
         22    1    1    0    0    0  0.56784980585E+01  0.20041212025E+02  0.18838296640E+02  0.28085172956E+02  0.00000000000E+00 0.  1.
</event>
<event>
 5    1  0.1325832E-009  0.9118800E+02  0.7818608E-02  0.1130116E+00
         25   -1    0    0    0    0  0.00000000000E+00  0.00000000000E+00  0.99999998245E-14  0.12500000000E+03  0.12500000000E+03 0.  0.
        -13    1    3    3    0    0  0.60476486641E+02  0.31601629483E+01  0.80708784648E+00  0.60564466654E+02  0.10566000000E+00 0.  1.
         23    2    1    0    0    0  0.29459546522E+02  0.65943122851E+01  0.10168313485E+02  0.93144946477E+02  0.87528490329E+02 0.  0.
         13    1    3    3    0    0 -0.31016940119E+02  0.34341493368E+01  0.93612256382E+01  0.32580479823E+02  0.10566000000E+00 0. -1.
         22    1    1    0    0    0 -0.29459546522E+02 -0.65943122851E+01 -0.10168313485E+02  0.31855053523E+02  0.00000000000E+00 0.  1.
</event>
<event>
 5    1  0.1325832E-009  0.9118800E+02  0.7818608E-02  0.1130116E+00
         25   -1    0    0    0    0  0.00000000000E+00  0.00000000000E+00  0.99999998245E-14  0.12500000000E+03  0.12500000000E+03 0.  0.
        -13    1    3    3    0    0 -0.11820455071E+02 -0.32445218415E+02 -0.32660399327E+02  0.47530287232E+02  0.10566000000E+00 0. -1.
         23    2    1    0    0    0 -0.50770610740E+01  0.14876574229E+02 -0.24304743147E+02  0.96055060039E+02  0.91590201494E+02 0.  0.
         13    1    3    3    0    0  0.67433939971E+01  0.47321792645E+02  0.83556561807E+01  0.48524772807E+02  0.10566000000E+00 0.  1.
         22    1    1    0    0    0  0.50770610740E+01 -0.14876574229E+02  0.24304743147E+02  0.28944939961E+02  0.00000000000E+00 0.  1.
</event>
<event>
 5    1  0.1325832E-009  0.9118800E+02  0.7818608E-02  0.1130116E+00
         25   -1    0    0    0    0  0.00000000000E+00  0.00000000000E+00  0.99999998245E-14  0.12500000000E+03  0.12500000000E+03 0.  0.
        -13    1    3    3    0    0  0.11461142537E+00  0.48341760384E+02 -0.17025019459E+02  0.51252330526E+02  0.10566000000E+00 0. -1.
         23    2    1    0    0    0  0.24174709576E+02  0.15016210909E+02  0.18474006784E+01  0.96481303284E+02  0.92170091792E+02 0.  0.
         13    1    3    3    0    0  0.24060098150E+02 -0.33325549475E+02  0.18872420138E+02  0.45228972757E+02  0.10566000000E+00 0.  1.
         22    1    1    0    0    0 -0.24174709576E+02 -0.15016210909E+02 -0.18474006784E+01  0.28518696716E+02  0.00000000000E+00 0. -1.
</event>
<event>
 5    1  0.1325832E-009  0.9118800E+02  0.7818608E-02  0.1130116E+00
         25   -1    0    0    0    0  0.00000000000E+00  0.00000000000E+00  0.99999998245E-14  0.12500000000E+03  0.12500000000E+03 0.  0.
        -13    1    3    3    0    0 -0.51868997818E+02  0.18502398815E+01  0.22666206223E+02  0.56635539998E+02  0.10566000000E+00 0. -1.
         23    2    1    0    0    0 -0.30819417220E+02  0.92735192664E-02 -0.73242563740E+01  0.93322227111E+02  0.87781300843E+02 0.  0.
         13    1    3    3    0    0  0.21049580598E+02 -0.18409663622E+01 -0.29990462597E+02  0.36686687113E+02  0.10566000000E+00 0.  1.
         22    1    1    0    0    0  0.30819417220E+02 -0.92735192664E-02  0.73242563740E+01  0.31677772889E+02  0.00000000000E+00 0. -1.
</event>
<event>
 5    1  0.1325832E-009  0.9118800E+02  0.7818608E-02  0.1130116E+00
         25   -1    0    0    0    0  0.00000000000E+00  0.00000000000E+00  0.99999998245E-14  0.12500000000E+03  0.12500000000E+03 0.  0.
        -13    1    3    3    0    0  0.22682977999E+02 -0.27772045383E+02  0.14661518436E+02  0.38739841023E+02  0.10566000000E+00 0. -1.
         23    2    1    0    0    0 -0.28629338206E+02 -0.59979204799E+01  0.43303823384E+01  0.95430315061E+02  0.90733559201E+02 0.  0.
         13    1    3    3    0    0 -0.51312316205E+02  0.21774124903E+02 -0.10331136097E+02  0.56690474038E+02  0.10566000000E+00 0.  1.
         22    1    1    0    0    0  0.28629338206E+02  0.59979204799E+01 -0.43303823384E+01  0.29569684939E+02  0.00000000000E+00 0.  1.
</event>
<event>
 5    1  0.1325832E-009  0.9118800E+02  0.7818608E-02  0.1130116E+00
         25   -1    0    0    0    0  0.00000000000E+00  0.00000000000E+00  0.99999998245E-14  0.12500000000E+03  0.12500000000E+03 0.  0.
        -13    1    3    3    0    0  0.19679476966E+02 -0.78882107681E+01  0.30003716827E+02  0.36738806053E+02  0.10566000000E+00 0. -1.
         23    2    1    0    0    0  0.11436691387E+02  0.27216165937E+01 -0.27130699030E+02  0.95431774883E+02  0.90735570316E+02 0.  0.
         13    1    3    3    0    0 -0.82427855788E+01  0.10609827362E+02 -0.57134415856E+02  0.58692968829E+02  0.10566000000E+00 0.  1.
         22    1    1    0    0    0 -0.11436691387E+02 -0.27216165937E+01  0.27130699030E+02  0.29568225117E+02  0.00000000000E+00 0.  1.
</event>
<event>
 5    1  0.1325832E-009  0.9118800E+02  0.7818608E-02  0.1130116E+00
         25   -1    0    0    0    0  0.00000000000E+00  0.00000000000E+00  0.99999998245E-14  0.12500000000E+03  0.12500000000E+03 0.  0.
        -13    1    3    3    0    0  0.39827088690E+02 -0.66687373853E+01 -0.32995814970E+01  0.40516261599E+02  0.10566000000E+00 0.  1.
         23    2    1    0    0    0 -0.33636211041E+01  0.23311933848E+02 -0.18279973541E+02  0.95185278144E+02  0.90395351297E+02 0.  0.
         13    1    3    3    0    0 -0.43190709795E+02  0.29980671234E+02 -0.14980392044E+02  0.54669016545E+02  0.10566000000E+00 0. -1.
         22    1    1    0    0    0  0.33636211041E+01 -0.23311933848E+02  0.18279973541E+02  0.29814721856E+02  0.00000000000E+00 0. -1.
</event>
<event>
 5    1  0.1325832E-009  0.9118800E+02  0.7818608E-02  0.1130116E+00
         25   -1    0    0    0    0  0.00000000000E+00  0.00000000000E+00  0.99999998245E-14  0.12500000000E+03  0.12500000000E+03 0.  0.
        -13    1    3    3    0    0 -0.30791476950E+02  0.59836655649E+01 -0.24425388459E+02  0.39755880970E+02  0.10566000000E+00 0. -1.
         23    2    1    0    0    0  0.23579283091E+02 -0.56632145248E+01 -0.15880731559E+02  0.96012895545E+02  0.91532638366E+02 0.  0.
         13    1    3    3    0    0  0.54370760041E+02 -0.11646880090E+02  0.85446569002E+01  0.56257014574E+02  0.10566000000E+00 0.  1.
         22    1    1    0    0    0 -0.23579283091E+02  0.56632145248E+01  0.15880731559E+02  0.28987104455E+02  0.00000000000E+00 0.  1.
</event>
<event>
 5    1  0.1325832E-009  0.9118800E+02  0.7818608E-02  0.1130116E+00
         25   -1    0    0    0    0  0.00000000000E+00  0.00000000000E+00  0.99999998245E-14  0.12500000000E+03  0.12500000000E+03 0.  0.
        -13    1    3    3    0    0 -0.73505149701E+01 -0.24640244242E+02  0.20496713277E+02  0.32883097875E+02  0.10566000000E+00 0.  1.
         23    2    1    0    0    0 -0.13919048421E+02  0.22348947306E+02 -0.17259072302E+02  0.93518403291E+02  0.88060211348E+02 0.  0.
         13    1    3    3    0    0 -0.65685334509E+01  0.46989191548E+02 -0.37755785580E+02  0.60635305416E+02  0.10566000000E+00 0. -1.
         22    1    1    0    0    0  0.13919048421E+02 -0.22348947306E+02  0.17259072302E+02  0.31481596709E+02  0.00000000000E+00 0. -1.
</event>
<event>
 5    1  0.1325832E-009  0.9118800E+02  0.7818608E-02  0.1130116E+00
         25   -1    0    0    0    0  0.00000000000E+00  0.00000000000E+00  0.99999998245E-14  0.12500000000E+03  0.12500000000E+03 0.  0.
        -13    1    3    3    0    0  0.12756646508E+02  0.12209680059E+02 -0.46006049231E+02  0.49278555651E+02  0.10566000000E+00 0. -1.
         23    2    1    0    0    0 -0.12060287816E+02  0.99886272605E+01  0.69987285311E+01  0.10784758274E+03  0.10647485941E+03 0.  0.
         13    1    3    3    0    0 -0.24816934323E+02 -0.22210527982E+01  0.53004777762E+02  0.58569027091E+02  0.10566000000E+00 0.  1.
         22    1    1    0    0    0  0.12060287816E+02 -0.99886272605E+01 -0.69987285311E+01  0.17152417258E+02  0.00000000000E+00 0.  1.
</event>
<event>
 5    1  0.1325832E-009  0.9118800E+02  0.7818608E-02  0.1130116E+00
         25   -1    0    0    0    0  0.00000000000E+00  0.00000000000E+00  0.99999998245E-14  0.12500000000E+03  0.12500000000E+03 0.  0.
        -13    1    3    3    0    0  0.17305076883E+02 -0.37874984851E+02 -0.23486217515E+02  0.47807883666E+02  0.10566000000E+00 0. -1.
         23    2    1    0    0    0 -0.80287535987E+01  0.48807426624E+01 -0.25782639723E+02  0.97558661761E+02  0.93619791926E+02 0.  0.
         13    1    3    3    0    0 -0.25333830482E+02  0.42755727513E+02 -0.22964222072E+01  0.49750778095E+02  0.10566000000E+00 0.  1.
         22    1    1    0    0    0  0.80287535987E+01 -0.48807426624E+01  0.25782639723E+02  0.27441338239E+02  0.00000000000E+00 0.  1.
</event>
<event>
 5    1  0.1325832E-009  0.9118800E+02  0.7818608E-02  0.1130116E+00
         25   -1    0    0    0    0  0.00000000000E+00  0.00000000000E+00  0.99999998245E-14  0.12500000000E+03  0.12500000000E+03 0.  0.
        -13    1    3    3    0    0 -0.10268494702E+02  0.32650334099E+02 -0.21924943233E+01  0.34297295748E+02  0.10566000000E+00 0. -1.
         23    2    1    0    0    0 -0.13552213482E+02 -0.26421421382E+02  0.78001000913E+01  0.94298280837E+02  0.89160362322E+02 0.  0.
         13    1    3    3    0    0 -0.32837187800E+01 -0.59071755480E+02  0.99925944146E+01  0.60000985090E+02  0.10566000000E+00 0.  1.
         22    1    1    0    0    0  0.13552213482E+02  0.26421421382E+02 -0.78001000913E+01  0.30701719163E+02  0.00000000000E+00 0.  1.
</event>
<event>
 5    1  0.1325832E-009  0.9118800E+02  0.7818608E-02  0.1130116E+00
         25   -1    0    0    0    0  0.00000000000E+00  0.00000000000E+00  0.99999998245E-14  0.12500000000E+03  0.12500000000E+03 0.  0.
        -13    1    3    3    0    0  0.22250871498E+02  0.40678166991E+01  0.24040055203E+02  0.33008844774E+02  0.10566000000E+00 0. -1.
         23    2    1    0    0    0 -0.26527785829E+02 -0.64016818342E+01 -0.12634168872E+02  0.94927966907E+02  0.90038834547E+02 0.  0.
         13    1    3    3    0    0 -0.48778657327E+02 -0.10469498533E+02 -0.36674224075E+02  0.61919122133E+02  0.10566000000E+00 0.  1.
         22    1    1    0    0    0  0.26527785829E+02  0.64016818342E+01  0.12634168872E+02  0.30072033093E+02  0.00000000000E+00 0.  1.
</event>
<event>
 5    1  0.1325832E-009  0.9118800E+02  0.7818608E-02  0.1130116E+00
         25   -1    0    0    0    0  0.00000000000E+00  0.00000000000E+00  0.99999998245E-14  0.12500000000E+03  0.12500000000E+03 0.  0.
        -13    1    3    3    0    0 -0.17897432942E+02 -0.38838978624E+02  0.10934654848E+02  0.44140256084E+02  0.10566000000E+00 0.  1.
         23    2    1    0    0    0 -0.28504038884E+02  0.98740377903E+01  0.60501034269E+01  0.94233449877E+02  0.89069424997E+02 0.  0.
         13    1    3    3    0    0 -0.10606605942E+02  0.48713016414E+02 -0.48845514215E+01  0.50093193793E+02  0.10566000000E+00 0. -1.
         22    1    1    0    0    0  0.28504038884E+02 -0.98740377903E+01 -0.60501034269E+01  0.30766550123E+02  0.00000000000E+00 0. -1.
</event>
<event>
 5    1  0.1325832E-009  0.9118800E+02  0.7818608E-02  0.1130116E+00
         25   -1    0    0    0    0  0.00000000000E+00  0.00000000000E+00  0.99999998245E-14  0.12500000000E+03  0.12500000000E+03 0.  0.
        -13    1    3    3    0    0 -0.15827296661E+02  0.29665966128E+02 -0.36491207669E+02  0.49620482334E+02  0.10566000000E+00 0. -1.
         23    2    1    0    0    0  0.18586992061E+02  0.25109081907E+02 -0.17651427793E+02  0.89118038358E+02  0.81575177533E+02 0.  0.
         13    1    3    3    0    0  0.34414288722E+02 -0.45568842207E+01  0.18839779876E+02  0.39497556024E+02  0.10566000000E+00 0.  1.
         22    1    1    0    0    0 -0.18586992061E+02 -0.25109081907E+02  0.17651427793E+02  0.35881961642E+02  0.00000000000E+00 0. -1.
</event>
<event>
 5    1  0.1325832E-009  0.9118800E+02  0.7818608E-02  0.1130116E+00
         25   -1    0    0    0    0  0.00000000000E+00  0.00000000000E+00  0.99999998245E-14  0.12500000000E+03  0.12500000000E+03 0.  0.
        -13    1    3    3    0    0 -0.30440597785E+02  0.22566159307E+02  0.15557914161E+02  0.40962438849E+02  0.10566000000E+00 0. -1.
         23    2    1    0    0    0 -0.69457075081E+01 -0.26104652679E+02  0.12879423809E+02  0.95073835830E+02  0.90241115670E+02 0.  0.
         13    1    3    3    0    0  0.23494890277E+02 -0.48670811986E+02 -0.26784903523E+01  0.54111396980E+02  0.10566000000E+00 0.  1.
         22    1    1    0    0    0  0.69457075081E+01  0.26104652679E+02 -0.12879423809E+02  0.29926164170E+02  0.00000000000E+00 0. -1.
</event>
<event>
 5    1  0.1325832E-009  0.9118800E+02  0.7818608E-02  0.1130116E+00
         25   -1    0    0    0    0  0.00000000000E+00  0.00000000000E+00  0.99999998245E-14  0.12500000000E+03  0.12500000000E+03 0.  0.
        -13    1    3    3    0    0  0.55180483556E+02  0.64222105384E+01  0.24266706961E+02  0.60621900204E+02  0.10566000000E+00 0. -1.
         23    2    1    0    0    0  0.29558501785E+02 -0.63922479182E+01  0.74012824022E+01  0.93865696693E+02  0.88551816318E+02 0.  0.
         13    1    3    3    0    0 -0.25621981770E+02 -0.12814458457E+02 -0.16865424558E+02  0.33243796488E+02  0.10566000000E+00 0.  1.
         22    1    1    0    0    0 -0.29558501785E+02  0.63922479182E+01 -0.74012824022E+01  0.31134303307E+02  0.00000000000E+00 0. -1.
</event>
<event>
 5    1  0.1325832E-009  0.9118800E+02  0.7818608E-02  0.1130116E+00
         25   -1    0    0    0    0  0.00000000000E+00  0.00000000000E+00  0.99999998245E-14  0.12500000000E+03  0.12500000000E+03 0.  0.
        -13    1    3    3    0    0 -0.13782974475E+02  0.35367354337E+02 -0.51147688496E+01  0.38301333693E+02  0.10566000000E+00 0.  1.
         23    2    1    0    0    0  0.30457156462E+02  0.91743594726E+00 -0.22606696097E+01  0.94445283579E+02  0.89366217861E+02 0.  0.
         13    1    3    3    0    0  0.44240130937E+02 -0.34449918390E+02  0.28540992399E+01  0.56143949887E+02  0.10566000000E+00 0. -1.
         22    1    1    0    0    0 -0.30457156462E+02 -0.91743594726E+00  0.22606696097E+01  0.30554716421E+02  0.00000000000E+00 0. -1.
</event>
<event>
 5    1  0.1325832E-009  0.9118800E+02  0.7818608E-02  0.1130116E+00
         25   -1    0    0    0    0  0.00000000000E+00  0.00000000000E+00  0.99999998245E-14  0.12500000000E+03  0.12500000000E+03 0.  0.
        -13    1    3    3    0    0  0.69007358913E+01 -0.40490059112E+02 -0.42104525644E+02  0.58820636570E+02  0.10566000000E+00 0. -1.
         23    2    1    0    0    0  0.17239997724E+02 -0.20243986541E+02 -0.14061915026E+02  0.94920539121E+02  0.90028522037E+02 0.  0.
         13    1    3    3    0    0  0.10339261833E+02  0.20246072572E+02  0.28042610618E+02  0.36099902550E+02  0.10566000000E+00 0.  1.
         22    1    1    0    0    0 -0.17239997724E+02  0.20243986541E+02  0.14061915026E+02  0.30079460879E+02  0.00000000000E+00 0. -1.
</event>
<event>
 5    1  0.1325832E-009  0.9118800E+02  0.7818608E-02  0.1130116E+00
         25   -1    0    0    0    0  0.00000000000E+00  0.00000000000E+00  0.99999998245E-14  0.12500000000E+03  0.12500000000E+03 0.  0.
        -13    1    3    3    0    0  0.37606669066E+02  0.74085118670E+01 -0.10539199619E+02  0.39752150872E+02  0.10566000000E+00 0.  1.
         23    2    1    0    0    0 -0.39514023360E+01  0.10874726122E+02  0.26850991627E+02  0.95762199125E+02  0.91189636370E+02 0.  0.
         13    1    3    3    0    0 -0.41558071402E+02  0.34662142546E+01  0.37390191246E+02  0.56010048253E+02  0.10566000000E+00 0. -1.
         22    1    1    0    0    0  0.39514023360E+01 -0.10874726122E+02 -0.26850991627E+02  0.29237800875E+02  0.00000000000E+00 0. -1.
</event>
<event>
 5    1  0.1325832E-009  0.9118800E+02  0.7818608E-02  0.1130116E+00
         25   -1    0    0    0    0  0.00000000000E+00  0.00000000000E+00  0.99999998245E-14  0.12500000000E+03  0.12500000000E+03 0.  0.
        -13    1    3    3    0    0  0.36699130978E+02 -0.44351173327E+02  0.15401560950E+02  0.59590872067E+02  0.10566000000E+00 0.  1.
         23    2    1    0    0    0  0.26537004702E+02 -0.11317427558E+02  0.47097335934E+01  0.95768537916E+02  0.91198324979E+02 0.  0.
         13    1    3    3    0    0 -0.10162126276E+02  0.33033745769E+02 -0.10691827356E+02  0.36177665848E+02  0.10566000000E+00 0. -1.
         22    1    1    0    0    0 -0.26537004702E+02  0.11317427558E+02 -0.47097335934E+01  0.29231462084E+02  0.00000000000E+00 0.  1.
</event>
<event>
 5    1  0.1325832E-009  0.9118800E+02  0.7818608E-02  0.1130116E+00
         25   -1    0    0    0    0  0.00000000000E+00  0.00000000000E+00  0.99999998245E-14  0.12500000000E+03  0.12500000000E+03 0.  0.
        -13    1    3    3    0    0 -0.33580873684E+02  0.31589866016E+02  0.27972620578E+02  0.53926555410E+02  0.10566000000E+00 0.  1.
         23    2    1    0    0    0 -0.28801676826E+02 -0.42972202524E+01  0.11771725187E+02  0.93590189371E+02  0.88162051602E+02 0.  0.
         13    1    3    3    0    0  0.47791968584E+01 -0.35887086269E+02 -0.16200895391E+02  0.39663633961E+02  0.10566000000E+00 0. -1.
         22    1    1    0    0    0  0.28801676826E+02  0.42972202524E+01 -0.11771725187E+02  0.31409810629E+02  0.00000000000E+00 0.  1.
</event>
<event>
 5    1  0.1325832E-009  0.9118800E+02  0.7818608E-02  0.1130116E+00
         25   -1    0    0    0    0  0.00000000000E+00  0.00000000000E+00  0.99999998245E-14  0.12500000000E+03  0.12500000000E+03 0.  0.
        -13    1    3    3    0    0  0.89768698576E+01 -0.56903563582E+02 -0.22548074595E+02  0.61862966085E+02  0.10566000000E+00 0. -1.
         23    2    1    0    0    0  0.10331979462E+02 -0.25857601731E+02 -0.93288261735E+01  0.95633482252E+02  0.91013024139E+02 0.  0.
         13    1    3    3    0    0  0.13551096049E+01  0.31045961852E+02  0.13219248422E+02  0.33770516167E+02  0.10566000000E+00 0.  1.
         22    1    1    0    0    0 -0.10331979462E+02  0.25857601731E+02  0.93288261735E+01  0.29366517748E+02  0.00000000000E+00 0. -1.
</event>
<event>
 5    1  0.1325832E-009  0.9118800E+02  0.7818608E-02  0.1130116E+00
         25   -1    0    0    0    0  0.00000000000E+00  0.00000000000E+00  0.99999998245E-14  0.12500000000E+03  0.12500000000E+03 0.  0.
        -13    1    3    3    0    0 -0.29954081697E+01  0.51783493468E+02 -0.14796207765E+02  0.53939239836E+02  0.10566000000E+00 0.  1.
         23    2    1    0    0    0  0.21404908077E+02  0.18906781821E+02 -0.58353730454E+01  0.95850590620E+02  0.91310720373E+02 0.  0.
         13    1    3    3    0    0  0.24400316247E+02 -0.32876711647E+02  0.89608347196E+01  0.41911350784E+02  0.10566000000E+00 0. -1.
         22    1    1    0    0    0 -0.21404908077E+02 -0.18906781821E+02  0.58353730454E+01  0.29149409380E+02  0.00000000000E+00 0. -1.
</event>
<event>
 5    1  0.1325832E-009  0.9118800E+02  0.7818608E-02  0.1130116E+00
         25   -1    0    0    0    0  0.00000000000E+00  0.00000000000E+00  0.99999998245E-14  0.12500000000E+03  0.12500000000E+03 0.  0.
        -13    1    3    3    0    0 -0.31617851476E+02 -0.72054816992E+01 -0.42311937120E+02  0.53309649083E+02  0.10566000000E+00 0.  1.
         23    2    1    0    0    0 -0.35605233580E+01 -0.24516406392E+02 -0.15784030058E+02  0.95625400192E+02  0.91001923321E+02 0.  0.
         13    1    3    3    0    0  0.28057328118E+02 -0.17310924693E+02  0.26527907061E+02  0.42315751109E+02  0.10566000000E+00 0. -1.
         22    1    1    0    0    0  0.35605233580E+01  0.24516406392E+02  0.15784030058E+02  0.29374599808E+02  0.00000000000E+00 0. -1.
</event>
<event>
 5    1  0.1325832E-009  0.9118800E+02  0.7818608E-02  0.1130116E+00
         25   -1    0    0    0    0  0.00000000000E+00  0.00000000000E+00  0.99999998245E-14  0.12500000000E+03  0.12500000000E+03 0.  0.
        -13    1    3    3    0    0  0.36466217608E+01 -0.29955835007E+01  0.36176531534E+02  0.36483201184E+02  0.10566000000E+00 0.  1.
         23    2    1    0    0    0 -0.93744515483E+01  0.13119385254E+02 -0.21705002834E+02  0.97961032577E+02  0.94155499809E+02 0.  0.
         13    1    3    3    0    0 -0.13021073309E+02  0.16114968755E+02 -0.57881534367E+02  0.61477831394E+02  0.10566000000E+00 0. -1.
         22    1    1    0    0    0  0.93744515483E+01 -0.13119385254E+02  0.21705002834E+02  0.27038967423E+02  0.00000000000E+00 0. -1.
</event>
<event>
 5    1  0.1325832E-009  0.9118800E+02  0.7818608E-02  0.1130116E+00
         25   -1    0    0    0    0  0.00000000000E+00  0.00000000000E+00  0.99999998245E-14  0.12500000000E+03  0.12500000000E+03 0.  0.
        -13    1    3    3    0    0 -0.48447418761E+02 -0.29952749469E+02 -0.14699422716E+01  0.56977991186E+02  0.10566000000E+00 0. -1.
         23    2    1    0    0    0 -0.77957782612E+01 -0.26018744879E+02 -0.27961067808E+00  0.97837021042E+02  0.93990719012E+02 0.  0.
         13    1    3    3    0    0  0.40651640499E+02  0.39340045900E+01  0.11903315935E+01  0.40859029856E+02  0.10566000000E+00 0.  1.
         22    1    1    0    0    0  0.77957782612E+01  0.26018744879E+02  0.27961067808E+00  0.27162978958E+02  0.00000000000E+00 0. -1.
</event>
<event>
 5    1  0.1325832E-009  0.9118800E+02  0.7818608E-02  0.1130116E+00
         25   -1    0    0    0    0  0.00000000000E+00  0.00000000000E+00  0.99999998245E-14  0.12500000000E+03  0.12500000000E+03 0.  0.
        -13    1    3    3    0    0  0.41409592187E+02 -0.26617995948E+02  0.88493189220E+01  0.50015933889E+02  0.10566000000E+00 0. -1.
         23    2    1    0    0    0  0.50868734829E+01 -0.31202726693E+02 -0.10831142636E+02  0.91581440999E+02  0.85266407510E+02 0.  0.
         13    1    3    3    0    0 -0.36322718704E+02 -0.45847307449E+01 -0.19680461558E+02  0.41565507109E+02  0.10566000000E+00 0.  1.
         22    1    1    0    0    0 -0.50868734829E+01  0.31202726693E+02  0.10831142636E+02  0.33418559001E+02  0.00000000000E+00 0. -1.
</event>
<event>
 5    1  0.1325832E-009  0.9118800E+02  0.7818608E-02  0.1130116E+00
         25   -1    0    0    0    0  0.00000000000E+00  0.00000000000E+00  0.99999998245E-14  0.12500000000E+03  0.12500000000E+03 0.  0.
        -13    1    3    3    0    0 -0.13982209227E+02 -0.38042439338E+02 -0.86025139049E+01  0.41433606833E+02  0.10566000000E+00 0.  1.
         23    2    1    0    0    0 -0.20919798977E+02  0.16986435258E+02 -0.79576966458E+01  0.96901923413E+02  0.92738777505E+02 0.  0.
         13    1    3    3    0    0 -0.69375897500E+01  0.55028874596E+02  0.64481725911E+00  0.55468316579E+02  0.10566000000E+00 0. -1.
         22    1    1    0    0    0  0.20919798977E+02 -0.16986435258E+02  0.79576966458E+01  0.28098076587E+02  0.00000000000E+00 0. -1.
</event>
<event>
 5    1  0.1325832E-009  0.9118800E+02  0.7818608E-02  0.1130116E+00
         25   -1    0    0    0    0  0.00000000000E+00  0.00000000000E+00  0.99999998245E-14  0.12500000000E+03  0.12500000000E+03 0.  0.
        -13    1    3    3    0    0 -0.16718318231E+02 -0.36939980593E+02 -0.34473427453E+02  0.53221167735E+02  0.10566000000E+00 0.  1.
         23    2    1    0    0    0  0.16687204932E+02 -0.16985694320E+02 -0.16130095404E+02  0.96239669721E+02  0.91841806550E+02 0.  0.
         13    1    3    3    0    0  0.33405523163E+02  0.19954286273E+02  0.18343332048E+02  0.43018501986E+02  0.10566000000E+00 0. -1.
         22    1    1    0    0    0 -0.16687204932E+02  0.16985694320E+02  0.16130095404E+02  0.28760330279E+02  0.00000000000E+00 0.  1.
</event>
<event>
 5    1  0.1325832E-009  0.9118800E+02  0.7818608E-02  0.1130116E+00
         25   -1    0    0    0    0  0.00000000000E+00  0.00000000000E+00  0.99999998245E-14  0.12500000000E+03  0.12500000000E+03 0.  0.
        -13    1    3    3    0    0 -0.21735391346E+02  0.27998106067E+02  0.19536624836E+02  0.40472361610E+02  0.10566000000E+00 0.  1.
         23    2    1    0    0    0  0.25663570757E+02  0.16776118163E+02  0.18495745896E+02  0.89192883097E+02  0.81689783782E+02 0.  0.
         13    1    3    3    0    0  0.47398962103E+02 -0.11221987904E+02 -0.10408789399E+01  0.48720521487E+02  0.10566000000E+00 0. -1.
         22    1    1    0    0    0 -0.25663570757E+02 -0.16776118163E+02 -0.18495745896E+02  0.35807116903E+02  0.00000000000E+00 0. -1.
</event>
<event>
 5    1  0.1325832E-009  0.9118800E+02  0.7818608E-02  0.1130116E+00
         25   -1    0    0    0    0  0.00000000000E+00  0.00000000000E+00  0.99999998245E-14  0.12500000000E+03  0.12500000000E+03 0.  0.
        -13    1    3    3    0    0  0.26943294498E+02  0.17803378984E+02 -0.39711963754E+02  0.51185473046E+02  0.10566000000E+00 0. -1.
         23    2    1    0    0    0  0.27922290606E+02  0.62014188610E+01  0.37248572450E+01  0.96155824330E+02  0.91727618974E+02 0.  0.
         13    1    3    3    0    0  0.97899610794E+00 -0.11601960123E+02  0.43436820999E+02  0.44970351285E+02  0.10566000000E+00 0.  1.
         22    1    1    0    0    0 -0.27922290606E+02 -0.62014188610E+01 -0.37248572450E+01  0.28844175670E+02  0.00000000000E+00 0.  1.
</event>
<event>
 5    1  0.1325832E-009  0.9118800E+02  0.7818608E-02  0.1130116E+00
         25   -1    0    0    0    0  0.00000000000E+00  0.00000000000E+00  0.99999998245E-14  0.12500000000E+03  0.12500000000E+03 0.  0.
        -13    1    3    3    0    0  0.10091632964E+02 -0.98519714651E+01 -0.38866950843E+02  0.41346746299E+02  0.10566000000E+00 0. -1.
         23    2    1    0    0    0  0.11024506848E+02 -0.24124210386E+02  0.13221624042E+02  0.95363390540E+02  0.90641313070E+02 0.  0.
         13    1    3    3    0    0  0.93287388400E+00 -0.14272238921E+02  0.52088574885E+02  0.54016644241E+02  0.10566000000E+00 0.  1.
         22    1    1    0    0    0 -0.11024506848E+02  0.24124210386E+02 -0.13221624042E+02  0.29636609460E+02  0.00000000000E+00 0.  1.
</event>
<event>
 5    1  0.1325832E-009  0.9118800E+02  0.7818608E-02  0.1130116E+00
         25   -1    0    0    0    0  0.00000000000E+00  0.00000000000E+00  0.99999998245E-14  0.12500000000E+03  0.12500000000E+03 0.  0.
        -13    1    3    3    0    0  0.15136951438E+02  0.44693182848E+02  0.21938478374E+02  0.52037639160E+02  0.10566000000E+00 0. -1.
         23    2    1    0    0    0 -0.14032422246E+02  0.12970981582E+02  0.22939525030E+02  0.95144061798E+02  0.90338338758E+02 0.  0.
         13    1    3    3    0    0 -0.29169373684E+02 -0.31722201266E+02  0.10010466563E+01  0.43106422639E+02  0.10566000000E+00 0.  1.
         22    1    1    0    0    0  0.14032422246E+02 -0.12970981582E+02 -0.22939525030E+02  0.29855938202E+02  0.00000000000E+00 0. -1.
</event>
<event>
 5    1  0.1325832E-009  0.9118800E+02  0.7818608E-02  0.1130116E+00
         25   -1    0    0    0    0  0.00000000000E+00  0.00000000000E+00  0.99999998245E-14  0.12500000000E+03  0.12500000000E+03 0.  0.
        -13    1    3    3    0    0 -0.15888690499E+02 -0.42471533743E+02  0.10783316218E+02  0.46610865009E+02  0.10566000000E+00 0. -1.
         23    2    1    0    0    0  0.97935154273E+01 -0.47991479872E+01  0.27690991775E+02  0.95238686331E+02  0.90469174766E+02 0.  0.
         13    1    3    3    0    0  0.25682205926E+02  0.37672385755E+02  0.16907675557E+02  0.48627821322E+02  0.10566000000E+00 0.  1.
         22    1    1    0    0    0 -0.97935154273E+01  0.47991479872E+01 -0.27690991775E+02  0.29761313669E+02  0.00000000000E+00 0. -1.
</event>
<event>
 5    1  0.1325832E-009  0.9118800E+02  0.7818608E-02  0.1130116E+00
         25   -1    0    0    0    0  0.00000000000E+00  0.00000000000E+00  0.99999998245E-14  0.12500000000E+03  0.12500000000E+03 0.  0.
        -13    1    3    3    0    0 -0.79257554846E+01 -0.21202067438E+02  0.53740558883E+02  0.58312983947E+02  0.10566000000E+00 0.  1.
         23    2    1    0    0    0  0.26815871894E+01 -0.22177247463E+02  0.16015211294E+02  0.97513490442E+02  0.93559460294E+02 0.  0.
         13    1    3    3    0    0  0.10607342674E+02 -0.97518002452E+00 -0.37725347590E+02  0.39200506495E+02  0.10566000000E+00 0. -1.
         22    1    1    0    0    0 -0.26815871894E+01  0.22177247463E+02 -0.16015211294E+02  0.27486509558E+02  0.00000000000E+00 0.  1.
</event>
<event>
 5    1  0.1325832E-009  0.9118800E+02  0.7818608E-02  0.1130116E+00
         25   -1    0    0    0    0  0.00000000000E+00  0.00000000000E+00  0.99999998245E-14  0.12500000000E+03  0.12500000000E+03 0.  0.
        -13    1    3    3    0    0 -0.27676144666E+02  0.57231923336E+01  0.42331863629E+02  0.50899133159E+02  0.10566000000E+00 0. -1.
         23    2    1    0    0    0 -0.58665057175E+01  0.27547058163E+02  0.11318233935E+02  0.94646108616E+02  0.89646679548E+02 0.  0.
         13    1    3    3    0    0  0.21809638948E+02  0.21823865829E+02 -0.31013629694E+02  0.43746975457E+02  0.10566000000E+00 0.  1.
         22    1    1    0    0    0  0.58665057175E+01 -0.27547058163E+02 -0.11318233935E+02  0.30353891384E+02  0.00000000000E+00 0. -1.
</event>
<event>
 5    1  0.1325832E-009  0.9118800E+02  0.7818608E-02  0.1130116E+00
         25   -1    0    0    0    0  0.00000000000E+00  0.00000000000E+00  0.99999998245E-14  0.12500000000E+03  0.12500000000E+03 0.  0.
        -13    1    3    3    0    0 -0.26326622760E+02 -0.39953321372E+02  0.10837438191E+02  0.49059353697E+02  0.10566000000E+00 0. -1.
         23    2    1    0    0    0 -0.17811250703E+02 -0.12618919589E+02 -0.22937392157E+02  0.93336112965E+02  0.87801071982E+02 0.  0.
         13    1    3    3    0    0  0.85153720573E+01  0.27334401783E+02 -0.33774830349E+02  0.44276759267E+02  0.10566000000E+00 0.  1.
         22    1    1    0    0    0  0.17811250703E+02  0.12618919589E+02  0.22937392157E+02  0.31663887035E+02  0.00000000000E+00 0.  1.
</event>
<event>
 5    1  0.1325832E-009  0.9118800E+02  0.7818608E-02  0.1130116E+00
         25   -1    0    0    0    0  0.00000000000E+00  0.00000000000E+00  0.99999998245E-14  0.12500000000E+03  0.12500000000E+03 0.  0.
        -13    1    3    3    0    0 -0.11719764415E+01 -0.91599108604E+01  0.42874120358E+02  0.43857483470E+02  0.10566000000E+00 0. -1.
         23    2    1    0    0    0  0.27085537702E+02  0.10515946013E+02  0.41938809836E+01  0.95643567811E+02  0.91026874893E+02 0.  0.
         13    1    3    3    0    0  0.28257514144E+02  0.19675856873E+02 -0.38680239375E+02  0.51786084341E+02  0.10566000000E+00 0.  1.
         22    1    1    0    0    0 -0.27085537702E+02 -0.10515946013E+02 -0.41938809836E+01  0.29356432189E+02  0.00000000000E+00 0. -1.
</event>
<event>
 5    1  0.1325832E-009  0.9118800E+02  0.7818608E-02  0.1130116E+00
         25   -1    0    0    0    0  0.00000000000E+00  0.00000000000E+00  0.99999998245E-14  0.12500000000E+03  0.12500000000E+03 0.  0.
        -13    1    3    3    0    0  0.10551311792E+02  0.43072738853E+01  0.40747895843E+02  0.42311759223E+02  0.10566000000E+00 0.  1.
         23    2    1    0    0    0  0.11204568421E+02  0.25474926777E+02 -0.84839792196E+01  0.95905461832E+02  0.91385805561E+02 0.  0.
         13    1    3    3    0    0  0.65325662835E+00  0.21167652892E+02 -0.49231875063E+02  0.53593702609E+02  0.10566000000E+00 0. -1.
         22    1    1    0    0    0 -0.11204568421E+02 -0.25474926777E+02  0.84839792196E+01  0.29094538168E+02  0.00000000000E+00 0. -1.
</event>
<event>
 5    1  0.1325832E-009  0.9118800E+02  0.7818608E-02  0.1130116E+00
         25   -1    0    0    0    0  0.00000000000E+00  0.00000000000E+00  0.99999998245E-14  0.12500000000E+03  0.12500000000E+03 0.  0.
        -13    1    3    3    0    0  0.27706325166E+02  0.54997792082E+02  0.13342430841E+01  0.61596988211E+02  0.10566000000E+00 0.  1.
         23    2    1    0    0    0  0.20234593218E+02  0.23528091824E+02  0.12665376470E+01  0.93941764615E+02  0.88659128993E+02 0.  0.
         13    1    3    3    0    0 -0.74717319477E+01 -0.31469700257E+02 -0.67705437028E-01  0.32344776404E+02  0.10566000000E+00 0. -1.
         22    1    1    0    0    0 -0.20234593218E+02 -0.23528091824E+02 -0.12665376470E+01  0.31058235385E+02  0.00000000000E+00 0.  1.
</event>
<event>
 5    1  0.1325832E-009  0.9118800E+02  0.7818608E-02  0.1130116E+00
         25   -1    0    0    0    0  0.00000000000E+00  0.00000000000E+00  0.99999998245E-14  0.12500000000E+03  0.12500000000E+03 0.  0.
        -13    1    3    3    0    0  0.94623253532E+00  0.71863153892E+00 -0.51776762140E+02  0.51790501533E+02  0.10566000000E+00 0. -1.
         23    2    1    0    0    0  0.24083309291E+02 -0.63637980458E+01 -0.14664766160E+02  0.96093961210E+02  0.91643277454E+02 0.  0.
         13    1    3    3    0    0  0.23137076756E+02 -0.70824295848E+01  0.37111995981E+02  0.44303459677E+02  0.10566000000E+00 0.  1.
         22    1    1    0    0    0 -0.24083309291E+02  0.63637980458E+01  0.14664766160E+02  0.28906038790E+02  0.00000000000E+00 0.  1.
</event>
<event>
 5    1  0.1325832E-009  0.9118800E+02  0.7818608E-02  0.1130116E+00
         25   -1    0    0    0    0  0.00000000000E+00  0.00000000000E+00  0.99999998245E-14  0.12500000000E+03  0.12500000000E+03 0.  0.
        -13    1    3    3    0    0  0.47710734045E+01 -0.13258326384E+02 -0.44799476013E+02  0.46963289653E+02  0.10566000000E+00 0.  1.
         23    2    1    0    0    0  0.18426546649E+02 -0.25964739775E+02 -0.26555037091E+01  0.93050711542E+02  0.87393809195E+02 0.  0.
         13    1    3    3    0    0  0.13655473244E+02 -0.12706413392E+02  0.42143972304E+02  0.46087421889E+02  0.10566000000E+00 0. -1.
         22    1    1    0    0    0 -0.18426546649E+02  0.25964739775E+02  0.26555037091E+01  0.31949288458E+02  0.00000000000E+00 0. -1.
</event>
<event>
 5    1  0.1325832E-009  0.9118800E+02  0.7818608E-02  0.1130116E+00
         25   -1    0    0    0    0  0.00000000000E+00  0.00000000000E+00  0.99999998245E-14  0.12500000000E+03  0.12500000000E+03 0.  0.
        -13    1    3    3    0    0  0.12196275298E+02  0.26629154270E+02  0.47878992511E+02  0.56127266780E+02  0.10566000000E+00 0.  1.
         23    2    1    0    0    0  0.61353484647E+01 -0.46579729449E+01  0.32660349796E+02  0.91443515358E+02  0.85063969102E+02 0.  0.
         13    1    3    3    0    0 -0.60609268333E+01 -0.31287127215E+02 -0.15218642715E+02  0.35316248578E+02  0.10566000000E+00 0. -1.
         22    1    1    0    0    0 -0.61353484647E+01  0.46579729449E+01 -0.32660349796E+02  0.33556484642E+02  0.00000000000E+00 0.  1.
</event>
<event>
 5    1  0.1325832E-009  0.9118800E+02  0.7818608E-02  0.1130116E+00
         25   -1    0    0    0    0  0.00000000000E+00  0.00000000000E+00  0.99999998245E-14  0.12500000000E+03  0.12500000000E+03 0.  0.
        -13    1    3    3    0    0 -0.57731533536E+01  0.40930332722E+02 -0.46357753576E+02  0.62110175632E+02  0.10566000000E+00 0.  1.
         23    2    1    0    0    0  0.13034615526E+01  0.18256880773E+02 -0.24725793005E+02  0.94236750053E+02  0.89074056342E+02 0.  0.
         13    1    3    3    0    0  0.70766149061E+01 -0.22673451949E+02  0.21631960571E+02  0.32126574421E+02  0.10566000000E+00 0. -1.
         22    1    1    0    0    0 -0.13034615526E+01 -0.18256880773E+02  0.24725793005E+02  0.30763249947E+02  0.00000000000E+00 0.  1.
</event>
<event>
 5    1  0.1325832E-009  0.9118800E+02  0.7818608E-02  0.1130116E+00
         25   -1    0    0    0    0  0.00000000000E+00  0.00000000000E+00  0.99999998245E-14  0.12500000000E+03  0.12500000000E+03 0.  0.
        -13    1    3    3    0    0 -0.39753303986E+02 -0.20404832709E+02 -0.88359222932E+01  0.45549611003E+02  0.10566000000E+00 0.  1.
         23    2    1    0    0    0  0.84924524267E+01 -0.17902654300E+02 -0.21770851906E+02  0.95561984239E+02  0.90914773606E+02 0.  0.
         13    1    3    3    0    0  0.48245756413E+02  0.25021784091E+01 -0.12934929613E+02  0.50012373237E+02  0.10566000000E+00 0. -1.
         22    1    1    0    0    0 -0.84924524267E+01  0.17902654300E+02  0.21770851906E+02  0.29438015761E+02  0.00000000000E+00 0. -1.
</event>
<event>
 5    1  0.1325832E-009  0.9118800E+02  0.7818608E-02  0.1130116E+00
         25   -1    0    0    0    0  0.00000000000E+00  0.00000000000E+00  0.99999998245E-14  0.12500000000E+03  0.12500000000E+03 0.  0.
        -13    1    3    3    0    0 -0.45936543008E+02 -0.35896338349E+02 -0.18080620784E+01  0.58326609218E+02  0.10566000000E+00 0.  1.
         23    2    1    0    0    0 -0.29296808369E+02 -0.48708997862E+01 -0.83812047424E+01  0.94141075225E+02  0.88939691962E+02 0.  0.
         13    1    3    3    0    0  0.16639734639E+02  0.31025438563E+02 -0.65731426641E+01  0.35814466007E+02  0.10566000000E+00 0. -1.
         22    1    1    0    0    0  0.29296808369E+02  0.48708997862E+01  0.83812047424E+01  0.30858924775E+02  0.00000000000E+00 0.  1.
</event>
<event>
 5    1  0.1325832E-009  0.9118800E+02  0.7818608E-02  0.1130116E+00
         25   -1    0    0    0    0  0.00000000000E+00  0.00000000000E+00  0.99999998245E-14  0.12500000000E+03  0.12500000000E+03 0.  0.
        -13    1    3    3    0    0  0.82855706454E+01 -0.27000850343E+02  0.24684540480E+02  0.37510455915E+02  0.10566000000E+00 0.  1.
         23    2    1    0    0    0  0.19122095267E+02  0.14986981650E+02 -0.15128931878E+02  0.96379225620E+02  0.92031551138E+02 0.  0.
         13    1    3    3    0    0  0.10836524621E+02  0.41987831993E+02 -0.39813472358E+02  0.58868769705E+02  0.10566000000E+00 0. -1.
         22    1    1    0    0    0 -0.19122095267E+02 -0.14986981650E+02  0.15128931878E+02  0.28620774380E+02  0.00000000000E+00 0. -1.
</event>
<event>
 5    1  0.1325832E-009  0.9118800E+02  0.7818608E-02  0.1130116E+00
         25   -1    0    0    0    0  0.00000000000E+00  0.00000000000E+00  0.99999998245E-14  0.12500000000E+03  0.12500000000E+03 0.  0.
        -13    1    3    3    0    0 -0.15725668401E+02  0.46098046096E+02  0.37856504113E+02  0.61688350345E+02  0.10566000000E+00 0. -1.
         23    2    1    0    0    0  0.21910286525E+00  0.21068079642E+02  0.15603987601E+02  0.98781754160E+02  0.95238849951E+02 0.  0.
         13    1    3    3    0    0  0.15944771267E+02 -0.25029966454E+02 -0.22252516512E+02  0.37093403815E+02  0.10566000000E+00 0.  1.
         22    1    1    0    0    0 -0.21910286525E+00 -0.21068079642E+02 -0.15603987601E+02  0.26218245840E+02  0.00000000000E+00 0. -1.
</event>
<event>
 5    1  0.1325832E-009  0.9118800E+02  0.7818608E-02  0.1130116E+00
         25   -1    0    0    0    0  0.00000000000E+00  0.00000000000E+00  0.99999998245E-14  0.12500000000E+03  0.12500000000E+03 0.  0.
        -13    1    3    3    0    0  0.16698656917E+01 -0.54804610690E+02  0.81276892650E+01  0.55429272962E+02  0.10566000000E+00 0. -1.
         23    2    1    0    0    0 -0.15622397998E+02 -0.20623616106E+02  0.16059814253E+02  0.94548226746E+02  0.89510092651E+02 0.  0.
         13    1    3    3    0    0 -0.17292263689E+02  0.34180994584E+02  0.79321249885E+01  0.39118953783E+02  0.10566000000E+00 0.  1.
         22    1    1    0    0    0  0.15622397998E+02  0.20623616106E+02 -0.16059814253E+02  0.30451773254E+02  0.00000000000E+00 0. -1.
</event>
<event>
 5    1  0.1325832E-009  0.9118800E+02  0.7818608E-02  0.1130116E+00
         25   -1    0    0    0    0  0.00000000000E+00  0.00000000000E+00  0.99999998245E-14  0.12500000000E+03  0.12500000000E+03 0.  0.
        -13    1    3    3    0    0 -0.18883236719E+02  0.33240413991E+02  0.33306260215E+02  0.50703253198E+02  0.10566000000E+00 0.  1.
         23    2    1    0    0    0  0.17273308533E+02  0.22770074038E+02  0.17172260408E+02  0.91657384822E+02  0.85377668073E+02 0.  0.
         13    1    3    3    0    0  0.36156545252E+02 -0.10470339953E+02 -0.16133999806E+02  0.40954131624E+02  0.10566000000E+00 0. -1.
         22    1    1    0    0    0 -0.17273308533E+02 -0.22770074038E+02 -0.17172260408E+02  0.33342615178E+02  0.00000000000E+00 0. -1.
</event>
<event>
 5    1  0.1325832E-009  0.9118800E+02  0.7818608E-02  0.1130116E+00
         25   -1    0    0    0    0  0.00000000000E+00  0.00000000000E+00  0.99999998245E-14  0.12500000000E+03  0.12500000000E+03 0.  0.
        -13    1    3    3    0    0 -0.28399290644E+02 -0.48956650787E+01 -0.24740231609E+02  0.37981277885E+02  0.10566000000E+00 0.  1.
         23    2    1    0    0    0 -0.60850699566E+01  0.16827961202E+02  0.23537929482E+02  0.95432408301E+02  0.90736442928E+02 0.  0.
         13    1    3    3    0    0  0.22314220688E+02  0.21723626281E+02  0.48278161091E+02  0.57451130416E+02  0.10566000000E+00 0. -1.
         22    1    1    0    0    0  0.60850699566E+01 -0.16827961202E+02 -0.23537929482E+02  0.29567591699E+02  0.00000000000E+00 0. -1.
</event>
<event>
 5    1  0.1325832E-009  0.9118800E+02  0.7818608E-02  0.1130116E+00
         25   -1    0    0    0    0  0.00000000000E+00  0.00000000000E+00  0.99999998245E-14  0.12500000000E+03  0.12500000000E+03 0.  0.
        -13    1    3    3    0    0  0.30233192366E+02 -0.26003095780E+02 -0.13960867825E+02  0.42250726684E+02  0.10566000000E+00 0.  1.
         23    2    1    0    0    0  0.43089233761E+01 -0.65367241007E+01  0.28369861576E+02  0.95569664826E+02  0.90925333139E+02 0.  0.
         13    1    3    3    0    0 -0.25924268990E+02  0.19466371680E+02  0.42330729400E+02  0.53318938143E+02  0.10566000000E+00 0. -1.
         22    1    1    0    0    0 -0.43089233761E+01  0.65367241007E+01 -0.28369861576E+02  0.29430335174E+02  0.00000000000E+00 0. -1.
</event>
<event>
 5    1  0.1325832E-009  0.9118800E+02  0.7818608E-02  0.1130116E+00
         25   -1    0    0    0    0  0.00000000000E+00  0.00000000000E+00  0.99999998245E-14  0.12500000000E+03  0.12500000000E+03 0.  0.
        -13    1    3    3    0    0 -0.86889827816E+01 -0.28515403488E+02 -0.18669490542E+02  0.35173679066E+02  0.10566000000E+00 0.  1.
         23    2    1    0    0    0  0.18030300721E+02  0.23197769004E+02 -0.96414557807E+01  0.94077744254E+02  0.88850639072E+02 0.  0.
         13    1    3    3    0    0  0.26719283502E+02  0.51713172492E+02  0.90280347615E+01  0.58904065189E+02  0.10566000000E+00 0. -1.
         22    1    1    0    0    0 -0.18030300721E+02 -0.23197769004E+02  0.96414557807E+01  0.30922255746E+02  0.00000000000E+00 0. -1.
</event>
<event>
 5    1  0.1325832E-009  0.9118800E+02  0.7818608E-02  0.1130116E+00
         25   -1    0    0    0    0  0.00000000000E+00  0.00000000000E+00  0.99999998245E-14  0.12500000000E+03  0.12500000000E+03 0.  0.
        -13    1    3    3    0    0  0.34119285333E+02 -0.29727013499E+02 -0.10345915170E+02  0.46420578282E+02  0.10566000000E+00 0.  1.
         23    2    1    0    0    0 -0.89322057885E+00 -0.25632455572E+01 -0.29985483473E+02  0.94891906572E+02  0.89988758425E+02 0.  0.
         13    1    3    3    0    0 -0.35012505912E+02  0.27163767942E+02 -0.19639568303E+02  0.48471328290E+02  0.10566000000E+00 0. -1.
         22    1    1    0    0    0  0.89322057885E+00  0.25632455572E+01  0.29985483473E+02  0.30108093428E+02  0.00000000000E+00 0.  1.
</event>
<event>
 5    1  0.1325832E-009  0.9118800E+02  0.7818608E-02  0.1130116E+00
         25   -1    0    0    0    0  0.00000000000E+00  0.00000000000E+00  0.99999998245E-14  0.12500000000E+03  0.12500000000E+03 0.  0.
        -13    1    3    3    0    0 -0.23282665353E+02 -0.30718806338E+02  0.98204655577E+00  0.38557789722E+02  0.10566000000E+00 0.  1.
         23    2    1    0    0    0 -0.10756835536E+02  0.14640696518E+02  0.27097334271E+02  0.92376005305E+02  0.86423384140E+02 0.  0.
         13    1    3    3    0    0  0.12525829817E+02  0.45359502856E+02  0.26115287715E+02  0.53818215582E+02  0.10566000000E+00 0. -1.
         22    1    1    0    0    0  0.10756835536E+02 -0.14640696518E+02 -0.27097334271E+02  0.32623994695E+02  0.00000000000E+00 0. -1.
</event>
<event>
 5    1  0.1325832E-009  0.9118800E+02  0.7818608E-02  0.1130116E+00
         25   -1    0    0    0    0  0.00000000000E+00  0.00000000000E+00  0.99999998245E-14  0.12500000000E+03  0.12500000000E+03 0.  0.
        -13    1    3    3    0    0 -0.16652636577E+02  0.51824238536E+02 -0.18087270800E+02  0.57360461415E+02  0.10566000000E+00 0.  1.
         23    2    1    0    0    0  0.25572550424E+01  0.36014506436E+02  0.12534997742E+01  0.88873064220E+02  0.81198928903E+02 0.  0.
         13    1    3    3    0    0  0.19209891619E+02 -0.15809732100E+02  0.19340770574E+02  0.31512602805E+02  0.10566000000E+00 0. -1.
         22    1    1    0    0    0 -0.25572550424E+01 -0.36014506436E+02 -0.12534997742E+01  0.36126935780E+02  0.00000000000E+00 0.  1.
</event>
<event>
 5    1  0.1325832E-009  0.9118800E+02  0.7818608E-02  0.1130116E+00
         25   -1    0    0    0    0  0.00000000000E+00  0.00000000000E+00  0.99999998245E-14  0.12500000000E+03  0.12500000000E+03 0.  0.
        -13    1    3    3    0    0 -0.27545144453E+02 -0.22508874386E+02  0.45757401541E+01  0.35865484397E+02  0.10566000000E+00 0.  1.
         23    2    1    0    0    0  0.61483896261E+01  0.24261655323E+02  0.16884993005E+02  0.94808385224E+02  0.89872667180E+02 0.  0.
         13    1    3    3    0    0  0.33693534079E+02  0.46770529710E+02  0.12309252851E+02  0.58942900826E+02  0.10566000000E+00 0. -1.
         22    1    1    0    0    0 -0.61483896261E+01 -0.24261655323E+02 -0.16884993005E+02  0.30191614776E+02  0.00000000000E+00 0. -1.
</event>
<event>
 5    1  0.1325832E-009  0.9118800E+02  0.7818608E-02  0.1130116E+00
         25   -1    0    0    0    0  0.00000000000E+00  0.00000000000E+00  0.99999998245E-14  0.12500000000E+03  0.12500000000E+03 0.  0.
        -13    1    3    3    0    0 -0.15624573509E+02 -0.50744444107E+02 -0.24997984390E+02  0.58685912216E+02  0.10566000000E+00 0.  1.
         23    2    1    0    0    0  0.18258724375E+01 -0.23429914939E+02 -0.24426142536E+02  0.91104112884E+02  0.84563752406E+02 0.  0.
         13    1    3    3    0    0  0.17450445947E+02  0.27314529168E+02  0.57184185405E+00  0.32418200668E+02  0.10566000000E+00 0. -1.
         22    1    1    0    0    0 -0.18258724375E+01  0.23429914939E+02  0.24426142536E+02  0.33895887116E+02  0.00000000000E+00 0.  1.
</event>
<event>
 5    1  0.1325832E-009  0.9118800E+02  0.7818608E-02  0.1130116E+00
         25   -1    0    0    0    0  0.00000000000E+00  0.00000000000E+00  0.99999998245E-14  0.12500000000E+03  0.12500000000E+03 0.  0.
        -13    1    3    3    0    0 -0.18650866682E+02 -0.41835053779E+02  0.27756006251E+02  0.53557759472E+02  0.10566000000E+00 0.  1.
         23    2    1    0    0    0 -0.18928165469E+02 -0.17518370657E+02 -0.90460002420E+01  0.97668719772E+02  0.93766624889E+02 0.  0.
         13    1    3    3    0    0 -0.27729878696E+00  0.24316683121E+02 -0.36802006493E+02  0.44110960300E+02  0.10566000000E+00 0. -1.
         22    1    1    0    0    0  0.18928165469E+02  0.17518370657E+02  0.90460002420E+01  0.27331280228E+02  0.00000000000E+00 0.  1.
</event>
<event>
 5    1  0.1325832E-009  0.9118800E+02  0.7818608E-02  0.1130116E+00
         25   -1    0    0    0    0  0.00000000000E+00  0.00000000000E+00  0.99999998245E-14  0.12500000000E+03  0.12500000000E+03 0.  0.
        -13    1    3    3    0    0 -0.10486686272E+02  0.43030070189E+02  0.44134472775E+01  0.44508956518E+02  0.10566000000E+00 0.  1.
         23    2    1    0    0    0 -0.19519131503E+01  0.49770972975E+01 -0.28784000130E+02  0.95723727595E+02  0.91136885501E+02 0.  0.
         13    1    3    3    0    0  0.85347731216E+01 -0.38052972891E+02 -0.33197447407E+02  0.51214771077E+02  0.10566000000E+00 0. -1.
         22    1    1    0    0    0  0.19519131503E+01 -0.49770972975E+01  0.28784000130E+02  0.29276272405E+02  0.00000000000E+00 0.  1.
</event>
<event>
 5    1  0.1325832E-009  0.9118800E+02  0.7818608E-02  0.1130116E+00
         25   -1    0    0    0    0  0.00000000000E+00  0.00000000000E+00  0.99999998245E-14  0.12500000000E+03  0.12500000000E+03 0.  0.
        -13    1    3    3    0    0 -0.18173032872E+02 -0.26920239560E+02  0.43928443528E+02  0.54632204208E+02  0.10566000000E+00 0.  1.
         23    2    1    0    0    0 -0.12480087081E+02 -0.26839557387E+02  0.38056060800E+01  0.95157127285E+02  0.90356415495E+02 0.  0.
         13    1    3    3    0    0  0.56929457918E+01  0.80682173499E-01 -0.40122837448E+02  0.40524923076E+02  0.10566000000E+00 0. -1.
         22    1    1    0    0    0  0.12480087081E+02  0.26839557387E+02 -0.38056060800E+01  0.29842872715E+02  0.00000000000E+00 0.  1.
</event>
<event>
 5    1  0.1325832E-009  0.9118800E+02  0.7818608E-02  0.1130116E+00
         25   -1    0    0    0    0  0.00000000000E+00  0.00000000000E+00  0.99999998245E-14  0.12500000000E+03  0.12500000000E+03 0.  0.
        -13    1    3    3    0    0 -0.11211385580E+02 -0.23305830744E+02  0.24338141946E+02  0.35513564038E+02  0.10566000000E+00 0.  1.
         23    2    1    0    0    0  0.22359205586E+02  0.15319102930E+02 -0.88265125444E+01  0.96495328230E+02  0.92189110298E+02 0.  0.
         13    1    3    3    0    0  0.33570591166E+02  0.38624933674E+02 -0.33164654490E+02  0.60981764192E+02  0.10566000000E+00 0. -1.
         22    1    1    0    0    0 -0.22359205586E+02 -0.15319102930E+02  0.88265125444E+01  0.28504671770E+02  0.00000000000E+00 0. -1.
</event>
<event>
 5    1  0.1325832E-009  0.9118800E+02  0.7818608E-02  0.1130116E+00
         25   -1    0    0    0    0  0.00000000000E+00  0.00000000000E+00  0.99999998245E-14  0.12500000000E+03  0.12500000000E+03 0.  0.
        -13    1    3    3    0    0  0.18909579632E+02  0.28095498186E+02  0.74956327267E+01  0.34686090788E+02  0.10566000000E+00 0.  1.
         23    2    1    0    0    0 -0.92944555211E+01 -0.20330708995E+02 -0.18043595866E+02  0.96272034818E+02  0.91885846051E+02 0.  0.
         13    1    3    3    0    0 -0.28204035153E+02 -0.48426207181E+02 -0.25539228593E+02  0.61585944030E+02  0.10566000000E+00 0. -1.
         22    1    1    0    0    0  0.92944555211E+01  0.20330708995E+02  0.18043595866E+02  0.28727965182E+02  0.00000000000E+00 0. -1.
</event>
<event>
 5    1  0.1325832E-009  0.9118800E+02  0.7818608E-02  0.1130116E+00
         25   -1    0    0    0    0  0.00000000000E+00  0.00000000000E+00  0.99999998245E-14  0.12500000000E+03  0.12500000000E+03 0.  0.
        -13    1    3    3    0    0 -0.19842262834E+02 -0.35878722972E+02 -0.40604699529E+01  0.41200688547E+02  0.10566000000E+00 0.  1.
         23    2    1    0    0    0  0.11925948309E+02 -0.25089931354E+01  0.26049616915E+02  0.96240552317E+02  0.91843007787E+02 0.  0.
         13    1    3    3    0    0  0.31768211143E+02  0.33369729837E+02  0.30110086868E+02  0.55039863770E+02  0.10566000000E+00 0. -1.
         22    1    1    0    0    0 -0.11925948309E+02  0.25089931354E+01 -0.26049616915E+02  0.28759447683E+02  0.00000000000E+00 0. -1.
</event>
<event>
 5    1  0.1325832E-009  0.9118800E+02  0.7818608E-02  0.1130116E+00
         25   -1    0    0    0    0  0.00000000000E+00  0.00000000000E+00  0.99999998245E-14  0.12500000000E+03  0.12500000000E+03 0.  0.
        -13    1    3    3    0    0 -0.22794849601E+02 -0.13108695939E+02  0.23692156876E+02  0.35394526965E+02  0.10566000000E+00 0.  1.
         23    2    1    0    0    0  0.27910798838E+02  0.31205835628E+01 -0.58951525131E+01  0.96303248325E+02  0.91928298587E+02 0.  0.
         13    1    3    3    0    0  0.50705648439E+02  0.16229279502E+02 -0.29587309390E+02  0.60908721360E+02  0.10566000000E+00 0. -1.
         22    1    1    0    0    0 -0.27910798838E+02 -0.31205835628E+01  0.58951525131E+01  0.28696751675E+02  0.00000000000E+00 0. -1.
</event>
<event>
 5    1  0.1325832E-009  0.9118800E+02  0.7818608E-02  0.1130116E+00
         25   -1    0    0    0    0  0.00000000000E+00  0.00000000000E+00  0.99999998245E-14  0.12500000000E+03  0.12500000000E+03 0.  0.
        -13    1    3    3    0    0 -0.47623147066E+02 -0.22227314695E+02 -0.27828634788E+01  0.52628634300E+02  0.10566000000E+00 0.  1.
         23    2    1    0    0    0 -0.59505701010E+01 -0.29163676622E+02 -0.44342894171E+01  0.94906940313E+02  0.90009638808E+02 0.  0.
         13    1    3    3    0    0  0.41672576965E+02 -0.69363619273E+01 -0.16514259383E+01  0.42278306014E+02  0.10566000000E+00 0. -1.
         22    1    1    0    0    0  0.59505701010E+01  0.29163676622E+02  0.44342894171E+01  0.30093059687E+02  0.00000000000E+00 0.  1.
</event>
<event>
 5    1  0.1325832E-009  0.9118800E+02  0.7818608E-02  0.1130116E+00
         25   -1    0    0    0    0  0.00000000000E+00  0.00000000000E+00  0.99999998245E-14  0.12500000000E+03  0.12500000000E+03 0.  0.
        -13    1    3    3    0    0 -0.22465110674E+02 -0.30056980512E+02 -0.91026169690E+01  0.38613107552E+02  0.10566000000E+00 0. -1.
         23    2    1    0    0    0  0.25996052322E+02  0.27221262009E+01 -0.96936410822E+01  0.97122206242E+02  0.93035216775E+02 0.  0.
         13    1    3    3    0    0  0.48461162997E+02  0.32779106713E+02 -0.59102411322E+00  0.58509098689E+02  0.10566000000E+00 0.  1.
         22    1    1    0    0    0 -0.25996052322E+02 -0.27221262009E+01  0.96936410822E+01  0.27877793758E+02  0.00000000000E+00 0.  1.
</event>
<event>
 5    1  0.1325832E-009  0.9118800E+02  0.7818608E-02  0.1130116E+00
         25   -1    0    0    0    0  0.00000000000E+00  0.00000000000E+00  0.99999998245E-14  0.12500000000E+03  0.12500000000E+03 0.  0.
        -13    1    3    3    0    0  0.30686308656E+02 -0.73251588324E+00 -0.20766922846E+02  0.37060253196E+02  0.10566000000E+00 0. -1.
         23    2    1    0    0    0 -0.43664103236E+01 -0.75130821736E+01  0.26966115183E+02  0.96668333778E+02  0.92423392301E+02 0.  0.
         13    1    3    3    0    0 -0.35052718980E+02 -0.67805662904E+01  0.47733038029E+02  0.59608080581E+02  0.10566000000E+00 0.  1.
         22    1    1    0    0    0  0.43664103236E+01  0.75130821736E+01 -0.26966115183E+02  0.28331666222E+02  0.00000000000E+00 0.  1.
</event>
<event>
 5    1  0.1325832E-009  0.9118800E+02  0.7818608E-02  0.1130116E+00
         25   -1    0    0    0    0  0.00000000000E+00  0.00000000000E+00  0.99999998245E-14  0.12500000000E+03  0.12500000000E+03 0.  0.
        -13    1    3    3    0    0 -0.64536658436E+01 -0.24285913679E+02 -0.32426830250E+02  0.41023967265E+02  0.10566000000E+00 0.  1.
         23    2    1    0    0    0  0.23718133489E+02 -0.19822805430E+02  0.93097768219E+01  0.92717413118E+02  0.86915782683E+02 0.  0.
         13    1    3    3    0    0  0.30171799333E+02  0.44631082489E+01  0.41736607072E+02  0.51693445853E+02  0.10566000000E+00 0. -1.
         22    1    1    0    0    0 -0.23718133489E+02  0.19822805430E+02 -0.93097768219E+01  0.32282586882E+02  0.00000000000E+00 0. -1.
</event>
<event>
 5    1  0.1325832E-009  0.9118800E+02  0.7818608E-02  0.1130116E+00
         25   -1    0    0    0    0  0.00000000000E+00  0.00000000000E+00  0.99999998245E-14  0.12500000000E+03  0.12500000000E+03 0.  0.
        -13    1    3    3    0    0  0.29274907518E+02  0.28744030435E+02 -0.19317311785E+01  0.41072889419E+02  0.10566000000E+00 0. -1.
         23    2    1    0    0    0 -0.19532521886E+02  0.11580977265E+02  0.17492140433E+02  0.96336200137E+02  0.91973094078E+02 0.  0.
         13    1    3    3    0    0 -0.48807429404E+02 -0.17163053169E+02  0.19423871611E+02  0.55263310718E+02  0.10566000000E+00 0.  1.
         22    1    1    0    0    0  0.19532521886E+02 -0.11580977265E+02 -0.17492140433E+02  0.28663799863E+02  0.00000000000E+00 0.  1.
</event>
<event>
 5    1  0.1325832E-009  0.9118800E+02  0.7818608E-02  0.1130116E+00
         25   -1    0    0    0    0  0.00000000000E+00  0.00000000000E+00  0.99999998245E-14  0.12500000000E+03  0.12500000000E+03 0.  0.
        -13    1    3    3    0    0 -0.30350770800E+02 -0.98985730757E+00 -0.15655373918E+02  0.34165055278E+02  0.10566000000E+00 0. -1.
         23    2    1    0    0    0  0.28667468900E+02  0.67220897902E+01 -0.64850663480E+00  0.95547821386E+02  0.90895298814E+02 0.  0.
         13    1    3    3    0    0  0.59018239699E+02  0.77119470978E+01  0.15006867284E+02  0.61382766107E+02  0.10566000000E+00 0.  1.
         22    1    1    0    0    0 -0.28667468900E+02 -0.67220897902E+01  0.64850663480E+00  0.29452178614E+02  0.00000000000E+00 0.  1.
</event>
<event>
 5    1  0.1325832E-009  0.9118800E+02  0.7818608E-02  0.1130116E+00
         25   -1    0    0    0    0  0.00000000000E+00  0.00000000000E+00  0.99999998245E-14  0.12500000000E+03  0.12500000000E+03 0.  0.
        -13    1    3    3    0    0  0.13609332599E+02  0.26095189449E+02 -0.54785879250E+01  0.29936581900E+02  0.10566000000E+00 0. -1.
         23    2    1    0    0    0 -0.25327636727E+02 -0.21597643575E+02 -0.34087924130E+01  0.91540064916E+02  0.85205728850E+02 0.  0.
         13    1    3    3    0    0 -0.38936969326E+02 -0.47692833024E+02  0.20697955120E+01  0.61603483015E+02  0.10566000000E+00 0.  1.
         22    1    1    0    0    0  0.25327636727E+02  0.21597643575E+02  0.34087924130E+01  0.33459935084E+02  0.00000000000E+00 0.  1.
</event>
<event>
 5    1  0.1325832E-009  0.9118800E+02  0.7818608E-02  0.1130116E+00
         25   -1    0    0    0    0  0.00000000000E+00  0.00000000000E+00  0.99999998245E-14  0.12500000000E+03  0.12500000000E+03 0.  0.
        -13    1    3    3    0    0 -0.42229741808E+02  0.12551350007E+02 -0.16645029430E+02  0.47095176494E+02  0.10566000000E+00 0. -1.
         23    2    1    0    0    0  0.16018946419E+01 -0.46993242207E+01 -0.28826533236E+02  0.95749038768E+02  0.91171594765E+02 0.  0.
         13    1    3    3    0    0  0.43831636450E+02 -0.17250674228E+02 -0.12181503806E+02  0.48653862275E+02  0.10566000000E+00 0.  1.
         22    1    1    0    0    0 -0.16018946419E+01  0.46993242207E+01  0.28826533236E+02  0.29250961232E+02  0.00000000000E+00 0. -1.
</event>
<event>
 5    1  0.1325832E-009  0.9118800E+02  0.7818608E-02  0.1130116E+00
         25   -1    0    0    0    0  0.00000000000E+00  0.00000000000E+00  0.99999998245E-14  0.12500000000E+03  0.12500000000E+03 0.  0.
        -13    1    3    3    0    0  0.36975934223E+01  0.30299016536E+02  0.23234203627E+02  0.38360682767E+02  0.10566000000E+00 0.  1.
         23    2    1    0    0    0 -0.89838198069E+01  0.45908141761E+01 -0.26987889752E+02  0.96188009676E+02  0.91771468437E+02 0.  0.
         13    1    3    3    0    0 -0.12681413229E+02 -0.25708202360E+02 -0.50222093379E+02  0.57827326909E+02  0.10566000000E+00 0. -1.
         22    1    1    0    0    0  0.89838198069E+01 -0.45908141761E+01  0.26987889752E+02  0.28811990324E+02  0.00000000000E+00 0.  1.
</event>
<event>
 5    1  0.1325832E-009  0.9118800E+02  0.7818608E-02  0.1130116E+00
         25   -1    0    0    0    0  0.00000000000E+00  0.00000000000E+00  0.99999998245E-14  0.12500000000E+03  0.12500000000E+03 0.  0.
        -13    1    3    3    0    0  0.30957259608E+02  0.27402926512E+02  0.41324524150E+02  0.58455108965E+02  0.10566000000E+00 0.  1.
         23    2    1    0    0    0  0.47578978528E+01  0.25173862941E+02  0.23615154825E+02  0.90156973370E+02  0.83151929276E+02 0.  0.
         13    1    3    3    0    0 -0.26199361755E+02 -0.22290635707E+01 -0.17709369325E+02  0.31701864404E+02  0.10566000000E+00 0. -1.
         22    1    1    0    0    0 -0.47578978528E+01 -0.25173862941E+02 -0.23615154825E+02  0.34843026630E+02  0.00000000000E+00 0.  1.
</event>
<event>
 5    1  0.1325832E-009  0.9118800E+02  0.7818608E-02  0.1130116E+00
         25   -1    0    0    0    0  0.00000000000E+00  0.00000000000E+00  0.99999998245E-14  0.12500000000E+03  0.12500000000E+03 0.  0.
        -13    1    3    3    0    0 -0.33026771089E+02 -0.30363980830E+02  0.35283903243E+02  0.57076299219E+02  0.10566000000E+00 0.  1.
         23    2    1    0    0    0 -0.28870829566E+02 -0.10006392949E+02  0.46490679398E+01  0.94092613627E+02  0.88871555668E+02 0.  0.
         13    1    3    3    0    0  0.41559415226E+01  0.20357587881E+02 -0.30634835303E+02  0.37016314408E+02  0.10566000000E+00 0. -1.
         22    1    1    0    0    0  0.28870829566E+02  0.10006392949E+02 -0.46490679398E+01  0.30907386373E+02  0.00000000000E+00 0.  1.
</event>
<event>
 5    1  0.1325832E-009  0.9118800E+02  0.7818608E-02  0.1130116E+00
         25   -1    0    0    0    0  0.00000000000E+00  0.00000000000E+00  0.99999998245E-14  0.12500000000E+03  0.12500000000E+03 0.  0.
        -13    1    3    3    0    0 -0.40839518679E+02 -0.22053459637E+02 -0.39174577312E+02  0.60736151010E+02  0.10566000000E+00 0.  1.
         23    2    1    0    0    0 -0.18823260451E+02  0.55585308591E+00 -0.10172898070E+02  0.10359644978E+03  0.10136129659E+03 0.  0.
         13    1    3    3    0    0  0.22016258228E+02  0.22609312723E+02  0.29001679242E+02  0.42860298774E+02  0.10566000000E+00 0. -1.
         22    1    1    0    0    0  0.18823260451E+02 -0.55585308591E+00  0.10172898070E+02  0.21403550215E+02  0.00000000000E+00 0.  1.
</event>
<event>
 5    1  0.1325832E-009  0.9118800E+02  0.7818608E-02  0.1130116E+00
         25   -1    0    0    0    0  0.00000000000E+00  0.00000000000E+00  0.99999998245E-14  0.12500000000E+03  0.12500000000E+03 0.  0.
        -13    1    3    3    0    0 -0.24787675243E+02 -0.24122148791E+02 -0.60572535026E+01  0.35114219204E+02  0.10566000000E+00 0.  1.
         23    2    1    0    0    0 -0.61558133769E+01  0.28581779332E+02  0.11311697253E+02  0.93650890877E+02  0.88248074875E+02 0.  0.
         13    1    3    3    0    0  0.18631861866E+02  0.52703928123E+02  0.17368950755E+02  0.58536671673E+02  0.10566000000E+00 0. -1.
         22    1    1    0    0    0  0.61558133769E+01 -0.28581779332E+02 -0.11311697253E+02  0.31349109123E+02  0.00000000000E+00 0. -1.
</event>
<event>
 5    1  0.1325832E-009  0.9118800E+02  0.7818608E-02  0.1130116E+00
         25   -1    0    0    0    0  0.00000000000E+00  0.00000000000E+00  0.99999998245E-14  0.12500000000E+03  0.12500000000E+03 0.  0.
        -13    1    3    3    0    0 -0.27687722605E+01 -0.35534102154E+02 -0.30640068348E+02  0.47001738990E+02  0.10566000000E+00 0. -1.
         23    2    1    0    0    0  0.24985801464E+02  0.31638668597E+00 -0.18415292148E+02  0.93959488402E+02  0.88684114139E+02 0.  0.
         13    1    3    3    0    0  0.27754573725E+02  0.35850488840E+02  0.12224776200E+02  0.46957749412E+02  0.10566000000E+00 0.  1.
         22    1    1    0    0    0 -0.24985801464E+02 -0.31638668597E+00  0.18415292148E+02  0.31040511598E+02  0.00000000000E+00 0.  1.
</event>
<event>
 5    1  0.1325832E-009  0.9118800E+02  0.7818608E-02  0.1130116E+00
         25   -1    0    0    0    0  0.00000000000E+00  0.00000000000E+00  0.99999998245E-14  0.12500000000E+03  0.12500000000E+03 0.  0.
        -13    1    3    3    0    0 -0.67016917201E+01 -0.28295602013E+02 -0.25981414354E+02  0.38994856341E+02  0.10566000000E+00 0. -1.
         23    2    1    0    0    0 -0.14836029291E+02 -0.40362866076E+01  0.24778379961E+02  0.95838938836E+02  0.91294768245E+02 0.  0.
         13    1    3    3    0    0 -0.81343375710E+01  0.24259315405E+02  0.50759794316E+02  0.56844082495E+02  0.10566000000E+00 0.  1.
         22    1    1    0    0    0  0.14836029291E+02  0.40362866076E+01 -0.24778379961E+02  0.29161061164E+02  0.00000000000E+00 0.  1.
</event>
<event>
 5    1  0.1325832E-009  0.9118800E+02  0.7818608E-02  0.1130116E+00
         25   -1    0    0    0    0  0.00000000000E+00  0.00000000000E+00  0.99999998245E-14  0.12500000000E+03  0.12500000000E+03 0.  0.
        -13    1    3    3    0    0 -0.23544305846E+02 -0.20090910417E+02 -0.28707922326E+02  0.42215340665E+02  0.10566000000E+00 0.  1.
         23    2    1    0    0    0  0.20102537771E+02  0.94651620096E+01 -0.18893492597E+02  0.95833831599E+02  0.91287775193E+02 0.  0.
         13    1    3    3    0    0  0.43646843617E+02  0.29556072427E+02  0.98144297293E+01  0.53618490934E+02  0.10566000000E+00 0. -1.
         22    1    1    0    0    0 -0.20102537771E+02 -0.94651620096E+01  0.18893492597E+02  0.29166168401E+02  0.00000000000E+00 0. -1.
</event>
<event>
 5    1  0.1325832E-009  0.9118800E+02  0.7818608E-02  0.1130116E+00
         25   -1    0    0    0    0  0.00000000000E+00  0.00000000000E+00  0.99999998245E-14  0.12500000000E+03  0.12500000000E+03 0.  0.
        -13    1    3    3    0    0  0.30843874705E+02 -0.28082158251E+02 -0.82468148631E+01  0.42520269734E+02  0.10566000000E+00 0. -1.
         23    2    1    0    0    0 -0.22997474058E+02 -0.70655274138E+01 -0.51208468619E+01  0.10040267162E+03  0.97343042411E+02 0.  0.
         13    1    3    3    0    0 -0.53841348764E+02  0.21016630837E+02  0.31259680013E+01  0.57882401889E+02  0.10566000000E+00 0.  1.
         22    1    1    0    0    0  0.22997474058E+02  0.70655274138E+01  0.51208468619E+01  0.24597328377E+02  0.00000000000E+00 0.  1.
</event>
<event>
 5    1  0.1325832E-009  0.9118800E+02  0.7818608E-02  0.1130116E+00
         25   -1    0    0    0    0  0.00000000000E+00  0.00000000000E+00  0.99999998245E-14  0.12500000000E+03  0.12500000000E+03 0.  0.
        -13    1    3    3    0    0  0.20902399340E+02 -0.36589016198E+02 -0.32082624484E+01  0.42260744391E+02  0.10566000000E+00 0.  1.
         23    2    1    0    0    0 -0.26107233924E+02 -0.10739686142E+02  0.43444058343E+01  0.96437745473E+02  0.92111000256E+02 0.  0.
         13    1    3    3    0    0 -0.47009633265E+02  0.25849330055E+02  0.75526682827E+01  0.54177001082E+02  0.10566000000E+00 0. -1.
         22    1    1    0    0    0  0.26107233924E+02  0.10739686142E+02 -0.43444058343E+01  0.28562254527E+02  0.00000000000E+00 0.  1.
</event>
<event>
 5    1  0.1325832E-009  0.9118800E+02  0.7818608E-02  0.1130116E+00
         25   -1    0    0    0    0  0.00000000000E+00  0.00000000000E+00  0.99999998245E-14  0.12500000000E+03  0.12500000000E+03 0.  0.
        -13    1    3    3    0    0  0.54975747584E+02  0.89827563031E+01  0.27186651650E+02  0.61985062114E+02  0.10566000000E+00 0. -1.
         23    2    1    0    0    0  0.23659871491E+02  0.98832075930E+00  0.16916283779E+02  0.95897990554E+02  0.91375585572E+02 0.  0.
         13    1    3    3    0    0 -0.31315876093E+02 -0.79944355438E+01 -0.10270367871E+02  0.33912928441E+02  0.10566000000E+00 0.  1.
         22    1    1    0    0    0 -0.23659871491E+02 -0.98832075930E+00 -0.16916283779E+02  0.29102009446E+02  0.00000000000E+00 0. -1.
</event>
<event>
 5    1  0.1325832E-009  0.9118800E+02  0.7818608E-02  0.1130116E+00
         25   -1    0    0    0    0  0.00000000000E+00  0.00000000000E+00  0.99999998245E-14  0.12500000000E+03  0.12500000000E+03 0.  0.
        -13    1    3    3    0    0  0.20225436886E+02  0.24096089530E+02 -0.16934787517E+02  0.35727972516E+02  0.10566000000E+00 0.  1.
         23    2    1    0    0    0  0.27647827686E+01 -0.30089468704E+02 -0.13429480751E+01  0.94753948023E+02  0.89796920915E+02 0.  0.
         13    1    3    3    0    0 -0.17460654117E+02 -0.54185558234E+02  0.15591839442E+02  0.59025975507E+02  0.10566000000E+00 0. -1.
         22    1    1    0    0    0 -0.27647827686E+01  0.30089468704E+02  0.13429480751E+01  0.30246051977E+02  0.00000000000E+00 0. -1.
</event>
<event>
 5    1  0.1325832E-009  0.9118800E+02  0.7818608E-02  0.1130116E+00
         25   -1    0    0    0    0  0.00000000000E+00  0.00000000000E+00  0.99999998245E-14  0.12500000000E+03  0.12500000000E+03 0.  0.
        -13    1    3    3    0    0  0.46331757094E+01  0.45091772445E+02  0.28870947020E+02  0.53742692576E+02  0.10566000000E+00 0. -1.
         23    2    1    0    0    0  0.11886639003E+02  0.28813466407E+01  0.25517114892E+02  0.96703047909E+02  0.92470330253E+02 0.  0.
         13    1    3    3    0    0  0.72534632936E+01 -0.42210425805E+02 -0.33538321283E+01  0.42960355333E+02  0.10566000000E+00 0.  1.
         22    1    1    0    0    0 -0.11886639003E+02 -0.28813466407E+01 -0.25517114892E+02  0.28296952091E+02  0.00000000000E+00 0. -1.
</event>
<event>
 5    1  0.1325832E-009  0.9118800E+02  0.7818608E-02  0.1130116E+00
         25   -1    0    0    0    0  0.00000000000E+00  0.00000000000E+00  0.99999998245E-14  0.12500000000E+03  0.12500000000E+03 0.  0.
        -13    1    3    3    0    0 -0.24795715624E+02 -0.36643257523E+02 -0.97614667721E+01  0.45308423419E+02  0.10566000000E+00 0. -1.
         23    2    1    0    0    0 -0.24605560830E+02  0.13920299514E+02 -0.42899249300E+00  0.96726471800E+02  0.92501988898E+02 0.  0.
         13    1    3    3    0    0  0.19015479408E+00  0.50563557037E+02  0.93324742791E+01  0.51418048381E+02  0.10566000000E+00 0.  1.
         22    1    1    0    0    0  0.24605560830E+02 -0.13920299514E+02  0.42899249300E+00  0.28273528200E+02  0.00000000000E+00 0. -1.
</event>
<event>
 5    1  0.1325832E-009  0.9118800E+02  0.7818608E-02  0.1130116E+00
         25   -1    0    0    0    0  0.00000000000E+00  0.00000000000E+00  0.99999998245E-14  0.12500000000E+03  0.12500000000E+03 0.  0.
        -13    1    3    3    0    0  0.22106895975E+02  0.23236133485E+02  0.10492210282E+02  0.33745079488E+02  0.10566000000E+00 0. -1.
         23    2    1    0    0    0 -0.10406607572E+02 -0.24386142762E+02 -0.12329054287E+02  0.95759838927E+02  0.91186401024E+02 0.  0.
         13    1    3    3    0    0 -0.32513503547E+02 -0.47622276247E+02 -0.22821264569E+02  0.62014759440E+02  0.10566000000E+00 0.  1.
         22    1    1    0    0    0  0.10406607572E+02  0.24386142762E+02  0.12329054287E+02  0.29240161073E+02  0.00000000000E+00 0.  1.
</event>
<event>
 5    1  0.1325832E-009  0.9118800E+02  0.7818608E-02  0.1130116E+00
         25   -1    0    0    0    0  0.00000000000E+00  0.00000000000E+00  0.99999998245E-14  0.12500000000E+03  0.12500000000E+03 0.  0.
        -13    1    3    3    0    0  0.20210681601E+02 -0.58055227697E+02 -0.84756311709E+01  0.62054239190E+02  0.10566000000E+00 0. -1.
         23    2    1    0    0    0  0.45412893334E+01 -0.28948306226E+02 -0.46327607249E+01  0.95333685532E+02  0.90600338758E+02 0.  0.
         13    1    3    3    0    0 -0.15669392268E+02  0.29106921470E+02  0.38428704461E+01  0.33279446342E+02  0.10566000000E+00 0.  1.
         22    1    1    0    0    0 -0.45412893334E+01  0.28948306226E+02  0.46327607249E+01  0.29666314468E+02  0.00000000000E+00 0. -1.
</event>
<event>
 5    1  0.1325832E-009  0.9118800E+02  0.7818608E-02  0.1130116E+00
         25   -1    0    0    0    0  0.00000000000E+00  0.00000000000E+00  0.99999998245E-14  0.12500000000E+03  0.12500000000E+03 0.  0.
        -13    1    3    3    0    0 -0.13593455609E+02 -0.15293108566E+01  0.45710806907E+02  0.47713832996E+02  0.10566000000E+00 0.  1.
         23    2    1    0    0    0 -0.21543149746E+02  0.24056088169E+02  0.12528216738E+02  0.90362464095E+02  0.83460266137E+02 0.  0.
         13    1    3    3    0    0 -0.79496941372E+01  0.25585399026E+02 -0.33182590169E+02  0.42648631098E+02  0.10566000000E+00 0. -1.
         22    1    1    0    0    0  0.21543149746E+02 -0.24056088169E+02 -0.12528216738E+02  0.34637535905E+02  0.00000000000E+00 0.  1.
</event>
<event>
 5    1  0.1325832E-009  0.9118800E+02  0.7818608E-02  0.1130116E+00
         25   -1    0    0    0    0  0.00000000000E+00  0.00000000000E+00  0.99999998245E-14  0.12500000000E+03  0.12500000000E+03 0.  0.
        -13    1    3    3    0    0 -0.34879800361E+02 -0.47875092764E+02 -0.13948115755E+01  0.59250161551E+02  0.10566000000E+00 0.  1.
         23    2    1    0    0    0 -0.27121484217E+02 -0.14886932943E+02 -0.61066145819E+01  0.93464521246E+02  0.87983693441E+02 0.  0.
         13    1    3    3    0    0  0.77583161446E+01  0.32988159821E+02 -0.47118030065E+01  0.34214359696E+02  0.10566000000E+00 0. -1.
         22    1    1    0    0    0  0.27121484217E+02  0.14886932943E+02  0.61066145819E+01  0.31535478754E+02  0.00000000000E+00 0.  1.
</event>
<event>
 5    1  0.1325832E-009  0.9118800E+02  0.7818608E-02  0.1130116E+00
         25   -1    0    0    0    0  0.00000000000E+00  0.00000000000E+00  0.99999998245E-14  0.12500000000E+03  0.12500000000E+03 0.  0.
        -13    1    3    3    0    0 -0.78143757491E+00  0.24565258944E+02 -0.32861107781E+02  0.41035669365E+02  0.10566000000E+00 0. -1.
         23    2    1    0    0    0 -0.18188441333E+02 -0.21417780424E+02 -0.11820359128E+02  0.94516207481E+02  0.89465366876E+02 0.  0.
         13    1    3    3    0    0 -0.17407003758E+02 -0.45983039368E+02  0.21040748652E+02  0.53480538116E+02  0.10566000000E+00 0.  1.
         22    1    1    0    0    0  0.18188441333E+02  0.21417780424E+02  0.11820359128E+02  0.30483792519E+02  0.00000000000E+00 0.  1.
</event>
<event>
 5    1  0.1325832E-009  0.9118800E+02  0.7818608E-02  0.1130116E+00
         25   -1    0    0    0    0  0.00000000000E+00  0.00000000000E+00  0.99999998245E-14  0.12500000000E+03  0.12500000000E+03 0.  0.
        -13    1    3    3    0    0  0.38701711196E+02 -0.41561432005E+02 -0.13705981403E+02  0.58421230473E+02  0.10566000000E+00 0. -1.
         23    2    1    0    0    0  0.87063755665E+01 -0.20469368183E+02 -0.19344512764E+02  0.95521089175E+02  0.90858529010E+02 0.  0.
         13    1    3    3    0    0 -0.29995335629E+02  0.21092063822E+02 -0.56385313612E+01  0.37099858702E+02  0.10566000000E+00 0.  1.
         22    1    1    0    0    0 -0.87063755665E+01  0.20469368183E+02  0.19344512764E+02  0.29478910825E+02  0.00000000000E+00 0. -1.
</event>
<event>
 5    1  0.1325832E-009  0.9118800E+02  0.7818608E-02  0.1130116E+00
         25   -1    0    0    0    0  0.00000000000E+00  0.00000000000E+00  0.99999998245E-14  0.12500000000E+03  0.12500000000E+03 0.  0.
        -13    1    3    3    0    0  0.30027384120E+02 -0.35890283238E+02 -0.39137867353E+02  0.61004426503E+02  0.10566000000E+00 0. -1.
         23    2    1    0    0    0  0.89927530733E+01 -0.12660216032E+02 -0.25415891376E+02  0.95215470253E+02  0.90437091745E+02 0.  0.
         13    1    3    3    0    0 -0.21034631046E+02  0.23230067207E+02  0.13721975977E+02  0.34211043750E+02  0.10566000000E+00 0.  1.
         22    1    1    0    0    0 -0.89927530733E+01  0.12660216032E+02  0.25415891376E+02  0.29784529747E+02  0.00000000000E+00 0. -1.
</event>
<event>
 5    1  0.1325832E-009  0.9118800E+02  0.7818608E-02  0.1130116E+00
         25   -1    0    0    0    0  0.00000000000E+00  0.00000000000E+00  0.99999998245E-14  0.12500000000E+03  0.12500000000E+03 0.  0.
        -13    1    3    3    0    0 -0.26299007982E+02 -0.14146672950E+02 -0.28088259086E+02  0.40996678389E+02  0.10566000000E+00 0.  1.
         23    2    1    0    0    0 -0.11818038028E+02  0.23943489696E+01  0.24334060883E+02  0.97842212003E+02  0.93997622315E+02 0.  0.
         13    1    3    3    0    0  0.14480969954E+02  0.16541021920E+02  0.52422319969E+02  0.56845533614E+02  0.10566000000E+00 0. -1.
         22    1    1    0    0    0  0.11818038028E+02 -0.23943489696E+01 -0.24334060883E+02  0.27157787997E+02  0.00000000000E+00 0.  1.
</event>
<event>
 5    1  0.1325832E-009  0.9118800E+02  0.7818608E-02  0.1130116E+00
         25   -1    0    0    0    0  0.00000000000E+00  0.00000000000E+00  0.99999998245E-14  0.12500000000E+03  0.12500000000E+03 0.  0.
        -13    1    3    3    0    0 -0.22772161241E+02  0.43540413877E+02  0.17321758893E+01  0.49166559423E+02  0.10566000000E+00 0. -1.
         23    2    1    0    0    0  0.14186790142E+02  0.20149580707E+02  0.16513531024E+02  0.95335756810E+02  0.90603196425E+02 0.  0.
         13    1    3    3    0    0  0.36958951382E+02 -0.23390833171E+02  0.14781355134E+02  0.46169197387E+02  0.10566000000E+00 0.  1.
         22    1    1    0    0    0 -0.14186790142E+02 -0.20149580707E+02 -0.16513531024E+02  0.29664243190E+02  0.00000000000E+00 0. -1.
</event>
<event>
 5    1  0.1325832E-009  0.9118800E+02  0.7818608E-02  0.1130116E+00
         25   -1    0    0    0    0  0.00000000000E+00  0.00000000000E+00  0.99999998245E-14  0.12500000000E+03  0.12500000000E+03 0.  0.
        -13    1    3    3    0    0  0.32401306444E+02  0.70674957996E+01 -0.23390159557E+02  0.40582075899E+02  0.10566000000E+00 0.  1.
         23    2    1    0    0    0 -0.10760094297E+02 -0.25009570247E+02 -0.99558777930E+01  0.96010730678E+02  0.91529681904E+02 0.  0.
         13    1    3    3    0    0 -0.43161400741E+02 -0.32077066047E+02  0.13434281764E+02  0.55428654779E+02  0.10566000000E+00 0. -1.
         22    1    1    0    0    0  0.10760094297E+02  0.25009570247E+02  0.99558777930E+01  0.28989269322E+02  0.00000000000E+00 0.  1.
</event>
<event>
 5    1  0.1325832E-009  0.9118800E+02  0.7818608E-02  0.1130116E+00
         25   -1    0    0    0    0  0.00000000000E+00  0.00000000000E+00  0.99999998245E-14  0.12500000000E+03  0.12500000000E+03 0.  0.
        -13    1    3    3    0    0  0.54983598056E+01  0.21973926102E+02 -0.27786306190E+02  0.35849342597E+02  0.10566000000E+00 0. -1.
         23    2    1    0    0    0  0.19871892352E+02 -0.12418769086E+02  0.18403499162E+02  0.95203914474E+02  0.90421118210E+02 0.  0.
         13    1    3    3    0    0  0.14373532547E+02 -0.34392695189E+02  0.46189805352E+02  0.59354571877E+02  0.10566000000E+00 0.  1.
         22    1    1    0    0    0 -0.19871892352E+02  0.12418769086E+02 -0.18403499162E+02  0.29796085526E+02  0.00000000000E+00 0.  1.
</event>
<event>
 5    1  0.1325832E-009  0.9118800E+02  0.7818608E-02  0.1130116E+00
         25   -1    0    0    0    0  0.00000000000E+00  0.00000000000E+00  0.99999998245E-14  0.12500000000E+03  0.12500000000E+03 0.  0.
        -13    1    3    3    0    0  0.33369019222E+02  0.30812502512E+02 -0.19391312101E+02  0.49385583969E+02  0.10566000000E+00 0.  1.
         23    2    1    0    0    0 -0.40176123323E+01  0.47884731976E+01 -0.28485374154E+02  0.95836885881E+02  0.91291957315E+02 0.  0.
         13    1    3    3    0    0 -0.37386631554E+02 -0.26024029314E+02 -0.90940620522E+01  0.46451301913E+02  0.10566000000E+00 0. -1.
         22    1    1    0    0    0  0.40176123323E+01 -0.47884731976E+01  0.28485374154E+02  0.29163114119E+02  0.00000000000E+00 0.  1.
</event>
<event>
 5    1  0.1325832E-009  0.9118800E+02  0.7818608E-02  0.1130116E+00
         25   -1    0    0    0    0  0.00000000000E+00  0.00000000000E+00  0.99999998245E-14  0.12500000000E+03  0.12500000000E+03 0.  0.
        -13    1    3    3    0    0 -0.33220770248E+02 -0.11925801119E+02 -0.14951767815E+02  0.38332894921E+02  0.10566000000E+00 0.  1.
         23    2    1    0    0    0  0.33038114835E+01  0.15582570936E+02  0.22496091924E+02  0.97435424198E+02  0.93455101784E+02 0.  0.
         13    1    3    3    0    0  0.36524581732E+02  0.27508372055E+02  0.37447859739E+02  0.59102529276E+02  0.10566000000E+00 0. -1.
         22    1    1    0    0    0 -0.33038114835E+01 -0.15582570936E+02 -0.22496091924E+02  0.27564575802E+02  0.00000000000E+00 0. -1.
</event>
<event>
 5    1  0.1325832E-009  0.9118800E+02  0.7818608E-02  0.1130116E+00
         25   -1    0    0    0    0  0.00000000000E+00  0.00000000000E+00  0.99999998245E-14  0.12500000000E+03  0.12500000000E+03 0.  0.
        -13    1    3    3    0    0  0.65822829157E+01  0.10790359553E+02 -0.47525893193E+02  0.49178043835E+02  0.10566000000E+00 0. -1.
         23    2    1    0    0    0  0.13124178579E+02 -0.22011484447E+02 -0.20220910503E+02  0.92355938786E+02  0.86394355698E+02 0.  0.
         13    1    3    3    0    0  0.65418956636E+01 -0.32801844000E+02  0.27304982689E+02  0.43177894951E+02  0.10566000000E+00 0.  1.
         22    1    1    0    0    0 -0.13124178579E+02  0.22011484447E+02  0.20220910503E+02  0.32644061214E+02  0.00000000000E+00 0. -1.
</event>
<event>
 5    1  0.1325832E-009  0.9118800E+02  0.7818608E-02  0.1130116E+00
         25   -1    0    0    0    0  0.00000000000E+00  0.00000000000E+00  0.99999998245E-14  0.12500000000E+03  0.12500000000E+03 0.  0.
        -13    1    3    3    0    0 -0.22489849442E+02 -0.28423028165E+02 -0.99105556435E+00  0.36258174432E+02  0.10566000000E+00 0.  1.
         23    2    1    0    0    0 -0.42564532648E+01  0.26814856233E+02  0.11094889083E+02  0.95669973185E+02  0.91063128083E+02 0.  0.
         13    1    3    3    0    0  0.18233396177E+02  0.55237884398E+02  0.12085944647E+02  0.59411798753E+02  0.10566000000E+00 0. -1.
         22    1    1    0    0    0  0.42564532648E+01 -0.26814856233E+02 -0.11094889083E+02  0.29330026815E+02  0.00000000000E+00 0. -1.
</event>
<event>
 5    1  0.1325832E-009  0.9118800E+02  0.7818608E-02  0.1130116E+00
         25   -1    0    0    0    0  0.00000000000E+00  0.00000000000E+00  0.99999998245E-14  0.12500000000E+03  0.12500000000E+03 0.  0.
        -13    1    3    3    0    0  0.29207061890E+02 -0.25654192820E+02  0.57450272930E+00  0.38878416774E+02  0.10566000000E+00 0.  1.
         23    2    1    0    0    0 -0.36451310887E+01  0.11065013824E+02 -0.27180131909E+02  0.95428373697E+02  0.90730884622E+02 0.  0.
         13    1    3    3    0    0 -0.32852192978E+02  0.36719206644E+02 -0.27754634638E+02  0.56549956923E+02  0.10566000000E+00 0. -1.
         22    1    1    0    0    0  0.36451310887E+01 -0.11065013824E+02  0.27180131909E+02  0.29571626303E+02  0.00000000000E+00 0. -1.
</event>
<event>
 5    1  0.1325832E-009  0.9118800E+02  0.7818608E-02  0.1130116E+00
         25   -1    0    0    0    0  0.00000000000E+00  0.00000000000E+00  0.99999998245E-14  0.12500000000E+03  0.12500000000E+03 0.  0.
        -13    1    3    3    0    0 -0.88644322801E+01 -0.40676976878E+02 -0.24341433730E+01  0.41702887497E+02  0.10566000000E+00 0.  1.
         23    2    1    0    0    0  0.11548048604E+02  0.42993308081E+01  0.24218450982E+02  0.97826942757E+02  0.93977314759E+02 0.  0.
         13    1    3    3    0    0  0.20412480884E+02  0.44976307686E+02  0.26652594355E+02  0.56124055260E+02  0.10566000000E+00 0. -1.
         22    1    1    0    0    0 -0.11548048604E+02 -0.42993308081E+01 -0.24218450982E+02  0.27173057243E+02  0.00000000000E+00 0. -1.
</event>
<event>
 5    1  0.1325832E-009  0.9118800E+02  0.7818608E-02  0.1130116E+00
         25   -1    0    0    0    0  0.00000000000E+00  0.00000000000E+00  0.99999998245E-14  0.12500000000E+03  0.12500000000E+03 0.  0.
        -13    1    3    3    0    0 -0.37605110599E+02 -0.10541220993E+01 -0.44817640386E+02  0.58513994654E+02  0.10566000000E+00 0. -1.
         23    2    1    0    0    0 -0.28258996691E+02 -0.54242937178E+01 -0.10467397223E+02  0.94380394174E+02  0.89275408392E+02 0.  0.
         13    1    3    3    0    0  0.93461139083E+01 -0.43701716185E+01  0.34350243163E+02  0.35866399520E+02  0.10566000000E+00 0.  1.
         22    1    1    0    0    0  0.28258996691E+02  0.54242937178E+01  0.10467397223E+02  0.30619605826E+02  0.00000000000E+00 0. -1.
</event>
<event>
 5    1  0.1325832E-009  0.9118800E+02  0.7818608E-02  0.1130116E+00
         25   -1    0    0    0    0  0.00000000000E+00  0.00000000000E+00  0.99999998245E-14  0.12500000000E+03  0.12500000000E+03 0.  0.
        -13    1    3    3    0    0  0.10185672737E+02  0.38364262021E+01 -0.44613078457E+02  0.45921716307E+02  0.10566000000E+00 0. -1.
         23    2    1    0    0    0 -0.24905238442E+02 -0.10931473260E+02 -0.17595184624E+02  0.92606196095E+02  0.86755685830E+02 0.  0.
         13    1    3    3    0    0 -0.35090911179E+02 -0.14767899462E+02  0.27017893833E+02  0.46684479788E+02  0.10566000000E+00 0.  1.
         22    1    1    0    0    0  0.24905238442E+02  0.10931473260E+02  0.17595184624E+02  0.32393803905E+02  0.00000000000E+00 0. -1.
</event>
<event>
 5    1  0.1325832E-009  0.9118800E+02  0.7818608E-02  0.1130116E+00
         25   -1    0    0    0    0  0.00000000000E+00  0.00000000000E+00  0.99999998245E-14  0.12500000000E+03  0.12500000000E+03 0.  0.
        -13    1    3    3    0    0  0.50111016946E+01  0.40239383104E+02 -0.14104375585E+02  0.42933246645E+02  0.10566000000E+00 0.  1.
         23    2    1    0    0    0  0.29434893226E+02 -0.34081567186E+01  0.15092102817E+01  0.95330045717E+02  0.90595316818E+02 0.  0.
         13    1    3    3    0    0  0.24423791532E+02 -0.43647539823E+02  0.15613585867E+02  0.52396799072E+02  0.10566000000E+00 0. -1.
         22    1    1    0    0    0 -0.29434893226E+02  0.34081567186E+01 -0.15092102817E+01  0.29669954283E+02  0.00000000000E+00 0. -1.
</event>
<event>
 5    1  0.1325832E-009  0.9118800E+02  0.7818608E-02  0.1130116E+00
         25   -1    0    0    0    0  0.00000000000E+00  0.00000000000E+00  0.99999998245E-14  0.12500000000E+03  0.12500000000E+03 0.  0.
        -13    1    3    3    0    0 -0.43574631902E+02  0.20180136860E+02  0.67879774069E+01  0.48498188321E+02  0.10566000000E+00 0. -1.
         23    2    1    0    0    0 -0.18262383083E+02 -0.19859099841E+02  0.10582142894E+02  0.96019312800E+02  0.91541401562E+02 0.  0.
         13    1    3    3    0    0  0.25312248820E+02 -0.40039236701E+02  0.37941654875E+01  0.47521124479E+02  0.10566000000E+00 0.  1.
         22    1    1    0    0    0  0.18262383083E+02  0.19859099841E+02 -0.10582142894E+02  0.28980687200E+02  0.00000000000E+00 0.  1.
</event>
<event>
 5    1  0.1325832E-009  0.9118800E+02  0.7818608E-02  0.1130116E+00
         25   -1    0    0    0    0  0.00000000000E+00  0.00000000000E+00  0.99999998245E-14  0.12500000000E+03  0.12500000000E+03 0.  0.
        -13    1    3    3    0    0 -0.22855649799E+02  0.50203962827E+01  0.41807001575E+02  0.47910558870E+02  0.10566000000E+00 0.  1.
         23    2    1    0    0    0  0.14664085102E+02  0.19422987051E+02  0.19035843285E+02  0.94102570537E+02  0.88885559200E+02 0.  0.
         13    1    3    3    0    0  0.37519734901E+02  0.14402590768E+02 -0.22771158290E+02  0.46192011667E+02  0.10566000000E+00 0. -1.
         22    1    1    0    0    0 -0.14664085102E+02 -0.19422987051E+02 -0.19035843285E+02  0.30897429463E+02  0.00000000000E+00 0.  1.
</event>
<event>
 5    1  0.1325832E-009  0.9118800E+02  0.7818608E-02  0.1130116E+00
         25   -1    0    0    0    0  0.00000000000E+00  0.00000000000E+00  0.99999998245E-14  0.12500000000E+03  0.12500000000E+03 0.  0.
        -13    1    3    3    0    0  0.14810037270E+02 -0.54850538639E+02 -0.15173345559E+02  0.58806125297E+02  0.10566000000E+00 0. -1.
         23    2    1    0    0    0 -0.38991996414E+01 -0.32868110605E+02  0.98390307967E+00  0.91886792395E+02  0.85712881755E+02 0.  0.
         13    1    3    3    0    0 -0.18709236912E+02  0.21982428034E+02  0.16157248639E+02  0.33080667098E+02  0.10566000000E+00 0.  1.
         22    1    1    0    0    0  0.38991996414E+01  0.32868110605E+02 -0.98390307967E+00  0.33113207605E+02  0.00000000000E+00 0. -1.
</event>
<event>
 5    1  0.1325832E-009  0.9118800E+02  0.7818608E-02  0.1130116E+00
         25   -1    0    0    0    0  0.00000000000E+00  0.00000000000E+00  0.99999998245E-14  0.12500000000E+03  0.12500000000E+03 0.  0.
        -13    1    3    3    0    0  0.52518246463E+02  0.25228132526E+02 -0.28447664757E+00  0.58264199757E+02  0.10566000000E+00 0. -1.
         23    2    1    0    0    0  0.50078907038E+01  0.14171790560E+02 -0.85019072528E+01  0.10773150140E+03  0.10633849421E+03 0.  0.
         13    1    3    3    0    0 -0.47510355759E+02 -0.11056341966E+02 -0.82174306053E+01  0.49467301643E+02  0.10566000000E+00 0.  1.
         22    1    1    0    0    0 -0.50078907038E+01 -0.14171790560E+02  0.85019072528E+01  0.17268498601E+02  0.00000000000E+00 0.  1.
</event>
<event>
 5    1  0.1325832E-009  0.9118800E+02  0.7818608E-02  0.1130116E+00
         25   -1    0    0    0    0  0.00000000000E+00  0.00000000000E+00  0.99999998245E-14  0.12500000000E+03  0.12500000000E+03 0.  0.
        -13    1    3    3    0    0  0.52814898892E+02  0.10793428442E+01  0.17706060196E+02  0.55714399016E+02  0.10566000000E+00 0.  1.
         23    2    1    0    0    0  0.17160462547E+02  0.20159961232E+02  0.85721143026E+01  0.97172196362E+02  0.93102358136E+02 0.  0.
         13    1    3    3    0    0 -0.35654436345E+02  0.19080618388E+02 -0.91339458931E+01  0.41457797346E+02  0.10566000000E+00 0. -1.
         22    1    1    0    0    0 -0.17160462547E+02 -0.20159961232E+02 -0.85721143026E+01  0.27827803638E+02  0.00000000000E+00 0.  1.
</event>
<event>
 5    1  0.1325832E-009  0.9118800E+02  0.7818608E-02  0.1130116E+00
         25   -1    0    0    0    0  0.00000000000E+00  0.00000000000E+00  0.99999998245E-14  0.12500000000E+03  0.12500000000E+03 0.  0.
        -13    1    3    3    0    0  0.11378372198E+02 -0.40657552459E+02  0.10672224150E+02  0.43547806583E+02  0.10566000000E+00 0.  1.
         23    2    1    0    0    0 -0.24430284991E+02 -0.28275052605E+01  0.15609070169E+02  0.95871376925E+02  0.91339171395E+02 0.  0.
         13    1    3    3    0    0 -0.35808657189E+02  0.37830047198E+02  0.49368460190E+01  0.52323570342E+02  0.10566000000E+00 0. -1.
         22    1    1    0    0    0  0.24430284991E+02  0.28275052605E+01 -0.15609070169E+02  0.29128623075E+02  0.00000000000E+00 0. -1.
</event>
<event>
 5    1  0.1325832E-009  0.9118800E+02  0.7818608E-02  0.1130116E+00
         25   -1    0    0    0    0  0.00000000000E+00  0.00000000000E+00  0.99999998245E-14  0.12500000000E+03  0.12500000000E+03 0.  0.
        -13    1    3    3    0    0 -0.31307085239E+02  0.44475859609E+02  0.67201336260E+00  0.54393919146E+02  0.10566000000E+00 0.  1.
         23    2    1    0    0    0 -0.10668758528E+02  0.14422510779E+02  0.21985179923E+02  0.96624317418E+02  0.92363842247E+02 0.  0.
         13    1    3    3    0    0  0.20638326712E+02 -0.30053348829E+02  0.21313166561E+02  0.42230398272E+02  0.10566000000E+00 0. -1.
         22    1    1    0    0    0  0.10668758528E+02 -0.14422510779E+02 -0.21985179923E+02  0.28375682582E+02  0.00000000000E+00 0.  1.
</event>
<event>
 5    1  0.1325832E-009  0.9118800E+02  0.7818608E-02  0.1130116E+00
         25   -1    0    0    0    0  0.00000000000E+00  0.00000000000E+00  0.99999998245E-14  0.12500000000E+03  0.12500000000E+03 0.  0.
        -13    1    3    3    0    0  0.84790449600E+01 -0.12133362275E+02 -0.10620750794E+02  0.18218786869E+02  0.10566000000E+00 0. -1.
         23    2    1    0    0    0 -0.24258430107E+02  0.12697025380E+02  0.35616782789E+02  0.80075161647E+02  0.66285672749E+02 0.  0.
         13    1    3    3    0    0 -0.32737475067E+02  0.24830387654E+02  0.46237533583E+02  0.61856374778E+02  0.10566000000E+00 0.  1.
         22    1    1    0    0    0  0.24258430107E+02 -0.12697025380E+02 -0.35616782789E+02  0.44924838353E+02  0.00000000000E+00 0.  1.
</event>
<event>
 5    1  0.1325832E-009  0.9118800E+02  0.7818608E-02  0.1130116E+00
         25   -1    0    0    0    0  0.00000000000E+00  0.00000000000E+00  0.99999998245E-14  0.12500000000E+03  0.12500000000E+03 0.  0.
        -13    1    3    3    0    0 -0.82144070053E+01  0.47606100291E+02  0.32083704464E+02  0.57993038579E+02  0.10566000000E+00 0.  1.
         23    2    1    0    0    0  0.88062760137E+01  0.15229045180E+02  0.23638587783E+02  0.95533796534E+02  0.90876009670E+02 0.  0.
         13    1    3    3    0    0  0.17020683019E+02 -0.32377055111E+02 -0.84451166819E+01  0.37540757956E+02  0.10566000000E+00 0. -1.
         22    1    1    0    0    0 -0.88062760137E+01 -0.15229045180E+02 -0.23638587783E+02  0.29466203466E+02  0.00000000000E+00 0.  1.
</event>
<event>
 5    1  0.1325832E-009  0.9118800E+02  0.7818608E-02  0.1130116E+00
         25   -1    0    0    0    0  0.00000000000E+00  0.00000000000E+00  0.99999998245E-14  0.12500000000E+03  0.12500000000E+03 0.  0.
        -13    1    3    3    0    0  0.48454940458E+02 -0.10624610269E+01  0.29010812259E+02  0.56485825392E+02  0.10566000000E+00 0. -1.
         23    2    1    0    0    0  0.12989262570E+02 -0.15505784315E+02  0.21445784842E+02  0.95519973256E+02  0.90856993754E+02 0.  0.
         13    1    3    3    0    0 -0.35465677888E+02 -0.14443323288E+02 -0.75650274171E+01  0.39034147865E+02  0.10566000000E+00 0.  1.
         22    1    1    0    0    0 -0.12989262570E+02  0.15505784315E+02 -0.21445784842E+02  0.29480026744E+02  0.00000000000E+00 0. -1.
</event>
<event>
 5    1  0.1325832E-009  0.9118800E+02  0.7818608E-02  0.1130116E+00
         25   -1    0    0    0    0  0.00000000000E+00  0.00000000000E+00  0.99999998245E-14  0.12500000000E+03  0.12500000000E+03 0.  0.
        -13    1    3    3    0    0  0.16211261836E+02  0.42058191667E+02  0.37628007773E+02  0.58716050869E+02  0.10566000000E+00 0.  1.
         23    2    1    0    0    0  0.20156053146E+02  0.19398553138E+02  0.86377771763E+01  0.95722337238E+02  0.91134978518E+02 0.  0.
         13    1    3    3    0    0  0.39447913096E+01 -0.22659638529E+02 -0.28990230597E+02  0.37006286369E+02  0.10566000000E+00 0. -1.
         22    1    1    0    0    0 -0.20156053146E+02 -0.19398553138E+02 -0.86377771763E+01  0.29277662762E+02  0.00000000000E+00 0.  1.
</event>
<event>
 5    1  0.1325832E-009  0.9118800E+02  0.7818608E-02  0.1130116E+00
         25   -1    0    0    0    0  0.00000000000E+00  0.00000000000E+00  0.99999998245E-14  0.12500000000E+03  0.12500000000E+03 0.  0.
        -13    1    3    3    0    0  0.19332014913E+02  0.44737093587E+02 -0.17797249010E+01  0.48767949803E+02  0.10566000000E+00 0.  1.
         23    2    1    0    0    0 -0.13455057953E+02  0.27726753216E+02 -0.18219393961E+02  0.89198355559E+02  0.81698157198E+02 0.  0.
         13    1    3    3    0    0 -0.32787072866E+02 -0.17010340372E+02 -0.16439669060E+02  0.40430405755E+02  0.10566000000E+00 0. -1.
         22    1    1    0    0    0  0.13455057953E+02 -0.27726753216E+02  0.18219393961E+02  0.35801644441E+02  0.00000000000E+00 0.  1.
</event>
<event>
 5    1  0.1325832E-009  0.9118800E+02  0.7818608E-02  0.1130116E+00
         25   -1    0    0    0    0  0.00000000000E+00  0.00000000000E+00  0.99999998245E-14  0.12500000000E+03  0.12500000000E+03 0.  0.
        -13    1    3    3    0    0  0.15176058630E+02  0.59170789278E+02  0.26913497308E+01  0.61145315330E+02  0.10566000000E+00 0.  1.
         23    2    1    0    0    0  0.13544439901E+02  0.23934320060E+02 -0.44667081497E+01  0.97138646647E+02  0.93057303109E+02 0.  0.
         13    1    3    3    0    0 -0.16316187297E+01 -0.35236469219E+02 -0.71580578805E+01  0.35993331317E+02  0.10566000000E+00 0. -1.
         22    1    1    0    0    0 -0.13544439901E+02 -0.23934320060E+02  0.44667081497E+01  0.27861353353E+02  0.00000000000E+00 0.  1.
</event>
<event>
 5    1  0.1325832E-009  0.9118800E+02  0.7818608E-02  0.1130116E+00
         25   -1    0    0    0    0  0.00000000000E+00  0.00000000000E+00  0.99999998245E-14  0.12500000000E+03  0.12500000000E+03 0.  0.
        -13    1    3    3    0    0 -0.41847099198E+02  0.24926696007E+02  0.24517061957E+02  0.54530884608E+02  0.10566000000E+00 0. -1.
         23    2    1    0    0    0 -0.77490414446E+01  0.28986441715E+02  0.34973700254E+01  0.94792500208E+02  0.89850570682E+02 0.  0.
         13    1    3    3    0    0  0.34098057753E+02  0.40597457084E+01 -0.21019691932E+02  0.40261615600E+02  0.10566000000E+00 0.  1.
         22    1    1    0    0    0  0.77490414446E+01 -0.28986441715E+02 -0.34973700254E+01  0.30207499792E+02  0.00000000000E+00 0.  1.
</event>
<event>
 5    1  0.1325832E-009  0.9118800E+02  0.7818608E-02  0.1130116E+00
         25   -1    0    0    0    0  0.00000000000E+00  0.00000000000E+00  0.99999998245E-14  0.12500000000E+03  0.12500000000E+03 0.  0.
        -13    1    3    3    0    0  0.48568391397E+02 -0.32880106021E+02  0.71627334397E+01  0.59087273834E+02  0.10566000000E+00 0.  1.
         23    2    1    0    0    0  0.26626817182E+02 -0.40362750903E+01  0.11749776560E+02  0.95617417420E+02  0.90990957545E+02 0.  0.
         13    1    3    3    0    0 -0.21941574214E+02  0.28843830931E+02  0.45870431199E+01  0.36530143586E+02  0.10566000000E+00 0. -1.
         22    1    1    0    0    0 -0.26626817182E+02  0.40362750903E+01 -0.11749776560E+02  0.29382582580E+02  0.00000000000E+00 0.  1.
</event>
<event>
 5    1  0.1325832E-009  0.9118800E+02  0.7818608E-02  0.1130116E+00
         25   -1    0    0    0    0  0.00000000000E+00  0.00000000000E+00  0.99999998245E-14  0.12500000000E+03  0.12500000000E+03 0.  0.
        -13    1    3    3    0    0  0.15159073671E+02  0.46287950750E+02  0.22054835303E+02  0.53467736286E+02  0.10566000000E+00 0.  1.
         23    2    1    0    0    0 -0.15010461860E+02  0.26327870846E+02  0.17699542044E+02  0.89903781727E+02  0.82770438151E+02 0.  0.
         13    1    3    3    0    0 -0.30169535531E+02 -0.19960079905E+02 -0.43552932589E+01  0.36436045441E+02  0.10566000000E+00 0. -1.
         22    1    1    0    0    0  0.15010461860E+02 -0.26327870846E+02 -0.17699542044E+02  0.35096218273E+02  0.00000000000E+00 0.  1.
</event>
<event>
 5    1  0.1325832E-009  0.9118800E+02  0.7818608E-02  0.1130116E+00
         25   -1    0    0    0    0  0.00000000000E+00  0.00000000000E+00  0.99999998245E-14  0.12500000000E+03  0.12500000000E+03 0.  0.
        -13    1    3    3    0    0  0.63754180961E+01 -0.67348124685E+01 -0.58546463138E+02  0.59276497576E+02  0.10566000000E+00 0.  1.
         23    2    1    0    0    0  0.36119009305E+01  0.11054550840E+02 -0.27067060226E+02  0.95540287309E+02  0.90884937295E+02 0.  0.
         13    1    3    3    0    0 -0.27635171656E+01  0.17789363308E+02  0.31479402912E+02  0.36263789733E+02  0.10566000000E+00 0. -1.
         22    1    1    0    0    0 -0.36119009305E+01 -0.11054550840E+02  0.27067060226E+02  0.29459712691E+02  0.00000000000E+00 0.  1.
</event>
<event>
 5    1  0.1325832E-009  0.9118800E+02  0.7818608E-02  0.1130116E+00
         25   -1    0    0    0    0  0.00000000000E+00  0.00000000000E+00  0.99999998245E-14  0.12500000000E+03  0.12500000000E+03 0.  0.
        -13    1    3    3    0    0  0.12484989227E+02  0.30236020239E+02 -0.15536885521E+02  0.36214608262E+02  0.10566000000E+00 0. -1.
         23    2    1    0    0    0 -0.83868920420E+01 -0.64425657129E+01  0.26919836390E+02  0.96077271873E+02  0.91620510630E+02 0.  0.
         13    1    3    3    0    0 -0.20871881269E+02 -0.36678585952E+02  0.42456721910E+02  0.59862663610E+02  0.10566000000E+00 0.  1.
         22    1    1    0    0    0  0.83868920420E+01  0.64425657129E+01 -0.26919836390E+02  0.28922728127E+02  0.00000000000E+00 0.  1.
</event>
<event>
 5    1  0.1325832E-009  0.9118800E+02  0.7818608E-02  0.1130116E+00
         25   -1    0    0    0    0  0.00000000000E+00  0.00000000000E+00  0.99999998245E-14  0.12500000000E+03  0.12500000000E+03 0.  0.
        -13    1    3    3    0    0 -0.49400269855E+02  0.14444310172E+02 -0.33443021666E+02  0.61379732977E+02  0.10566000000E+00 0.  1.
         23    2    1    0    0    0 -0.27865255220E+02  0.41180136620E+01 -0.93081822768E+01  0.95333980006E+02  0.90600745038E+02 0.  0.
         13    1    3    3    0    0  0.21535014634E+02 -0.10326296510E+02  0.24134839390E+02  0.33954247029E+02  0.10566000000E+00 0. -1.
         22    1    1    0    0    0  0.27865255220E+02 -0.41180136620E+01  0.93081822768E+01  0.29666019994E+02  0.00000000000E+00 0.  1.
</event>
<event>
 5    1  0.1325832E-009  0.9118800E+02  0.7818608E-02  0.1130116E+00
         25   -1    0    0    0    0  0.00000000000E+00  0.00000000000E+00  0.99999998245E-14  0.12500000000E+03  0.12500000000E+03 0.  0.
        -13    1    3    3    0    0  0.91032154645E+01  0.15049388805E+02  0.31930248401E+02  0.36454143279E+02  0.10566000000E+00 0.  1.
         23    2    1    0    0    0  0.38939801189E+02  0.12700511265E+02 -0.47179341733E+01  0.83770520184E+02  0.72922082019E+02 0.  0.
         13    1    3    3    0    0  0.29836585724E+02 -0.23488775396E+01 -0.36648182574E+02  0.47316376905E+02  0.10566000000E+00 0. -1.
         22    1    1    0    0    0 -0.38939801189E+02 -0.12700511265E+02  0.47179341733E+01  0.41229479816E+02  0.00000000000E+00 0. -1.
</event>
<event>
 5    1  0.1325832E-009  0.9118800E+02  0.7818608E-02  0.1130116E+00
         25   -1    0    0    0    0  0.00000000000E+00  0.00000000000E+00  0.99999998245E-14  0.12500000000E+03  0.12500000000E+03 0.  0.
        -13    1    3    3    0    0 -0.25844760105E+02 -0.38241879789E+02  0.15750023196E+02  0.48769533414E+02  0.10566000000E+00 0. -1.
         23    2    1    0    0    0 -0.28986068568E+02  0.57042478541E+01  0.30584556264E+00  0.95456402451E+02  0.90769491641E+02 0.  0.
         13    1    3    3    0    0 -0.31413084636E+01  0.43946127643E+02 -0.15444177634E+02  0.46686869037E+02  0.10566000000E+00 0.  1.
         22    1    1    0    0    0  0.28986068568E+02 -0.57042478541E+01 -0.30584556264E+00  0.29543597549E+02  0.00000000000E+00 0. -1.
</event>
<event>
 5    1  0.1325832E-009  0.9118800E+02  0.7818608E-02  0.1130116E+00
         25   -1    0    0    0    0  0.00000000000E+00  0.00000000000E+00  0.99999998245E-14  0.12500000000E+03  0.12500000000E+03 0.  0.
        -13    1    3    3    0    0 -0.28654171462E+02  0.29329349745E+02  0.28986671488E+02  0.50214645141E+02  0.10566000000E+00 0.  1.
         23    2    1    0    0    0  0.11737099260E+02  0.21665037126E+02  0.27806533970E+00  0.10035835531E+03  0.97286118370E+02 0.  0.
         13    1    3    3    0    0  0.40391270723E+02 -0.76643126194E+01 -0.28708606148E+02  0.50143710169E+02  0.10566000000E+00 0. -1.
         22    1    1    0    0    0 -0.11737099260E+02 -0.21665037126E+02 -0.27806533970E+00  0.24641644690E+02  0.00000000000E+00 0.  1.
</event>
<event>
 5    1  0.1325832E-009  0.9118800E+02  0.7818608E-02  0.1130116E+00
         25   -1    0    0    0    0  0.00000000000E+00  0.00000000000E+00  0.99999998245E-14  0.12500000000E+03  0.12500000000E+03 0.  0.
        -13    1    3    3    0    0  0.39617878969E+02  0.66447632022E+01 -0.39876012530E+02  0.56602444747E+02  0.10566000000E+00 0. -1.
         23    2    1    0    0    0  0.75159817628E+01  0.18491824741E+02 -0.22301810712E+02  0.95069942781E+02  0.90235722944E+02 0.  0.
         13    1    3    3    0    0 -0.32101897206E+02  0.11847061539E+02  0.17574201818E+02  0.38467498033E+02  0.10566000000E+00 0.  1.
         22    1    1    0    0    0 -0.75159817628E+01 -0.18491824741E+02  0.22301810712E+02  0.29930057219E+02  0.00000000000E+00 0. -1.
</event>
<event>
 5    1  0.1325832E-009  0.9118800E+02  0.7818608E-02  0.1130116E+00
         25   -1    0    0    0    0  0.00000000000E+00  0.00000000000E+00  0.99999998245E-14  0.12500000000E+03  0.12500000000E+03 0.  0.
        -13    1    3    3    0    0  0.23366603692E+02  0.10767923172E+02 -0.35064912598E+02  0.43491442803E+02  0.10566000000E+00 0.  1.
         23    2    1    0    0    0  0.53254525322E-01  0.34663876848E+02 -0.23133964318E+01  0.90258972421E+02  0.83305120523E+02 0.  0.
         13    1    3    3    0    0 -0.23313349167E+02  0.23895953676E+02  0.32751516166E+02  0.46767529619E+02  0.10566000000E+00 0. -1.
         22    1    1    0    0    0 -0.53254525322E-01 -0.34663876848E+02  0.23133964318E+01  0.34741027579E+02  0.00000000000E+00 0.  1.
</event>
<event>
 5    1  0.1325832E-009  0.9118800E+02  0.7818608E-02  0.1130116E+00
         25   -1    0    0    0    0  0.00000000000E+00  0.00000000000E+00  0.99999998245E-14  0.12500000000E+03  0.12500000000E+03 0.  0.
        -13    1    3    3    0    0 -0.53028937692E+02 -0.23033330040E+02  0.70161662567E+01  0.58239507883E+02  0.10566000000E+00 0. -1.
         23    2    1    0    0    0 -0.28305945248E+02  0.22700213260E+01 -0.60751696050E+01  0.95960591967E+02  0.91461182978E+02 0.  0.
         13    1    3    3    0    0  0.24722992444E+02  0.25303351366E+02 -0.13091335862E+02  0.37721084084E+02  0.10566000000E+00 0.  1.
         22    1    1    0    0    0  0.28305945248E+02 -0.22700213260E+01  0.60751696050E+01  0.29039408033E+02  0.00000000000E+00 0. -1.
</event>
<event>
 5    1  0.1325832E-009  0.9118800E+02  0.7818608E-02  0.1130116E+00
         25   -1    0    0    0    0  0.00000000000E+00  0.00000000000E+00  0.99999998245E-14  0.12500000000E+03  0.12500000000E+03 0.  0.
        -13    1    3    3    0    0  0.22645512516E+02  0.47097616973E+01  0.46392243732E+02  0.51838716563E+02  0.10566000000E+00 0. -1.
         23    2    1    0    0    0  0.51537416708E+01  0.26594698679E+02  0.14554516065E+02  0.94248203485E+02  0.89090127799E+02 0.  0.
         13    1    3    3    0    0 -0.17491770845E+02  0.21884936981E+02 -0.31837727667E+02  0.42409486922E+02  0.10566000000E+00 0.  1.
         22    1    1    0    0    0 -0.51537416708E+01 -0.26594698679E+02 -0.14554516065E+02  0.30751796515E+02  0.00000000000E+00 0.  1.
</event>
<event>
 5    1  0.1325832E-009  0.9118800E+02  0.7818608E-02  0.1130116E+00
         25   -1    0    0    0    0  0.00000000000E+00  0.00000000000E+00  0.99999998245E-14  0.12500000000E+03  0.12500000000E+03 0.  0.
        -13    1    3    3    0    0  0.20983538638E+02 -0.16401009511E+02 -0.33312367410E+02  0.42650052676E+02  0.10566000000E+00 0.  1.
         23    2    1    0    0    0 -0.14373905695E+02 -0.24852314828E+02  0.54338593160E+01  0.95780596442E+02  0.91214851370E+02 0.  0.
         13    1    3    3    0    0 -0.35357444332E+02 -0.84513053169E+01  0.38746226726E+02  0.53130543766E+02  0.10566000000E+00 0. -1.
         22    1    1    0    0    0  0.14373905695E+02  0.24852314828E+02 -0.54338593160E+01  0.29219403558E+02  0.00000000000E+00 0. -1.
</event>
<event>
 5    1  0.1325832E-009  0.9118800E+02  0.7818608E-02  0.1130116E+00
         25   -1    0    0    0    0  0.00000000000E+00  0.00000000000E+00  0.99999998245E-14  0.12500000000E+03  0.12500000000E+03 0.  0.
        -13    1    3    3    0    0 -0.40816252397E+02 -0.87785859611E+01  0.23190681598E+02  0.47758233931E+02  0.10566000000E+00 0.  1.
         23    2    1    0    0    0  0.21374877839E+01 -0.28323564407E+01  0.32663483722E+02  0.92144341951E+02  0.86087661646E+02 0.  0.
         13    1    3    3    0    0  0.42953740181E+02  0.59462295204E+01  0.94728021233E+01  0.44386108019E+02  0.10566000000E+00 0. -1.
         22    1    1    0    0    0 -0.21374877839E+01  0.28323564407E+01 -0.32663483722E+02  0.32855658049E+02  0.00000000000E+00 0.  1.
</event>
<event>
 5    1  0.1325832E-009  0.9118800E+02  0.7818608E-02  0.1130116E+00
         25   -1    0    0    0    0  0.00000000000E+00  0.00000000000E+00  0.99999998245E-14  0.12500000000E+03  0.12500000000E+03 0.  0.
        -13    1    3    3    0    0 -0.95175337393E+01  0.71915053443E+01 -0.37381768366E+02  0.39239125472E+02  0.10566000000E+00 0. -1.
         23    2    1    0    0    0  0.27433154410E+02 -0.11892108577E+02 -0.87095996154E-01  0.95100036906E+02  0.90277401527E+02 0.  0.
         13    1    3    3    0    0  0.36950688150E+02 -0.19083613922E+02  0.37294672370E+02  0.55860911434E+02  0.10566000000E+00 0.  1.
         22    1    1    0    0    0 -0.27433154410E+02  0.11892108577E+02  0.87095996154E-01  0.29899963094E+02  0.00000000000E+00 0.  1.
</event>
<event>
 5    1  0.1325832E-009  0.9118800E+02  0.7818608E-02  0.1130116E+00
         25   -1    0    0    0    0  0.00000000000E+00  0.00000000000E+00  0.99999998245E-14  0.12500000000E+03  0.12500000000E+03 0.  0.
        -13    1    3    3    0    0  0.30876746695E+02  0.25664529277E+02  0.35788445499E+02  0.53785365526E+02  0.10566000000E+00 0. -1.
         23    2    1    0    0    0  0.16772076649E+01 -0.27089610501E+01  0.29908384632E+02  0.94922384289E+02  0.90031083923E+02 0.  0.
         13    1    3    3    0    0 -0.29199539030E+02 -0.28373490327E+02 -0.58800608668E+01  0.41137018764E+02  0.10566000000E+00 0.  1.
         22    1    1    0    0    0 -0.16772076649E+01  0.27089610501E+01 -0.29908384632E+02  0.30077615711E+02  0.00000000000E+00 0. -1.
</event>
<event>
 5    1  0.1325832E-009  0.9118800E+02  0.7818608E-02  0.1130116E+00
         25   -1    0    0    0    0  0.00000000000E+00  0.00000000000E+00  0.99999998245E-14  0.12500000000E+03  0.12500000000E+03 0.  0.
        -13    1    3    3    0    0 -0.19915253487E+02 -0.37729622005E+02  0.40027790559E+02  0.58501084427E+02  0.10566000000E+00 0. -1.
         23    2    1    0    0    0  0.42362537835E+01 -0.25003857964E+02  0.15005777017E+02  0.95532864016E+02  0.90874726982E+02 0.  0.
         13    1    3    3    0    0  0.24151507270E+02  0.12725764041E+02 -0.25022013542E+02  0.37031779589E+02  0.10566000000E+00 0.  1.
         22    1    1    0    0    0 -0.42362537835E+01  0.25003857964E+02 -0.15005777017E+02  0.29467135984E+02  0.00000000000E+00 0. -1.
</event>
<event>
 5    1  0.1325832E-009  0.9118800E+02  0.7818608E-02  0.1130116E+00
         25   -1    0    0    0    0  0.00000000000E+00  0.00000000000E+00  0.99999998245E-14  0.12500000000E+03  0.12500000000E+03 0.  0.
        -13    1    3    3    0    0  0.27954134793E+02 -0.21976630565E+02  0.61954617859E+01  0.36094332710E+02  0.10566000000E+00 0.  1.
         23    2    1    0    0    0 -0.73678858570E+01  0.27175624187E+02  0.24128781715E+01  0.96740094250E+02  0.92520395386E+02 0.  0.
         13    1    3    3    0    0 -0.35322020650E+02  0.49152254752E+02 -0.37825836144E+01  0.60645761540E+02  0.10566000000E+00 0. -1.
         22    1    1    0    0    0  0.73678858570E+01 -0.27175624187E+02 -0.24128781715E+01  0.28259905750E+02  0.00000000000E+00 0. -1.
</event>
<event>
 5    1  0.1325832E-009  0.9118800E+02  0.7818608E-02  0.1130116E+00
         25   -1    0    0    0    0  0.00000000000E+00  0.00000000000E+00  0.99999998245E-14  0.12500000000E+03  0.12500000000E+03 0.  0.
        -13    1    3    3    0    0 -0.10804302799E+02  0.23054452147E+02 -0.20637443823E+02  0.32774318823E+02  0.10566000000E+00 0.  1.
         23    2    1    0    0    0 -0.31932810112E+02 -0.21094416581E+02  0.19499888143E+01  0.86679232407E+02  0.77748363981E+02 0.  0.
         13    1    3    3    0    0 -0.21128507313E+02 -0.44148868728E+02  0.22587432637E+02  0.53904913583E+02  0.10566000000E+00 0. -1.
         22    1    1    0    0    0  0.31932810112E+02  0.21094416581E+02 -0.19499888143E+01  0.38320767593E+02  0.00000000000E+00 0. -1.
</event>
<event>
 5    1  0.1325832E-009  0.9118800E+02  0.7818608E-02  0.1130116E+00
         25   -1    0    0    0    0  0.00000000000E+00  0.00000000000E+00  0.99999998245E-14  0.12500000000E+03  0.12500000000E+03 0.  0.
        -13    1    3    3    0    0 -0.50909972157E+02  0.93141625939E+01 -0.20444028797E+02  0.55646638419E+02  0.10566000000E+00 0.  1.
         23    2    1    0    0    0 -0.26856761257E+02 -0.49856197459E+00  0.10597038411E+02  0.96123860848E+02  0.91684051023E+02 0.  0.
         13    1    3    3    0    0  0.24053210900E+02 -0.98127245685E+01  0.31041067208E+02  0.40477222429E+02  0.10566000000E+00 0. -1.
         22    1    1    0    0    0  0.26856761257E+02  0.49856197459E+00 -0.10597038411E+02  0.28876139152E+02  0.00000000000E+00 0.  1.
</event>
<event>
 5    1  0.1325832E-009  0.9118800E+02  0.7818608E-02  0.1130116E+00
         25   -1    0    0    0    0  0.00000000000E+00  0.00000000000E+00  0.99999998245E-14  0.12500000000E+03  0.12500000000E+03 0.  0.
        -13    1    3    3    0    0  0.28605377063E+02  0.10707277420E+02  0.25216935277E+02  0.39608311949E+02  0.10566000000E+00 0. -1.
         23    2    1    0    0    0  0.52460237690E+01 -0.30865922402E+02 -0.29450188936E+00  0.93690054895E+02  0.88303531774E+02 0.  0.
         13    1    3    3    0    0 -0.23359353294E+02 -0.41573199823E+02 -0.25511437166E+02  0.54081742946E+02  0.10566000000E+00 0.  1.
         22    1    1    0    0    0 -0.52460237690E+01  0.30865922402E+02  0.29450188936E+00  0.31309945105E+02  0.00000000000E+00 0.  1.
</event>
<event>
 5    1  0.1325832E-009  0.9118800E+02  0.7818608E-02  0.1130116E+00
         25   -1    0    0    0    0  0.00000000000E+00  0.00000000000E+00  0.99999998245E-14  0.12500000000E+03  0.12500000000E+03 0.  0.
        -13    1    3    3    0    0  0.32869310001E+02 -0.18908199627E+02  0.47536140862E+02  0.60807955114E+02  0.10566000000E+00 0. -1.
         23    2    1    0    0    0  0.66270380494E+01 -0.12055696523E+02  0.26535694958E+02  0.95110193061E+02  0.90291462859E+02 0.  0.
         13    1    3    3    0    0 -0.26242271952E+02  0.68525031044E+01 -0.21000445904E+02  0.34302237947E+02  0.10566000000E+00 0.  1.
         22    1    1    0    0    0 -0.66270380494E+01  0.12055696523E+02 -0.26535694958E+02  0.29889806939E+02  0.00000000000E+00 0. -1.
</event>
<event>
 5    1  0.1325832E-009  0.9118800E+02  0.7818608E-02  0.1130116E+00
         25   -1    0    0    0    0  0.00000000000E+00  0.00000000000E+00  0.99999998245E-14  0.12500000000E+03  0.12500000000E+03 0.  0.
        -13    1    3    3    0    0 -0.73499623872E+01  0.36624026206E+02 -0.25965879427E+02  0.45492629086E+02  0.10566000000E+00 0.  1.
         23    2    1    0    0    0 -0.26776021954E+02 -0.67533406885E+01 -0.99650677071E+01  0.95642453499E+02  0.91025344684E+02 0.  0.
         13    1    3    3    0    0 -0.19426059567E+02 -0.43377366895E+02  0.16000811720E+02  0.50149824414E+02  0.10566000000E+00 0. -1.
         22    1    1    0    0    0  0.26776021954E+02  0.67533406885E+01  0.99650677071E+01  0.29357546501E+02  0.00000000000E+00 0.  1.
</event>
<event>
 5    1  0.1325832E-009  0.9118800E+02  0.7818608E-02  0.1130116E+00
         25   -1    0    0    0    0  0.00000000000E+00  0.00000000000E+00  0.99999998245E-14  0.12500000000E+03  0.12500000000E+03 0.  0.
        -13    1    3    3    0    0  0.31158916682E+02 -0.28960442239E+02 -0.37907500803E+02  0.56978724842E+02  0.10566000000E+00 0.  1.
         23    2    1    0    0    0  0.27576507625E+02 -0.43784575344E+01 -0.78054441247E+01  0.96007593733E+02  0.91525397750E+02 0.  0.
         13    1    3    3    0    0 -0.35824090568E+01  0.24581984704E+02  0.30102056678E+02  0.39028868891E+02  0.10566000000E+00 0. -1.
         22    1    1    0    0    0 -0.27576507625E+02  0.43784575344E+01  0.78054441247E+01  0.28992406267E+02  0.00000000000E+00 0.  1.
</event>
<event>
 5    1  0.1325832E-009  0.9118800E+02  0.7818608E-02  0.1130116E+00
         25   -1    0    0    0    0  0.00000000000E+00  0.00000000000E+00  0.99999998245E-14  0.12500000000E+03  0.12500000000E+03 0.  0.
        -13    1    3    3    0    0 -0.59688896282E+02  0.72454209420E+01  0.16301221356E+02  0.62297684112E+02  0.10566000000E+00 0.  1.
         23    2    1    0    0    0 -0.24569990183E+02  0.22052011980E+01  0.31710871252E+01  0.10012826658E+03  0.96990033737E+02 0.  0.
         13    1    3    3    0    0  0.35118906100E+02 -0.50402197440E+01 -0.13130134230E+02  0.37830582465E+02  0.10566000000E+00 0. -1.
         22    1    1    0    0    0  0.24569990183E+02 -0.22052011980E+01 -0.31710871252E+01  0.24871733423E+02  0.00000000000E+00 0.  1.
</event>
<event>
 5    1  0.1325832E-009  0.9118800E+02  0.7818608E-02  0.1130116E+00
         25   -1    0    0    0    0  0.00000000000E+00  0.00000000000E+00  0.99999998245E-14  0.12500000000E+03  0.12500000000E+03 0.  0.
        -13    1    3    3    0    0  0.21176678612E+02  0.43422621661E+02  0.22539895083E+02  0.53310728970E+02  0.10566000000E+00 0.  1.
         23    2    1    0    0    0  0.26963537400E+02  0.37210098716E+01  0.14238102797E+02  0.94281897278E+02  0.89137390132E+02 0.  0.
         13    1    3    3    0    0  0.57868587877E+01 -0.39701611789E+02 -0.83017922859E+01  0.40971168308E+02  0.10566000000E+00 0. -1.
         22    1    1    0    0    0 -0.26963537400E+02 -0.37210098716E+01 -0.14238102797E+02  0.30718102722E+02  0.00000000000E+00 0. -1.
</event>
<event>
 5    1  0.1325832E-009  0.9118800E+02  0.7818608E-02  0.1130116E+00
         25   -1    0    0    0    0  0.00000000000E+00  0.00000000000E+00  0.99999998245E-14  0.12500000000E+03  0.12500000000E+03 0.  0.
        -13    1    3    3    0    0  0.15150123573E+02 -0.17596345872E+02  0.28671195140E+02  0.36894528417E+02  0.10566000000E+00 0. -1.
         23    2    1    0    0    0  0.31473071724E+01 -0.80430069318E+01 -0.28048296585E+02  0.95652045314E+02  0.91038515632E+02 0.  0.
         13    1    3    3    0    0 -0.12002816400E+02  0.95533389404E+01 -0.56719491724E+02  0.58757516897E+02  0.10566000000E+00 0.  1.
         22    1    1    0    0    0 -0.31473071724E+01  0.80430069318E+01  0.28048296585E+02  0.29347954686E+02  0.00000000000E+00 0.  1.
</event>
<event>
 5    1  0.1325832E-009  0.9118800E+02  0.7818608E-02  0.1130116E+00
         25   -1    0    0    0    0  0.00000000000E+00  0.00000000000E+00  0.99999998245E-14  0.12500000000E+03  0.12500000000E+03 0.  0.
        -13    1    3    3    0    0 -0.24256926975E+02 -0.21245567109E+02 -0.23307855257E+02  0.39787434056E+02  0.10566000000E+00 0.  1.
         23    2    1    0    0    0  0.55746966604E+01  0.24802615037E+02 -0.15549493113E+02  0.95200105846E+02  0.90415852932E+02 0.  0.
         13    1    3    3    0    0  0.29831623636E+02  0.46048182146E+02  0.77583621440E+01  0.55412671790E+02  0.10566000000E+00 0. -1.
         22    1    1    0    0    0 -0.55746966604E+01 -0.24802615037E+02  0.15549493113E+02  0.29799894154E+02  0.00000000000E+00 0. -1.
</event>
<event>
 5    1  0.1325832E-009  0.9118800E+02  0.7818608E-02  0.1130116E+00
         25   -1    0    0    0    0  0.00000000000E+00  0.00000000000E+00  0.99999998245E-14  0.12500000000E+03  0.12500000000E+03 0.  0.
        -13    1    3    3    0    0 -0.19131544731E+02 -0.60297478721E+01  0.53041397112E+02  0.56707802239E+02  0.10566000000E+00 0.  1.
         23    2    1    0    0    0 -0.23500821790E+02 -0.89233483916E+01  0.13749971607E+02  0.96347312682E+02  0.91988195822E+02 0.  0.
         13    1    3    3    0    0 -0.43692770589E+01 -0.28936005194E+01 -0.39291425504E+02  0.39639510443E+02  0.10566000000E+00 0. -1.
         22    1    1    0    0    0  0.23500821790E+02  0.89233483916E+01 -0.13749971607E+02  0.28652687318E+02  0.00000000000E+00 0.  1.
</event>
<event>
 5    1  0.1325832E-009  0.9118800E+02  0.7818608E-02  0.1130116E+00
         25   -1    0    0    0    0  0.00000000000E+00  0.00000000000E+00  0.99999998245E-14  0.12500000000E+03  0.12500000000E+03 0.  0.
        -13    1    3    3    0    0  0.13740021107E+02 -0.41741877782E+02  0.10874536482E+02  0.45270732803E+02  0.10566000000E+00 0.  1.
         23    2    1    0    0    0 -0.88082438494E+01 -0.11275008308E+02 -0.24183217853E+02  0.96901263413E+02  0.92737887906E+02 0.  0.
         13    1    3    3    0    0 -0.22548264956E+02  0.30466869474E+02 -0.35057754335E+02  0.51630530611E+02  0.10566000000E+00 0. -1.
         22    1    1    0    0    0  0.88082438494E+01  0.11275008308E+02  0.24183217853E+02  0.28098736587E+02  0.00000000000E+00 0.  1.
</event>
<event>
 5    1  0.1325832E-009  0.9118800E+02  0.7818608E-02  0.1130116E+00
         25   -1    0    0    0    0  0.00000000000E+00  0.00000000000E+00  0.99999998245E-14  0.12500000000E+03  0.12500000000E+03 0.  0.
        -13    1    3    3    0    0 -0.86042936498E+01  0.32996023934E+02  0.37171671032E+01  0.34301602877E+02  0.10566000000E+00 0. -1.
         23    2    1    0    0    0  0.53084027494E+01 -0.26823364407E+02  0.96499509518E+01  0.96003559335E+02  0.91519887641E+02 0.  0.
         13    1    3    3    0    0  0.13912696399E+02 -0.59819388340E+02  0.59327838487E+01  0.61701956458E+02  0.10566000000E+00 0.  1.
         22    1    1    0    0    0 -0.53084027494E+01  0.26823364407E+02 -0.96499509518E+01  0.28996440665E+02  0.00000000000E+00 0.  1.
</event>
<event>
 5    1  0.1325832E-009  0.9118800E+02  0.7818608E-02  0.1130116E+00
         25   -1    0    0    0    0  0.00000000000E+00  0.00000000000E+00  0.99999998245E-14  0.12500000000E+03  0.12500000000E+03 0.  0.
        -13    1    3    3    0    0 -0.33904764264E+02  0.24342692843E+01  0.20804238308E+02  0.39853308550E+02  0.10566000000E+00 0.  1.
         23    2    1    0    0    0  0.19922554591E+02  0.16268508793E+02  0.13628572494E+02  0.95891400789E+02  0.91366570459E+02 0.  0.
         13    1    3    3    0    0  0.53827318855E+02  0.13834239508E+02 -0.71756658136E+01  0.56038092239E+02  0.10566000000E+00 0. -1.
         22    1    1    0    0    0 -0.19922554591E+02 -0.16268508793E+02 -0.13628572494E+02  0.29108599211E+02  0.00000000000E+00 0. -1.
</event>
<event>
 5    1  0.1325832E-009  0.9118800E+02  0.7818608E-02  0.1130116E+00
         25   -1    0    0    0    0  0.00000000000E+00  0.00000000000E+00  0.99999998245E-14  0.12500000000E+03  0.12500000000E+03 0.  0.
        -13    1    3    3    0    0 -0.13824935010E+01  0.35489703078E+02 -0.33435559619E+02  0.48778869646E+02  0.10566000000E+00 0.  1.
         23    2    1    0    0    0 -0.47326589475E+01 -0.13873965094E+02 -0.20282594059E+02  0.99974641063E+02  0.96791839872E+02 0.  0.
         13    1    3    3    0    0 -0.33501654465E+01 -0.49363668173E+02  0.13152965560E+02  0.51195771418E+02  0.10566000000E+00 0. -1.
         22    1    1    0    0    0  0.47326589475E+01  0.13873965094E+02  0.20282594059E+02  0.25025358937E+02  0.00000000000E+00 0. -1.
</event>
<event>
 5    1  0.1325832E-009  0.9118800E+02  0.7818608E-02  0.1130116E+00
         25   -1    0    0    0    0  0.00000000000E+00  0.00000000000E+00  0.99999998245E-14  0.12500000000E+03  0.12500000000E+03 0.  0.
        -13    1    3    3    0    0  0.58793681954E+02 -0.12568694263E+02 -0.22988660133E+01  0.60166145482E+02  0.10566000000E+00 0.  1.
         23    2    1    0    0    0  0.27159553215E+02  0.14579771544E+01 -0.10694030473E+02  0.95774509141E+02  0.91206509007E+02 0.  0.
         13    1    3    3    0    0 -0.31634128739E+02  0.14026671417E+02 -0.83951644601E+01  0.35608363659E+02  0.10566000000E+00 0. -1.
         22    1    1    0    0    0 -0.27159553215E+02 -0.14579771544E+01  0.10694030473E+02  0.29225490859E+02  0.00000000000E+00 0.  1.
</event>
<event>
 5    1  0.1325832E-009  0.9118800E+02  0.7818608E-02  0.1130116E+00
         25   -1    0    0    0    0  0.00000000000E+00  0.00000000000E+00  0.99999998245E-14  0.12500000000E+03  0.12500000000E+03 0.  0.
        -13    1    3    3    0    0  0.32108059111E+02  0.16968091491E+02 -0.15913190375E+02  0.39649519299E+02  0.10566000000E+00 0. -1.
         23    2    1    0    0    0  0.21218712998E+02 -0.27149391127E+02 -0.19802961420E+02  0.85257321418E+02  0.75427649801E+02 0.  0.
         13    1    3    3    0    0 -0.10889346113E+02 -0.44117482618E+02 -0.38897710443E+01  0.45607802119E+02  0.10566000000E+00 0.  1.
         22    1    1    0    0    0 -0.21218712998E+02  0.27149391127E+02  0.19802961420E+02  0.39742678582E+02  0.00000000000E+00 0. -1.
</event>
<event>
 5    1  0.1325832E-009  0.9118800E+02  0.7818608E-02  0.1130116E+00
         25   -1    0    0    0    0  0.00000000000E+00  0.00000000000E+00  0.99999998245E-14  0.12500000000E+03  0.12500000000E+03 0.  0.
        -13    1    3    3    0    0 -0.27891720390E+02 -0.31679343243E+02  0.21336481601E+02  0.47294666356E+02  0.10566000000E+00 0. -1.
         23    2    1    0    0    0  0.98570822870E+01 -0.27422678694E+02 -0.74084012459E+01  0.94932579309E+02  0.90045237672E+02 0.  0.
         13    1    3    3    0    0  0.37748802677E+02  0.42566645492E+01 -0.28744882847E+02  0.47637912953E+02  0.10566000000E+00 0.  1.
         22    1    1    0    0    0 -0.98570822870E+01  0.27422678694E+02  0.74084012459E+01  0.30067420691E+02  0.00000000000E+00 0. -1.
</event>
<event>
 5    1  0.1325832E-009  0.9118800E+02  0.7818608E-02  0.1130116E+00
         25   -1    0    0    0    0  0.00000000000E+00  0.00000000000E+00  0.99999998245E-14  0.12500000000E+03  0.12500000000E+03 0.  0.
        -13    1    3    3    0    0 -0.58263436533E+01  0.37578739241E+02 -0.16536084807E+02  0.41467592022E+02  0.10566000000E+00 0.  1.
         23    2    1    0    0    0 -0.23453591388E+02 -0.83392598636E+01  0.10943335009E+02  0.97808626640E+02  0.93952949183E+02 0.  0.
         13    1    3    3    0    0 -0.17627247735E+02 -0.45917999105E+02  0.27479419815E+02  0.56341034619E+02  0.10566000000E+00 0. -1.
         22    1    1    0    0    0  0.23453591388E+02  0.83392598636E+01 -0.10943335009E+02  0.27191373360E+02  0.00000000000E+00 0. -1.
</event>
<event>
 5    1  0.1325832E-009  0.9118800E+02  0.7818608E-02  0.1130116E+00
         25   -1    0    0    0    0  0.00000000000E+00  0.00000000000E+00  0.99999998245E-14  0.12500000000E+03  0.12500000000E+03 0.  0.
        -13    1    3    3    0    0  0.51683750066E+01  0.21572081332E+02 -0.27323803540E+02  0.35194718313E+02  0.10566000000E+00 0.  1.
         23    2    1    0    0    0  0.25897809251E+01 -0.24662688402E+02  0.13357494748E+02  0.96833036543E+02  0.92645880296E+02 0.  0.
         13    1    3    3    0    0 -0.25785940815E+01 -0.46234769734E+02  0.40681298288E+02  0.61638318230E+02  0.10566000000E+00 0. -1.
         22    1    1    0    0    0 -0.25897809251E+01  0.24662688402E+02 -0.13357494748E+02  0.28166963457E+02  0.00000000000E+00 0. -1.
</event>
<event>
 5    1  0.1325832E-009  0.9118800E+02  0.7818608E-02  0.1130116E+00
         25   -1    0    0    0    0  0.00000000000E+00  0.00000000000E+00  0.99999998245E-14  0.12500000000E+03  0.12500000000E+03 0.  0.
        -13    1    3    3    0    0  0.36329975382E+02  0.19922627415E+02 -0.10641513977E+02  0.42778863684E+02  0.10566000000E+00 0. -1.
         23    2    1    0    0    0 -0.14646828911E+02  0.25525125662E+02 -0.95010187779E+01  0.94075398224E+02  0.88847338486E+02 0.  0.
         13    1    3    3    0    0 -0.50976804292E+02  0.56024982469E+01  0.11404951994E+01  0.51296534540E+02  0.10566000000E+00 0.  1.
         22    1    1    0    0    0  0.14646828911E+02 -0.25525125662E+02  0.95010187779E+01  0.30924601776E+02  0.00000000000E+00 0.  1.
</event>
<event>
 5    1  0.1325832E-009  0.9118800E+02  0.7818608E-02  0.1130116E+00
         25   -1    0    0    0    0  0.00000000000E+00  0.00000000000E+00  0.99999998245E-14  0.12500000000E+03  0.12500000000E+03 0.  0.
        -13    1    3    3    0    0  0.33301301364E+02 -0.57053731407E+01 -0.14317687592E+01  0.33816993968E+02  0.10566000000E+00 0.  1.
         23    2    1    0    0    0 -0.20484609262E+02 -0.24994755878E+02  0.79440297904E+01  0.91721408573E+02  0.85471352764E+02 0.  0.
         13    1    3    3    0    0 -0.53785910626E+02 -0.19289382737E+02  0.93757985496E+01  0.57904414605E+02  0.10566000000E+00 0. -1.
         22    1    1    0    0    0  0.20484609262E+02  0.24994755878E+02 -0.79440297904E+01  0.33278591427E+02  0.00000000000E+00 0. -1.
</event>
<event>
 5    1  0.1325832E-009  0.9118800E+02  0.7818608E-02  0.1130116E+00
         25   -1    0    0    0    0  0.00000000000E+00  0.00000000000E+00  0.99999998245E-14  0.12500000000E+03  0.12500000000E+03 0.  0.
        -13    1    3    3    0    0  0.11167332403E+02 -0.12763892315E+02 -0.43103822146E+02  0.46320372491E+02  0.10566000000E+00 0.  1.
         23    2    1    0    0    0 -0.23595792919E+02 -0.15020780379E+02 -0.77022792383E+01  0.95987754445E+02  0.91498298406E+02 0.  0.
         13    1    3    3    0    0 -0.34763125322E+02 -0.22568880643E+01  0.35401542908E+02  0.49667381954E+02  0.10566000000E+00 0. -1.
         22    1    1    0    0    0  0.23595792919E+02  0.15020780379E+02  0.77022792383E+01  0.29012245555E+02  0.00000000000E+00 0. -1.
</event>
<event>
 5    1  0.1325832E-009  0.9118800E+02  0.7818608E-02  0.1130116E+00
         25   -1    0    0    0    0  0.00000000000E+00  0.00000000000E+00  0.99999998245E-14  0.12500000000E+03  0.12500000000E+03 0.  0.
        -13    1    3    3    0    0 -0.34781634659E+01 -0.32797431907E+02 -0.30885134422E+02  0.45184863097E+02  0.10566000000E+00 0.  1.
         23    2    1    0    0    0 -0.55392850621E+01  0.12843654587E+02 -0.31128649926E+02  0.90873236480E+02  0.84221785305E+02 0.  0.
         13    1    3    3    0    0 -0.20611215962E+01  0.45641086494E+02 -0.24351550408E+00  0.45688373383E+02  0.10566000000E+00 0. -1.
         22    1    1    0    0    0  0.55392850621E+01 -0.12843654587E+02  0.31128649926E+02  0.34126763520E+02  0.00000000000E+00 0. -1.
</event>
<event>
 5    1  0.1325832E-009  0.9118800E+02  0.7818608E-02  0.1130116E+00
         25   -1    0    0    0    0  0.00000000000E+00  0.00000000000E+00  0.99999998245E-14  0.12500000000E+03  0.12500000000E+03 0.  0.
        -13    1    3    3    0    0 -0.13790401376E+02  0.29352255719E+02  0.46485388252E+02  0.56680089722E+02  0.10566000000E+00 0.  1.
         23    2    1    0    0    0 -0.85771267114E+01 -0.55503055167E+01  0.24992963930E+02  0.97999606670E+02  0.94206696511E+02 0.  0.
         13    1    3    3    0    0  0.52132746642E+01 -0.34902561236E+02 -0.21492424322E+02  0.41319516948E+02  0.10566000000E+00 0. -1.
         22    1    1    0    0    0  0.85771267114E+01  0.55503055167E+01 -0.24992963930E+02  0.27000393330E+02  0.00000000000E+00 0.  1.
</event>
<event>
 5    1  0.1325832E-009  0.9118800E+02  0.7818608E-02  0.1130116E+00
         25   -1    0    0    0    0  0.00000000000E+00  0.00000000000E+00  0.99999998245E-14  0.12500000000E+03  0.12500000000E+03 0.  0.
        -13    1    3    3    0    0  0.29635279394E+02 -0.22360318390E+02 -0.18317873631E+02  0.41397938133E+02  0.10566000000E+00 0.  1.
         23    2    1    0    0    0 -0.13038102673E+02  0.97649690310E+01 -0.24930246544E+02  0.95219739185E+02  0.90442991969E+02 0.  0.
         13    1    3    3    0    0 -0.42673382066E+02  0.32125287421E+02 -0.66123729130E+01  0.53821801052E+02  0.10566000000E+00 0. -1.
         22    1    1    0    0    0  0.13038102673E+02 -0.97649690310E+01  0.24930246544E+02  0.29780260815E+02  0.00000000000E+00 0.  1.
</event>
<event>
 5    1  0.1325832E-009  0.9118800E+02  0.7818608E-02  0.1130116E+00
         25   -1    0    0    0    0  0.00000000000E+00  0.00000000000E+00  0.99999998245E-14  0.12500000000E+03  0.12500000000E+03 0.  0.
        -13    1    3    3    0    0 -0.11287271490E+02  0.32325172367E+02  0.18275794395E+02  0.38811532965E+02  0.10566000000E+00 0.  1.
         23    2    1    0    0    0 -0.54159527129E+01 -0.17192868533E+02 -0.17260138680E+02  0.10004324421E+03  0.96880395608E+02 0.  0.
         13    1    3    3    0    0  0.58713187769E+01 -0.49518040901E+02 -0.35535933075E+02  0.61231711248E+02  0.10566000000E+00 0. -1.
         22    1    1    0    0    0  0.54159527129E+01  0.17192868533E+02  0.17260138680E+02  0.24956755788E+02  0.00000000000E+00 0. -1.
</event>
<event>
 5    1  0.1325832E-009  0.9118800E+02  0.7818608E-02  0.1130116E+00
         25   -1    0    0    0    0  0.00000000000E+00  0.00000000000E+00  0.99999998245E-14  0.12500000000E+03  0.12500000000E+03 0.  0.
        -13    1    3    3    0    0  0.10793677353E+02  0.20809538428E+02 -0.31691498830E+02  0.39419571567E+02  0.10566000000E+00 0.  1.
         23    2    1    0    0    0 -0.21869320178E+02 -0.16637868233E+02 -0.16808331370E+01  0.97469816121E+02  0.93501091064E+02 0.  0.
         13    1    3    3    0    0 -0.32662997531E+02 -0.37447406661E+02  0.30010665693E+02  0.58050244554E+02  0.10566000000E+00 0. -1.
         22    1    1    0    0    0  0.21869320178E+02  0.16637868233E+02  0.16808331370E+01  0.27530183879E+02  0.00000000000E+00 0. -1.
</event>
<event>
 5    1  0.1325832E-009  0.9118800E+02  0.7818608E-02  0.1130116E+00
         25   -1    0    0    0    0  0.00000000000E+00  0.00000000000E+00  0.99999998245E-14  0.12500000000E+03  0.12500000000E+03 0.  0.
        -13    1    3    3    0    0 -0.30024950875E+02  0.12275166185E+02  0.19359361224E+02  0.37775301599E+02  0.10566000000E+00 0.  1.
         23    2    1    0    0    0  0.73120751935E+01  0.11085316862E+02 -0.25558764916E+02  0.96197202261E+02  0.91783988611E+02 0.  0.
         13    1    3    3    0    0  0.37337026068E+02 -0.11898493232E+01 -0.44918126139E+02  0.58421900662E+02  0.10566000000E+00 0. -1.
         22    1    1    0    0    0 -0.73120751935E+01 -0.11085316862E+02  0.25558764916E+02  0.28802797739E+02  0.00000000000E+00 0. -1.
</event>
<event>
 5    1  0.1325832E-009  0.9118800E+02  0.7818608E-02  0.1130116E+00
         25   -1    0    0    0    0  0.00000000000E+00  0.00000000000E+00  0.99999998245E-14  0.12500000000E+03  0.12500000000E+03 0.  0.
        -13    1    3    3    0    0 -0.13107120238E+02  0.30228443580E+02 -0.20411117525E+02  0.38757970598E+02  0.10566000000E+00 0.  1.
         23    2    1    0    0    0 -0.17017806581E+02 -0.23123007898E+02  0.73459119940E+00  0.96280340195E+02  0.91897143855E+02 0.  0.
         13    1    3    3    0    0 -0.39106863433E+01 -0.53351451479E+02  0.21145708724E+02  0.57522369597E+02  0.10566000000E+00 0. -1.
         22    1    1    0    0    0  0.17017806581E+02  0.23123007898E+02 -0.73459119940E+00  0.28719659805E+02  0.00000000000E+00 0. -1.
</event>
<event>
 5    1  0.1325832E-009  0.9118800E+02  0.7818608E-02  0.1130116E+00
         25   -1    0    0    0    0  0.00000000000E+00  0.00000000000E+00  0.99999998245E-14  0.12500000000E+03  0.12500000000E+03 0.  0.
        -13    1    3    3    0    0  0.17201738325E+01  0.30294219442E+02 -0.48826953188E+02  0.57487226853E+02  0.10566000000E+00 0.  1.
         23    2    1    0    0    0  0.45843813060E+01  0.28084532429E+02 -0.12626306844E+02  0.93868325804E+02  0.88555527502E+02 0.  0.
         13    1    3    3    0    0  0.28642074735E+01 -0.22096870135E+01  0.36200646344E+02  0.36381098951E+02  0.10566000000E+00 0. -1.
         22    1    1    0    0    0 -0.45843813060E+01 -0.28084532429E+02  0.12626306844E+02  0.31131674196E+02  0.00000000000E+00 0.  1.
</event>
<event>
 5    1  0.1325832E-009  0.9118800E+02  0.7818608E-02  0.1130116E+00
         25   -1    0    0    0    0  0.00000000000E+00  0.00000000000E+00  0.99999998245E-14  0.12500000000E+03  0.12500000000E+03 0.  0.
        -13    1    3    3    0    0  0.12151969165E+02  0.38513470521E+02 -0.35460610399E+02  0.53744058463E+02  0.10566000000E+00 0.  1.
         23    2    1    0    0    0  0.26121414685E+02  0.14142677960E+02 -0.55421670526E+01  0.94783129536E+02  0.89837533269E+02 0.  0.
         13    1    3    3    0    0  0.13969445520E+02 -0.24370792561E+02  0.29918443347E+02  0.41039071073E+02  0.10566000000E+00 0. -1.
         22    1    1    0    0    0 -0.26121414685E+02 -0.14142677960E+02  0.55421670526E+01  0.30216870464E+02  0.00000000000E+00 0.  1.
</event>
<event>
 5    1  0.1325832E-009  0.9118800E+02  0.7818608E-02  0.1130116E+00
         25   -1    0    0    0    0  0.00000000000E+00  0.00000000000E+00  0.99999998245E-14  0.12500000000E+03  0.12500000000E+03 0.  0.
        -13    1    3    3    0    0 -0.24914928103E+02 -0.37663821344E+01  0.45482921755E+02  0.51996601929E+02  0.10566000000E+00 0.  1.
         23    2    1    0    0    0 -0.52659622583E+01  0.21883578829E+02  0.29061959791E+02  0.88241070639E+02  0.80220120043E+02 0.  0.
         13    1    3    3    0    0  0.19648965845E+02  0.25649960963E+02 -0.16420961964E+02  0.36244468710E+02  0.10566000000E+00 0. -1.
         22    1    1    0    0    0  0.52659622583E+01 -0.21883578829E+02 -0.29061959791E+02  0.36758929361E+02  0.00000000000E+00 0.  1.
</event>
<event>
 5    1  0.1325832E-009  0.9118800E+02  0.7818608E-02  0.1130116E+00
         25   -1    0    0    0    0  0.00000000000E+00  0.00000000000E+00  0.99999998245E-14  0.12500000000E+03  0.12500000000E+03 0.  0.
        -13    1    3    3    0    0 -0.30506250854E+02  0.27373308521E+02  0.67045916538E+01  0.41531820016E+02  0.10566000000E+00 0.  1.
         23    2    1    0    0    0  0.15267806513E+02  0.19231362398E+02  0.23545172841E+02  0.90980500011E+02  0.84380833148E+02 0.  0.
         13    1    3    3    0    0  0.45774057367E+02 -0.81419461226E+01  0.16840581187E+02  0.49448679995E+02  0.10566000000E+00 0. -1.
         22    1    1    0    0    0 -0.15267806513E+02 -0.19231362398E+02 -0.23545172841E+02  0.34019499989E+02  0.00000000000E+00 0. -1.
</event>
<event>
 5    1  0.1325832E-009  0.9118800E+02  0.7818608E-02  0.1130116E+00
         25   -1    0    0    0    0  0.00000000000E+00  0.00000000000E+00  0.99999998245E-14  0.12500000000E+03  0.12500000000E+03 0.  0.
        -13    1    3    3    0    0 -0.52499197212E+02 -0.94011711097E+01  0.28745661353E+01  0.53411815366E+02  0.10566000000E+00 0.  1.
         23    2    1    0    0    0 -0.13567051863E+02 -0.25469330743E+02  0.55468459420E+01  0.95614302720E+02  0.90986678585E+02 0.  0.
         13    1    3    3    0    0  0.38932145349E+02 -0.16068159633E+02  0.26722798067E+01  0.42202487354E+02  0.10566000000E+00 0. -1.
         22    1    1    0    0    0  0.13567051863E+02  0.25469330743E+02 -0.55468459420E+01  0.29385697280E+02  0.00000000000E+00 0.  1.
</event>
<event>
 5    1  0.1325832E-009  0.9118800E+02  0.7818608E-02  0.1130116E+00
         25   -1    0    0    0    0  0.00000000000E+00  0.00000000000E+00  0.99999998245E-14  0.12500000000E+03  0.12500000000E+03 0.  0.
        -13    1    3    3    0    0 -0.16276588053E+02 -0.15056310476E+02  0.26197748113E+02  0.34321319527E+02  0.10566000000E+00 0.  1.
         23    2    1    0    0    0  0.84832484163E+01  0.22604876555E+02 -0.15977424437E+02  0.96047900950E+02  0.91580430429E+02 0.  0.
         13    1    3    3    0    0  0.24759836470E+02  0.37661187031E+02 -0.42175172550E+02  0.61726581424E+02  0.10566000000E+00 0. -1.
         22    1    1    0    0    0 -0.84832484163E+01 -0.22604876555E+02  0.15977424437E+02  0.28952099050E+02  0.00000000000E+00 0. -1.
</event>
<event>
 5    1  0.1325832E-009  0.9118800E+02  0.7818608E-02  0.1130116E+00
         25   -1    0    0    0    0  0.00000000000E+00  0.00000000000E+00  0.99999998245E-14  0.12500000000E+03  0.12500000000E+03 0.  0.
        -13    1    3    3    0    0 -0.14443881143E+02  0.23360766808E+02 -0.18527795721E+02  0.33130673199E+02  0.10566000000E+00 0. -1.
         23    2    1    0    0    0  0.39861590315E+01 -0.20808216646E+02  0.20974552751E+02  0.95187197265E+02  0.90398005045E+02 0.  0.
         13    1    3    3    0    0  0.18430040174E+02 -0.44168983454E+02  0.39502348472E+02  0.62056524065E+02  0.10566000000E+00 0.  1.
         22    1    1    0    0    0 -0.39861590315E+01  0.20808216646E+02 -0.20974552751E+02  0.29812802735E+02  0.00000000000E+00 0.  1.
</event>
<event>
 5    1  0.1325832E-009  0.9118800E+02  0.7818608E-02  0.1130116E+00
         25   -1    0    0    0    0  0.00000000000E+00  0.00000000000E+00  0.99999998245E-14  0.12500000000E+03  0.12500000000E+03 0.  0.
        -13    1    3    3    0    0 -0.24804497186E+02  0.68092900043E+01 -0.55878915101E+02  0.61514988644E+02  0.10566000000E+00 0.  1.
         23    2    1    0    0    0 -0.11320159376E+02 -0.48384292822E+01 -0.23163529347E+02  0.98768234943E+02  0.95221104466E+02 0.  0.
         13    1    3    3    0    0  0.13484337810E+02 -0.11647719287E+02  0.32715385754E+02  0.37253246299E+02  0.10566000000E+00 0. -1.
         22    1    1    0    0    0  0.11320159376E+02  0.48384292822E+01  0.23163529347E+02  0.26231765057E+02  0.00000000000E+00 0.  1.
</event>
<event>
 5    1  0.1325832E-009  0.9118800E+02  0.7818608E-02  0.1130116E+00
         25   -1    0    0    0    0  0.00000000000E+00  0.00000000000E+00  0.99999998245E-14  0.12500000000E+03  0.12500000000E+03 0.  0.
        -13    1    3    3    0    0 -0.23294147551E+02 -0.56482941196E+02 -0.45660220306E+01  0.61268259951E+02  0.10566000000E+00 0. -1.
         23    2    1    0    0    0 -0.19430936237E+02 -0.26490191175E+02  0.15075653112E+01  0.92112855632E+02  0.86041931103E+02 0.  0.
         13    1    3    3    0    0  0.38632113141E+01  0.29992750021E+02  0.60735873417E+01  0.30844595681E+02  0.10566000000E+00 0.  1.
         22    1    1    0    0    0  0.19430936237E+02  0.26490191175E+02 -0.15075653112E+01  0.32887144368E+02  0.00000000000E+00 0. -1.
</event>
<event>
 5    1  0.1325832E-009  0.9118800E+02  0.7818608E-02  0.1130116E+00
         25   -1    0    0    0    0  0.00000000000E+00  0.00000000000E+00  0.99999998245E-14  0.12500000000E+03  0.12500000000E+03 0.  0.
        -13    1    3    3    0    0  0.10485707129E+02 -0.20940425612E+02 -0.35188466537E+02  0.42269265668E+02  0.10566000000E+00 0.  1.
         23    2    1    0    0    0  0.31142309046E+02  0.10110618748E+02 -0.19936470878E+01  0.92196910925E+02  0.86163958424E+02 0.  0.
         13    1    3    3    0    0  0.20656601916E+02  0.31051044360E+02  0.33194819450E+02  0.49927645257E+02  0.10566000000E+00 0. -1.
         22    1    1    0    0    0 -0.31142309046E+02 -0.10110618748E+02  0.19936470878E+01  0.32803089075E+02  0.00000000000E+00 0. -1.
</event>
<event>
 5    1  0.1325832E-009  0.9118800E+02  0.7818608E-02  0.1130116E+00
         25   -1    0    0    0    0  0.00000000000E+00  0.00000000000E+00  0.99999998245E-14  0.12500000000E+03  0.12500000000E+03 0.  0.
        -13    1    3    3    0    0  0.43061701631E+02  0.12042518910E+02  0.27465559091E+02  0.52475713518E+02  0.10566000000E+00 0. -1.
         23    2    1    0    0    0  0.11242132186E+02  0.19984875243E+02 -0.79376560608E+01  0.10073506319E+03  0.97768940865E+02 0.  0.
         13    1    3    3    0    0 -0.31819569445E+02  0.79423563334E+01 -0.35403215152E+02  0.48259349673E+02  0.10566000000E+00 0.  1.
         22    1    1    0    0    0 -0.11242132186E+02 -0.19984875243E+02  0.79376560608E+01  0.24264936809E+02  0.00000000000E+00 0. -1.
</event>
<event>
 5    1  0.1325832E-009  0.9118800E+02  0.7818608E-02  0.1130116E+00
         25   -1    0    0    0    0  0.00000000000E+00  0.00000000000E+00  0.99999998245E-14  0.12500000000E+03  0.12500000000E+03 0.  0.
        -13    1    3    3    0    0 -0.22184974745E+02 -0.22717964095E+02 -0.13720035484E+02  0.34590888031E+02  0.10566000000E+00 0. -1.
         23    2    1    0    0    0  0.16335242194E+02  0.22723880036E+02  0.39705627787E+01  0.96733761654E+02  0.92511839315E+02 0.  0.
         13    1    3    3    0    0  0.38520216939E+02  0.45441844132E+02  0.17690598263E+02  0.62142873623E+02  0.10566000000E+00 0.  1.
         22    1    1    0    0    0 -0.16335242194E+02 -0.22723880036E+02 -0.39705627787E+01  0.28266238346E+02  0.00000000000E+00 0.  1.
</event>
<event>
 5    1  0.1325832E-009  0.9118800E+02  0.7818608E-02  0.1130116E+00
         25   -1    0    0    0    0  0.00000000000E+00  0.00000000000E+00  0.99999998245E-14  0.12500000000E+03  0.12500000000E+03 0.  0.
        -13    1    3    3    0    0  0.46341650810E+01 -0.27694581309E+02  0.14248945633E+02  0.31488234875E+02  0.10566000000E+00 0. -1.
         23    2    1    0    0    0 -0.61338732212E+01  0.25901733646E+02 -0.15976749774E+02  0.93955181754E+02  0.88678043723E+02 0.  0.
         13    1    3    3    0    0 -0.10768038302E+02  0.53596314954E+02 -0.30225695407E+02  0.62466946879E+02  0.10566000000E+00 0.  1.
         22    1    1    0    0    0  0.61338732212E+01 -0.25901733646E+02  0.15976749774E+02  0.31044818246E+02  0.00000000000E+00 0.  1.
</event>
<event>
 5    1  0.1325832E-009  0.9118800E+02  0.7818608E-02  0.1130116E+00
         25   -1    0    0    0    0  0.00000000000E+00  0.00000000000E+00  0.99999998245E-14  0.12500000000E+03  0.12500000000E+03 0.  0.
        -13    1    3    3    0    0  0.30894696623E+02  0.17952880493E+02 -0.35179254915E+02  0.50143587206E+02  0.10566000000E+00 0. -1.
         23    2    1    0    0    0 -0.11752586086E+02  0.10642559991E+02 -0.26263003159E+02  0.94322113864E+02  0.89193769211E+02 0.  0.
         13    1    3    3    0    0 -0.42647282709E+02 -0.73103205022E+01  0.89162517569E+01  0.44178526658E+02  0.10566000000E+00 0.  1.
         22    1    1    0    0    0  0.11752586086E+02 -0.10642559991E+02  0.26263003159E+02  0.30677886136E+02  0.00000000000E+00 0. -1.
</event>
<event>
 5    1  0.1325832E-009  0.9118800E+02  0.7818608E-02  0.1130116E+00
         25   -1    0    0    0    0  0.00000000000E+00  0.00000000000E+00  0.99999998245E-14  0.12500000000E+03  0.12500000000E+03 0.  0.
        -13    1    3    3    0    0 -0.28387797549E-01  0.14050056553E+02 -0.43622072414E+02  0.45829043856E+02  0.10566000000E+00 0. -1.
         23    2    1    0    0    0  0.88627231028E+01 -0.24478159873E+02 -0.12650048610E+02  0.96056055877E+02  0.91591560579E+02 0.  0.
         13    1    3    3    0    0  0.88911109003E+01 -0.38528216426E+02  0.30972023804E+02  0.50227012021E+02  0.10566000000E+00 0.  1.
         22    1    1    0    0    0 -0.88627231028E+01  0.24478159873E+02  0.12650048610E+02  0.28943944123E+02  0.00000000000E+00 0. -1.
</event>
<event>
 5    1  0.1325832E-009  0.9118800E+02  0.7818608E-02  0.1130116E+00
         25   -1    0    0    0    0  0.00000000000E+00  0.00000000000E+00  0.99999998245E-14  0.12500000000E+03  0.12500000000E+03 0.  0.
        -13    1    3    3    0    0  0.56063003093E+02 -0.14526854255E+02 -0.12894147008E+02  0.59332621730E+02  0.10566000000E+00 0.  1.
         23    2    1    0    0    0  0.29078546626E+02 -0.14577322740E+02 -0.19447792158E+02  0.87101756875E+02  0.78424736013E+02 0.  0.
         13    1    3    3    0    0 -0.26984456467E+02 -0.50468485402E-01 -0.65536451507E+01  0.27769135145E+02  0.10566000000E+00 0. -1.
         22    1    1    0    0    0 -0.29078546626E+02  0.14577322740E+02  0.19447792158E+02  0.37898243125E+02  0.00000000000E+00 0.  1.
</event>
<event>
 5    1  0.1325832E-009  0.9118800E+02  0.7818608E-02  0.1130116E+00
         25   -1    0    0    0    0  0.00000000000E+00  0.00000000000E+00  0.99999998245E-14  0.12500000000E+03  0.12500000000E+03 0.  0.
        -13    1    3    3    0    0  0.12614820633E+02  0.37876133026E+02  0.15743949012E+00  0.39922062871E+02  0.10566000000E+00 0. -1.
         23    2    1    0    0    0  0.14300676281E+02 -0.14128833992E+02  0.20958994257E+02  0.95958430960E+02  0.91458229482E+02 0.  0.
         13    1    3    3    0    0  0.16858556479E+01 -0.52004967018E+02  0.20801554767E+02  0.56036368089E+02  0.10566000000E+00 0.  1.
         22    1    1    0    0    0 -0.14300676281E+02  0.14128833992E+02 -0.20958994257E+02  0.29041569040E+02  0.00000000000E+00 0.  1.
</event>
<event>
 5    1  0.1325832E-009  0.9118800E+02  0.7818608E-02  0.1130116E+00
         25   -1    0    0    0    0  0.00000000000E+00  0.00000000000E+00  0.99999998245E-14  0.12500000000E+03  0.12500000000E+03 0.  0.
        -13    1    3    3    0    0  0.19420385779E+02  0.30366648890E+02  0.45924643836E+01  0.36337124841E+02  0.10566000000E+00 0. -1.
         23    2    1    0    0    0 -0.30410016873E+02  0.57991790951E+01  0.10735808524E+02  0.92233291452E+02  0.86216720322E+02 0.  0.
         13    1    3    3    0    0 -0.49830402652E+02 -0.24567469794E+02  0.61433441407E+01  0.55896166611E+02  0.10566000000E+00 0.  1.
         22    1    1    0    0    0  0.30410016873E+02 -0.57991790951E+01 -0.10735808524E+02  0.32766708548E+02  0.00000000000E+00 0.  1.
</event>
<event>
 5    1  0.1325832E-009  0.9118800E+02  0.7818608E-02  0.1130116E+00
         25   -1    0    0    0    0  0.00000000000E+00  0.00000000000E+00  0.99999998245E-14  0.12500000000E+03  0.12500000000E+03 0.  0.
        -13    1    3    3    0    0 -0.59998666041E+02  0.40943823972E+01  0.77735147911E+01  0.60638622925E+02  0.10566000000E+00 0. -1.
         23    2    1    0    0    0 -0.27233544125E+02  0.42288578018E+01 -0.69759548267E+01  0.96570910854E+02  0.92291536522E+02 0.  0.
         13    1    3    3    0    0  0.32765121916E+02  0.13447540461E+00 -0.14749469618E+02  0.35932287930E+02  0.10566000000E+00 0.  1.
         22    1    1    0    0    0  0.27233544125E+02 -0.42288578018E+01  0.69759548267E+01  0.28429089146E+02  0.00000000000E+00 0. -1.
</event>
<event>
 5    1  0.1325832E-009  0.9118800E+02  0.7818608E-02  0.1130116E+00
         25   -1    0    0    0    0  0.00000000000E+00  0.00000000000E+00  0.99999998245E-14  0.12500000000E+03  0.12500000000E+03 0.  0.
        -13    1    3    3    0    0 -0.34378215164E+02  0.11617950988E+02 -0.62171927539E+01  0.36817157859E+02  0.10566000000E+00 0. -1.
         23    2    1    0    0    0  0.87229949140E+01 -0.24740712887E+02  0.12105819611E+02  0.96108056782E+02  0.91662501578E+02 0.  0.
         13    1    3    3    0    0  0.43101210078E+02 -0.36358663876E+02  0.18323012365E+02  0.59290898924E+02  0.10566000000E+00 0.  1.
         22    1    1    0    0    0 -0.87229949140E+01  0.24740712887E+02 -0.12105819611E+02  0.28891943218E+02  0.00000000000E+00 0.  1.
</event>
<event>
 5    1  0.1325832E-009  0.9118800E+02  0.7818608E-02  0.1130116E+00
         25   -1    0    0    0    0  0.00000000000E+00  0.00000000000E+00  0.99999998245E-14  0.12500000000E+03  0.12500000000E+03 0.  0.
        -13    1    3    3    0    0  0.19758214766E+02  0.18343560298E+02 -0.48334516198E+02  0.55345369050E+02  0.10566000000E+00 0. -1.
         23    2    1    0    0    0  0.15339526412E+02 -0.11826844279E+02 -0.15171741470E+02  0.10039599514E+03  0.97334468632E+02 0.  0.
         13    1    3    3    0    0 -0.44186883544E+01 -0.30170404576E+02  0.33162774727E+02  0.45050626086E+02  0.10566000000E+00 0.  1.
         22    1    1    0    0    0 -0.15339526412E+02  0.11826844279E+02  0.15171741470E+02  0.24604004864E+02  0.00000000000E+00 0. -1.
</event>
<event>
 5    1  0.1325832E-009  0.9118800E+02  0.7818608E-02  0.1130116E+00
         25   -1    0    0    0    0  0.00000000000E+00  0.00000000000E+00  0.99999998245E-14  0.12500000000E+03  0.12500000000E+03 0.  0.
        -13    1    3    3    0    0 -0.81927064953E+01  0.48448915892E+02  0.23578609421E+02  0.54501191520E+02  0.10566000000E+00 0.  1.
         23    2    1    0    0    0  0.10759034782E+02  0.21599637527E+02 -0.74970857140E+01  0.99731294751E+02  0.96477063014E+02 0.  0.
         13    1    3    3    0    0  0.18951741277E+02 -0.26849278365E+02 -0.31075695135E+02  0.45230103231E+02  0.10566000000E+00 0. -1.
         22    1    1    0    0    0 -0.10759034782E+02 -0.21599637527E+02  0.74970857140E+01  0.25268705249E+02  0.00000000000E+00 0.  1.
</event>
<event>
 5    1  0.1325832E-009  0.9118800E+02  0.7818608E-02  0.1130116E+00
         25   -1    0    0    0    0  0.00000000000E+00  0.00000000000E+00  0.99999998245E-14  0.12500000000E+03  0.12500000000E+03 0.  0.
        -13    1    3    3    0    0  0.45455547838E+01  0.39855669384E+02  0.33624067127E+02  0.52342387264E+02  0.10566000000E+00 0.  1.
         23    2    1    0    0    0 -0.11458305706E+02  0.26425824589E+02 -0.45307151955E+01  0.95842764962E+02  0.91300006794E+02 0.  0.
         13    1    3    3    0    0 -0.16003860490E+02 -0.13429844794E+02 -0.38154782322E+02  0.43500377698E+02  0.10566000000E+00 0. -1.
         22    1    1    0    0    0  0.11458305706E+02 -0.26425824589E+02  0.45307151955E+01  0.29157235038E+02  0.00000000000E+00 0.  1.
</event>
<event>
 5    1  0.1325832E-009  0.9118800E+02  0.7818608E-02  0.1130116E+00
         25   -1    0    0    0    0  0.00000000000E+00  0.00000000000E+00  0.99999998245E-14  0.12500000000E+03  0.12500000000E+03 0.  0.
        -13    1    3    3    0    0 -0.17104822405E+02 -0.37215264945E+02 -0.17932531576E+02  0.44711718231E+02  0.10566000000E+00 0.  1.
         23    2    1    0    0    0 -0.30067239720E+02  0.62301888186E+01  0.19808215490E+01  0.94230245189E+02  0.89064927425E+02 0.  0.
         13    1    3    3    0    0 -0.12962417315E+02  0.43445453764E+02  0.19913353125E+02  0.49518526958E+02  0.10566000000E+00 0. -1.
         22    1    1    0    0    0  0.30067239720E+02 -0.62301888186E+01 -0.19808215490E+01  0.30769754811E+02  0.00000000000E+00 0.  1.
</event>
<event>
 5    1  0.1325832E-009  0.9118800E+02  0.7818608E-02  0.1130116E+00
         25   -1    0    0    0    0  0.00000000000E+00  0.00000000000E+00  0.99999998245E-14  0.12500000000E+03  0.12500000000E+03 0.  0.
        -13    1    3    3    0    0  0.28815519295E+02  0.21282971791E+02  0.27161706955E+02  0.44956295769E+02  0.10566000000E+00 0. -1.
         23    2    1    0    0    0  0.12136158168E+02 -0.25488201159E+01 -0.20644656217E+02  0.10091712954E+03  0.98001440735E+02 0.  0.
         13    1    3    3    0    0 -0.16679361127E+02 -0.23831791907E+02 -0.47806363172E+02  0.55960833776E+02  0.10566000000E+00 0.  1.
         22    1    1    0    0    0 -0.12136158168E+02  0.25488201159E+01  0.20644656217E+02  0.24082870456E+02  0.00000000000E+00 0.  1.
</event>
<event>
 5    1  0.1325832E-009  0.9118800E+02  0.7818608E-02  0.1130116E+00
         25   -1    0    0    0    0  0.00000000000E+00  0.00000000000E+00  0.99999998245E-14  0.12500000000E+03  0.12500000000E+03 0.  0.
        -13    1    3    3    0    0 -0.20985491391E+02 -0.31770467526E+02  0.38007094413E+02  0.53798734609E+02  0.10566000000E+00 0.  1.
         23    2    1    0    0    0  0.19073496679E+00 -0.30681484640E+02  0.37469990510E+01  0.94089971184E+02  0.88867838929E+02 0.  0.
         13    1    3    3    0    0  0.21176226357E+02  0.10889828863E+01 -0.34260095362E+02  0.40291236575E+02  0.10566000000E+00 0. -1.
         22    1    1    0    0    0 -0.19073496679E+00  0.30681484640E+02 -0.37469990510E+01  0.30910028816E+02  0.00000000000E+00 0.  1.
</event>
<event>
 5    1  0.1325832E-009  0.9118800E+02  0.7818608E-02  0.1130116E+00
         25   -1    0    0    0    0  0.00000000000E+00  0.00000000000E+00  0.99999998245E-14  0.12500000000E+03  0.12500000000E+03 0.  0.
        -13    1    3    3    0    0 -0.50521704797E+02 -0.57667488216E+01 -0.32286678855E+02  0.60234033927E+02  0.10566000000E+00 0. -1.
         23    2    1    0    0    0 -0.28036282672E+02  0.21369996121E+01 -0.50399944200E+01  0.96434260780E+02  0.92106271204E+02 0.  0.
         13    1    3    3    0    0  0.22485422125E+02  0.79037484337E+01  0.27246684435E+02  0.36200226853E+02  0.10566000000E+00 0.  1.
         22    1    1    0    0    0  0.28036282672E+02 -0.21369996121E+01  0.50399944200E+01  0.28565739220E+02  0.00000000000E+00 0. -1.
</event>
<event>
 5    1  0.1325832E-009  0.9118800E+02  0.7818608E-02  0.1130116E+00
         25   -1    0    0    0    0  0.00000000000E+00  0.00000000000E+00  0.99999998245E-14  0.12500000000E+03  0.12500000000E+03 0.  0.
        -13    1    3    3    0    0  0.46803115231E+01  0.19803028837E+01 -0.46695474744E+02  0.46971325733E+02  0.10566000000E+00 0.  1.
         23    2    1    0    0    0  0.28528466317E+02  0.11683488082E+01 -0.36140723121E+01  0.96219799375E+02  0.91814758311E+02 0.  0.
         13    1    3    3    0    0  0.23848154794E+02 -0.81195407549E+00  0.43081402432E+02  0.49248473642E+02  0.10566000000E+00 0. -1.
         22    1    1    0    0    0 -0.28528466317E+02 -0.11683488082E+01  0.36140723121E+01  0.28780200625E+02  0.00000000000E+00 0. -1.
</event>
<event>
 5    1  0.1325832E-009  0.9118800E+02  0.7818608E-02  0.1130116E+00
         25   -1    0    0    0    0  0.00000000000E+00  0.00000000000E+00  0.99999998245E-14  0.12500000000E+03  0.12500000000E+03 0.  0.
        -13    1    3    3    0    0 -0.31413983310E+02 -0.48031932777E+01 -0.38332345360E+02  0.49792458043E+02  0.10566000000E+00 0.  1.
         23    2    1    0    0    0  0.86476873001E+00 -0.25991412352E+02 -0.13514822652E+02  0.95692120985E+02  0.91093524722E+02 0.  0.
         13    1    3    3    0    0  0.32278752040E+02 -0.21188219075E+02  0.24817522708E+02  0.45899662943E+02  0.10566000000E+00 0. -1.
         22    1    1    0    0    0 -0.86476873001E+00  0.25991412352E+02  0.13514822652E+02  0.29307879015E+02  0.00000000000E+00 0.  1.
</event>
<event>
 5    1  0.1325832E-009  0.9118800E+02  0.7818608E-02  0.1130116E+00
         25   -1    0    0    0    0  0.00000000000E+00  0.00000000000E+00  0.99999998245E-14  0.12500000000E+03  0.12500000000E+03 0.  0.
        -13    1    3    3    0    0  0.34588734565E+02 -0.30809658710E+02 -0.27627286897E+02  0.53934161474E+02  0.10566000000E+00 0. -1.
         23    2    1    0    0    0 -0.64750910465E+01 -0.14284450947E+02 -0.21149397342E+02  0.98669991439E+02  0.95092049403E+02 0.  0.
         13    1    3    3    0    0 -0.41063825611E+02  0.16525207763E+02  0.64778895548E+01  0.44735829964E+02  0.10566000000E+00 0.  1.
         22    1    1    0    0    0  0.64750910465E+01  0.14284450947E+02  0.21149397342E+02  0.26330008561E+02  0.00000000000E+00 0.  1.
</event>
<event>
 5    1  0.1325832E-009  0.9118800E+02  0.7818608E-02  0.1130116E+00
         25   -1    0    0    0    0  0.00000000000E+00  0.00000000000E+00  0.99999998245E-14  0.12500000000E+03  0.12500000000E+03 0.  0.
        -13    1    3    3    0    0  0.35443306880E+01 -0.47881945823E+02  0.20128499990E+02  0.52061604775E+02  0.10566000000E+00 0.  1.
         23    2    1    0    0    0 -0.29638564929E+01 -0.23375262237E+02 -0.16230124707E+02  0.96388738616E+02  0.92044471067E+02 0.  0.
         13    1    3    3    0    0 -0.65081871809E+01  0.24506683586E+02 -0.36358624696E+02  0.44327133842E+02  0.10566000000E+00 0. -1.
         22    1    1    0    0    0  0.29638564929E+01  0.23375262237E+02  0.16230124707E+02  0.28611261384E+02  0.00000000000E+00 0.  1.
</event>
<event>
 5    1  0.1325832E-009  0.9118800E+02  0.7818608E-02  0.1130116E+00
         25   -1    0    0    0    0  0.00000000000E+00  0.00000000000E+00  0.99999998245E-14  0.12500000000E+03  0.12500000000E+03 0.  0.
        -13    1    3    3    0    0 -0.46449464138E+02 -0.20783729390E+02 -0.22355608788E+01  0.50936480272E+02  0.10566000000E+00 0. -1.
         23    2    1    0    0    0 -0.37381117065E+01 -0.27606985138E+02  0.91746408138E+01  0.95669245805E+02  0.91062129622E+02 0.  0.
         13    1    3    3    0    0  0.42711352431E+02 -0.68232557484E+01  0.11410201693E+02  0.44732765533E+02  0.10566000000E+00 0.  1.
         22    1    1    0    0    0  0.37381117065E+01  0.27606985138E+02 -0.91746408138E+01  0.29330754195E+02  0.00000000000E+00 0.  1.
</event>
<event>
 5    1  0.1325832E-009  0.9118800E+02  0.7818608E-02  0.1130116E+00
         25   -1    0    0    0    0  0.00000000000E+00  0.00000000000E+00  0.99999998245E-14  0.12500000000E+03  0.12500000000E+03 0.  0.
        -13    1    3    3    0    0 -0.49045543779E+02  0.19042575525E+01  0.12113207267E+01  0.49097556185E+02  0.10566000000E+00 0.  1.
         23    2    1    0    0    0 -0.12432616890E+02 -0.13435272676E+02  0.23957962499E+02  0.94849370127E+02  0.89929653240E+02 0.  0.
         13    1    3    3    0    0  0.36612926889E+02 -0.15339530228E+02  0.22746641773E+02  0.45751813942E+02  0.10566000000E+00 0. -1.
         22    1    1    0    0    0  0.12432616890E+02  0.13435272676E+02 -0.23957962499E+02  0.30150629873E+02  0.00000000000E+00 0. -1.
</event>
<event>
 5    1  0.1325832E-009  0.9118800E+02  0.7818608E-02  0.1130116E+00
         25   -1    0    0    0    0  0.00000000000E+00  0.00000000000E+00  0.99999998245E-14  0.12500000000E+03  0.12500000000E+03 0.  0.
        -13    1    3    3    0    0  0.32778818915E+02  0.11302108800E+02  0.31050768916E+02  0.46544065649E+02  0.10566000000E+00 0. -1.
         23    2    1    0    0    0  0.15986806790E+02 -0.23152079372E+02 -0.14931437412E+01  0.96825077660E+02  0.92635141362E+02 0.  0.
         13    1    3    3    0    0 -0.16792012125E+02 -0.34454188172E+02 -0.32543912657E+02  0.50281012012E+02  0.10566000000E+00 0.  1.
         22    1    1    0    0    0 -0.15986806790E+02  0.23152079372E+02  0.14931437412E+01  0.28174922340E+02  0.00000000000E+00 0. -1.
</event>
<event>
 5    1  0.1325832E-009  0.9118800E+02  0.7818608E-02  0.1130116E+00
         25   -1    0    0    0    0  0.00000000000E+00  0.00000000000E+00  0.99999998245E-14  0.12500000000E+03  0.12500000000E+03 0.  0.
        -13    1    3    3    0    0  0.10443794866E+02 -0.36017987613E+02  0.18008773527E+02  0.41601627022E+02  0.10566000000E+00 0.  1.
         23    2    1    0    0    0 -0.22296489114E+02 -0.94300541245E+01 -0.16169451453E+02  0.95887966271E+02  0.91361871520E+02 0.  0.
         13    1    3    3    0    0 -0.32740283979E+02  0.26587933489E+02 -0.34178224979E+02  0.54286339249E+02  0.10566000000E+00 0. -1.
         22    1    1    0    0    0  0.22296489114E+02  0.94300541245E+01  0.16169451453E+02  0.29112033729E+02  0.00000000000E+00 0. -1.
</event>
<event>
 5    1  0.1325832E-009  0.9118800E+02  0.7818608E-02  0.1130116E+00
         25   -1    0    0    0    0  0.00000000000E+00  0.00000000000E+00  0.99999998245E-14  0.12500000000E+03  0.12500000000E+03 0.  0.
        -13    1    3    3    0    0  0.22563639441E+02  0.25044965846E+02  0.17973065149E+02  0.38202229961E+02  0.10566000000E+00 0. -1.
         23    2    1    0    0    0 -0.28327540026E+02  0.88874188191E+01 -0.20798295574E+01  0.95238255626E+02  0.90468579665E+02 0.  0.
         13    1    3    3    0    0 -0.50891179467E+02 -0.16157547027E+02 -0.20052894707E+02  0.57036025665E+02  0.10566000000E+00 0.  1.
         22    1    1    0    0    0  0.28327540026E+02 -0.88874188191E+01  0.20798295574E+01  0.29761744374E+02  0.00000000000E+00 0.  1.
</event>
<event>
 5    1  0.1325832E-009  0.9118800E+02  0.7818608E-02  0.1130116E+00
         25   -1    0    0    0    0  0.00000000000E+00  0.00000000000E+00  0.99999998245E-14  0.12500000000E+03  0.12500000000E+03 0.  0.
        -13    1    3    3    0    0 -0.25311002827E+02 -0.42078225633E+02 -0.30898344427E+02  0.58016745763E+02  0.10566000000E+00 0. -1.
         23    2    1    0    0    0 -0.91980051132E+01 -0.82933200373E+01 -0.26555428101E+02  0.95698579950E+02  0.91102387386E+02 0.  0.
         13    1    3    3    0    0  0.16112997714E+02  0.33784905596E+02  0.43429163260E+01  0.37681834187E+02  0.10566000000E+00 0.  1.
         22    1    1    0    0    0  0.91980051132E+01  0.82933200373E+01  0.26555428101E+02  0.29301420050E+02  0.00000000000E+00 0. -1.
</event>
<event>
 5    1  0.1325832E-009  0.9118800E+02  0.7818608E-02  0.1130116E+00
         25   -1    0    0    0    0  0.00000000000E+00  0.00000000000E+00  0.99999998245E-14  0.12500000000E+03  0.12500000000E+03 0.  0.
        -13    1    3    3    0    0 -0.23989727747E+02  0.89869034401E+01 -0.51394570233E+02  0.57425468951E+02  0.10566000000E+00 0.  1.
         23    2    1    0    0    0  0.59064432114E+01  0.29821046311E+01 -0.28989266958E+02  0.95265228802E+02  0.90505840698E+02 0.  0.
         13    1    3    3    0    0  0.29896170958E+02 -0.60047988090E+01  0.22405303274E+02  0.37839759851E+02  0.10566000000E+00 0. -1.
         22    1    1    0    0    0 -0.59064432114E+01 -0.29821046311E+01  0.28989266958E+02  0.29734771198E+02  0.00000000000E+00 0.  1.
</event>
<event>
 5    1  0.1325832E-009  0.9118800E+02  0.7818608E-02  0.1130116E+00
         25   -1    0    0    0    0  0.00000000000E+00  0.00000000000E+00  0.99999998245E-14  0.12500000000E+03  0.12500000000E+03 0.  0.
        -13    1    3    3    0    0  0.33791312420E+02  0.45489996499E+02 -0.14183346092E+02  0.58415503481E+02  0.10566000000E+00 0. -1.
         23    2    1    0    0    0  0.15685407065E+02  0.22902749388E+02  0.93349314001E+01  0.95713332922E+02  0.91122627433E+02 0.  0.
         13    1    3    3    0    0 -0.18105905355E+02 -0.22587247111E+02  0.23518277492E+02  0.37297829441E+02  0.10566000000E+00 0.  1.
         22    1    1    0    0    0 -0.15685407065E+02 -0.22902749388E+02 -0.93349314001E+01  0.29286667078E+02  0.00000000000E+00 0. -1.
</event>
<event>
 5    1  0.1325832E-009  0.9118800E+02  0.7818608E-02  0.1130116E+00
         25   -1    0    0    0    0  0.00000000000E+00  0.00000000000E+00  0.99999998245E-14  0.12500000000E+03  0.12500000000E+03 0.  0.
        -13    1    3    3    0    0 -0.14257231728E+02  0.15146752940E+02  0.50393696037E+02  0.54518148771E+02  0.10566000000E+00 0. -1.
         23    2    1    0    0    0 -0.40060443265E+01  0.27782165228E+02  0.15699520908E+02  0.92838344995E+02  0.87089530076E+02 0.  0.
         13    1    3    3    0    0  0.10251187401E+02  0.12635412288E+02 -0.34694175128E+02  0.38320196225E+02  0.10566000000E+00 0.  1.
         22    1    1    0    0    0  0.40060443265E+01 -0.27782165228E+02 -0.15699520908E+02  0.32161655005E+02  0.00000000000E+00 0. -1.
</event>
<event>
 5    1  0.1325832E-009  0.9118800E+02  0.7818608E-02  0.1130116E+00
         25   -1    0    0    0    0  0.00000000000E+00  0.00000000000E+00  0.99999998245E-14  0.12500000000E+03  0.12500000000E+03 0.  0.
        -13    1    3    3    0    0 -0.41634165951E+02 -0.40195227316E+02 -0.10080043985E+02  0.58742476319E+02  0.10566000000E+00 0.  1.
         23    2    1    0    0    0 -0.16261766784E+02 -0.25616781929E+02  0.86039674768E+01  0.93461248730E+02  0.87979043996E+02 0.  0.
         13    1    3    3    0    0  0.25372399167E+02  0.14578445387E+02  0.18684011462E+02  0.34718772411E+02  0.10566000000E+00 0. -1.
         22    1    1    0    0    0  0.16261766784E+02  0.25616781929E+02 -0.86039674768E+01  0.31538751270E+02  0.00000000000E+00 0.  1.
</event>
<event>
 5    1  0.1325832E-009  0.9118800E+02  0.7818608E-02  0.1130116E+00
         25   -1    0    0    0    0  0.00000000000E+00  0.00000000000E+00  0.99999998245E-14  0.12500000000E+03  0.12500000000E+03 0.  0.
        -13    1    3    3    0    0  0.49938734675E+02  0.32072437539E+01 -0.90551294056E+01  0.50854401639E+02  0.10566000000E+00 0. -1.
         23    2    1    0    0    0  0.91908526976E+01 -0.75169388500E+01 -0.26114962273E+02  0.96312591656E+02  0.91941002355E+02 0.  0.
         13    1    3    3    0    0 -0.40747881977E+02 -0.10724182604E+02 -0.17059832867E+02  0.45458190017E+02  0.10566000000E+00 0.  1.
         22    1    1    0    0    0 -0.91908526976E+01  0.75169388500E+01  0.26114962273E+02  0.28687408344E+02  0.00000000000E+00 0. -1.
</event>
<event>
 5    1  0.1325832E-009  0.9118800E+02  0.7818608E-02  0.1130116E+00
         25   -1    0    0    0    0  0.00000000000E+00  0.00000000000E+00  0.99999998245E-14  0.12500000000E+03  0.12500000000E+03 0.  0.
        -13    1    3    3    0    0 -0.39470421237E+02 -0.14856704732E+02  0.23897641774E+02  0.48474160895E+02  0.10566000000E+00 0.  1.
         23    2    1    0    0    0  0.82085889365E+01 -0.20727636111E+02  0.16909092202E+02  0.97019055946E+02  0.92896523006E+02 0.  0.
         13    1    3    3    0    0  0.47679010173E+02 -0.58709313785E+01 -0.69885495722E+01  0.48544895051E+02  0.10566000000E+00 0. -1.
         22    1    1    0    0    0 -0.82085889365E+01  0.20727636111E+02 -0.16909092202E+02  0.27980944054E+02  0.00000000000E+00 0. -1.
</event>
<event>
 5    1  0.1325832E-009  0.9118800E+02  0.7818608E-02  0.1130116E+00
         25   -1    0    0    0    0  0.00000000000E+00  0.00000000000E+00  0.99999998245E-14  0.12500000000E+03  0.12500000000E+03 0.  0.
        -13    1    3    3    0    0 -0.32375330141E+02 -0.18387275944E+02 -0.79239949361E+01  0.38066452135E+02  0.10566000000E+00 0. -1.
         23    2    1    0    0    0 -0.14988506585E+02  0.39148421997E+01  0.33424372469E+02  0.88160211808E+02  0.80094025695E+02 0.  0.
         13    1    3    3    0    0  0.17386823556E+02  0.22302118143E+02  0.41348367405E+02  0.50093759673E+02  0.10566000000E+00 0.  1.
         22    1    1    0    0    0  0.14988506585E+02 -0.39148421997E+01 -0.33424372469E+02  0.36839788192E+02  0.00000000000E+00 0. -1.
</event>
<event>
 5    1  0.1325832E-009  0.9118800E+02  0.7818608E-02  0.1130116E+00
         25   -1    0    0    0    0  0.00000000000E+00  0.00000000000E+00  0.99999998245E-14  0.12500000000E+03  0.12500000000E+03 0.  0.
        -13    1    3    3    0    0  0.21054857212E+02  0.20830010888E+02 -0.19875488178E+02  0.35668509363E+02  0.10566000000E+00 0. -1.
         23    2    1    0    0    0 -0.29809793493E+02  0.47678268926E+01  0.47861777441E+01  0.94434276406E+02  0.89350820375E+02 0.  0.
         13    1    3    3    0    0 -0.50864650706E+02 -0.16062183996E+02  0.24661665922E+02  0.58765767043E+02  0.10566000000E+00 0.  1.
         22    1    1    0    0    0  0.29809793493E+02 -0.47678268926E+01 -0.47861777441E+01  0.30565723594E+02  0.00000000000E+00 0.  1.
</event>
<event>
 5    1  0.1325832E-009  0.9118800E+02  0.7818608E-02  0.1130116E+00
         25   -1    0    0    0    0  0.00000000000E+00  0.00000000000E+00  0.99999998245E-14  0.12500000000E+03  0.12500000000E+03 0.  0.
        -13    1    3    3    0    0  0.16974788311E+02  0.35298150988E+02 -0.14994103900E+02  0.41939685468E+02  0.10566000000E+00 0. -1.
         23    2    1    0    0    0  0.12109500686E+02 -0.16463902241E+02 -0.22651792668E+02  0.94490922745E+02  0.89430032351E+02 0.  0.
         13    1    3    3    0    0 -0.48652876251E+01 -0.51762053228E+02 -0.76576887682E+01  0.52551237278E+02  0.10566000000E+00 0.  1.
         22    1    1    0    0    0 -0.12109500686E+02  0.16463902241E+02  0.22651792668E+02  0.30509077255E+02  0.00000000000E+00 0.  1.
</event>
<event>
 5    1  0.1325832E-009  0.9118800E+02  0.7818608E-02  0.1130116E+00
         25   -1    0    0    0    0  0.00000000000E+00  0.00000000000E+00  0.99999998245E-14  0.12500000000E+03  0.12500000000E+03 0.  0.
        -13    1    3    3    0    0 -0.16602420391E+02  0.43246470395E+01 -0.53971471228E+02  0.56632797966E+02  0.10566000000E+00 0. -1.
         23    2    1    0    0    0 -0.24624008268E+02 -0.18783472079E+01 -0.16876991021E+02  0.95088417004E+02  0.90261310931E+02 0.  0.
         13    1    3    3    0    0 -0.80215878771E+01 -0.62029942473E+01  0.37094480208E+02  0.38455619038E+02  0.10566000000E+00 0.  1.
         22    1    1    0    0    0  0.24624008268E+02  0.18783472079E+01  0.16876991021E+02  0.29911582996E+02  0.00000000000E+00 0. -1.
</event>
<event>
 5    1  0.1325832E-009  0.9118800E+02  0.7818608E-02  0.1130116E+00
         25   -1    0    0    0    0  0.00000000000E+00  0.00000000000E+00  0.99999998245E-14  0.12500000000E+03  0.12500000000E+03 0.  0.
        -13    1    3    3    0    0 -0.53580739807E+02  0.40305959282E+01  0.16482364498E+02  0.56203388557E+02  0.10566000000E+00 0.  1.
         23    2    1    0    0    0 -0.23976232747E+02 -0.17868971977E+02  0.58651470026E+01  0.94527720046E+02  0.89481450656E+02 0.  0.
         13    1    3    3    0    0  0.29604507061E+02 -0.21899567905E+02 -0.10617217495E+02  0.38324331489E+02  0.10566000000E+00 0. -1.
         22    1    1    0    0    0  0.23976232747E+02  0.17868971977E+02 -0.58651470026E+01  0.30472279954E+02  0.00000000000E+00 0.  1.
</event>
<event>
 5    1  0.1325832E-009  0.9118800E+02  0.7818608E-02  0.1130116E+00
         25   -1    0    0    0    0  0.00000000000E+00  0.00000000000E+00  0.99999998245E-14  0.12500000000E+03  0.12500000000E+03 0.  0.
        -13    1    3    3    0    0  0.89572672275E+01 -0.15679299294E+02 -0.35529067120E+02  0.39854721640E+02  0.10566000000E+00 0.  1.
         23    2    1    0    0    0 -0.14172053080E+02  0.25266463463E+02 -0.59047224968E+01  0.95434699187E+02  0.90739598834E+02 0.  0.
         13    1    3    3    0    0 -0.23129320308E+02  0.40945762757E+02  0.29624344624E+02  0.55579977546E+02  0.10566000000E+00 0. -1.
         22    1    1    0    0    0  0.14172053080E+02 -0.25266463463E+02  0.59047224968E+01  0.29565300813E+02  0.00000000000E+00 0. -1.
</event>
<event>
 5    1  0.1325832E-009  0.9118800E+02  0.7818608E-02  0.1130116E+00
         25   -1    0    0    0    0  0.00000000000E+00  0.00000000000E+00  0.99999998245E-14  0.12500000000E+03  0.12500000000E+03 0.  0.
        -13    1    3    3    0    0 -0.10273840861E+02  0.88380206196E+01  0.27998132664E+02  0.31105771349E+02  0.10566000000E+00 0. -1.
         23    2    1    0    0    0 -0.29698106039E+02  0.10092350339E+02 -0.23269921215E+02  0.85944625581E+02  0.76558189602E+02 0.  0.
         13    1    3    3    0    0 -0.19424265178E+02  0.12543297198E+01 -0.51268053880E+02  0.54838854231E+02  0.10566000000E+00 0.  1.
         22    1    1    0    0    0  0.29698106039E+02 -0.10092350339E+02  0.23269921215E+02  0.39055374419E+02  0.00000000000E+00 0.  1.
</event>
<event>
 5    1  0.1325832E-009  0.9118800E+02  0.7818608E-02  0.1130116E+00
         25   -1    0    0    0    0  0.00000000000E+00  0.00000000000E+00  0.99999998245E-14  0.12500000000E+03  0.12500000000E+03 0.  0.
        -13    1    3    3    0    0 -0.20313333309E+02 -0.95932936930E+01  0.46211265250E+02  0.51382438576E+02  0.10566000000E+00 0.  1.
         23    2    1    0    0    0 -0.32352448973E+01  0.21547382574E+02  0.17825885362E+02  0.96848291450E+02  0.92666460289E+02 0.  0.
         13    1    3    3    0    0  0.17078088412E+02  0.31140676267E+02 -0.28385379888E+02  0.45465852874E+02  0.10566000000E+00 0. -1.
         22    1    1    0    0    0  0.32352448973E+01 -0.21547382574E+02 -0.17825885362E+02  0.28151708550E+02  0.00000000000E+00 0. -1.
</event>
<event>
 5    1  0.1325832E-009  0.9118800E+02  0.7818608E-02  0.1130116E+00
         25   -1    0    0    0    0  0.00000000000E+00  0.00000000000E+00  0.99999998245E-14  0.12500000000E+03  0.12500000000E+03 0.  0.
        -13    1    3    3    0    0  0.12060700009E+02  0.25573085426E+02  0.19301083761E+01  0.28340424579E+02  0.10566000000E+00 0. -1.
         23    2    1    0    0    0 -0.35294383058E+02 -0.96596598611E+01  0.75676308829E+01  0.87633282975E+02  0.79267400259E+02 0.  0.
         13    1    3    3    0    0 -0.47355083067E+02 -0.35232745287E+02  0.56375225068E+01  0.59292858396E+02  0.10566000000E+00 0.  1.
         22    1    1    0    0    0  0.35294383058E+02  0.96596598611E+01 -0.75676308829E+01  0.37366717025E+02  0.00000000000E+00 0.  1.
</event>
<event>
 5    1  0.1325832E-009  0.9118800E+02  0.7818608E-02  0.1130116E+00
         25   -1    0    0    0    0  0.00000000000E+00  0.00000000000E+00  0.99999998245E-14  0.12500000000E+03  0.12500000000E+03 0.  0.
        -13    1    3    3    0    0  0.50418453974E+02 -0.27788366562E+02  0.18969661418E+01  0.57600550882E+02  0.10566000000E+00 0. -1.
         23    2    1    0    0    0  0.18970122911E+02 -0.15078703950E+02 -0.16009207331E+02  0.95956453463E+02  0.91455526709E+02 0.  0.
         13    1    3    3    0    0 -0.31448331063E+02  0.12709662611E+02 -0.17906173473E+02  0.38355902581E+02  0.10566000000E+00 0.  1.
         22    1    1    0    0    0 -0.18970122911E+02  0.15078703950E+02  0.16009207331E+02  0.29043546537E+02  0.00000000000E+00 0. -1.
</event>
<event>
 5    1  0.1325832E-009  0.9118800E+02  0.7818608E-02  0.1130116E+00
         25   -1    0    0    0    0  0.00000000000E+00  0.00000000000E+00  0.99999998245E-14  0.12500000000E+03  0.12500000000E+03 0.  0.
        -13    1    3    3    0    0  0.28021613753E+02 -0.13177491329E+02  0.18009001779E+02  0.35821675340E+02  0.10566000000E+00 0.  1.
         23    2    1    0    0    0 -0.25965604717E+02  0.10904076208E+02  0.74118643295E+01  0.95878749355E+02  0.91349260199E+02 0.  0.
         13    1    3    3    0    0 -0.53987218470E+02  0.24081567537E+02 -0.10597137450E+02  0.60057074015E+02  0.10566000000E+00 0. -1.
         22    1    1    0    0    0  0.25965604717E+02 -0.10904076208E+02 -0.74118643295E+01  0.29121250645E+02  0.00000000000E+00 0. -1.
</event>
<event>
 5    1  0.1325832E-009  0.9118800E+02  0.7818608E-02  0.1130116E+00
         25   -1    0    0    0    0  0.00000000000E+00  0.00000000000E+00  0.99999998245E-14  0.12500000000E+03  0.12500000000E+03 0.  0.
        -13    1    3    3    0    0 -0.29484859801E+02 -0.90489289396E+01 -0.15617818454E+02  0.34571194509E+02  0.10566000000E+00 0.  1.
         23    2    1    0    0    0  0.14843894162E+02  0.10104564922E+02  0.22585893808E+02  0.96145779767E+02  0.91713929922E+02 0.  0.
         13    1    3    3    0    0  0.44328753964E+02  0.19153493862E+02  0.38203712262E+02  0.61574585258E+02  0.10566000000E+00 0. -1.
         22    1    1    0    0    0 -0.14843894162E+02 -0.10104564922E+02 -0.22585893808E+02  0.28854220233E+02  0.00000000000E+00 0. -1.
</event>
<event>
 5    1  0.1325832E-009  0.9118800E+02  0.7818608E-02  0.1130116E+00
         25   -1    0    0    0    0  0.00000000000E+00  0.00000000000E+00  0.99999998245E-14  0.12500000000E+03  0.12500000000E+03 0.  0.
        -13    1    3    3    0    0 -0.25257523764E+02  0.41263000166E+01 -0.30390002973E+02  0.39730747580E+02  0.10566000000E+00 0.  1.
         23    2    1    0    0    0 -0.23849038011E+02  0.10855499867E+01  0.22183288780E+02  0.92410840239E+02  0.86473753590E+02 0.  0.
         13    1    3    3    0    0  0.14084857527E+01 -0.30407500299E+01  0.52573291753E+02  0.52680092660E+02  0.10566000000E+00 0. -1.
         22    1    1    0    0    0  0.23849038011E+02 -0.10855499867E+01 -0.22183288780E+02  0.32589159761E+02  0.00000000000E+00 0.  1.
</event>
<event>
 5    1  0.1325832E-009  0.9118800E+02  0.7818608E-02  0.1130116E+00
         25   -1    0    0    0    0  0.00000000000E+00  0.00000000000E+00  0.99999998245E-14  0.12500000000E+03  0.12500000000E+03 0.  0.
        -13    1    3    3    0    0  0.17482349091E+02 -0.35323572373E+01 -0.54591982299E+02  0.57431748822E+02  0.10566000000E+00 0. -1.
         23    2    1    0    0    0  0.12254233632E+02  0.15286990833E+02 -0.21075191402E+02  0.96224628182E+02  0.91821332192E+02 0.  0.
         13    1    3    3    0    0 -0.52281154590E+01  0.18819348070E+02  0.33516790896E+02  0.38792879360E+02  0.10566000000E+00 0.  1.
         22    1    1    0    0    0 -0.12254233632E+02 -0.15286990833E+02  0.21075191402E+02  0.28775371818E+02  0.00000000000E+00 0. -1.
</event>
<event>
 5    1  0.1325832E-009  0.9118800E+02  0.7818608E-02  0.1130116E+00
         25   -1    0    0    0    0  0.00000000000E+00  0.00000000000E+00  0.99999998245E-14  0.12500000000E+03  0.12500000000E+03 0.  0.
        -13    1    3    3    0    0 -0.16405170512E+02  0.31709729488E+02  0.17971701879E+02  0.39970361472E+02  0.10566000000E+00 0. -1.
         23    2    1    0    0    0  0.21720462738E+02  0.10482738014E+02 -0.16666680815E+02  0.95683715324E+02  0.91081989609E+02 0.  0.
         13    1    3    3    0    0  0.38125633250E+02 -0.21226991474E+02 -0.34638382694E+02  0.55713353852E+02  0.10566000000E+00 0.  1.
         22    1    1    0    0    0 -0.21720462738E+02 -0.10482738014E+02  0.16666680815E+02  0.29316284676E+02  0.00000000000E+00 0.  1.
</event>
<event>
 5    1  0.1325832E-009  0.9118800E+02  0.7818608E-02  0.1130116E+00
         25   -1    0    0    0    0  0.00000000000E+00  0.00000000000E+00  0.99999998245E-14  0.12500000000E+03  0.12500000000E+03 0.  0.
        -13    1    3    3    0    0 -0.27009411242E+02 -0.43135297927E+02 -0.80407639191E+01  0.51525015976E+02  0.10566000000E+00 0.  1.
         23    2    1    0    0    0  0.40192080979E+00 -0.15309864538E+02 -0.26240995620E+02  0.94616725923E+02  0.89605700046E+02 0.  0.
         13    1    3    3    0    0  0.27411332052E+02  0.27825433389E+02 -0.18200231701E+02  0.43091709947E+02  0.10566000000E+00 0. -1.
         22    1    1    0    0    0 -0.40192080979E+00  0.15309864538E+02  0.26240995620E+02  0.30383274077E+02  0.00000000000E+00 0.  1.
</event>
<event>
 5    1  0.1325832E-009  0.9118800E+02  0.7818608E-02  0.1130116E+00
         25   -1    0    0    0    0  0.00000000000E+00  0.00000000000E+00  0.99999998245E-14  0.12500000000E+03  0.12500000000E+03 0.  0.
        -13    1    3    3    0    0  0.47101121226E+02  0.16696202764E+02 -0.12383095841E+02  0.51484279485E+02  0.10566000000E+00 0. -1.
         23    2    1    0    0    0  0.24289303801E+02 -0.40887353384E+01  0.17767869581E+02  0.94629204402E+02  0.89623105841E+02 0.  0.
         13    1    3    3    0    0 -0.22811817425E+02 -0.20784938102E+02  0.30150965422E+02  0.43144924917E+02  0.10566000000E+00 0.  1.
         22    1    1    0    0    0 -0.24289303801E+02  0.40887353384E+01 -0.17767869581E+02  0.30370795598E+02  0.00000000000E+00 0. -1.
</event>
<event>
 5    1  0.1325832E-009  0.9118800E+02  0.7818608E-02  0.1130116E+00
         25   -1    0    0    0    0  0.00000000000E+00  0.00000000000E+00  0.99999998245E-14  0.12500000000E+03  0.12500000000E+03 0.  0.
        -13    1    3    3    0    0 -0.14926606902E+02  0.28736756761E+02  0.17799443113E+02  0.36951808101E+02  0.10566000000E+00 0.  1.
         23    2    1    0    0    0 -0.38788973111E+01 -0.27846806942E+02  0.10145958497E+02  0.95109684260E+02  0.90290758469E+02 0.  0.
         13    1    3    3    0    0  0.11047709591E+02 -0.56583563703E+02 -0.76534846160E+01  0.58157876159E+02  0.10566000000E+00 0. -1.
         22    1    1    0    0    0  0.38788973111E+01  0.27846806942E+02 -0.10145958497E+02  0.29890315740E+02  0.00000000000E+00 0. -1.
</event>
<event>
 5    1  0.1325832E-009  0.9118800E+02  0.7818608E-02  0.1130116E+00
         25   -1    0    0    0    0  0.00000000000E+00  0.00000000000E+00  0.99999998245E-14  0.12500000000E+03  0.12500000000E+03 0.  0.
        -13    1    3    3    0    0  0.15217689062E+02  0.42899030980E+02 -0.36424960181E+02  0.58298317365E+02  0.10566000000E+00 0. -1.
         23    2    1    0    0    0 -0.66816621152E+01  0.17515447766E+02 -0.25074170880E+02  0.93692659576E+02  0.88307218811E+02 0.  0.
         13    1    3    3    0    0 -0.21899351177E+02 -0.25383583214E+02  0.11350789301E+02  0.35394342211E+02  0.10566000000E+00 0.  1.
         22    1    1    0    0    0  0.66816621152E+01 -0.17515447766E+02  0.25074170880E+02  0.31307340424E+02  0.00000000000E+00 0. -1.
</event>
<event>
 5    1  0.1325832E-009  0.9118800E+02  0.7818608E-02  0.1130116E+00
         25   -1    0    0    0    0  0.00000000000E+00  0.00000000000E+00  0.99999998245E-14  0.12500000000E+03  0.12500000000E+03 0.  0.
        -13    1    3    3    0    0  0.55425459376E+02 -0.14560324732E+02 -0.19846768425E+02  0.60645609770E+02  0.10566000000E+00 0. -1.
         23    2    1    0    0    0  0.26031325781E+02  0.39442979083E+01 -0.10832313310E+02  0.96530254311E+02  0.92236454712E+02 0.  0.
         13    1    3    3    0    0 -0.29394133595E+02  0.18504622640E+02  0.90144551154E+01  0.35884644542E+02  0.10566000000E+00 0.  1.
         22    1    1    0    0    0 -0.26031325781E+02 -0.39442979083E+01  0.10832313310E+02  0.28469745689E+02  0.00000000000E+00 0. -1.
</event>
<event>
 5    1  0.1325832E-009  0.9118800E+02  0.7818608E-02  0.1130116E+00
         25   -1    0    0    0    0  0.00000000000E+00  0.00000000000E+00  0.99999998245E-14  0.12500000000E+03  0.12500000000E+03 0.  0.
        -13    1    3    3    0    0  0.51292968286E+02  0.26168299023E+02  0.20060381582E+02  0.60976868914E+02  0.10566000000E+00 0. -1.
         23    2    1    0    0    0  0.25459323417E+02  0.13841371330E+02 -0.15708722966E+00  0.96020949196E+02  0.91543636037E+02 0.  0.
         13    1    3    3    0    0 -0.25833644870E+02 -0.12326927693E+02 -0.20217468811E+02  0.35044080281E+02  0.10566000000E+00 0.  1.
         22    1    1    0    0    0 -0.25459323417E+02 -0.13841371330E+02  0.15708722966E+00  0.28979050804E+02  0.00000000000E+00 0. -1.
</event>
<event>
 5    1  0.1325832E-009  0.9118800E+02  0.7818608E-02  0.1130116E+00
         25   -1    0    0    0    0  0.00000000000E+00  0.00000000000E+00  0.99999998245E-14  0.12500000000E+03  0.12500000000E+03 0.  0.
        -13    1    3    3    0    0  0.15077232855E+02  0.21408702035E+02  0.38788759963E+02  0.46799941633E+02  0.10566000000E+00 0. -1.
         23    2    1    0    0    0 -0.41723696097E+01 -0.19874007644E+02  0.21241607166E+02  0.95613085855E+02  0.90985006807E+02 0.  0.
         13    1    3    3    0    0 -0.19249602464E+02 -0.41282709679E+02 -0.17547152797E+02  0.48813144222E+02  0.10566000000E+00 0.  1.
         22    1    1    0    0    0  0.41723696097E+01  0.19874007644E+02 -0.21241607166E+02  0.29386914145E+02  0.00000000000E+00 0. -1.
</event>
<event>
 5    1  0.1325832E-009  0.9118800E+02  0.7818608E-02  0.1130116E+00
         25   -1    0    0    0    0  0.00000000000E+00  0.00000000000E+00  0.99999998245E-14  0.12500000000E+03  0.12500000000E+03 0.  0.
        -13    1    3    3    0    0 -0.15270758190E+02 -0.32345542532E+02 -0.45127754728E+01  0.36052829069E+02  0.10566000000E+00 0.  1.
         23    2    1    0    0    0  0.27954622023E+02  0.80814150199E+01  0.31480503859E+01  0.95730897137E+02  0.91146718450E+02 0.  0.
         13    1    3    3    0    0  0.43225380213E+02  0.40426957552E+02  0.76608258587E+01  0.59678068068E+02  0.10566000000E+00 0. -1.
         22    1    1    0    0    0 -0.27954622023E+02 -0.80814150199E+01 -0.31480503859E+01  0.29269102863E+02  0.00000000000E+00 0. -1.
</event>
<event>
 5    1  0.1325832E-009  0.9118800E+02  0.7818608E-02  0.1130116E+00
         25   -1    0    0    0    0  0.00000000000E+00  0.00000000000E+00  0.99999998245E-14  0.12500000000E+03  0.12500000000E+03 0.  0.
        -13    1    3    3    0    0 -0.53743589954E+01  0.28976808523E+02  0.22838074438E+02  0.37284420002E+02  0.10566000000E+00 0.  1.
         23    2    1    0    0    0 -0.18319512505E+01 -0.27754279299E+02  0.86731578491E+01  0.95864459300E+02  0.91329703958E+02 0.  0.
         13    1    3    3    0    0  0.35424077449E+01 -0.56731087822E+02 -0.14164916589E+02  0.58580039298E+02  0.10566000000E+00 0. -1.
         22    1    1    0    0    0  0.18319512505E+01  0.27754279299E+02 -0.86731578491E+01  0.29135540700E+02  0.00000000000E+00 0. -1.
</event>
<event>
 5    1  0.1325832E-009  0.9118800E+02  0.7818608E-02  0.1130116E+00
         25   -1    0    0    0    0  0.00000000000E+00  0.00000000000E+00  0.99999998245E-14  0.12500000000E+03  0.12500000000E+03 0.  0.
        -13    1    3    3    0    0 -0.52588114752E+02 -0.52453252605E+01 -0.23788289758E+02  0.57956165711E+02  0.10566000000E+00 0.  1.
         23    2    1    0    0    0 -0.32627181149E+02 -0.10471081633E+02  0.16296829162E+01  0.90695009595E+02  0.83956848433E+02 0.  0.
         13    1    3    3    0    0  0.19960933603E+02 -0.52257563722E+01  0.25417972675E+02  0.32738843884E+02  0.10566000000E+00 0. -1.
         22    1    1    0    0    0  0.32627181149E+02  0.10471081633E+02 -0.16296829162E+01  0.34304990405E+02  0.00000000000E+00 0.  1.
</event>
<event>
 5    1  0.1325832E-009  0.9118800E+02  0.7818608E-02  0.1130116E+00
         25   -1    0    0    0    0  0.00000000000E+00  0.00000000000E+00  0.99999998245E-14  0.12500000000E+03  0.12500000000E+03 0.  0.
        -13    1    3    3    0    0  0.53948571311E+02 -0.25260258299E+02  0.11644312961E+01  0.59581004188E+02  0.10566000000E+00 0. -1.
         23    2    1    0    0    0  0.29236994093E+02  0.55957316608E+00 -0.31857583620E+01  0.95584629833E+02  0.90945904021E+02 0.  0.
         13    1    3    3    0    0 -0.24711577218E+02  0.25819831465E+02 -0.43501896581E+01  0.36003625645E+02  0.10566000000E+00 0.  1.
         22    1    1    0    0    0 -0.29236994093E+02 -0.55957316608E+00  0.31857583620E+01  0.29415370167E+02  0.00000000000E+00 0. -1.
</event>
<event>
 5    1  0.1325832E-009  0.9118800E+02  0.7818608E-02  0.1130116E+00
         25   -1    0    0    0    0  0.00000000000E+00  0.00000000000E+00  0.99999998245E-14  0.12500000000E+03  0.12500000000E+03 0.  0.
        -13    1    3    3    0    0  0.20112073590E+02 -0.33377816535E+02 -0.12588963161E+02  0.40952012139E+02  0.10566000000E+00 0.  1.
         23    2    1    0    0    0 -0.44397309979E+01 -0.53854362308E+01  0.28064947022E+02  0.96080190422E+02  0.91624492388E+02 0.  0.
         13    1    3    3    0    0 -0.24551804588E+02  0.27992380304E+02  0.40653910183E+02  0.55128178283E+02  0.10566000000E+00 0. -1.
         22    1    1    0    0    0  0.44397309979E+01  0.53854362308E+01 -0.28064947022E+02  0.28919809578E+02  0.00000000000E+00 0. -1.
</event>
<event>
 5    1  0.1325832E-009  0.9118800E+02  0.7818608E-02  0.1130116E+00
         25   -1    0    0    0    0  0.00000000000E+00  0.00000000000E+00  0.99999998245E-14  0.12500000000E+03  0.12500000000E+03 0.  0.
        -13    1    3    3    0    0 -0.21540288729E+02 -0.13578761983E+02  0.38046459333E+02  0.45781121080E+02  0.10566000000E+00 0. -1.
         23    2    1    0    0    0  0.21447317762E+02  0.58858828365E+01  0.10727087092E+02  0.10030786657E+03  0.97221225265E+02 0.  0.
         13    1    3    3    0    0  0.42987606491E+02  0.19464644820E+02 -0.27319372241E+02  0.54526745488E+02  0.10566000000E+00 0.  1.
         22    1    1    0    0    0 -0.21447317762E+02 -0.58858828365E+01 -0.10727087092E+02  0.24692133432E+02  0.00000000000E+00 0.  1.
</event>
<event>
 5    1  0.1325832E-009  0.9118800E+02  0.7818608E-02  0.1130116E+00
         25   -1    0    0    0    0  0.00000000000E+00  0.00000000000E+00  0.99999998245E-14  0.12500000000E+03  0.12500000000E+03 0.  0.
        -13    1    3    3    0    0  0.45956321307E+02 -0.99504756274E+01  0.12279623169E+00  0.47021502275E+02  0.10566000000E+00 0. -1.
         23    2    1    0    0    0  0.10729961152E+02  0.21780707212E+02 -0.14603195468E+02  0.96666546436E+02  0.92420974941E+02 0.  0.
         13    1    3    3    0    0 -0.35226360155E+02  0.31731182840E+02 -0.14725991700E+02  0.49645044161E+02  0.10566000000E+00 0.  1.
         22    1    1    0    0    0 -0.10729961152E+02 -0.21780707212E+02  0.14603195468E+02  0.28333453564E+02  0.00000000000E+00 0.  1.
</event>
<event>
 5    1  0.1325832E-009  0.9118800E+02  0.7818608E-02  0.1130116E+00
         25   -1    0    0    0    0  0.00000000000E+00  0.00000000000E+00  0.99999998245E-14  0.12500000000E+03  0.12500000000E+03 0.  0.
        -13    1    3    3    0    0 -0.49897909214E+01  0.31296740556E+02 -0.50619304724E+02  0.59721931965E+02  0.10566000000E+00 0.  1.
         23    2    1    0    0    0 -0.13818493645E+02  0.19679994538E+02 -0.19690047942E+02  0.93920248721E+02  0.88628788665E+02 0.  0.
         13    1    3    3    0    0 -0.88287027232E+01 -0.11616746018E+02  0.30929256782E+02  0.34198316756E+02  0.10566000000E+00 0. -1.
         22    1    1    0    0    0  0.13818493645E+02 -0.19679994538E+02  0.19690047942E+02  0.31079751279E+02  0.00000000000E+00 0.  1.
</event>
<event>
 5    1  0.1325832E-009  0.9118800E+02  0.7818608E-02  0.1130116E+00
         25   -1    0    0    0    0  0.00000000000E+00  0.00000000000E+00  0.99999998245E-14  0.12500000000E+03  0.12500000000E+03 0.  0.
        -13    1    3    3    0    0  0.97452768747E+01  0.26952234805E+02  0.51266414058E+02  0.58733719078E+02  0.10566000000E+00 0.  1.
         23    2    1    0    0    0  0.18874326486E+02  0.16244887898E+02  0.19861250755E+02  0.93147121564E+02  0.87531596530E+02 0.  0.
         13    1    3    3    0    0  0.91290496111E+01 -0.10707346907E+02 -0.31405163303E+02  0.34413402486E+02  0.10566000000E+00 0. -1.
         22    1    1    0    0    0 -0.18874326486E+02 -0.16244887898E+02 -0.19861250755E+02  0.31852878436E+02  0.00000000000E+00 0.  1.
</event>
<event>
 5    1  0.1325832E-009  0.9118800E+02  0.7818608E-02  0.1130116E+00
         25   -1    0    0    0    0  0.00000000000E+00  0.00000000000E+00  0.99999998245E-14  0.12500000000E+03  0.12500000000E+03 0.  0.
        -13    1    3    3    0    0  0.19078222752E+02  0.27879499556E+02  0.10239228230E+02  0.35300113848E+02  0.10566000000E+00 0. -1.
         23    2    1    0    0    0 -0.15315229860E+02 -0.79477357453E+01 -0.23868157894E+02  0.95548145552E+02  0.90895744609E+02 0.  0.
         13    1    3    3    0    0 -0.34393452612E+02 -0.35827235302E+02 -0.34107386125E+02  0.60248031704E+02  0.10566000000E+00 0.  1.
         22    1    1    0    0    0  0.15315229860E+02  0.79477357453E+01  0.23868157894E+02  0.29451854448E+02  0.00000000000E+00 0.  1.
</event>
<event>
 5    1  0.1325832E-009  0.9118800E+02  0.7818608E-02  0.1130116E+00
         25   -1    0    0    0    0  0.00000000000E+00  0.00000000000E+00  0.99999998245E-14  0.12500000000E+03  0.12500000000E+03 0.  0.
        -13    1    3    3    0    0  0.28733843034E+02  0.59269788398E+01 -0.18278559147E+02  0.34567032013E+02  0.10566000000E+00 0.  1.
         23    2    1    0    0    0 -0.14209883007E+02  0.18150164403E+02  0.20837004399E+02  0.93927021461E+02  0.88638340267E+02 0.  0.
         13    1    3    3    0    0 -0.42943726042E+02  0.12223185563E+02  0.39115563546E+02  0.59359989448E+02  0.10566000000E+00 0. -1.
         22    1    1    0    0    0  0.14209883007E+02 -0.18150164403E+02 -0.20837004399E+02  0.31072978539E+02  0.00000000000E+00 0. -1.
</event>
<event>
 5    1  0.1325832E-009  0.9118800E+02  0.7818608E-02  0.1130116E+00
         25   -1    0    0    0    0  0.00000000000E+00  0.00000000000E+00  0.99999998245E-14  0.12500000000E+03  0.12500000000E+03 0.  0.
        -13    1    3    3    0    0  0.36301609216E+02  0.12918071460E+02 -0.96008575112E-01  0.38531854142E+02  0.10566000000E+00 0. -1.
         23    2    1    0    0    0 -0.76995279674E+01 -0.25548740830E+02  0.70198356335E+01  0.97408353053E+02  0.93418886010E+02 0.  0.
         13    1    3    3    0    0 -0.44001137184E+02 -0.38466812290E+02  0.71158442086E+01  0.58876498911E+02  0.10566000000E+00 0.  1.
         22    1    1    0    0    0  0.76995279674E+01  0.25548740830E+02 -0.70198356335E+01  0.27591646947E+02  0.00000000000E+00 0.  1.
</event>
<event>
 4    1  0.1325832E-009  0.9118800E+02  0.7818608E-02  0.1130116E+00
         25   -1    0    0    0    0  0.00000000000E+00  0.00000000000E+00  0.99999998245E-14  0.12500000000E+03  0.12500000000E+03 0.  0.
        -13    1    1    0    0    0  0.16284081264E+02 -0.24790247744E+02 -0.30247044994E+02  0.42362985975E+02  0.10566000000E+00 0.  1.
         13    1    1    0    0    0  0.22281501193E+02 -0.46910799635E+01 -0.41461580498E+01  0.23144617458E+02  0.10566000000E+00 0. -1.
         22    1    1    0    0    0 -0.38565582457E+02  0.29481327707E+02  0.34393203044E+02  0.59492396567E+02  0.00000000000E+00 0. -1.
</event>
<event>
 5    1  0.1325832E-009  0.9118800E+02  0.7818608E-02  0.1130116E+00
         25   -1    0    0    0    0  0.00000000000E+00  0.00000000000E+00  0.99999998245E-14  0.12500000000E+03  0.12500000000E+03 0.  0.
        -13    1    3    3    0    0 -0.25619707258E+02  0.26119242790E+02  0.26686368500E+02  0.45285292001E+02  0.10566000000E+00 0. -1.
         23    2    1    0    0    0  0.57044195807E+01  0.22800167308E+02 -0.14687239293E+02  0.97285328252E+02  0.93254126252E+02 0.  0.
         13    1    3    3    0    0  0.31324126839E+02 -0.33190754816E+01 -0.41373607793E+02  0.52000036251E+02  0.10566000000E+00 0.  1.
         22    1    1    0    0    0 -0.57044195807E+01 -0.22800167308E+02  0.14687239293E+02  0.27714671748E+02  0.00000000000E+00 0.  1.
</event>
<event>
 5    1  0.1325832E-009  0.9118800E+02  0.7818608E-02  0.1130116E+00
         25   -1    0    0    0    0  0.00000000000E+00  0.00000000000E+00  0.99999998245E-14  0.12500000000E+03  0.12500000000E+03 0.  0.
        -13    1    3    3    0    0  0.20536989852E+02  0.52604166215E+02 -0.14635695010E+02  0.58336789317E+02  0.10566000000E+00 0.  1.
         23    2    1    0    0    0  0.10908662382E+02  0.25993116181E+02  0.92109783094E+01  0.95343919254E+02  0.90614456979E+02 0.  0.
         13    1    3    3    0    0 -0.96283274698E+01 -0.26611050034E+02  0.23846673319E+02  0.37007129937E+02  0.10566000000E+00 0. -1.
         22    1    1    0    0    0 -0.10908662382E+02 -0.25993116181E+02 -0.92109783094E+01  0.29656080746E+02  0.00000000000E+00 0.  1.
</event>
<event>
 5    1  0.1325832E-009  0.9118800E+02  0.7818608E-02  0.1130116E+00
         25   -1    0    0    0    0  0.00000000000E+00  0.00000000000E+00  0.99999998245E-14  0.12500000000E+03  0.12500000000E+03 0.  0.
        -13    1    3    3    0    0 -0.48365780009E+02 -0.12454026055E+02  0.23134674486E+02  0.55041582176E+02  0.10566000000E+00 0.  1.
         23    2    1    0    0    0 -0.84931326214E+01 -0.75911042624E+00  0.26915840492E+02  0.96765765112E+02  0.92555071595E+02 0.  0.
         13    1    3    3    0    0  0.39872647387E+02  0.11694915629E+02  0.37811660059E+01  0.41724182936E+02  0.10566000000E+00 0. -1.
         22    1    1    0    0    0  0.84931326214E+01  0.75911042624E+00 -0.26915840492E+02  0.28234234888E+02  0.00000000000E+00 0. -1.
</event>
<event>
 5    1  0.1325832E-009  0.9118800E+02  0.7818608E-02  0.1130116E+00
         25   -1    0    0    0    0  0.00000000000E+00  0.00000000000E+00  0.99999998245E-14  0.12500000000E+03  0.12500000000E+03 0.  0.
        -13    1    3    3    0    0 -0.37142517242E+02  0.10927968581E+02 -0.13137829258E+02  0.40885215005E+02  0.10566000000E+00 0.  1.
         23    2    1    0    0    0  0.17480706646E+02  0.21221767302E+02 -0.39942153024E+01  0.97217050766E+02  0.93162560568E+02 0.  0.
         13    1    3    3    0    0  0.54623223888E+02  0.10293798721E+02  0.91436139558E+01  0.56331835761E+02  0.10566000000E+00 0. -1.
         22    1    1    0    0    0 -0.17480706646E+02 -0.21221767302E+02  0.39942153024E+01  0.27782949234E+02  0.00000000000E+00 0. -1.
</event>
<event>
 5    1  0.1325832E-009  0.9118800E+02  0.7818608E-02  0.1130116E+00
         25   -1    0    0    0    0  0.00000000000E+00  0.00000000000E+00  0.99999998245E-14  0.12500000000E+03  0.12500000000E+03 0.  0.
        -13    1    3    3    0    0 -0.20482764495E+02 -0.69548289127E+01 -0.39018289968E+02  0.44613354533E+02  0.10566000000E+00 0. -1.
         23    2    1    0    0    0  0.11738037399E+02 -0.27433276965E+02 -0.72183603534E+01  0.94300310536E+02  0.89163207849E+02 0.  0.
         13    1    3    3    0    0  0.32220801894E+02 -0.20478448052E+02  0.31799929615E+02  0.49686956003E+02  0.10566000000E+00 0.  1.
         22    1    1    0    0    0 -0.11738037399E+02  0.27433276965E+02  0.72183603534E+01  0.30699689464E+02  0.00000000000E+00 0.  1.
</event>
<event>
 5    1  0.1325832E-009  0.9118800E+02  0.7818608E-02  0.1130116E+00
         25   -1    0    0    0    0  0.00000000000E+00  0.00000000000E+00  0.99999998245E-14  0.12500000000E+03  0.12500000000E+03 0.  0.
        -13    1    3    3    0    0  0.18657854781E+02  0.11258527515E+02 -0.18565768868E+02  0.28628114232E+02  0.10566000000E+00 0. -1.
         23    2    1    0    0    0 -0.12106463802E+02 -0.14866963647E+02  0.28513575974E+02  0.90639891026E+02  0.83874744450E+02 0.  0.
         13    1    3    3    0    0 -0.30764318583E+02 -0.26125491162E+02  0.47079344842E+02  0.62011776794E+02  0.10566000000E+00 0.  1.
         22    1    1    0    0    0  0.12106463802E+02  0.14866963647E+02 -0.28513575974E+02  0.34360108974E+02  0.00000000000E+00 0.  1.
</event>
<event>
 5    1  0.1325832E-009  0.9118800E+02  0.7818608E-02  0.1130116E+00
         25   -1    0    0    0    0  0.00000000000E+00  0.00000000000E+00  0.99999998245E-14  0.12500000000E+03  0.12500000000E+03 0.  0.
        -13    1    3    3    0    0  0.37837770095E+02  0.16144583998E+02  0.45036788028E+02  0.60997277630E+02  0.10566000000E+00 0.  1.
         23    2    1    0    0    0  0.79262489654E+01  0.99163839522E+01  0.23206673815E+02  0.98547971667E+02  0.94931516983E+02 0.  0.
         13    1    3    3    0    0 -0.29911521130E+02 -0.62282000459E+01 -0.21830114213E+02  0.37550694038E+02  0.10566000000E+00 0. -1.
         22    1    1    0    0    0 -0.79262489654E+01 -0.99163839522E+01 -0.23206673815E+02  0.26452028333E+02  0.00000000000E+00 0.  1.
</event>
<event>
 5    1  0.1325832E-009  0.9118800E+02  0.7818608E-02  0.1130116E+00
         25   -1    0    0    0    0  0.00000000000E+00  0.00000000000E+00  0.99999998245E-14  0.12500000000E+03  0.12500000000E+03 0.  0.
        -13    1    3    3    0    0  0.44947327391E+02 -0.14029630855E+02 -0.38012400718E+01  0.47239320186E+02  0.10566000000E+00 0. -1.
         23    2    1    0    0    0  0.17149476245E+02  0.23150465746E+02  0.79229466213E+01  0.95119878131E+02  0.90304869928E+02 0.  0.
         13    1    3    3    0    0 -0.27797851146E+02  0.37180096600E+02  0.11724186693E+02  0.47880557945E+02  0.10566000000E+00 0.  1.
         22    1    1    0    0    0 -0.17149476245E+02 -0.23150465746E+02 -0.79229466213E+01  0.29880121869E+02  0.00000000000E+00 0.  1.
</event>
<event>
 5    1  0.1325832E-009  0.9118800E+02  0.7818608E-02  0.1130116E+00
         25   -1    0    0    0    0  0.00000000000E+00  0.00000000000E+00  0.99999998245E-14  0.12500000000E+03  0.12500000000E+03 0.  0.
        -13    1    3    3    0    0  0.59255810950E+00  0.28311437011E+01 -0.45222955206E+02  0.45315486772E+02  0.10566000000E+00 0.  1.
         23    2    1    0    0    0  0.26657210387E+02  0.11301157034E+02 -0.26794629368E+01  0.95922473668E+02  0.91409071853E+02 0.  0.
         13    1    3    3    0    0  0.26064652278E+02  0.84700133325E+01  0.42543492269E+02  0.50606986896E+02  0.10566000000E+00 0. -1.
         22    1    1    0    0    0 -0.26657210387E+02 -0.11301157034E+02  0.26794629368E+01  0.29077526332E+02  0.00000000000E+00 0. -1.
</event>
<event>
 5    1  0.1325832E-009  0.9118800E+02  0.7818608E-02  0.1130116E+00
         25   -1    0    0    0    0  0.00000000000E+00  0.00000000000E+00  0.99999998245E-14  0.12500000000E+03  0.12500000000E+03 0.  0.
        -13    1    3    3    0    0 -0.23513828734E+01  0.21512036712E+02  0.27614055060E+02  0.35083385324E+02  0.10566000000E+00 0. -1.
         23    2    1    0    0    0 -0.31142779715E+00 -0.74142789380E+01 -0.27043370769E+02  0.96956954124E+02  0.92812922220E+02 0.  0.
         13    1    3    3    0    0  0.20399550762E+01 -0.28926315650E+02 -0.54657425829E+02  0.61873568800E+02  0.10566000000E+00 0.  1.
         22    1    1    0    0    0  0.31142779715E+00  0.74142789380E+01  0.27043370769E+02  0.28043045876E+02  0.00000000000E+00 0.  1.
</event>
<event>
 5    1  0.1325832E-009  0.9118800E+02  0.7818608E-02  0.1130116E+00
         25   -1    0    0    0    0  0.00000000000E+00  0.00000000000E+00  0.99999998245E-14  0.12500000000E+03  0.12500000000E+03 0.  0.
        -13    1    3    3    0    0  0.54114235702E+02  0.22073397274E+01 -0.29485631611E+02  0.61665521078E+02  0.10566000000E+00 0.  1.
         23    2    1    0    0    0  0.25388206012E+02  0.65928721826E+01 -0.88085940547E+01  0.97330191592E+02  0.93314242739E+02 0.  0.
         13    1    3    3    0    0 -0.28726029690E+02  0.43855324552E+01  0.20677037557E+02  0.35664670513E+02  0.10566000000E+00 0. -1.
         22    1    1    0    0    0 -0.25388206012E+02 -0.65928721826E+01  0.88085940547E+01  0.27669808408E+02  0.00000000000E+00 0.  1.
</event>
<event>
 5    1  0.1325832E-009  0.9118800E+02  0.7818608E-02  0.1130116E+00
         25   -1    0    0    0    0  0.00000000000E+00  0.00000000000E+00  0.99999998245E-14  0.12500000000E+03  0.12500000000E+03 0.  0.
        -13    1    3    3    0    0  0.44613360382E+02  0.34007171766E+02 -0.26182418889E+02  0.61906137652E+02  0.10566000000E+00 0. -1.
         23    2    1    0    0    0  0.24172167594E+02  0.10989105402E+02 -0.13652558672E+02  0.95142898969E+02  0.90336729751E+02 0.  0.
         13    1    3    3    0    0 -0.20441192788E+02 -0.23018066364E+02  0.12529860217E+02  0.33236761317E+02  0.10566000000E+00 0.  1.
         22    1    1    0    0    0 -0.24172167594E+02 -0.10989105402E+02  0.13652558672E+02  0.29857101031E+02  0.00000000000E+00 0. -1.
</event>
<event>
 5    1  0.1325832E-009  0.9118800E+02  0.7818608E-02  0.1130116E+00
         25   -1    0    0    0    0  0.00000000000E+00  0.00000000000E+00  0.99999998245E-14  0.12500000000E+03  0.12500000000E+03 0.  0.
        -13    1    3    3    0    0  0.13969362823E+01 -0.22104605851E+02  0.57391009867E+01  0.22880416845E+02  0.10566000000E+00 0. -1.
         23    2    1    0    0    0  0.20247797872E+02  0.35215098745E+02 -0.46687808106E+01  0.84111443990E+02  0.73504156328E+02 0.  0.
         13    1    3    3    0    0  0.18850861590E+02  0.57319704597E+02 -0.10407881797E+02  0.61231027145E+02  0.10566000000E+00 0.  1.
         22    1    1    0    0    0 -0.20247797872E+02 -0.35215098745E+02  0.46687808106E+01  0.40888556010E+02  0.00000000000E+00 0.  1.
</event>
<event>
 5    1  0.1325832E-009  0.9118800E+02  0.7818608E-02  0.1130116E+00
         25   -1    0    0    0    0  0.00000000000E+00  0.00000000000E+00  0.99999998245E-14  0.12500000000E+03  0.12500000000E+03 0.  0.
        -13    1    3    3    0    0  0.33863207415E+02 -0.26055538501E+01  0.11295094723E+01  0.33982240700E+02  0.10566000000E+00 0.  1.
         23    2    1    0    0    0 -0.28028657221E+02 -0.37152535267E+01  0.60733342624E+01  0.96081249622E+02  0.91625937405E+02 0.  0.
         13    1    3    3    0    0 -0.61891864636E+02 -0.11096996766E+01  0.49438247901E+01  0.62099008922E+02  0.10566000000E+00 0. -1.
         22    1    1    0    0    0  0.28028657221E+02  0.37152535267E+01 -0.60733342624E+01  0.28918750378E+02  0.00000000000E+00 0. -1.
</event>
<event>
 5    1  0.1325832E-009  0.9118800E+02  0.7818608E-02  0.1130116E+00
         25   -1    0    0    0    0  0.00000000000E+00  0.00000000000E+00  0.99999998245E-14  0.12500000000E+03  0.12500000000E+03 0.  0.
        -13    1    3    3    0    0 -0.45811412741E+02  0.25441997660E+02  0.25250907775E+02  0.58168722607E+02  0.10566000000E+00 0.  1.
         23    2    1    0    0    0 -0.13494532219E+02  0.25717548421E+02  0.76616137266E+01  0.94963438588E+02  0.90088066063E+02 0.  0.
         13    1    3    3    0    0  0.32316880523E+02  0.27555076064E+00 -0.17589294049E+02  0.36794715981E+02  0.10566000000E+00 0. -1.
         22    1    1    0    0    0  0.13494532219E+02 -0.25717548421E+02 -0.76616137266E+01  0.30036561412E+02  0.00000000000E+00 0.  1.
</event>
<event>
 5    1  0.1325832E-009  0.9118800E+02  0.7818608E-02  0.1130116E+00
         25   -1    0    0    0    0  0.00000000000E+00  0.00000000000E+00  0.99999998245E-14  0.12500000000E+03  0.12500000000E+03 0.  0.
        -13    1    3    3    0    0  0.33829911590E+02 -0.66877143210E+01 -0.11000110616E+02  0.36196713092E+02  0.10566000000E+00 0.  1.
         23    2    1    0    0    0 -0.24962399338E+02  0.58669349547E+01 -0.12797156922E+02  0.96341501579E+02  0.91980298949E+02 0.  0.
         13    1    3    3    0    0 -0.58792310928E+02  0.12554649276E+02 -0.17970463058E+01  0.60144788487E+02  0.10566000000E+00 0. -1.
         22    1    1    0    0    0  0.24962399338E+02 -0.58669349547E+01  0.12797156922E+02  0.28658498421E+02  0.00000000000E+00 0. -1.
</event>
<event>
 5    1  0.1325832E-009  0.9118800E+02  0.7818608E-02  0.1130116E+00
         25   -1    0    0    0    0  0.00000000000E+00  0.00000000000E+00  0.99999998245E-14  0.12500000000E+03  0.12500000000E+03 0.  0.
        -13    1    3    3    0    0  0.12715659325E+02 -0.18109956291E+02  0.45793013151E+02  0.50859313074E+02  0.10566000000E+00 0.  1.
         23    2    1    0    0    0 -0.10875854721E+02  0.14457937962E+02  0.14444886213E+02  0.10184895415E+03  0.99182854056E+02 0.  0.
         13    1    3    3    0    0 -0.23591514046E+02  0.32567894252E+02 -0.31348126938E+02  0.50989641081E+02  0.10566000000E+00 0. -1.
         22    1    1    0    0    0  0.10875854721E+02 -0.14457937962E+02 -0.14444886213E+02  0.23151045845E+02  0.00000000000E+00 0.  1.
</event>
<event>
 5    1  0.1325832E-009  0.9118800E+02  0.7818608E-02  0.1130116E+00
         25   -1    0    0    0    0  0.00000000000E+00  0.00000000000E+00  0.99999998245E-14  0.12500000000E+03  0.12500000000E+03 0.  0.
        -13    1    3    3    0    0 -0.80894923684E+01  0.11083182918E+02  0.60578938113E+02  0.62113571281E+02  0.10566000000E+00 0.  1.
         23    2    1    0    0    0  0.49582258528E+00  0.31578604296E+01  0.29686026080E+02  0.95142370038E+02  0.90335997860E+02 0.  0.
         13    1    3    3    0    0  0.85853149536E+01 -0.79253224887E+01 -0.30892912033E+02  0.33028798757E+02  0.10566000000E+00 0. -1.
         22    1    1    0    0    0 -0.49582258528E+00 -0.31578604296E+01 -0.29686026080E+02  0.29857629962E+02  0.00000000000E+00 0.  1.
</event>
<event>
 5    1  0.1325832E-009  0.9118800E+02  0.7818608E-02  0.1130116E+00
         25   -1    0    0    0    0  0.00000000000E+00  0.00000000000E+00  0.99999998245E-14  0.12500000000E+03  0.12500000000E+03 0.  0.
        -13    1    3    3    0    0  0.15113259522E+02  0.56793371783E+02 -0.12647467855E+00  0.58770101683E+02  0.10566000000E+00 0.  1.
         23    2    1    0    0    0 -0.18376197159E+01  0.25975800508E+02 -0.12577565662E+02  0.96080902223E+02  0.91625463468E+02 0.  0.
         13    1    3    3    0    0 -0.16950879238E+02 -0.30817571276E+02 -0.12451090983E+02  0.37310800541E+02  0.10566000000E+00 0. -1.
         22    1    1    0    0    0  0.18376197159E+01 -0.25975800508E+02  0.12577565662E+02  0.28919097777E+02  0.00000000000E+00 0. -1.
</event>
<event>
 5    1  0.1325832E-009  0.9118800E+02  0.7818608E-02  0.1130116E+00
         25   -1    0    0    0    0  0.00000000000E+00  0.00000000000E+00  0.99999998245E-14  0.12500000000E+03  0.12500000000E+03 0.  0.
        -13    1    3    3    0    0  0.24198259140E+02  0.37602234797E+02  0.14472588842E+02  0.46999476582E+02  0.10566000000E+00 0. -1.
         23    2    1    0    0    0 -0.20370403555E+02  0.15394524878E+02  0.11815492179E+02  0.96865491071E+02  0.92689658365E+02 0.  0.
         13    1    3    3    0    0 -0.44568662696E+02 -0.22207709919E+02 -0.26570966629E+01  0.49866014489E+02  0.10566000000E+00 0.  1.
         22    1    1    0    0    0  0.20370403555E+02 -0.15394524878E+02 -0.11815492179E+02  0.28134508929E+02  0.00000000000E+00 0.  1.
</event>
<event>
 5    1  0.1325832E-009  0.9118800E+02  0.7818608E-02  0.1130116E+00
         25   -1    0    0    0    0  0.00000000000E+00  0.00000000000E+00  0.99999998245E-14  0.12500000000E+03  0.12500000000E+03 0.  0.
        -13    1    3    3    0    0 -0.26695375958E+02 -0.37504499643E+02  0.39438061551E+02  0.60618499271E+02  0.10566000000E+00 0. -1.
         23    2    1    0    0    0 -0.19910198961E+02 -0.95488491751E+01  0.18382678503E+02  0.96268146384E+02  0.91880556137E+02 0.  0.
         13    1    3    3    0    0  0.67851769966E+01  0.27955650468E+02 -0.21055383048E+02  0.35649647113E+02  0.10566000000E+00 0.  1.
         22    1    1    0    0    0  0.19910198961E+02  0.95488491751E+01 -0.18382678503E+02  0.28731853616E+02  0.00000000000E+00 0. -1.
</event>
<event>
 5    1  0.1325832E-009  0.9118800E+02  0.7818608E-02  0.1130116E+00
         25   -1    0    0    0    0  0.00000000000E+00  0.00000000000E+00  0.99999998245E-14  0.12500000000E+03  0.12500000000E+03 0.  0.
        -13    1    3    3    0    0 -0.35432896193E+02 -0.42083234006E+02 -0.21339074988E+02  0.59007253812E+02  0.10566000000E+00 0.  1.
         23    2    1    0    0    0 -0.18513078818E+01 -0.23244082614E+02 -0.12616064042E+02  0.98488119845E+02  0.94852675034E+02 0.  0.
         13    1    3    3    0    0  0.33581588311E+02  0.18839151392E+02  0.87230109462E+01  0.39480866033E+02  0.10566000000E+00 0. -1.
         22    1    1    0    0    0  0.18513078818E+01  0.23244082614E+02  0.12616064042E+02  0.26511880155E+02  0.00000000000E+00 0.  1.
</event>
<event>
 5    1  0.1325832E-009  0.9118800E+02  0.7818608E-02  0.1130116E+00
         25   -1    0    0    0    0  0.00000000000E+00  0.00000000000E+00  0.99999998245E-14  0.12500000000E+03  0.12500000000E+03 0.  0.
        -13    1    3    3    0    0  0.29170481551E+01 -0.52103773410E+02  0.19883110852E+02  0.55844978599E+02  0.10566000000E+00 0. -1.
         23    2    1    0    0    0  0.20737650466E+02 -0.26167448711E+02  0.32103252784E+01  0.91457613273E+02  0.85084683218E+02 0.  0.
         13    1    3    3    0    0  0.17820602311E+02  0.25936324699E+02 -0.16672785573E+02  0.35612634674E+02  0.10566000000E+00 0.  1.
         22    1    1    0    0    0 -0.20737650466E+02  0.26167448711E+02 -0.32103252784E+01  0.33542386727E+02  0.00000000000E+00 0. -1.
</event>
<event>
 5    1  0.1325832E-009  0.9118800E+02  0.7818608E-02  0.1130116E+00
         25   -1    0    0    0    0  0.00000000000E+00  0.00000000000E+00  0.99999998245E-14  0.12500000000E+03  0.12500000000E+03 0.  0.
        -13    1    3    3    0    0  0.51370880068E+02  0.18259054217E+02 -0.96231991654E+01  0.55362238991E+02  0.10566000000E+00 0.  1.
         23    2    1    0    0    0  0.34891263980E+02 -0.85565772616E+01  0.22557284642E+01  0.89004116521E+02  0.81400424631E+02 0.  0.
         13    1    3    3    0    0 -0.16479616088E+02 -0.26815631479E+02  0.11878927630E+02  0.33641877529E+02  0.10566000000E+00 0. -1.
         22    1    1    0    0    0 -0.34891263980E+02  0.85565772616E+01 -0.22557284642E+01  0.35995883479E+02  0.00000000000E+00 0.  1.
</event>
<event>
 5    1  0.1325832E-009  0.9118800E+02  0.7818608E-02  0.1130116E+00
         25   -1    0    0    0    0  0.00000000000E+00  0.00000000000E+00  0.99999998245E-14  0.12500000000E+03  0.12500000000E+03 0.  0.
        -13    1    3    3    0    0 -0.15614227242E+02 -0.25231244062E+01  0.20932597205E+02  0.26236521090E+02  0.10566000000E+00 0.  1.
         23    2    1    0    0    0 -0.23556470237E+02  0.10004839133E+02 -0.33607027419E+02  0.82757410259E+02  0.71164264661E+02 0.  0.
         13    1    3    3    0    0 -0.79422429952E+01  0.12527963539E+02 -0.54539624624E+02  0.56520889169E+02  0.10566000000E+00 0. -1.
         22    1    1    0    0    0  0.23556470237E+02 -0.10004839133E+02  0.33607027419E+02  0.42242589741E+02  0.00000000000E+00 0. -1.
</event>
<event>
 5    1  0.1325832E-009  0.9118800E+02  0.7818608E-02  0.1130116E+00
         25   -1    0    0    0    0  0.00000000000E+00  0.00000000000E+00  0.99999998245E-14  0.12500000000E+03  0.12500000000E+03 0.  0.
        -13    1    3    3    0    0  0.72454928753E+01 -0.62759544077E+01  0.34765654775E+02  0.36063093138E+02  0.10566000000E+00 0. -1.
         23    2    1    0    0    0 -0.58001638117E+01  0.22759715801E+02 -0.16421999121E+02  0.96341168574E+02  0.91979846398E+02 0.  0.
         13    1    3    3    0    0 -0.13045656687E+02  0.29035670209E+02 -0.51187653895E+02  0.60278075436E+02  0.10566000000E+00 0.  1.
         22    1    1    0    0    0  0.58001638117E+01 -0.22759715801E+02  0.16421999121E+02  0.28658831426E+02  0.00000000000E+00 0.  1.
</event>
<event>
 5    1  0.1325832E-009  0.9118800E+02  0.7818608E-02  0.1130116E+00
         25   -1    0    0    0    0  0.00000000000E+00  0.00000000000E+00  0.99999998245E-14  0.12500000000E+03  0.12500000000E+03 0.  0.
        -13    1    3    3    0    0 -0.41603679731E+02 -0.37911982870E+01  0.31243888328E+01  0.41892867188E+02  0.10566000000E+00 0.  1.
         23    2    1    0    0    0  0.60513176356E+01 -0.26096367140E+02  0.12665957099E+02  0.95367833486E+02  0.90647439962E+02 0.  0.
         13    1    3    3    0    0  0.47654997367E+02 -0.22305168853E+02  0.95415682666E+01  0.53474966298E+02  0.10566000000E+00 0. -1.
         22    1    1    0    0    0 -0.60513176356E+01  0.26096367140E+02 -0.12665957099E+02  0.29632166514E+02  0.00000000000E+00 0. -1.
</event>
<event>
 5    1  0.1325832E-009  0.9118800E+02  0.7818608E-02  0.1130116E+00
         25   -1    0    0    0    0  0.00000000000E+00  0.00000000000E+00  0.99999998245E-14  0.12500000000E+03  0.12500000000E+03 0.  0.
        -13    1    3    3    0    0  0.14959411955E+02  0.48138340603E+02 -0.30616569877E+02  0.58978549974E+02  0.10566000000E+00 0. -1.
         23    2    1    0    0    0  0.86000184700E+01  0.12175870455E+02 -0.24949858828E+02  0.95936146254E+02  0.91427766917E+02 0.  0.
         13    1    3    3    0    0 -0.63593934847E+01 -0.35962470148E+02  0.56667110485E+01  0.36957596280E+02  0.10566000000E+00 0.  1.
         22    1    1    0    0    0 -0.86000184700E+01 -0.12175870455E+02  0.24949858828E+02  0.29063853746E+02  0.00000000000E+00 0. -1.
</event>
<event>
 5    1  0.1325832E-009  0.9118800E+02  0.7818608E-02  0.1130116E+00
         25   -1    0    0    0    0  0.00000000000E+00  0.00000000000E+00  0.99999998245E-14  0.12500000000E+03  0.12500000000E+03 0.  0.
        -13    1    3    3    0    0  0.46002986329E+02  0.54619064530E+01 -0.41296012299E+02  0.62060284958E+02  0.10566000000E+00 0.  1.
         23    2    1    0    0    0  0.25338383079E+02 -0.20959194660E+01 -0.23828801762E+02  0.90154077299E+02  0.83147575580E+02 0.  0.
         13    1    3    3    0    0 -0.20664603251E+02 -0.75578259190E+01  0.17467210536E+02  0.28093792341E+02  0.10566000000E+00 0. -1.
         22    1    1    0    0    0 -0.25338383079E+02  0.20959194660E+01  0.23828801762E+02  0.34845922701E+02  0.00000000000E+00 0.  1.
</event>
<event>
 5    1  0.1325832E-009  0.9118800E+02  0.7818608E-02  0.1130116E+00
         25   -1    0    0    0    0  0.00000000000E+00  0.00000000000E+00  0.99999998245E-14  0.12500000000E+03  0.12500000000E+03 0.  0.
        -13    1    3    3    0    0  0.24047957395E+02  0.16925899215E+02 -0.22908755417E+02  0.37277507399E+02  0.10566000000E+00 0. -1.
         23    2    1    0    0    0 -0.24138196738E+02  0.16132232572E+02  0.84353486351E+01  0.94766631412E+02  0.89814574837E+02 0.  0.
         13    1    3    3    0    0 -0.48186154134E+02 -0.79366664263E+00  0.31344104052E+02  0.57489124013E+02  0.10566000000E+00 0.  1.
         22    1    1    0    0    0  0.24138196738E+02 -0.16132232572E+02 -0.84353486351E+01  0.30233368588E+02  0.00000000000E+00 0.  1.
</event>
<event>
 5    1  0.1325832E-009  0.9118800E+02  0.7818608E-02  0.1130116E+00
         25   -1    0    0    0    0  0.00000000000E+00  0.00000000000E+00  0.99999998245E-14  0.12500000000E+03  0.12500000000E+03 0.  0.
        -13    1    3    3    0    0  0.15028839501E+02 -0.23022036337E+02 -0.37153520097E+02  0.46219859298E+02  0.10566000000E+00 0. -1.
         23    2    1    0    0    0  0.89874630679E+01  0.22128910507E+02 -0.13903823927E+02  0.97363439208E+02  0.93358769283E+02 0.  0.
         13    1    3    3    0    0 -0.60413764331E+01  0.45150946843E+02  0.23249696170E+02  0.51143579911E+02  0.10566000000E+00 0.  1.
         22    1    1    0    0    0 -0.89874630679E+01 -0.22128910507E+02  0.13903823927E+02  0.27636560792E+02  0.00000000000E+00 0. -1.
</event>
<event>
 5    1  0.1325832E-009  0.9118800E+02  0.7818608E-02  0.1130116E+00
         25   -1    0    0    0    0  0.00000000000E+00  0.00000000000E+00  0.99999998245E-14  0.12500000000E+03  0.12500000000E+03 0.  0.
        -13    1    3    3    0    0 -0.12094109439E+02 -0.58435214263E+01  0.45239879262E+02  0.47191864399E+02  0.10566000000E+00 0.  1.
         23    2    1    0    0    0  0.91628028432E+01  0.24434544128E+02  0.21883181513E+02  0.90943025152E+02  0.84325300402E+02 0.  0.
         13    1    3    3    0    0  0.21256912282E+02  0.30278065554E+02 -0.23356697749E+02  0.43751160753E+02  0.10566000000E+00 0. -1.
         22    1    1    0    0    0 -0.91628028432E+01 -0.24434544128E+02 -0.21883181513E+02  0.34056974848E+02  0.00000000000E+00 0.  1.
</event>
<event>
 5    1  0.1325832E-009  0.9118800E+02  0.7818608E-02  0.1130116E+00
         25   -1    0    0    0    0  0.00000000000E+00  0.00000000000E+00  0.99999998245E-14  0.12500000000E+03  0.12500000000E+03 0.  0.
        -13    1    3    3    0    0 -0.99165510865E+01  0.26246136228E+02  0.54862503761E+02  0.61620638875E+02  0.10566000000E+00 0.  1.
         23    2    1    0    0    0 -0.41158815034E+01  0.55806706207E+01  0.28764084526E+02  0.95411878671E+02  0.90708156567E+02 0.  0.
         13    1    3    3    0    0  0.58006695831E+01 -0.20665465608E+02 -0.26098419235E+02  0.33791239796E+02  0.10566000000E+00 0. -1.
         22    1    1    0    0    0  0.41158815034E+01 -0.55806706207E+01 -0.28764084526E+02  0.29588121329E+02  0.00000000000E+00 0.  1.
</event>
<event>
 5    1  0.1325832E-009  0.9118800E+02  0.7818608E-02  0.1130116E+00
         25   -1    0    0    0    0  0.00000000000E+00  0.00000000000E+00  0.99999998245E-14  0.12500000000E+03  0.12500000000E+03 0.  0.
        -13    1    3    3    0    0 -0.24734400212E+02  0.18642783947E+02  0.14642902501E+02  0.34260322603E+02  0.10566000000E+00 0. -1.
         23    2    1    0    0    0  0.18975607867E+02 -0.91374033929E+01 -0.19503912531E+02  0.96295149561E+02  0.91917285591E+02 0.  0.
         13    1    3    3    0    0  0.43710008078E+02 -0.27780187340E+02 -0.34146815033E+02  0.62034826959E+02  0.10566000000E+00 0.  1.
         22    1    1    0    0    0 -0.18975607867E+02  0.91374033929E+01  0.19503912531E+02  0.28704850439E+02  0.00000000000E+00 0.  1.
</event>
<event>
 5    1  0.1325832E-009  0.9118800E+02  0.7818608E-02  0.1130116E+00
         25   -1    0    0    0    0  0.00000000000E+00  0.00000000000E+00  0.99999998245E-14  0.12500000000E+03  0.12500000000E+03 0.  0.
        -13    1    3    3    0    0  0.47599612153E+01 -0.42749333976E+02  0.17269710901E+02  0.46351017948E+02  0.10566000000E+00 0.  1.
         23    2    1    0    0    0 -0.15010379571E+02  0.24827632705E+01  0.24417920882E+02  0.96230042257E+02  0.91828702290E+02 0.  0.
         13    1    3    3    0    0 -0.19770340786E+02  0.45232097246E+02  0.71482099809E+01  0.49879024310E+02  0.10566000000E+00 0. -1.
         22    1    1    0    0    0  0.15010379571E+02 -0.24827632705E+01 -0.24417920882E+02  0.28769957743E+02  0.00000000000E+00 0.  1.
</event>
<event>
 5    1  0.1325832E-009  0.9118800E+02  0.7818608E-02  0.1130116E+00
         25   -1    0    0    0    0  0.00000000000E+00  0.00000000000E+00  0.99999998245E-14  0.12500000000E+03  0.12500000000E+03 0.  0.
        -13    1    3    3    0    0  0.33424037651E+02 -0.27355609902E+02 -0.38662624684E+02  0.57968141229E+02  0.10566000000E+00 0. -1.
         23    2    1    0    0    0  0.95875593674E+01 -0.19113712035E+00 -0.27627874757E+02  0.95755217703E+02  0.91180065945E+02 0.  0.
         13    1    3    3    0    0 -0.23836478284E+02  0.27164472782E+02  0.11034749927E+02  0.37787076474E+02  0.10566000000E+00 0.  1.
         22    1    1    0    0    0 -0.95875593674E+01  0.19113712035E+00  0.27627874757E+02  0.29244782297E+02  0.00000000000E+00 0. -1.
</event>
<event>
 5    1  0.1325832E-009  0.9118800E+02  0.7818608E-02  0.1130116E+00
         25   -1    0    0    0    0  0.00000000000E+00  0.00000000000E+00  0.99999998245E-14  0.12500000000E+03  0.12500000000E+03 0.  0.
        -13    1    3    3    0    0 -0.23780385701E+02  0.35418001855E+02  0.34008813204E+02  0.54557787153E+02  0.10566000000E+00 0. -1.
         23    2    1    0    0    0  0.38547468657E+01  0.29036812806E+02  0.47165914921E+01  0.95331130682E+02  0.90596813798E+02 0.  0.
         13    1    3    3    0    0  0.27635132566E+02 -0.63811890488E+01 -0.29292221712E+02  0.40773343528E+02  0.10566000000E+00 0.  1.
         22    1    1    0    0    0 -0.38547468657E+01 -0.29036812806E+02 -0.47165914921E+01  0.29668869318E+02  0.00000000000E+00 0. -1.
</event>
<event>
 5    1  0.1325832E-009  0.9118800E+02  0.7818608E-02  0.1130116E+00
         25   -1    0    0    0    0  0.00000000000E+00  0.00000000000E+00  0.99999998245E-14  0.12500000000E+03  0.12500000000E+03 0.  0.
        -13    1    3    3    0    0  0.33467082097E+02  0.45365553112E+02  0.86336829716E+01  0.57031838818E+02  0.10566000000E+00 0.  1.
         23    2    1    0    0    0  0.94097791292E+01  0.24065753234E+02 -0.13302059885E+02  0.95937150533E+02  0.91429139956E+02 0.  0.
         13    1    3    3    0    0 -0.24057302968E+02 -0.21299799878E+02 -0.21935742856E+02  0.38905311715E+02  0.10566000000E+00 0. -1.
         22    1    1    0    0    0 -0.94097791292E+01 -0.24065753234E+02  0.13302059885E+02  0.29062849467E+02  0.00000000000E+00 0.  1.
</event>
<event>
 5    1  0.1325832E-009  0.9118800E+02  0.7818608E-02  0.1130116E+00
         25   -1    0    0    0    0  0.00000000000E+00  0.00000000000E+00  0.99999998245E-14  0.12500000000E+03  0.12500000000E+03 0.  0.
        -13    1    3    3    0    0 -0.15406270787E+02  0.52851063933E+02  0.29554105898E+02  0.62482353332E+02  0.10566000000E+00 0. -1.
         23    2    1    0    0    0 -0.71558219150E+01  0.27051608824E+02  0.15902559107E+02  0.92814805991E+02  0.87055737879E+02 0.  0.
         13    1    3    3    0    0  0.82504488719E+01 -0.25799455109E+02 -0.13651546791E+02  0.30332452659E+02  0.10566000000E+00 0.  1.
         22    1    1    0    0    0  0.71558219150E+01 -0.27051608824E+02 -0.15902559107E+02  0.32185194009E+02  0.00000000000E+00 0. -1.
</event>
<event>
 5    1  0.1325832E-009  0.9118800E+02  0.7818608E-02  0.1130116E+00
         25   -1    0    0    0    0  0.00000000000E+00  0.00000000000E+00  0.99999998245E-14  0.12500000000E+03  0.12500000000E+03 0.  0.
        -13    1    3    3    0    0 -0.38331975038E+01 -0.48680967863E+02  0.54878862591E+01  0.49139170677E+02  0.10566000000E+00 0. -1.
         23    2    1    0    0    0 -0.10816015931E+02 -0.13209092180E+02 -0.23830036403E+02  0.95685550460E+02  0.91084508096E+02 0.  0.
         13    1    3    3    0    0 -0.69828184270E+01  0.35471875683E+02 -0.29317922663E+02  0.46546379783E+02  0.10566000000E+00 0.  1.
         22    1    1    0    0    0  0.10816015931E+02  0.13209092180E+02  0.23830036403E+02  0.29314449540E+02  0.00000000000E+00 0. -1.
</event>
<event>
 5    1  0.1325832E-009  0.9118800E+02  0.7818608E-02  0.1130116E+00
         25   -1    0    0    0    0  0.00000000000E+00  0.00000000000E+00  0.99999998245E-14  0.12500000000E+03  0.12500000000E+03 0.  0.
        -13    1    3    3    0    0 -0.15710241235E+02  0.29161649587E+02  0.73123313275E+01  0.33921893222E+02  0.10566000000E+00 0.  1.
         23    2    1    0    0    0 -0.34514154093E+00 -0.24524827405E+02 -0.17338845212E+02  0.94962992239E+02  0.90087446738E+02 0.  0.
         13    1    3    3    0    0  0.15365099694E+02 -0.53686476992E+02 -0.24651176540E+02  0.61041099017E+02  0.10566000000E+00 0. -1.
         22    1    1    0    0    0  0.34514154093E+00  0.24524827405E+02  0.17338845212E+02  0.30037007761E+02  0.00000000000E+00 0. -1.
</event>
<event>
 5    1  0.1325832E-009  0.9118800E+02  0.7818608E-02  0.1130116E+00
         25   -1    0    0    0    0  0.00000000000E+00  0.00000000000E+00  0.99999998245E-14  0.12500000000E+03  0.12500000000E+03 0.  0.
        -13    1    3    3    0    0  0.19723836406E+02 -0.26754351354E+02  0.11442366226E+02  0.35153434368E+02  0.10566000000E+00 0.  1.
         23    2    1    0    0    0 -0.26636435860E+01  0.21016302239E+02 -0.19409136140E+02  0.96268579523E+02  0.91881145404E+02 0.  0.
         13    1    3    3    0    0 -0.22387479992E+02  0.47770653593E+02 -0.30851502365E+02  0.61115145155E+02  0.10566000000E+00 0. -1.
         22    1    1    0    0    0  0.26636435860E+01 -0.21016302239E+02  0.19409136140E+02  0.28731420477E+02  0.00000000000E+00 0. -1.
</event>
<event>
 5    1  0.1325832E-009  0.9118800E+02  0.7818608E-02  0.1130116E+00
         25   -1    0    0    0    0  0.00000000000E+00  0.00000000000E+00  0.99999998245E-14  0.12500000000E+03  0.12500000000E+03 0.  0.
        -13    1    3    3    0    0 -0.51347917602E+02  0.66684145934E+01  0.24622899317E+02  0.57335632290E+02  0.10566000000E+00 0.  1.
         23    2    1    0    0    0 -0.26550196953E+02 -0.12651662122E+02  0.20744229398E+02  0.89009715672E+02  0.81409022337E+02 0.  0.
         13    1    3    3    0    0  0.24797720649E+02 -0.19320076716E+02 -0.38786699192E+01  0.31674083382E+02  0.10566000000E+00 0. -1.
         22    1    1    0    0    0  0.26550196953E+02  0.12651662122E+02 -0.20744229398E+02  0.35990284328E+02  0.00000000000E+00 0.  1.
</event>
<event>
 5    1  0.1325832E-009  0.9118800E+02  0.7818608E-02  0.1130116E+00
         25   -1    0    0    0    0  0.00000000000E+00  0.00000000000E+00  0.99999998245E-14  0.12500000000E+03  0.12500000000E+03 0.  0.
        -13    1    3    3    0    0 -0.84965835289E+01 -0.37318558564E+01 -0.40767252858E+02  0.41810270861E+02  0.10566000000E+00 0. -1.
         23    2    1    0    0    0  0.27980454539E+02 -0.95319085780E+01 -0.19739574059E+01  0.95374679323E+02  0.90656879666E+02 0.  0.
         13    1    3    3    0    0  0.36477038068E+02 -0.58000527215E+01  0.38793295453E+02  0.53564408462E+02  0.10566000000E+00 0.  1.
         22    1    1    0    0    0 -0.27980454539E+02  0.95319085780E+01  0.19739574059E+01  0.29625320677E+02  0.00000000000E+00 0.  1.
</event>
<event>
 5    1  0.1325832E-009  0.9118800E+02  0.7818608E-02  0.1130116E+00
         25   -1    0    0    0    0  0.00000000000E+00  0.00000000000E+00  0.99999998245E-14  0.12500000000E+03  0.12500000000E+03 0.  0.
        -13    1    3    3    0    0  0.37143504413E+02 -0.23986495024E+02  0.81732858386E+01  0.44964492981E+02  0.10566000000E+00 0.  1.
         23    2    1    0    0    0  0.30738800097E+02 -0.91871655039E+01 -0.26619115509E+02  0.83312410098E+02  0.72132534438E+02 0.  0.
         13    1    3    3    0    0 -0.64047043166E+01  0.14799329520E+02 -0.34792401347E+02  0.38347917116E+02  0.10566000000E+00 0. -1.
         22    1    1    0    0    0 -0.30738800097E+02  0.91871655039E+01  0.26619115509E+02  0.41687589902E+02  0.00000000000E+00 0. -1.
</event>
<event>
 5    1  0.1325832E-009  0.9118800E+02  0.7818608E-02  0.1130116E+00
         25   -1    0    0    0    0  0.00000000000E+00  0.00000000000E+00  0.99999998245E-14  0.12500000000E+03  0.12500000000E+03 0.  0.
        -13    1    3    3    0    0 -0.75158878724E+01 -0.10692200176E+02  0.36408037013E+02  0.38682916621E+02  0.10566000000E+00 0.  1.
         23    2    1    0    0    0  0.27961600975E+02  0.89771735780E+01 -0.32997774084E+01  0.95447854469E+02  0.90757719327E+02 0.  0.
         13    1    3    3    0    0  0.35477488847E+02  0.19669373754E+02 -0.39707814422E+02  0.56764937848E+02  0.10566000000E+00 0. -1.
         22    1    1    0    0    0 -0.27961600975E+02 -0.89771735780E+01  0.32997774084E+01  0.29552145531E+02  0.00000000000E+00 0. -1.
</event>
<event>
 5    1  0.1325832E-009  0.9118800E+02  0.7818608E-02  0.1130116E+00
         25   -1    0    0    0    0  0.00000000000E+00  0.00000000000E+00  0.99999998245E-14  0.12500000000E+03  0.12500000000E+03 0.  0.
        -13    1    3    3    0    0 -0.44357491249E+02 -0.26294789205E+02 -0.19160291426E+02  0.55010279956E+02  0.10566000000E+00 0.  1.
         23    2    1    0    0    0 -0.14944165935E+02 -0.24179630702E+02  0.83856814317E+01  0.95363834772E+02  0.90641925691E+02 0.  0.
         13    1    3    3    0    0  0.29413325315E+02  0.21151585029E+01  0.27545972858E+02  0.40353554816E+02  0.10566000000E+00 0. -1.
         22    1    1    0    0    0  0.14944165935E+02  0.24179630702E+02 -0.83856814317E+01  0.29636165228E+02  0.00000000000E+00 0.  1.
</event>
<event>
 5    1  0.1325832E-009  0.9118800E+02  0.7818608E-02  0.1130116E+00
         25   -1    0    0    0    0  0.00000000000E+00  0.00000000000E+00  0.99999998245E-14  0.12500000000E+03  0.12500000000E+03 0.  0.
        -13    1    3    3    0    0 -0.15002088768E+02  0.22769864693E+00 -0.54319166259E+02  0.56353327330E+02  0.10566000000E+00 0. -1.
         23    2    1    0    0    0 -0.23217094533E+02  0.65006385869E+01 -0.15947204912E+02  0.96093164733E+02  0.91642191066E+02 0.  0.
         13    1    3    3    0    0 -0.82150057650E+01  0.62729399399E+01  0.38371961347E+02  0.39739837403E+02  0.10566000000E+00 0.  1.
         22    1    1    0    0    0  0.23217094533E+02 -0.65006385869E+01  0.15947204912E+02  0.28906835267E+02  0.00000000000E+00 0. -1.
</event>
<event>
 5    1  0.1325832E-009  0.9118800E+02  0.7818608E-02  0.1130116E+00
         25   -1    0    0    0    0  0.00000000000E+00  0.00000000000E+00  0.99999998245E-14  0.12500000000E+03  0.12500000000E+03 0.  0.
        -13    1    3    3    0    0  0.29810311208E+02  0.26787467328E+01 -0.54507862685E+02  0.62184793936E+02  0.10566000000E+00 0. -1.
         23    2    1    0    0    0  0.11725710166E+02  0.17497102443E+01 -0.30651278716E+02  0.92135815060E+02  0.86075279639E+02 0.  0.
         13    1    3    3    0    0 -0.18084601042E+02 -0.92903648854E+00  0.23856583969E+02  0.29951021124E+02  0.10566000000E+00 0.  1.
         22    1    1    0    0    0 -0.11725710166E+02 -0.17497102443E+01  0.30651278716E+02  0.32864184940E+02  0.00000000000E+00 0. -1.
</event>
<event>
 5    1  0.1325832E-009  0.9118800E+02  0.7818608E-02  0.1130116E+00
         25   -1    0    0    0    0  0.00000000000E+00  0.00000000000E+00  0.99999998245E-14  0.12500000000E+03  0.12500000000E+03 0.  0.
        -13    1    3    3    0    0  0.31491728577E+01 -0.54246621280E+02  0.17399122311E+01  0.54365905387E+02  0.10566000000E+00 0.  1.
         23    2    1    0    0    0 -0.23559869476E+01 -0.19386207062E+02 -0.20978671674E+02  0.96338521253E+02  0.91976248637E+02 0.  0.
         13    1    3    3    0    0 -0.55051598053E+01  0.34860414218E+02 -0.22718583905E+02  0.41972615866E+02  0.10566000000E+00 0. -1.
         22    1    1    0    0    0  0.23559869476E+01  0.19386207062E+02  0.20978671674E+02  0.28661478747E+02  0.00000000000E+00 0.  1.
</event>
<event>
 5    1  0.1325832E-009  0.9118800E+02  0.7818608E-02  0.1130116E+00
         25   -1    0    0    0    0  0.00000000000E+00  0.00000000000E+00  0.99999998245E-14  0.12500000000E+03  0.12500000000E+03 0.  0.
        -13    1    3    3    0    0  0.23668273084E+02 -0.27711382316E+02  0.16081739884E+02  0.39833922508E+02  0.10566000000E+00 0.  1.
         23    2    1    0    0    0 -0.21134079192E+02  0.93578772347E+01  0.13909477538E+02  0.98024219473E+02  0.94239348832E+02 0.  0.
         13    1    3    3    0    0 -0.44802352276E+02  0.37069259551E+02 -0.21722623457E+01  0.58190296965E+02  0.10566000000E+00 0. -1.
         22    1    1    0    0    0  0.21134079192E+02 -0.93578772347E+01 -0.13909477538E+02  0.26975780527E+02  0.00000000000E+00 0. -1.
</event>
<event>
 5    1  0.1325832E-009  0.9118800E+02  0.7818608E-02  0.1130116E+00
         25   -1    0    0    0    0  0.00000000000E+00  0.00000000000E+00  0.99999998245E-14  0.12500000000E+03  0.12500000000E+03 0.  0.
        -13    1    3    3    0    0  0.10717410548E+02  0.27095158634E+02  0.51465505169E+02  0.59141524300E+02  0.10566000000E+00 0.  1.
         23    2    1    0    0    0  0.16865665811E+02  0.16023310940E+02  0.16094172455E+02  0.96711847643E+02  0.92482224837E+02 0.  0.
         13    1    3    3    0    0  0.61482552629E+01 -0.11071847694E+02 -0.35371332713E+02  0.37570323343E+02  0.10566000000E+00 0. -1.
         22    1    1    0    0    0 -0.16865665811E+02 -0.16023310940E+02 -0.16094172455E+02  0.28288152357E+02  0.00000000000E+00 0.  1.
</event>
<event>
 5    1  0.1325832E-009  0.9118800E+02  0.7818608E-02  0.1130116E+00
         25   -1    0    0    0    0  0.00000000000E+00  0.00000000000E+00  0.99999998245E-14  0.12500000000E+03  0.12500000000E+03 0.  0.
        -13    1    3    3    0    0 -0.59734684125E+02 -0.13904342296E+02 -0.61130022169E+01  0.61635567511E+02  0.10566000000E+00 0. -1.
         23    2    1    0    0    0 -0.28697761164E+02 -0.36296106920E+01 -0.96180471668E+01  0.94516522493E+02  0.89465807006E+02 0.  0.
         13    1    3    3    0    0  0.31036922961E+02  0.10274731604E+02 -0.35050449499E+01  0.32880954982E+02  0.10566000000E+00 0.  1.
         22    1    1    0    0    0  0.28697761164E+02  0.36296106920E+01  0.96180471668E+01  0.30483477507E+02  0.00000000000E+00 0. -1.
</event>
<event>
 5    1  0.1325832E-009  0.9118800E+02  0.7818608E-02  0.1130116E+00
         25   -1    0    0    0    0  0.00000000000E+00  0.00000000000E+00  0.99999998245E-14  0.12500000000E+03  0.12500000000E+03 0.  0.
        -13    1    3    3    0    0  0.47795378572E+02 -0.93236314532E+01 -0.35595749061E+02  0.60319124924E+02  0.10566000000E+00 0.  1.
         23    2    1    0    0    0  0.24774647838E+02  0.69526809848E+01 -0.15232758567E+02  0.95097493718E+02  0.90273880107E+02 0.  0.
         13    1    3    3    0    0 -0.23020730734E+02  0.16276312438E+02  0.20362990494E+02  0.34778368794E+02  0.10566000000E+00 0. -1.
         22    1    1    0    0    0 -0.24774647838E+02 -0.69526809848E+01  0.15232758567E+02  0.29902506282E+02  0.00000000000E+00 0.  1.
</event>
<event>
 5    1  0.1325832E-009  0.9118800E+02  0.7818608E-02  0.1130116E+00
         25   -1    0    0    0    0  0.00000000000E+00  0.00000000000E+00  0.99999998245E-14  0.12500000000E+03  0.12500000000E+03 0.  0.
        -13    1    3    3    0    0  0.50107988261E+01  0.35974129139E+02 -0.15213145439E+01  0.36353426718E+02  0.10566000000E+00 0.  1.
         23    2    1    0    0    0 -0.10758101922E+02 -0.16102266556E+02 -0.23072521839E+02  0.94877566347E+02  0.89968836753E+02 0.  0.
         13    1    3    3    0    0 -0.15768900748E+02 -0.52076395695E+02 -0.21551207295E+02  0.58524139628E+02  0.10566000000E+00 0. -1.
         22    1    1    0    0    0  0.10758101922E+02  0.16102266556E+02  0.23072521839E+02  0.30122433653E+02  0.00000000000E+00 0. -1.
</event>
<event>
 5    1  0.1325832E-009  0.9118800E+02  0.7818608E-02  0.1130116E+00
         25   -1    0    0    0    0  0.00000000000E+00  0.00000000000E+00  0.99999998245E-14  0.12500000000E+03  0.12500000000E+03 0.  0.
        -13    1    3    3    0    0  0.26117829066E+02  0.21010825504E+02  0.24124978268E+02  0.41299170983E+02  0.10566000000E+00 0.  1.
         23    2    1    0    0    0 -0.20238776427E+02  0.17868720569E+02 -0.68572387665E+01  0.97144641996E+02  0.93065356062E+02 0.  0.
         13    1    3    3    0    0 -0.46356605493E+02 -0.31421049348E+01 -0.30982217034E+02  0.55845471013E+02  0.10566000000E+00 0. -1.
         22    1    1    0    0    0  0.20238776427E+02 -0.17868720569E+02  0.68572387665E+01  0.27855358004E+02  0.00000000000E+00 0. -1.
</event>
<event>
 5    1  0.1325832E-009  0.9118800E+02  0.7818608E-02  0.1130116E+00
         25   -1    0    0    0    0  0.00000000000E+00  0.00000000000E+00  0.99999998245E-14  0.12500000000E+03  0.12500000000E+03 0.  0.
        -13    1    3    3    0    0 -0.32439948702E+02  0.11641392084E+02 -0.49800778974E+02  0.60564024238E+02  0.10566000000E+00 0.  1.
         23    2    1    0    0    0 -0.66775220296E+01  0.11513234094E+01 -0.28788590585E+02  0.95424709741E+02  0.90725836646E+02 0.  0.
         13    1    3    3    0    0  0.25762426672E+02 -0.10490068675E+02  0.21012188389E+02  0.34860685503E+02  0.10566000000E+00 0. -1.
         22    1    1    0    0    0  0.66775220296E+01 -0.11513234094E+01  0.28788590585E+02  0.29575290259E+02  0.00000000000E+00 0.  1.
</event>
<event>
 5    1  0.1325832E-009  0.9118800E+02  0.7818608E-02  0.1130116E+00
         25   -1    0    0    0    0  0.00000000000E+00  0.00000000000E+00  0.99999998245E-14  0.12500000000E+03  0.12500000000E+03 0.  0.
        -13    1    3    3    0    0 -0.20188512150E+02  0.34858518486E+02  0.29668455915E+02  0.50029199217E+02  0.10566000000E+00 0. -1.
         23    2    1    0    0    0  0.87822932870E+01 -0.53036420455E-01  0.28248133738E+02  0.95418104390E+02  0.90716735487E+02 0.  0.
         13    1    3    3    0    0  0.28970805437E+02 -0.34911554906E+02 -0.14203221771E+01  0.45388905173E+02  0.10566000000E+00 0.  1.
         22    1    1    0    0    0 -0.87822932870E+01  0.53036420455E-01 -0.28248133738E+02  0.29581895610E+02  0.00000000000E+00 0. -1.
</event>
<event>
 5    1  0.1325832E-009  0.9118800E+02  0.7818608E-02  0.1130116E+00
         25   -1    0    0    0    0  0.00000000000E+00  0.00000000000E+00  0.99999998245E-14  0.12500000000E+03  0.12500000000E+03 0.  0.
        -13    1    3    3    0    0  0.51147311759E+01  0.35404471436E+01  0.54510635215E+02  0.54864521838E+02  0.10566000000E+00 0.  1.
         23    2    1    0    0    0  0.20599538521E+02  0.11666636403E+02  0.18297083409E+02  0.95079527853E+02  0.90248999791E+02 0.  0.
         13    1    3    3    0    0  0.15484807345E+02  0.81261892589E+01 -0.36213551806E+02  0.40215006015E+02  0.10566000000E+00 0. -1.
         22    1    1    0    0    0 -0.20599538521E+02 -0.11666636403E+02 -0.18297083409E+02  0.29920472147E+02  0.00000000000E+00 0.  1.
</event>
<event>
 5    1  0.1325832E-009  0.9118800E+02  0.7818608E-02  0.1130116E+00
         25   -1    0    0    0    0  0.00000000000E+00  0.00000000000E+00  0.99999998245E-14  0.12500000000E+03  0.12500000000E+03 0.  0.
        -13    1    3    3    0    0 -0.10157690715E+02 -0.33803155450E+02  0.51354579814E+02  0.62314813896E+02  0.10566000000E+00 0.  1.
         23    2    1    0    0    0 -0.41708297335E+01 -0.12380477147E+02  0.24922459224E+02  0.96861041085E+02  0.92683656980E+02 0.  0.
         13    1    3    3    0    0  0.59868609816E+01  0.21422678303E+02 -0.26432120590E+02  0.34546227189E+02  0.10566000000E+00 0. -1.
         22    1    1    0    0    0  0.41708297335E+01  0.12380477147E+02 -0.24922459224E+02  0.28138958915E+02  0.00000000000E+00 0.  1.
</event>
<event>
 5    1  0.1325832E-009  0.9118800E+02  0.7818608E-02  0.1130116E+00
         25   -1    0    0    0    0  0.00000000000E+00  0.00000000000E+00  0.99999998245E-14  0.12500000000E+03  0.12500000000E+03 0.  0.
        -13    1    3    3    0    0 -0.23768290948E+02  0.34556074267E+02  0.16255602861E+02  0.44981215099E+02  0.10566000000E+00 0. -1.
         23    2    1    0    0    0  0.14927204396E+02  0.20476136275E+02 -0.13973033785E+02  0.96063185023E+02  0.91601289597E+02 0.  0.
         13    1    3    3    0    0  0.38695495344E+02 -0.14079937993E+02 -0.30228636646E+02  0.51081969924E+02  0.10566000000E+00 0.  1.
         22    1    1    0    0    0 -0.14927204396E+02 -0.20476136275E+02  0.13973033785E+02  0.28936814977E+02  0.00000000000E+00 0.  1.
</event>
<event>
 5    1  0.1325832E-009  0.9118800E+02  0.7818608E-02  0.1130116E+00
         25   -1    0    0    0    0  0.00000000000E+00  0.00000000000E+00  0.99999998245E-14  0.12500000000E+03  0.12500000000E+03 0.  0.
        -13    1    3    3    0    0  0.11404860186E+02 -0.13545058612E+02 -0.34190130972E+02  0.38503450087E+02  0.10566000000E+00 0.  1.
         23    2    1    0    0    0 -0.53138792931E+01 -0.18587859487E+00  0.23955039717E+02  0.10046195216E+03  0.97419135901E+02 0.  0.
         13    1    3    3    0    0 -0.16718739479E+02  0.13359180018E+02  0.58145170689E+02  0.61958502072E+02  0.10566000000E+00 0. -1.
         22    1    1    0    0    0  0.53138792931E+01  0.18587859487E+00 -0.23955039717E+02  0.24538047841E+02  0.00000000000E+00 0. -1.
</event>
<event>
 5    1  0.1325832E-009  0.9118800E+02  0.7818608E-02  0.1130116E+00
         25   -1    0    0    0    0  0.00000000000E+00  0.00000000000E+00  0.99999998245E-14  0.12500000000E+03  0.12500000000E+03 0.  0.
        -13    1    3    3    0    0  0.18546336416E+02 -0.88874665591E+01  0.56955178600E+02  0.60554580254E+02  0.10566000000E+00 0.  1.
         23    2    1    0    0    0 -0.16670838398E+01 -0.12389183741E+01  0.29172748601E+02  0.95753404502E+02  0.91177580169E+02 0.  0.
         13    1    3    3    0    0 -0.20213420256E+02  0.76485481849E+01 -0.27782429999E+02  0.35198824248E+02  0.10566000000E+00 0. -1.
         22    1    1    0    0    0  0.16670838398E+01  0.12389183741E+01 -0.29172748601E+02  0.29246595498E+02  0.00000000000E+00 0.  1.
</event>
<event>
 5    1  0.1325832E-009  0.9118800E+02  0.7818608E-02  0.1130116E+00
         25   -1    0    0    0    0  0.00000000000E+00  0.00000000000E+00  0.99999998245E-14  0.12500000000E+03  0.12500000000E+03 0.  0.
        -13    1    3    3    0    0  0.19642072064E+02 -0.54297223381E+01 -0.57621593536E+02  0.61119162996E+02  0.10566000000E+00 0.  1.
         23    2    1    0    0    0  0.16610534366E+02  0.24711396731E+01 -0.24554799378E+02  0.95251814245E+02  0.90487311604E+02 0.  0.
         13    1    3    3    0    0 -0.30315376978E+01  0.79008620112E+01  0.33066794159E+02  0.34132651249E+02  0.10566000000E+00 0. -1.
         22    1    1    0    0    0 -0.16610534366E+02 -0.24711396731E+01  0.24554799378E+02  0.29748185755E+02  0.00000000000E+00 0.  1.
</event>
<event>
 5    1  0.1325832E-009  0.9118800E+02  0.7818608E-02  0.1130116E+00
         25   -1    0    0    0    0  0.00000000000E+00  0.00000000000E+00  0.99999998245E-14  0.12500000000E+03  0.12500000000E+03 0.  0.
        -13    1    3    3    0    0 -0.48374555825E+02  0.28758437706E+02 -0.13400610965E+02  0.57850954434E+02  0.10566000000E+00 0. -1.
         23    2    1    0    0    0 -0.23362001387E+02  0.48324734547E+01 -0.20918195565E+02  0.93271356565E+02  0.87708831604E+02 0.  0.
         13    1    3    3    0    0  0.25012554438E+02 -0.23925964252E+02 -0.75175846009E+01  0.35420402132E+02  0.10566000000E+00 0.  1.
         22    1    1    0    0    0  0.23362001387E+02 -0.48324734547E+01  0.20918195565E+02  0.31728643435E+02  0.00000000000E+00 0. -1.
</event>
<event>
 5    1  0.1325832E-009  0.9118800E+02  0.7818608E-02  0.1130116E+00
         25   -1    0    0    0    0  0.00000000000E+00  0.00000000000E+00  0.99999998245E-14  0.12500000000E+03  0.12500000000E+03 0.  0.
        -13    1    3    3    0    0  0.31661018330E+02 -0.35806643037E+02  0.30011127954E+02  0.56437706654E+02  0.10566000000E+00 0.  1.
         23    2    1    0    0    0  0.28303314171E+02 -0.38834507951E+01  0.80900548196E+01  0.95308119458E+02  0.90565058740E+02 0.  0.
         13    1    3    3    0    0 -0.33577041596E+01  0.31923192242E+02 -0.21921073134E+02  0.38870412804E+02  0.10566000000E+00 0. -1.
         22    1    1    0    0    0 -0.28303314171E+02  0.38834507951E+01 -0.80900548196E+01  0.29691880542E+02  0.00000000000E+00 0. -1.
</event>
<event>
 5    1  0.1325832E-009  0.9118800E+02  0.7818608E-02  0.1130116E+00
         25   -1    0    0    0    0  0.00000000000E+00  0.00000000000E+00  0.99999998245E-14  0.12500000000E+03  0.12500000000E+03 0.  0.
        -13    1    3    3    0    0 -0.71963016037E+01 -0.37958927822E+02  0.26195351662E+02  0.46678416542E+02  0.10566000000E+00 0.  1.
         23    2    1    0    0    0 -0.34248993042E+01 -0.14379214802E+02 -0.20852703695E+02  0.99439737776E+02  0.96098566295E+02 0.  0.
         13    1    3    3    0    0  0.37714022996E+01  0.23579713020E+02 -0.47048055357E+02  0.52761321233E+02  0.10566000000E+00 0. -1.
         22    1    1    0    0    0  0.34248993042E+01  0.14379214802E+02  0.20852703695E+02  0.25560262224E+02  0.00000000000E+00 0. -1.
</event>
<event>
 5    1  0.1325832E-009  0.9118800E+02  0.7818608E-02  0.1130116E+00
         25   -1    0    0    0    0  0.00000000000E+00  0.00000000000E+00  0.99999998245E-14  0.12500000000E+03  0.12500000000E+03 0.  0.
        -13    1    3    3    0    0 -0.34451160545E+02 -0.12733259782E+02 -0.15928503225E+02  0.40034319609E+02  0.10566000000E+00 0. -1.
         23    2    1    0    0    0  0.61645336521E+01 -0.29094728414E+02  0.13028829129E+02  0.92530705504E+02  0.86646848621E+02 0.  0.
         13    1    3    3    0    0  0.40615694197E+02 -0.16361468631E+02  0.28957332354E+02  0.52496385894E+02  0.10566000000E+00 0.  1.
         22    1    1    0    0    0 -0.61645336521E+01  0.29094728414E+02 -0.13028829129E+02  0.32469294496E+02  0.00000000000E+00 0.  1.
</event>
<event>
 5    1  0.1325832E-009  0.9118800E+02  0.7818608E-02  0.1130116E+00
         25   -1    0    0    0    0  0.00000000000E+00  0.00000000000E+00  0.99999998245E-14  0.12500000000E+03  0.12500000000E+03 0.  0.
        -13    1    3    3    0    0  0.20121604215E+02  0.38569965913E+02  0.25464031535E+02  0.50407829677E+02  0.10566000000E+00 0. -1.
         23    2    1    0    0    0  0.29447476400E+02  0.18504757041E+01  0.10550521010E+01  0.95475581943E+02  0.90795900159E+02 0.  0.
         13    1    3    3    0    0  0.93258721848E+01 -0.36719490209E+02 -0.24408979434E+02  0.45067752265E+02  0.10566000000E+00 0.  1.
         22    1    1    0    0    0 -0.29447476400E+02 -0.18504757041E+01 -0.10550521010E+01  0.29524418057E+02  0.00000000000E+00 0. -1.
</event>
<event>
 5    1  0.1325832E-009  0.9118800E+02  0.7818608E-02  0.1130116E+00
         25   -1    0    0    0    0  0.00000000000E+00  0.00000000000E+00  0.99999998245E-14  0.12500000000E+03  0.12500000000E+03 0.  0.
        -13    1    3    3    0    0 -0.21985106176E+02 -0.23577939843E+02  0.17019128850E+02  0.36454438024E+02  0.10566000000E+00 0.  1.
         23    2    1    0    0    0  0.81820033947E+01  0.26739097532E+02  0.87390654233E+01  0.95703314507E+02  0.91108883358E+02 0.  0.
         13    1    3    3    0    0  0.30167109571E+02  0.50317037375E+02 -0.82800634271E+01  0.59248876483E+02  0.10566000000E+00 0. -1.
         22    1    1    0    0    0 -0.81820033947E+01 -0.26739097532E+02 -0.87390654233E+01  0.29296685493E+02  0.00000000000E+00 0. -1.
</event>
<event>
 5    1  0.1325832E-009  0.9118800E+02  0.7818608E-02  0.1130116E+00
         25   -1    0    0    0    0  0.00000000000E+00  0.00000000000E+00  0.99999998245E-14  0.12500000000E+03  0.12500000000E+03 0.  0.
        -13    1    3    3    0    0  0.23576465009E+02 -0.25761258166E+02  0.98315038949E+01  0.36278943721E+02  0.10566000000E+00 0.  1.
         23    2    1    0    0    0 -0.28696133530E+02 -0.16745674069E+02  0.12772146435E+02  0.89404868252E+02  0.82013517563E+02 0.  0.
         13    1    3    3    0    0 -0.52272598540E+02  0.90155840976E+01  0.29406425400E+01  0.53125924531E+02  0.10566000000E+00 0. -1.
         22    1    1    0    0    0  0.28696133530E+02  0.16745674069E+02 -0.12772146435E+02  0.35595131748E+02  0.00000000000E+00 0. -1.
</event>
<event>
 5    1  0.1325832E-009  0.9118800E+02  0.7818608E-02  0.1130116E+00
         25   -1    0    0    0    0  0.00000000000E+00  0.00000000000E+00  0.99999998245E-14  0.12500000000E+03  0.12500000000E+03 0.  0.
        -13    1    3    3    0    0 -0.10066211538E+01  0.30237240928E+02 -0.35737853319E+02  0.46824238904E+02  0.10566000000E+00 0.  1.
         23    2    1    0    0    0  0.45744918710E+01  0.25550619026E+02  0.12906366229E+02  0.96011478173E+02  0.91530702735E+02 0.  0.
         13    1    3    3    0    0  0.55811130248E+01 -0.46866219013E+01  0.48644219548E+02  0.49187239269E+02  0.10566000000E+00 0. -1.
         22    1    1    0    0    0 -0.45744918710E+01 -0.25550619026E+02 -0.12906366229E+02  0.28988521827E+02  0.00000000000E+00 0.  1.
</event>
<event>
 5    1  0.1325832E-009  0.9118800E+02  0.7818608E-02  0.1130116E+00
         25   -1    0    0    0    0  0.00000000000E+00  0.00000000000E+00  0.99999998245E-14  0.12500000000E+03  0.12500000000E+03 0.  0.
        -13    1    3    3    0    0 -0.10500054934E+02  0.26486790420E+02 -0.24864434689E+02  0.37816034917E+02  0.10566000000E+00 0. -1.
         23    2    1    0    0    0  0.22458994639E+02 -0.16424671760E+02 -0.46275093385E+00  0.97172128701E+02  0.93102267294E+02 0.  0.
         13    1    3    3    0    0  0.32959049573E+02 -0.42911462180E+02  0.24401683755E+02  0.59356093784E+02  0.10566000000E+00 0.  1.
         22    1    1    0    0    0 -0.22458994639E+02  0.16424671760E+02  0.46275093385E+00  0.27827871299E+02  0.00000000000E+00 0.  1.
</event>
<event>
 5    1  0.1325832E-009  0.9118800E+02  0.7818608E-02  0.1130116E+00
         25   -1    0    0    0    0  0.00000000000E+00  0.00000000000E+00  0.99999998245E-14  0.12500000000E+03  0.12500000000E+03 0.  0.
        -13    1    3    3    0    0 -0.27544748460E+02 -0.10335442533E+01 -0.21467648845E+02  0.34937837546E+02  0.10566000000E+00 0. -1.
         23    2    1    0    0    0  0.78589003883E+01 -0.87782476209E+01  0.27049250604E+02  0.95496069672E+02  0.90824101525E+02 0.  0.
         13    1    3    3    0    0  0.35403648848E+02 -0.77447033676E+01  0.48516899448E+02  0.60558232125E+02  0.10566000000E+00 0.  1.
         22    1    1    0    0    0 -0.78589003883E+01  0.87782476209E+01 -0.27049250604E+02  0.29503930328E+02  0.00000000000E+00 0.  1.
</event>
<event>
 5    1  0.1325832E-009  0.9118800E+02  0.7818608E-02  0.1130116E+00
         25   -1    0    0    0    0  0.00000000000E+00  0.00000000000E+00  0.99999998245E-14  0.12500000000E+03  0.12500000000E+03 0.  0.
        -13    1    3    3    0    0 -0.26502562961E+02 -0.67049893188E+01 -0.27737701288E+02  0.38945268802E+02  0.10566000000E+00 0.  1.
         23    2    1    0    0    0  0.26264221109E+02  0.59537757167E+01 -0.12510943070E+02  0.95305211699E+02  0.90561045293E+02 0.  0.
         13    1    3    3    0    0  0.52766784071E+02  0.12658765036E+02  0.15226758218E+02  0.56359942896E+02  0.10566000000E+00 0. -1.
         22    1    1    0    0    0 -0.26264221109E+02 -0.59537757167E+01  0.12510943070E+02  0.29694788301E+02  0.00000000000E+00 0. -1.
</event>
<event>
 5    1  0.1325832E-009  0.9118800E+02  0.7818608E-02  0.1130116E+00
         25   -1    0    0    0    0  0.00000000000E+00  0.00000000000E+00  0.99999998245E-14  0.12500000000E+03  0.12500000000E+03 0.  0.
        -13    1    3    3    0    0  0.17495813884E+02 -0.26609027204E+02 -0.11835972051E+02  0.33974184768E+02  0.10566000000E+00 0.  1.
         23    2    1    0    0    0 -0.31170345769E+01  0.29508184274E+02  0.17296601698E+01  0.95277271862E+02  0.90522472157E+02 0.  0.
         13    1    3    3    0    0 -0.20612848461E+02  0.56117211477E+02  0.13565632220E+02  0.61303087094E+02  0.10566000000E+00 0. -1.
         22    1    1    0    0    0  0.31170345769E+01 -0.29508184274E+02 -0.17296601698E+01  0.29722728138E+02  0.00000000000E+00 0. -1.
</event>
<event>
 5    1  0.1325832E-009  0.9118800E+02  0.7818608E-02  0.1130116E+00
         25   -1    0    0    0    0  0.00000000000E+00  0.00000000000E+00  0.99999998245E-14  0.12500000000E+03  0.12500000000E+03 0.  0.
        -13    1    3    3    0    0  0.22816011154E+02  0.17978940190E+02  0.17827510407E+02  0.34082898156E+02  0.10566000000E+00 0.  1.
         23    2    1    0    0    0 -0.29534317805E+02  0.87829851456E+01 -0.79827122413E+01  0.93170132721E+02  0.87564451579E+02 0.  0.
         13    1    3    3    0    0 -0.52350328959E+02 -0.91959550448E+01 -0.25810222649E+02  0.59087234565E+02  0.10566000000E+00 0. -1.
         22    1    1    0    0    0  0.29534317805E+02 -0.87829851456E+01  0.79827122413E+01  0.31829867279E+02  0.00000000000E+00 0. -1.
</event>
<event>
 5    1  0.1325832E-009  0.9118800E+02  0.7818608E-02  0.1130116E+00
         25   -1    0    0    0    0  0.00000000000E+00  0.00000000000E+00  0.99999998245E-14  0.12500000000E+03  0.12500000000E+03 0.  0.
        -13    1    3    3    0    0  0.56042331123E+02  0.85363745521E+01  0.19964064473E+02  0.60101477540E+02  0.10566000000E+00 0.  1.
         23    2    1    0    0    0  0.23045766843E+02 -0.40903454561E+01  0.17976384292E+02  0.95487482528E+02  0.90812282385E+02 0.  0.
         13    1    3    3    0    0 -0.32996564280E+02 -0.12626720008E+02 -0.19876801817E+01  0.35386004988E+02  0.10566000000E+00 0. -1.
         22    1    1    0    0    0 -0.23045766843E+02  0.40903454561E+01 -0.17976384292E+02  0.29512517472E+02  0.00000000000E+00 0.  1.
</event>
<event>
 5    1  0.1325832E-009  0.9118800E+02  0.7818608E-02  0.1130116E+00
         25   -1    0    0    0    0  0.00000000000E+00  0.00000000000E+00  0.99999998245E-14  0.12500000000E+03  0.12500000000E+03 0.  0.
        -13    1    3    3    0    0 -0.45370596764E+02  0.17270016984E+02  0.33741265579E+02  0.59120459270E+02  0.10566000000E+00 0. -1.
         23    2    1    0    0    0 -0.22932620952E+02 -0.65503576424E+01  0.14801739003E+02  0.96930376446E+02  0.92777120625E+02 0.  0.
         13    1    3    3    0    0  0.22437975812E+02 -0.23820374627E+02 -0.18939526576E+02  0.37809917176E+02  0.10566000000E+00 0.  1.
         22    1    1    0    0    0  0.22932620952E+02  0.65503576424E+01 -0.14801739003E+02  0.28069623554E+02  0.00000000000E+00 0. -1.
</event>
<event>
 5    1  0.1325832E-009  0.9118800E+02  0.7818608E-02  0.1130116E+00
         25   -1    0    0    0    0  0.00000000000E+00  0.00000000000E+00  0.99999998245E-14  0.12500000000E+03  0.12500000000E+03 0.  0.
        -13    1    3    3    0    0 -0.17043811285E+02  0.18468423132E+02 -0.35529536989E+02  0.43519344190E+02  0.10566000000E+00 0.  1.
         23    2    1    0    0    0 -0.12435958081E+02 -0.25716933353E+02 -0.10140810771E+02  0.94687465338E+02  0.89704327290E+02 0.  0.
         13    1    3    3    0    0  0.46078532037E+01 -0.44185356485E+02  0.25388726217E+02  0.51168121148E+02  0.10566000000E+00 0. -1.
         22    1    1    0    0    0  0.12435958081E+02  0.25716933353E+02  0.10140810771E+02  0.30312534662E+02  0.00000000000E+00 0. -1.
</event>
<event>
 5    1  0.1325832E-009  0.9118800E+02  0.7818608E-02  0.1130116E+00
         25   -1    0    0    0    0  0.00000000000E+00  0.00000000000E+00  0.99999998245E-14  0.12500000000E+03  0.12500000000E+03 0.  0.
        -13    1    3    3    0    0  0.26029965997E+02 -0.33304705958E+02 -0.22186109682E+02  0.47738843677E+02  0.10566000000E+00 0.  1.
         23    2    1    0    0    0  0.23825027255E+02  0.27217375735E+01  0.12637999095E+02  0.97893565335E+02  0.94065888258E+02 0.  0.
         13    1    3    3    0    0 -0.22049387418E+01  0.36026443532E+02  0.34824108777E+02  0.50154721658E+02  0.10566000000E+00 0. -1.
         22    1    1    0    0    0 -0.23825027255E+02 -0.27217375735E+01 -0.12637999095E+02  0.27106434665E+02  0.00000000000E+00 0. -1.
</event>
<event>
 5    1  0.1325832E-009  0.9118800E+02  0.7818608E-02  0.1130116E+00
         25   -1    0    0    0    0  0.00000000000E+00  0.00000000000E+00  0.99999998245E-14  0.12500000000E+03  0.12500000000E+03 0.  0.
        -13    1    3    3    0    0 -0.20344246047E+02  0.26464939929E+02  0.21602617105E+00  0.33381719907E+02  0.10566000000E+00 0. -1.
         23    2    1    0    0    0  0.15624783518E+02 -0.21094829342E+02  0.14930103670E+02  0.94800104627E+02  0.89861149318E+02 0.  0.
         13    1    3    3    0    0  0.35969029565E+02 -0.47559769270E+02  0.14714077499E+02  0.61418384720E+02  0.10566000000E+00 0.  1.
         22    1    1    0    0    0 -0.15624783518E+02  0.21094829342E+02 -0.14930103670E+02  0.30199895373E+02  0.00000000000E+00 0.  1.
</event>
<event>
 5    1  0.1325832E-009  0.9118800E+02  0.7818608E-02  0.1130116E+00
         25   -1    0    0    0    0  0.00000000000E+00  0.00000000000E+00  0.99999998245E-14  0.12500000000E+03  0.12500000000E+03 0.  0.
        -13    1    3    3    0    0 -0.29567201485E+01 -0.26520772396E+02 -0.27413103755E+02  0.38256803108E+02  0.10566000000E+00 0. -1.
         23    2    1    0    0    0 -0.24046753241E+02  0.10167998550E+02  0.12163091532E+02  0.96197650590E+02  0.91784599184E+02 0.  0.
         13    1    3    3    0    0 -0.21090033092E+02  0.36688770946E+02  0.39576195288E+02  0.57940847481E+02  0.10566000000E+00 0.  1.
         22    1    1    0    0    0  0.24046753241E+02 -0.10167998550E+02 -0.12163091532E+02  0.28802349410E+02  0.00000000000E+00 0.  1.
</event>
<event>
 5    1  0.1325832E-009  0.9118800E+02  0.7818608E-02  0.1130116E+00
         25   -1    0    0    0    0  0.00000000000E+00  0.00000000000E+00  0.99999998245E-14  0.12500000000E+03  0.12500000000E+03 0.  0.
        -13    1    3    3    0    0 -0.15302539872E+02 -0.57164333642E+02  0.15119758287E+02  0.61078204148E+02  0.10566000000E+00 0.  1.
         23    2    1    0    0    0 -0.13684950288E+01 -0.28863259933E+02 -0.10181862523E+00  0.96104136635E+02  0.91657155524E+02 0.  0.
         13    1    3    3    0    0  0.13934044843E+02  0.28301073709E+02 -0.15221576912E+02  0.35025932486E+02  0.10566000000E+00 0. -1.
         22    1    1    0    0    0  0.13684950288E+01  0.28863259933E+02  0.10181862523E+00  0.28895863365E+02  0.00000000000E+00 0.  1.
</event>
<event>
 5    1  0.1325832E-009  0.9118800E+02  0.7818608E-02  0.1130116E+00
         25   -1    0    0    0    0  0.00000000000E+00  0.00000000000E+00  0.99999998245E-14  0.12500000000E+03  0.12500000000E+03 0.  0.
        -13    1    3    3    0    0 -0.17863959752E+02 -0.31274838727E+02 -0.41339892620E+02  0.54829138980E+02  0.10566000000E+00 0. -1.
         23    2    1    0    0    0  0.20032970776E+01 -0.31442639043E+02 -0.99843762329E+01  0.91949424847E+02  0.85804173626E+02 0.  0.
         13    1    3    3    0    0  0.19867256829E+02 -0.16780031601E+00  0.31355516387E+02  0.37120285867E+02  0.10566000000E+00 0.  1.
         22    1    1    0    0    0 -0.20032970776E+01  0.31442639043E+02  0.99843762329E+01  0.33050575153E+02  0.00000000000E+00 0. -1.
</event>
<event>
 5    1  0.1325832E-009  0.9118800E+02  0.7818608E-02  0.1130116E+00
         25   -1    0    0    0    0  0.00000000000E+00  0.00000000000E+00  0.99999998245E-14  0.12500000000E+03  0.12500000000E+03 0.  0.
        -13    1    3    3    0    0  0.21204728920E+02  0.26641346367E+02 -0.17643196684E+01  0.34095833364E+02  0.10566000000E+00 0.  1.
         23    2    1    0    0    0  0.36026646197E+01 -0.20892206570E+02 -0.26961664870E+02  0.90701386905E+02  0.83966342817E+02 0.  0.
         13    1    3    3    0    0 -0.17602064300E+02 -0.47533552937E+02 -0.25197345201E+02  0.56605553541E+02  0.10566000000E+00 0. -1.
         22    1    1    0    0    0 -0.36026646197E+01  0.20892206570E+02  0.26961664870E+02  0.34298613095E+02  0.00000000000E+00 0. -1.
</event>
<event>
 5    1  0.1325832E-009  0.9118800E+02  0.7818608E-02  0.1130116E+00
         25   -1    0    0    0    0  0.00000000000E+00  0.00000000000E+00  0.99999998245E-14  0.12500000000E+03  0.12500000000E+03 0.  0.
        -13    1    3    3    0    0 -0.25005748551E+02 -0.25416534156E+02  0.30347334655E+02  0.46821571458E+02  0.10566000000E+00 0. -1.
         23    2    1    0    0    0 -0.27737573690E+02  0.13791574938E+02  0.49155082803E+01  0.93635326318E+02  0.88226025523E+02 0.  0.
         13    1    3    3    0    0 -0.27318251395E+01  0.39208109094E+02 -0.25431826375E+02  0.46813754860E+02  0.10566000000E+00 0.  1.
         22    1    1    0    0    0  0.27737573690E+02 -0.13791574938E+02 -0.49155082803E+01  0.31364673682E+02  0.00000000000E+00 0. -1.
</event>
<event>
 5    1  0.1325832E-009  0.9118800E+02  0.7818608E-02  0.1130116E+00
         25   -1    0    0    0    0  0.00000000000E+00  0.00000000000E+00  0.99999998245E-14  0.12500000000E+03  0.12500000000E+03 0.  0.
        -13    1    3    3    0    0  0.29848092012E+02  0.52910444504E+02 -0.98304668439E+01  0.61539198701E+02  0.10566000000E+00 0. -1.
         23    2    1    0    0    0  0.73530663167E+01  0.27694938608E+02 -0.16988444857E+01  0.96295239396E+02  0.91917407758E+02 0.  0.
         13    1    3    3    0    0 -0.22495025695E+02 -0.25215505896E+02  0.81316223582E+01  0.34756040695E+02  0.10566000000E+00 0.  1.
         22    1    1    0    0    0 -0.73530663167E+01 -0.27694938608E+02  0.16988444857E+01  0.28704760604E+02  0.00000000000E+00 0. -1.
</event>
<event>
 5    1  0.1325832E-009  0.9118800E+02  0.7818608E-02  0.1130116E+00
         25   -1    0    0    0    0  0.00000000000E+00  0.00000000000E+00  0.99999998245E-14  0.12500000000E+03  0.12500000000E+03 0.  0.
        -13    1    3    3    0    0  0.30569782697E+02 -0.11061123786E+02 -0.11988245393E+02  0.34649520418E+02  0.10566000000E+00 0. -1.
         23    2    1    0    0    0 -0.25520768327E+02  0.51255878936E+01 -0.18021516215E+02  0.93339988724E+02  0.87806589622E+02 0.  0.
         13    1    3    3    0    0 -0.56090551024E+02  0.16186711679E+02 -0.60332708220E+01  0.58690468306E+02  0.10566000000E+00 0.  1.
         22    1    1    0    0    0  0.25520768327E+02 -0.51255878936E+01  0.18021516215E+02  0.31660011276E+02  0.00000000000E+00 0.  1.
</event>
<event>
 5    1  0.1325832E-009  0.9118800E+02  0.7818608E-02  0.1130116E+00
         25   -1    0    0    0    0  0.00000000000E+00  0.00000000000E+00  0.99999998245E-14  0.12500000000E+03  0.12500000000E+03 0.  0.
        -13    1    3    3    0    0 -0.18007226209E+02  0.39363722534E+02  0.50639458125E+01  0.43582307863E+02  0.10566000000E+00 0.  1.
         23    2    1    0    0    0  0.25259002134E+02  0.12452902171E+02 -0.70792674042E+01  0.95961956191E+02  0.91463047443E+02 0.  0.
         13    1    3    3    0    0  0.43266228343E+02 -0.26910820363E+02 -0.12143213217E+02  0.52379648327E+02  0.10566000000E+00 0. -1.
         22    1    1    0    0    0 -0.25259002134E+02 -0.12452902171E+02  0.70792674042E+01  0.29038043809E+02  0.00000000000E+00 0. -1.
</event>
<event>
 5    1  0.1325832E-009  0.9118800E+02  0.7818608E-02  0.1130116E+00
         25   -1    0    0    0    0  0.00000000000E+00  0.00000000000E+00  0.99999998245E-14  0.12500000000E+03  0.12500000000E+03 0.  0.
        -13    1    3    3    0    0  0.33249598014E+02  0.83110747201E+01  0.75610513803E+00  0.34281082103E+02  0.10566000000E+00 0. -1.
         23    2    1    0    0    0 -0.22420699521E+02 -0.98405880641E+01 -0.16675686826E+02  0.95375627069E+02  0.90658186432E+02 0.  0.
         13    1    3    3    0    0 -0.55670297535E+02 -0.18151662784E+02 -0.17431791964E+02  0.61094544966E+02  0.10566000000E+00 0.  1.
         22    1    1    0    0    0  0.22420699521E+02  0.98405880641E+01  0.16675686826E+02  0.29624372931E+02  0.00000000000E+00 0.  1.
</event>
<event>
 5    1  0.1325832E-009  0.9118800E+02  0.7818608E-02  0.1130116E+00
         25   -1    0    0    0    0  0.00000000000E+00  0.00000000000E+00  0.99999998245E-14  0.12500000000E+03  0.12500000000E+03 0.  0.
        -13    1    3    3    0    0  0.42166528592E+02 -0.15264212475E+00  0.40434436864E+02  0.58420837735E+02  0.10566000000E+00 0. -1.
         23    2    1    0    0    0  0.28365268051E+02  0.10004755542E+02  0.10080879364E+02  0.93277646780E+02  0.87717795772E+02 0.  0.
         13    1    3    3    0    0 -0.13801260541E+02  0.10157397666E+02 -0.30353557500E+02  0.34856809045E+02  0.10566000000E+00 0.  1.
         22    1    1    0    0    0 -0.28365268051E+02 -0.10004755542E+02 -0.10080879364E+02  0.31722353220E+02  0.00000000000E+00 0. -1.
</event>
<event>
 5    1  0.1325832E-009  0.9118800E+02  0.7818608E-02  0.1130116E+00
         25   -1    0    0    0    0  0.00000000000E+00  0.00000000000E+00  0.99999998245E-14  0.12500000000E+03  0.12500000000E+03 0.  0.
        -13    1    3    3    0    0 -0.13829158265E+02  0.16016228085E+01  0.59333774907E+02  0.60945211647E+02  0.10566000000E+00 0.  1.
         23    2    1    0    0    0  0.27029889775E+01  0.20389291937E+01  0.31477104416E+02  0.93341328454E+02  0.87808496818E+02 0.  0.
         13    1    3    3    0    0  0.16532147242E+02  0.43730638513E+00 -0.27856670491E+02  0.32396116807E+02  0.10566000000E+00 0. -1.
         22    1    1    0    0    0 -0.27029889775E+01 -0.20389291937E+01 -0.31477104416E+02  0.31658671546E+02  0.00000000000E+00 0.  1.
</event>
<event>
 5    1  0.1325832E-009  0.9118800E+02  0.7818608E-02  0.1130116E+00
         25   -1    0    0    0    0  0.00000000000E+00  0.00000000000E+00  0.99999998245E-14  0.12500000000E+03  0.12500000000E+03 0.  0.
        -13    1    3    3    0    0  0.23174800603E+02  0.57191718739E+01  0.34666196964E+02  0.42089626820E+02  0.10566000000E+00 0. -1.
         23    2    1    0    0    0 -0.86170668843E+01  0.27390111024E+02 -0.32437108733E+01  0.96103742737E+02  0.91656618332E+02 0.  0.
         13    1    3    3    0    0 -0.31791867487E+02  0.21670939150E+02 -0.37909907837E+02  0.54014115916E+02  0.10566000000E+00 0.  1.
         22    1    1    0    0    0  0.86170668843E+01 -0.27390111024E+02  0.32437108733E+01  0.28896257263E+02  0.00000000000E+00 0.  1.
</event>
<event>
 5    1  0.1325832E-009  0.9118800E+02  0.7818608E-02  0.1130116E+00
         25   -1    0    0    0    0  0.00000000000E+00  0.00000000000E+00  0.99999998245E-14  0.12500000000E+03  0.12500000000E+03 0.  0.
        -13    1    3    3    0    0 -0.25218729952E+02  0.48239246896E+02  0.13782453278E+02  0.56151370988E+02  0.10566000000E+00 0.  1.
         23    2    1    0    0    0 -0.22688983130E+02  0.17108543357E+02 -0.94231525646E+01  0.95061930330E+02  0.90224622929E+02 0.  0.
         13    1    3    3    0    0  0.25297468217E+01 -0.31130703538E+02 -0.23205605843E+02  0.38910559342E+02  0.10566000000E+00 0. -1.
         22    1    1    0    0    0  0.22688983130E+02 -0.17108543357E+02  0.94231525646E+01  0.29938069670E+02  0.00000000000E+00 0.  1.
</event>
<event>
 5    1  0.1325832E-009  0.9118800E+02  0.7818608E-02  0.1130116E+00
         25   -1    0    0    0    0  0.00000000000E+00  0.00000000000E+00  0.99999998245E-14  0.12500000000E+03  0.12500000000E+03 0.  0.
        -13    1    3    3    0    0 -0.21523844153E+02  0.41379966441E+00  0.45812164886E+02  0.50618304129E+02  0.10566000000E+00 0. -1.
         23    2    1    0    0    0 -0.28607292146E+02  0.33890668837E+01  0.90460354720E+00  0.96178458649E+02  0.91758458260E+02 0.  0.
         13    1    3    3    0    0 -0.70834479931E+01  0.29752672193E+01 -0.44907561339E+02  0.45560154520E+02  0.10566000000E+00 0.  1.
         22    1    1    0    0    0  0.28607292146E+02 -0.33890668837E+01 -0.90460354720E+00  0.28821541351E+02  0.00000000000E+00 0. -1.
</event>
<event>
 5    1  0.1325832E-009  0.9118800E+02  0.7818608E-02  0.1130116E+00
         25   -1    0    0    0    0  0.00000000000E+00  0.00000000000E+00  0.99999998245E-14  0.12500000000E+03  0.12500000000E+03 0.  0.
        -13    1    3    3    0    0 -0.54940446720E+02 -0.28327296541E+02 -0.48043823751E+01  0.61999852171E+02  0.10566000000E+00 0. -1.
         23    2    1    0    0    0 -0.23923430068E+02 -0.15369692988E+02 -0.70959115303E+01  0.95692834849E+02  0.91094504292E+02 0.  0.
         13    1    3    3    0    0  0.31017016652E+02  0.12957603553E+02 -0.22915291551E+01  0.33692982678E+02  0.10566000000E+00 0.  1.
         22    1    1    0    0    0  0.23923430068E+02  0.15369692988E+02  0.70959115303E+01  0.29307165151E+02  0.00000000000E+00 0. -1.
</event>
<event>
 5    1  0.1325832E-009  0.9118800E+02  0.7818608E-02  0.1130116E+00
         25   -1    0    0    0    0  0.00000000000E+00  0.00000000000E+00  0.99999998245E-14  0.12500000000E+03  0.12500000000E+03 0.  0.
        -13    1    3    3    0    0 -0.41600471502E+02  0.23953416061E+01  0.10807435382E+01  0.41683522659E+02  0.10566000000E+00 0.  1.
         23    2    1    0    0    0 -0.23073288568E+01 -0.17305041908E+02  0.27100616637E+02  0.92762883752E+02  0.86981152775E+02 0.  0.
         13    1    3    3    0    0  0.39293142646E+02 -0.19700383514E+02  0.26019873099E+02  0.51079361093E+02  0.10566000000E+00 0. -1.
         22    1    1    0    0    0  0.23073288568E+01  0.17305041908E+02 -0.27100616637E+02  0.32237116248E+02  0.00000000000E+00 0. -1.
</event>
<event>
 5    1  0.1325832E-009  0.9118800E+02  0.7818608E-02  0.1130116E+00
         25   -1    0    0    0    0  0.00000000000E+00  0.00000000000E+00  0.99999998245E-14  0.12500000000E+03  0.12500000000E+03 0.  0.
        -13    1    3    3    0    0 -0.27545385045E+02  0.50783061007E+02  0.88748747980E+01  0.58450338658E+02  0.10566000000E+00 0.  1.
         23    2    1    0    0    0  0.62774905120E+00  0.27155601403E+02  0.11901585994E+02  0.95344165741E+02  0.90614796999E+02 0.  0.
         13    1    3    3    0    0  0.28173134096E+02 -0.23627459603E+02  0.30267111959E+01  0.36893827083E+02  0.10566000000E+00 0. -1.
         22    1    1    0    0    0 -0.62774905120E+00 -0.27155601403E+02 -0.11901585994E+02  0.29655834259E+02  0.00000000000E+00 0.  1.
</event>
<event>
 5    1  0.1325832E-009  0.9118800E+02  0.7818608E-02  0.1130116E+00
         25   -1    0    0    0    0  0.00000000000E+00  0.00000000000E+00  0.99999998245E-14  0.12500000000E+03  0.12500000000E+03 0.  0.
        -13    1    3    3    0    0  0.51118772704E+01  0.49809432994E+02  0.84087759814E+01  0.50772330869E+02  0.10566000000E+00 0.  1.
         23    2    1    0    0    0 -0.78694508297E+01  0.12858590621E+02 -0.20573262618E+02  0.99494495812E+02  0.96169766315E+02 0.  0.
         13    1    3    3    0    0 -0.12981328100E+02 -0.36950842372E+02 -0.28982038600E+02  0.48722164943E+02  0.10566000000E+00 0. -1.
         22    1    1    0    0    0  0.78694508297E+01 -0.12858590621E+02  0.20573262618E+02  0.25505504188E+02  0.00000000000E+00 0. -1.
</event>
<event>
 5    1  0.1325832E-009  0.9118800E+02  0.7818608E-02  0.1130116E+00
         25   -1    0    0    0    0  0.00000000000E+00  0.00000000000E+00  0.99999998245E-14  0.12500000000E+03  0.12500000000E+03 0.  0.
        -13    1    3    3    0    0 -0.29698220153E+02 -0.10231123138E+02 -0.18945672395E+02  0.36682554811E+02  0.10566000000E+00 0.  1.
         23    2    1    0    0    0 -0.19125506962E+00  0.12725935867E+02  0.26543147082E+02  0.95563208748E+02  0.90916457184E+02 0.  0.
         13    1    3    3    0    0  0.29506965083E+02  0.22957059005E+02  0.45488819477E+02  0.58880653937E+02  0.10566000000E+00 0. -1.
         22    1    1    0    0    0  0.19125506962E+00 -0.12725935867E+02 -0.26543147082E+02  0.29436791252E+02  0.00000000000E+00 0. -1.
</event>
<event>
 5    1  0.1325832E-009  0.9118800E+02  0.7818608E-02  0.1130116E+00
         25   -1    0    0    0    0  0.00000000000E+00  0.00000000000E+00  0.99999998245E-14  0.12500000000E+03  0.12500000000E+03 0.  0.
        -13    1    3    3    0    0  0.13357703966E+02  0.28972065296E+02 -0.32062532365E+01  0.32063999229E+02  0.10566000000E+00 0. -1.
         23    2    1    0    0    0 -0.24340433399E+02 -0.19319701226E+02  0.36511688062E+01  0.93710407686E+02  0.88332337915E+02 0.  0.
         13    1    3    3    0    0 -0.37698137365E+02 -0.48291766521E+02  0.68574220427E+01  0.61646408457E+02  0.10566000000E+00 0.  1.
         22    1    1    0    0    0  0.24340433399E+02  0.19319701226E+02 -0.36511688062E+01  0.31289592314E+02  0.00000000000E+00 0.  1.
</event>
<event>
 5    1  0.1325832E-009  0.9118800E+02  0.7818608E-02  0.1130116E+00
         25   -1    0    0    0    0  0.00000000000E+00  0.00000000000E+00  0.99999998245E-14  0.12500000000E+03  0.12500000000E+03 0.  0.
        -13    1    3    3    0    0  0.75298676265E+01  0.32868590180E+02 -0.47995029942E+02  0.58656433493E+02  0.10566000000E+00 0.  1.
         23    2    1    0    0    0  0.53644123142E+01  0.60701334159E+01 -0.36005214974E+02  0.88094730126E+02  0.79991765398E+02 0.  0.
         13    1    3    3    0    0 -0.21654553124E+01 -0.26798456764E+02  0.11989814968E+02  0.29438296633E+02  0.10566000000E+00 0. -1.
         22    1    1    0    0    0 -0.53644123142E+01 -0.60701334159E+01  0.36005214974E+02  0.36905269874E+02  0.00000000000E+00 0.  1.
</event>
<event>
 5    1  0.1325832E-009  0.9118800E+02  0.7818608E-02  0.1130116E+00
         25   -1    0    0    0    0  0.00000000000E+00  0.00000000000E+00  0.99999998245E-14  0.12500000000E+03  0.12500000000E+03 0.  0.
        -13    1    3    3    0    0  0.52000721550E+02  0.66933006346E+00 -0.24424900464E+01  0.52062462160E+02  0.10566000000E+00 0.  1.
         23    2    1    0    0    0  0.15648089913E+02 -0.22046683875E+02  0.91314430133E+01  0.96464018515E+02  0.92146647408E+02 0.  0.
         13    1    3    3    0    0 -0.36352631637E+02 -0.22716013939E+02  0.11573933060E+02  0.44401556355E+02  0.10566000000E+00 0. -1.
         22    1    1    0    0    0 -0.15648089913E+02  0.22046683875E+02 -0.91314430133E+01  0.28535981485E+02  0.00000000000E+00 0. -1.
</event>
<event>
 5    1  0.1325832E-009  0.9118800E+02  0.7818608E-02  0.1130116E+00
         25   -1    0    0    0    0  0.00000000000E+00  0.00000000000E+00  0.99999998245E-14  0.12500000000E+03  0.12500000000E+03 0.  0.
        -13    1    3    3    0    0 -0.22515813710E+02  0.48131377332E+02  0.55931711545E+01  0.53431133981E+02  0.10566000000E+00 0. -1.
         23    2    1    0    0    0 -0.29101356678E+02  0.11465156416E+02 -0.73517358240E+01  0.92869223604E+02  0.87133839012E+02 0.  0.
         13    1    3    3    0    0 -0.65855429683E+01 -0.36666220915E+02 -0.12944906979E+02  0.39438089623E+02  0.10566000000E+00 0.  1.
         22    1    1    0    0    0  0.29101356678E+02 -0.11465156416E+02  0.73517358240E+01  0.32130776396E+02  0.00000000000E+00 0.  1.
</event>
<event>
 5    1  0.1325832E-009  0.9118800E+02  0.7818608E-02  0.1130116E+00
         25   -1    0    0    0    0  0.00000000000E+00  0.00000000000E+00  0.99999998245E-14  0.12500000000E+03  0.12500000000E+03 0.  0.
        -13    1    3    3    0    0  0.30116175846E+02 -0.22078171668E+02 -0.15866933504E+02  0.40573395898E+02  0.10566000000E+00 0.  1.
         23    2    1    0    0    0 -0.17582191741E+02  0.62432627844E+01 -0.21734287638E+02  0.96355784951E+02  0.91999707814E+02 0.  0.
         13    1    3    3    0    0 -0.47698367587E+02  0.28321434453E+02 -0.58673541337E+01  0.55782389054E+02  0.10566000000E+00 0. -1.
         22    1    1    0    0    0  0.17582191741E+02 -0.62432627844E+01  0.21734287638E+02  0.28644215049E+02  0.00000000000E+00 0. -1.
</event>
<event>
 5    1  0.1325832E-009  0.9118800E+02  0.7818608E-02  0.1130116E+00
         25   -1    0    0    0    0  0.00000000000E+00  0.00000000000E+00  0.99999998245E-14  0.12500000000E+03  0.12500000000E+03 0.  0.
        -13    1    3    3    0    0 -0.84146118007E+01 -0.38349240156E+02  0.25369476477E+02  0.46744961365E+02  0.10566000000E+00 0.  1.
         23    2    1    0    0    0  0.34653041918E+01  0.77639125849E+01  0.29266894094E+02  0.94523160241E+02  0.89475080667E+02 0.  0.
         13    1    3    3    0    0  0.11879915993E+02  0.46113152741E+02  0.38974176169E+01  0.47778198876E+02  0.10566000000E+00 0. -1.
         22    1    1    0    0    0 -0.34653041918E+01 -0.77639125849E+01 -0.29266894094E+02  0.30476839759E+02  0.00000000000E+00 0.  1.
</event>
<event>
 5    1  0.1325832E-009  0.9118800E+02  0.7818608E-02  0.1130116E+00
         25   -1    0    0    0    0  0.00000000000E+00  0.00000000000E+00  0.99999998245E-14  0.12500000000E+03  0.12500000000E+03 0.  0.
        -13    1    3    3    0    0  0.55614381461E+02 -0.32870739458E+01  0.12909861460E+02  0.57187760643E+02  0.10566000000E+00 0.  1.
         23    2    1    0    0    0  0.25694768415E+02  0.15007889916E+02 -0.17353646274E+01  0.95192796609E+02  0.90405747341E+02 0.  0.
         13    1    3    3    0    0 -0.29919613046E+02  0.18294963862E+02 -0.14645226088E+02  0.38005035966E+02  0.10566000000E+00 0. -1.
         22    1    1    0    0    0 -0.25694768415E+02 -0.15007889916E+02  0.17353646274E+01  0.29807203391E+02  0.00000000000E+00 0.  1.
</event>
<event>
 5    1  0.1325832E-009  0.9118800E+02  0.7818608E-02  0.1130116E+00
         25   -1    0    0    0    0  0.00000000000E+00  0.00000000000E+00  0.99999998245E-14  0.12500000000E+03  0.12500000000E+03 0.  0.
        -13    1    3    3    0    0 -0.35154843036E+01  0.23558133037E+02 -0.42339825088E+02  0.48579998091E+02  0.10566000000E+00 0. -1.
         23    2    1    0    0    0  0.13643894297E+02  0.25913033737E+02  0.14579110004E+01  0.95678221856E+02  0.91074450116E+02 0.  0.
         13    1    3    3    0    0  0.17159378601E+02  0.23549007005E+01  0.43797736088E+02  0.47098223764E+02  0.10566000000E+00 0.  1.
         22    1    1    0    0    0 -0.13643894297E+02 -0.25913033737E+02 -0.14579110004E+01  0.29321778144E+02  0.00000000000E+00 0.  1.
</event>
<event>
 5    1  0.1325832E-009  0.9118800E+02  0.7818608E-02  0.1130116E+00
         25   -1    0    0    0    0  0.00000000000E+00  0.00000000000E+00  0.99999998245E-14  0.12500000000E+03  0.12500000000E+03 0.  0.
        -13    1    3    3    0    0 -0.71300821439E+01 -0.25685756763E+02  0.26145614952E+02  0.37338994592E+02  0.10566000000E+00 0.  1.
         23    2    1    0    0    0 -0.14937739333E+02  0.18064271802E+01 -0.24938306731E+02  0.95874094381E+02  0.91342890228E+02 0.  0.
         13    1    3    3    0    0 -0.78076571893E+01  0.27492183943E+02 -0.51083921683E+02  0.58535099789E+02  0.10566000000E+00 0. -1.
         22    1    1    0    0    0  0.14937739333E+02 -0.18064271802E+01  0.24938306731E+02  0.29125905619E+02  0.00000000000E+00 0. -1.
</event>
<event>
 5    1  0.1325832E-009  0.9118800E+02  0.7818608E-02  0.1130116E+00
         25   -1    0    0    0    0  0.00000000000E+00  0.00000000000E+00  0.99999998245E-14  0.12500000000E+03  0.12500000000E+03 0.  0.
        -13    1    3    3    0    0 -0.12185882638E+02  0.51888764664E+02  0.91999760065E+01  0.54088726706E+02  0.10566000000E+00 0.  1.
         23    2    1    0    0    0  0.15645409616E+02  0.25074246336E+02 -0.45247717407E+01  0.95100665046E+02  0.90278271259E+02 0.  0.
         13    1    3    3    0    0  0.27831292254E+02 -0.26814518328E+02 -0.13724747747E+02  0.41011938341E+02  0.10566000000E+00 0. -1.
         22    1    1    0    0    0 -0.15645409616E+02 -0.25074246336E+02  0.45247717407E+01  0.29899334954E+02  0.00000000000E+00 0. -1.
</event>
<event>
 5    1  0.1325832E-009  0.9118800E+02  0.7818608E-02  0.1130116E+00
         25   -1    0    0    0    0  0.00000000000E+00  0.00000000000E+00  0.99999998245E-14  0.12500000000E+03  0.12500000000E+03 0.  0.
        -13    1    3    3    0    0 -0.11026137457E+02  0.43947441532E+02  0.35887005774E+02  0.57800014463E+02  0.10566000000E+00 0. -1.
         23    2    1    0    0    0 -0.16779981251E+02  0.91226847839E+01  0.22342314362E+02  0.95606630688E+02  0.90976137926E+02 0.  0.
         13    1    3    3    0    0 -0.57538437936E+01 -0.34824756748E+02 -0.13544691412E+02  0.37806616225E+02  0.10566000000E+00 0.  1.
         22    1    1    0    0    0  0.16779981251E+02 -0.91226847839E+01 -0.22342314362E+02  0.29393369312E+02  0.00000000000E+00 0. -1.
</event>
<event>
 5    1  0.1325832E-009  0.9118800E+02  0.7818608E-02  0.1130116E+00
         25   -1    0    0    0    0  0.00000000000E+00  0.00000000000E+00  0.99999998245E-14  0.12500000000E+03  0.12500000000E+03 0.  0.
        -13    1    3    3    0    0 -0.28374639079E+02 -0.47333260546E+01  0.22921782182E+02  0.36782384111E+02  0.10566000000E+00 0. -1.
         23    2    1    0    0    0  0.31051044069E+01 -0.13808123932E+02 -0.25845829776E+02  0.95532850889E+02  0.90874708925E+02 0.  0.
         13    1    3    3    0    0  0.31479743486E+02 -0.90747978778E+01 -0.48767611959E+02  0.58750466778E+02  0.10566000000E+00 0.  1.
         22    1    1    0    0    0 -0.31051044069E+01  0.13808123932E+02  0.25845829776E+02  0.29467149111E+02  0.00000000000E+00 0.  1.
</event>
<event>
 5    1  0.1325832E-009  0.9118800E+02  0.7818608E-02  0.1130116E+00
         25   -1    0    0    0    0  0.00000000000E+00  0.00000000000E+00  0.99999998245E-14  0.12500000000E+03  0.12500000000E+03 0.  0.
        -13    1    3    3    0    0 -0.36417965736E+02  0.13162607997E+02 -0.37109164752E+02  0.53634165886E+02  0.10566000000E+00 0. -1.
         23    2    1    0    0    0 -0.19776538976E+02 -0.17221990539E+02 -0.17928670843E+02  0.93232946466E+02  0.87654073588E+02 0.  0.
         13    1    3    3    0    0  0.16641426760E+02 -0.30384598536E+02  0.19180493909E+02  0.39598780580E+02  0.10566000000E+00 0.  1.
         22    1    1    0    0    0  0.19776538976E+02  0.17221990539E+02  0.17928670843E+02  0.31767053534E+02  0.00000000000E+00 0. -1.
</event>
<event>
 5    1  0.1325832E-009  0.9118800E+02  0.7818608E-02  0.1130116E+00
         25   -1    0    0    0    0  0.00000000000E+00  0.00000000000E+00  0.99999998245E-14  0.12500000000E+03  0.12500000000E+03 0.  0.
        -13    1    3    3    0    0 -0.18009745820E+02  0.37517094171E+02  0.22898324725E+02  0.47499765671E+02  0.10566000000E+00 0.  1.
         23    2    1    0    0    0 -0.76423083700E+01  0.26483163251E+02 -0.18649152107E+02  0.91720070803E+02  0.85469396282E+02 0.  0.
         13    1    3    3    0    0  0.10367437450E+02 -0.11033930919E+02 -0.41547476832E+02  0.44220305132E+02  0.10566000000E+00 0. -1.
         22    1    1    0    0    0  0.76423083700E+01 -0.26483163251E+02  0.18649152107E+02  0.33279929197E+02  0.00000000000E+00 0.  1.
</event>
<event>
 5    1  0.1325832E-009  0.9118800E+02  0.7818608E-02  0.1130116E+00
         25   -1    0    0    0    0  0.00000000000E+00  0.00000000000E+00  0.99999998245E-14  0.12500000000E+03  0.12500000000E+03 0.  0.
        -13    1    3    3    0    0  0.54516821048E+01 -0.38635575669E+02 -0.11798814257E+02  0.40763362557E+02  0.10566000000E+00 0.  1.
         23    2    1    0    0    0  0.24735043660E+02 -0.55437767955E+01  0.21688637614E+02  0.91639052059E+02  0.85350823164E+02 0.  0.
         13    1    3    3    0    0  0.19283361555E+02  0.33091798873E+02  0.33487451870E+02  0.50875689502E+02  0.10566000000E+00 0. -1.
         22    1    1    0    0    0 -0.24735043660E+02  0.55437767955E+01 -0.21688637614E+02  0.33360947941E+02  0.00000000000E+00 0. -1.
</event>
<event>
 5    1  0.1325832E-009  0.9118800E+02  0.7818608E-02  0.1130116E+00
         25   -1    0    0    0    0  0.00000000000E+00  0.00000000000E+00  0.99999998245E-14  0.12500000000E+03  0.12500000000E+03 0.  0.
        -13    1    3    3    0    0 -0.12424196586E+02 -0.43818939393E+01  0.55771671535E+02  0.57306650269E+02  0.10566000000E+00 0. -1.
         23    2    1    0    0    0 -0.13304058441E+02 -0.15905514475E+02  0.15758590849E+02  0.98955489114E+02  0.95466602948E+02 0.  0.
         13    1    3    3    0    0 -0.87986185507E+00 -0.11523620536E+02 -0.40013080685E+02  0.41648838845E+02  0.10566000000E+00 0.  1.
         22    1    1    0    0    0  0.13304058441E+02  0.15905514475E+02 -0.15758590849E+02  0.26044510886E+02  0.00000000000E+00 0. -1.
</event>
<event>
 5    1  0.1325832E-009  0.9118800E+02  0.7818608E-02  0.1130116E+00
         25   -1    0    0    0    0  0.00000000000E+00  0.00000000000E+00  0.99999998245E-14  0.12500000000E+03  0.12500000000E+03 0.  0.
        -13    1    3    3    0    0  0.49981861385E+02  0.33182326142E+01  0.12249463199E+02  0.51567990535E+02  0.10566000000E+00 0. -1.
         23    2    1    0    0    0  0.12747951122E+02  0.35281709507E+01  0.29549311918E+02  0.92625317254E+02  0.86783231753E+02 0.  0.
         13    1    3    3    0    0 -0.37233910263E+02  0.20993833657E+00  0.17299848719E+02  0.41057326719E+02  0.10566000000E+00 0.  1.
         22    1    1    0    0    0 -0.12747951122E+02 -0.35281709507E+01 -0.29549311918E+02  0.32374682746E+02  0.00000000000E+00 0. -1.
</event>
<event>
 5    1  0.1325832E-009  0.9118800E+02  0.7818608E-02  0.1130116E+00
         25   -1    0    0    0    0  0.00000000000E+00  0.00000000000E+00  0.99999998245E-14  0.12500000000E+03  0.12500000000E+03 0.  0.
        -13    1    3    3    0    0 -0.24148390146E+02  0.22327093375E+02 -0.97980820654E+01  0.34317013585E+02  0.10566000000E+00 0. -1.
         23    2    1    0    0    0  0.15888376964E+02 -0.18765003328E+02 -0.20872076624E+02  0.92747721707E+02  0.86959360778E+02 0.  0.
         13    1    3    3    0    0  0.40036767110E+02 -0.41092096703E+02 -0.11073994559E+02  0.58430708122E+02  0.10566000000E+00 0.  1.
         22    1    1    0    0    0 -0.15888376964E+02  0.18765003328E+02  0.20872076624E+02  0.32252278293E+02  0.00000000000E+00 0.  1.
</event>
<event>
 5    1  0.1325832E-009  0.9118800E+02  0.7818608E-02  0.1130116E+00
         25   -1    0    0    0    0  0.00000000000E+00  0.00000000000E+00  0.99999998245E-14  0.12500000000E+03  0.12500000000E+03 0.  0.
        -13    1    3    3    0    0  0.22908271202E+02 -0.24671527895E+02  0.40205350324E+02  0.52440008932E+02  0.10566000000E+00 0.  1.
         23    2    1    0    0    0  0.16374051841E+02  0.12669506913E+02  0.22951785145E+02  0.94090285986E+02  0.88868281723E+02 0.  0.
         13    1    3    3    0    0 -0.65342193605E+01  0.37341034808E+02 -0.17253565179E+02  0.41650277053E+02  0.10566000000E+00 0. -1.
         22    1    1    0    0    0 -0.16374051841E+02 -0.12669506913E+02 -0.22951785145E+02  0.30909714014E+02  0.00000000000E+00 0.  1.
</event>
<event>
 5    1  0.1325832E-009  0.9118800E+02  0.7818608E-02  0.1130116E+00
         25   -1    0    0    0    0  0.00000000000E+00  0.00000000000E+00  0.99999998245E-14  0.12500000000E+03  0.12500000000E+03 0.  0.
        -13    1    3    3    0    0 -0.38834868256E+02 -0.12003852642E+01 -0.47555258376E+02  0.61409296369E+02  0.10566000000E+00 0.  1.
         23    2    1    0    0    0 -0.19095346569E+02 -0.84305410765E+01 -0.19780071648E+02  0.96243130945E+02  0.91846517279E+02 0.  0.
         13    1    3    3    0    0  0.19739521688E+02 -0.72301558123E+01  0.27775186728E+02  0.34833834577E+02  0.10566000000E+00 0. -1.
         22    1    1    0    0    0  0.19095346569E+02  0.84305410765E+01  0.19780071648E+02  0.28756869055E+02  0.00000000000E+00 0.  1.
</event>
<event>
 5    1  0.1325832E-009  0.9118800E+02  0.7818608E-02  0.1130116E+00
         25   -1    0    0    0    0  0.00000000000E+00  0.00000000000E+00  0.99999998245E-14  0.12500000000E+03  0.12500000000E+03 0.  0.
        -13    1    3    3    0    0 -0.85023737771E+01  0.37250944128E+02 -0.33199251752E+02  0.50617434538E+02  0.10566000000E+00 0.  1.
         23    2    1    0    0    0 -0.47765476344E+01  0.58895724303E+00 -0.37022309214E+02  0.87666186138E+02  0.79319269629E+02 0.  0.
         13    1    3    3    0    0  0.37258261427E+01 -0.36661986884E+02 -0.38230574619E+01  0.37048751601E+02  0.10566000000E+00 0. -1.
         22    1    1    0    0    0  0.47765476344E+01 -0.58895724303E+00  0.37022309214E+02  0.37333813862E+02  0.00000000000E+00 0.  1.
</event>
<event>
 5    1  0.1325832E-009  0.9118800E+02  0.7818608E-02  0.1130116E+00
         25   -1    0    0    0    0  0.00000000000E+00  0.00000000000E+00  0.99999998245E-14  0.12500000000E+03  0.12500000000E+03 0.  0.
        -13    1    3    3    0    0 -0.32636043203E+02  0.29733684400E+02 -0.48766115727E+01  0.44418417447E+02  0.10566000000E+00 0. -1.
         23    2    1    0    0    0 -0.10476011348E+02 -0.54626154710E+01  0.26148068256E+02  0.96306647894E+02  0.91932921054E+02 0.  0.
         13    1    3    3    0    0  0.22160031855E+02 -0.35196299871E+02  0.31024679829E+02  0.51888230447E+02  0.10566000000E+00 0.  1.
         22    1    1    0    0    0  0.10476011348E+02  0.54626154710E+01 -0.26148068256E+02  0.28693352106E+02  0.00000000000E+00 0. -1.
</event>
<event>
 5    1  0.1325832E-009  0.9118800E+02  0.7818608E-02  0.1130116E+00
         25   -1    0    0    0    0  0.00000000000E+00  0.00000000000E+00  0.99999998245E-14  0.12500000000E+03  0.12500000000E+03 0.  0.
        -13    1    3    3    0    0 -0.12341601371E+02 -0.86813315805E+00  0.50741896917E+02  0.52228536705E+02  0.10566000000E+00 0. -1.
         23    2    1    0    0    0 -0.10050089398E+00  0.23558403485E+02  0.15589868783E+02  0.96750177278E+02  0.92534017093E+02 0.  0.
         13    1    3    3    0    0  0.12241100477E+02  0.24426536643E+02 -0.35152028135E+02  0.44521640572E+02  0.10566000000E+00 0.  1.
         22    1    1    0    0    0  0.10050089398E+00 -0.23558403485E+02 -0.15589868783E+02  0.28249822722E+02  0.00000000000E+00 0.  1.
</event>
<event>
 5    1  0.1325832E-009  0.9118800E+02  0.7818608E-02  0.1130116E+00
         25   -1    0    0    0    0  0.00000000000E+00  0.00000000000E+00  0.99999998245E-14  0.12500000000E+03  0.12500000000E+03 0.  0.
        -13    1    3    3    0    0  0.73632250734E+01 -0.30695300274E+02 -0.43252023733E+02  0.53545936012E+02  0.10566000000E+00 0.  1.
         23    2    1    0    0    0  0.25959978099E+02 -0.14955123561E+02 -0.13125598405E+02  0.92291323519E+02  0.86300816218E+02 0.  0.
         13    1    3    3    0    0  0.18596753026E+02  0.15740176713E+02  0.30126425328E+02  0.38745387508E+02  0.10566000000E+00 0. -1.
         22    1    1    0    0    0 -0.25959978099E+02  0.14955123561E+02  0.13125598405E+02  0.32708676481E+02  0.00000000000E+00 0. -1.
</event>
<event>
 5    1  0.1325832E-009  0.9118800E+02  0.7818608E-02  0.1130116E+00
         25   -1    0    0    0    0  0.00000000000E+00  0.00000000000E+00  0.99999998245E-14  0.12500000000E+03  0.12500000000E+03 0.  0.
        -13    1    3    3    0    0  0.32313096101E+02 -0.33524198573E+01  0.20033155780E+02  0.38166914901E+02  0.10566000000E+00 0.  1.
         23    2    1    0    0    0  0.12108500368E+00  0.28714563993E+02 -0.12121525152E+02  0.93831550907E+02  0.88503602902E+02 0.  0.
         13    1    3    3    0    0 -0.32192011097E+02  0.32066983850E+02 -0.32154680932E+02  0.55664636005E+02  0.10566000000E+00 0. -1.
         22    1    1    0    0    0 -0.12108500368E+00 -0.28714563993E+02  0.12121525152E+02  0.31168449093E+02  0.00000000000E+00 0. -1.
</event>
<event>
 5    1  0.1325832E-009  0.9118800E+02  0.7818608E-02  0.1130116E+00
         25   -1    0    0    0    0  0.00000000000E+00  0.00000000000E+00  0.99999998245E-14  0.12500000000E+03  0.12500000000E+03 0.  0.
        -13    1    3    3    0    0 -0.37971619380E+02  0.41027704470E+02  0.22079308010E+02  0.60105103100E+02  0.10566000000E+00 0. -1.
         23    2    1    0    0    0 -0.25333472251E+02  0.97710017747E+01  0.12158241750E+02  0.95249703625E+02  0.90484395926E+02 0.  0.
         13    1    3    3    0    0  0.12638147129E+02 -0.31256702696E+02 -0.99210662597E+01  0.35144600525E+02  0.10566000000E+00 0.  1.
         22    1    1    0    0    0  0.25333472251E+02 -0.97710017747E+01 -0.12158241750E+02  0.29750296375E+02  0.00000000000E+00 0. -1.
</event>
<event>
 5    1  0.1325832E-009  0.9118800E+02  0.7818608E-02  0.1130116E+00
         25   -1    0    0    0    0  0.00000000000E+00  0.00000000000E+00  0.99999998245E-14  0.12500000000E+03  0.12500000000E+03 0.  0.
        -13    1    3    3    0    0  0.98290979664E+01  0.12422600323E+02  0.57979865208E+02  0.60104975661E+02  0.10566000000E+00 0.  1.
         23    2    1    0    0    0 -0.72548183508E+01  0.92775656369E+01  0.23684373382E+02  0.98549004632E+02  0.94932877119E+02 0.  0.
         13    1    3    3    0    0 -0.17083916317E+02 -0.31450346864E+01 -0.34295491826E+02  0.38444028971E+02  0.10566000000E+00 0. -1.
         22    1    1    0    0    0  0.72548183508E+01 -0.92775656369E+01 -0.23684373382E+02  0.26450995368E+02  0.00000000000E+00 0.  1.
</event>
<event>
 5    1  0.1325832E-009  0.9118800E+02  0.7818608E-02  0.1130116E+00
         25   -1    0    0    0    0  0.00000000000E+00  0.00000000000E+00  0.99999998245E-14  0.12500000000E+03  0.12500000000E+03 0.  0.
        -13    1    3    3    0    0  0.19814166299E+02  0.58522672705E+01  0.54428757929E+02  0.58218133533E+02  0.10566000000E+00 0. -1.
         23    2    1    0    0    0 -0.60093293415E+01 -0.27237250288E+01  0.28295150809E+02  0.95945804495E+02  0.91440970706E+02 0.  0.
         13    1    3    3    0    0 -0.25823495641E+02 -0.85759922993E+01 -0.26133607120E+02  0.37727670962E+02  0.10566000000E+00 0.  1.
         22    1    1    0    0    0  0.60093293415E+01  0.27237250288E+01 -0.28295150809E+02  0.29054195505E+02  0.00000000000E+00 0. -1.
</event>
<event>
 5    1  0.1325832E-009  0.9118800E+02  0.7818608E-02  0.1130116E+00
         25   -1    0    0    0    0  0.00000000000E+00  0.00000000000E+00  0.99999998245E-14  0.12500000000E+03  0.12500000000E+03 0.  0.
        -13    1    3    3    0    0 -0.21154802793E+01 -0.36803511173E+02  0.29911513275E+02  0.47472976333E+02  0.10566000000E+00 0. -1.
         23    2    1    0    0    0  0.25802655820E+01 -0.22088456114E+02 -0.17093573026E+02  0.96950973229E+02  0.92804866830E+02 0.  0.
         13    1    3    3    0    0  0.46957458613E+01  0.14715055059E+02 -0.47005086302E+02  0.49477996896E+02  0.10566000000E+00 0.  1.
         22    1    1    0    0    0 -0.25802655820E+01  0.22088456114E+02  0.17093573026E+02  0.28049026771E+02  0.00000000000E+00 0. -1.
</event>
<event>
 5    1  0.1325832E-009  0.9118800E+02  0.7818608E-02  0.1130116E+00
         25   -1    0    0    0    0  0.00000000000E+00  0.00000000000E+00  0.99999998245E-14  0.12500000000E+03  0.12500000000E+03 0.  0.
        -13    1    3    3    0    0 -0.56474070688E+02 -0.10956371669E+02 -0.17048894322E+02  0.60000322515E+02  0.10566000000E+00 0. -1.
         23    2    1    0    0    0 -0.19610496058E+02 -0.10385848812E+02 -0.17288783780E+02  0.96869243598E+02  0.92694718833E+02 0.  0.
         13    1    3    3    0    0  0.36863574630E+02  0.57052285738E+00 -0.23988945813E+00  0.36868921083E+02  0.10566000000E+00 0.  1.
         22    1    1    0    0    0  0.19610496058E+02  0.10385848812E+02  0.17288783780E+02  0.28130756402E+02  0.00000000000E+00 0. -1.
</event>
<event>
 5    1  0.1325832E-009  0.9118800E+02  0.7818608E-02  0.1130116E+00
         25   -1    0    0    0    0  0.00000000000E+00  0.00000000000E+00  0.99999998245E-14  0.12500000000E+03  0.12500000000E+03 0.  0.
        -13    1    3    3    0    0 -0.43249255623E+02 -0.16173147858E+02 -0.30671212886E+02  0.55432871904E+02  0.10566000000E+00 0. -1.
         23    2    1    0    0    0 -0.20596059350E+02  0.13801602621E+02 -0.13879796838E+02  0.96586435354E+02  0.92312560567E+02 0.  0.
         13    1    3    3    0    0  0.22653196273E+02  0.29974750479E+02  0.16791416048E+02  0.41153563450E+02  0.10566000000E+00 0.  1.
         22    1    1    0    0    0  0.20596059350E+02 -0.13801602621E+02  0.13879796838E+02  0.28413564646E+02  0.00000000000E+00 0. -1.
</event>
<event>
 5    1  0.1325832E-009  0.9118800E+02  0.7818608E-02  0.1130116E+00
         25   -1    0    0    0    0  0.00000000000E+00  0.00000000000E+00  0.99999998245E-14  0.12500000000E+03  0.12500000000E+03 0.  0.
        -13    1    3    3    0    0  0.24227258346E+02 -0.33183076025E+02 -0.24682486820E+02  0.47930292103E+02  0.10566000000E+00 0. -1.
         23    2    1    0    0    0  0.16027642690E+02  0.12824351747E+02 -0.22252387256E+02  0.94725950609E+02  0.89757939216E+02 0.  0.
         13    1    3    3    0    0 -0.81996156557E+01  0.46007427772E+02  0.24300995638E+01  0.46795658506E+02  0.10566000000E+00 0.  1.
         22    1    1    0    0    0 -0.16027642690E+02 -0.12824351747E+02  0.22252387256E+02  0.30274049391E+02  0.00000000000E+00 0. -1.
</event>
<event>
 5    1  0.1325832E-009  0.9118800E+02  0.7818608E-02  0.1130116E+00
         25   -1    0    0    0    0  0.00000000000E+00  0.00000000000E+00  0.99999998245E-14  0.12500000000E+03  0.12500000000E+03 0.  0.
        -13    1    3    3    0    0 -0.59250302081E+02 -0.51096166752E+01 -0.35080216548E+01  0.59573684284E+02  0.10566000000E+00 0.  1.
         23    2    1    0    0    0 -0.16472660602E+02  0.10780755285E+02 -0.16218842086E+01  0.10524642462E+03  0.10337604246E+03 0.  0.
         13    1    3    3    0    0  0.42777641478E+02  0.15890371960E+02  0.18861374463E+01  0.45672740338E+02  0.10566000000E+00 0. -1.
         22    1    1    0    0    0  0.16472660602E+02 -0.10780755285E+02  0.16218842086E+01  0.19753575378E+02  0.00000000000E+00 0.  1.
</event>
<event>
 5    1  0.1325832E-009  0.9118800E+02  0.7818608E-02  0.1130116E+00
         25   -1    0    0    0    0  0.00000000000E+00  0.00000000000E+00  0.99999998245E-14  0.12500000000E+03  0.12500000000E+03 0.  0.
        -13    1    3    3    0    0 -0.30212533875E+02 -0.22561721637E+02 -0.17739644207E+02  0.41671748548E+02  0.10566000000E+00 0.  1.
         23    2    1    0    0    0  0.22288749060E+02 -0.35898692435E+01 -0.15640857466E+02  0.97535260458E+02  0.93588541577E+02 0.  0.
         13    1    3    3    0    0  0.52501282935E+02  0.18971852394E+02  0.20987867414E+01  0.55863511910E+02  0.10566000000E+00 0. -1.
         22    1    1    0    0    0 -0.22288749060E+02  0.35898692435E+01  0.15640857466E+02  0.27464739542E+02  0.00000000000E+00 0. -1.
</event>
<event>
 5    1  0.1325832E-009  0.9118800E+02  0.7818608E-02  0.1130116E+00
         25   -1    0    0    0    0  0.00000000000E+00  0.00000000000E+00  0.99999998245E-14  0.12500000000E+03  0.12500000000E+03 0.  0.
        -13    1    3    3    0    0 -0.11836550359E+02 -0.97784179772E+01 -0.63460276696E+01  0.16613386583E+02  0.10566000000E+00 0.  1.
         23    2    1    0    0    0  0.23381702163E+02  0.40523780092E+02 -0.34595554543E+01  0.78086789996E+02  0.62423533214E+02 0.  0.
         13    1    3    3    0    0  0.35218252522E+02  0.50302198069E+02  0.28864722153E+01  0.61473403413E+02  0.10566000000E+00 0. -1.
         22    1    1    0    0    0 -0.23381702163E+02 -0.40523780092E+02  0.34595554543E+01  0.46913210004E+02  0.00000000000E+00 0. -1.
</event>
<event>
 5    1  0.1325832E-009  0.9118800E+02  0.7818608E-02  0.1130116E+00
         25   -1    0    0    0    0  0.00000000000E+00  0.00000000000E+00  0.99999998245E-14  0.12500000000E+03  0.12500000000E+03 0.  0.
        -13    1    3    3    0    0  0.47136861868E+02 -0.29806423671E+02  0.26899176275E+02  0.61918361470E+02  0.10566000000E+00 0. -1.
         23    2    1    0    0    0  0.27290276168E+02 -0.12944861782E+02  0.91295726738E+01  0.93445638700E+02  0.87956862580E+02 0.  0.
         13    1    3    3    0    0 -0.19846585700E+02  0.16861561889E+02 -0.17769603602E+02  0.31527277229E+02  0.10566000000E+00 0.  1.
         22    1    1    0    0    0 -0.27290276168E+02  0.12944861782E+02 -0.91295726738E+01  0.31554361300E+02  0.00000000000E+00 0. -1.
</event>
<event>
 5    1  0.1325832E-009  0.9118800E+02  0.7818608E-02  0.1130116E+00
         25   -1    0    0    0    0  0.00000000000E+00  0.00000000000E+00  0.99999998245E-14  0.12500000000E+03  0.12500000000E+03 0.  0.
        -13    1    3    3    0    0 -0.12606796025E+02 -0.23864155202E+02 -0.37443021428E+02  0.46156475463E+02  0.10566000000E+00 0.  1.
         23    2    1    0    0    0 -0.20938131448E+02  0.68828910484E+01  0.79132727001E+01  0.10158207049E+03  0.98845928710E+02 0.  0.
         13    1    3    3    0    0 -0.83313354225E+01  0.30747046250E+02  0.45356294128E+02  0.55425595027E+02  0.10566000000E+00 0. -1.
         22    1    1    0    0    0  0.20938131448E+02 -0.68828910484E+01 -0.79132727001E+01  0.23417929510E+02  0.00000000000E+00 0.  1.
</event>
<event>
 5    1  0.1325832E-009  0.9118800E+02  0.7818608E-02  0.1130116E+00
         25   -1    0    0    0    0  0.00000000000E+00  0.00000000000E+00  0.99999998245E-14  0.12500000000E+03  0.12500000000E+03 0.  0.
        -13    1    3    3    0    0 -0.33569118899E+02  0.25341168577E+02  0.14047198551E+02  0.44344058448E+02  0.10566000000E+00 0.  1.
         23    2    1    0    0    0  0.53433650981E+01 -0.62660899131E+01  0.27535992489E+02  0.96258978520E+02  0.91868082760E+02 0.  0.
         13    1    3    3    0    0  0.38912483997E+02 -0.31607258490E+02  0.13488793938E+02  0.51914920071E+02  0.10566000000E+00 0. -1.
         22    1    1    0    0    0 -0.53433650981E+01  0.62660899131E+01 -0.27535992489E+02  0.28741021480E+02  0.00000000000E+00 0.  1.
</event>
<event>
 5    1  0.1325832E-009  0.9118800E+02  0.7818608E-02  0.1130116E+00
         25   -1    0    0    0    0  0.00000000000E+00  0.00000000000E+00  0.99999998245E-14  0.12500000000E+03  0.12500000000E+03 0.  0.
        -13    1    3    3    0    0  0.31644273243E+02 -0.50874033092E+01 -0.16112098482E+02  0.35872727566E+02  0.10566000000E+00 0.  1.
         23    2    1    0    0    0 -0.12395389948E+02 -0.45805336076E+01  0.25382521526E+02  0.96383582001E+02  0.92037467915E+02 0.  0.
         13    1    3    3    0    0 -0.44039663191E+02  0.50686970157E+00  0.41494620008E+02  0.60510854435E+02  0.10566000000E+00 0. -1.
         22    1    1    0    0    0  0.12395389948E+02  0.45805336076E+01 -0.25382521526E+02  0.28616417999E+02  0.00000000000E+00 0. -1.
</event>
<event>
 5    1  0.1325832E-009  0.9118800E+02  0.7818608E-02  0.1130116E+00
         25   -1    0    0    0    0  0.00000000000E+00  0.00000000000E+00  0.99999998245E-14  0.12500000000E+03  0.12500000000E+03 0.  0.
        -13    1    3    3    0    0 -0.78142699416E+01 -0.38284967526E+02 -0.73835589577E+01  0.39765935926E+02  0.10566000000E+00 0.  1.
         23    2    1    0    0    0 -0.21581292653E+02  0.16998839852E+02 -0.66121210908E+01  0.96743445111E+02  0.92524922468E+02 0.  0.
         13    1    3    3    0    0 -0.13767022712E+02  0.55283807377E+02  0.77143786689E+00  0.56977509185E+02  0.10566000000E+00 0. -1.
         22    1    1    0    0    0  0.21581292653E+02 -0.16998839852E+02  0.66121210908E+01  0.28256554889E+02  0.00000000000E+00 0. -1.
</event>
<event>
 5    1  0.1325832E-009  0.9118800E+02  0.7818608E-02  0.1130116E+00
         25   -1    0    0    0    0  0.00000000000E+00  0.00000000000E+00  0.99999998245E-14  0.12500000000E+03  0.12500000000E+03 0.  0.
        -13    1    3    3    0    0  0.26688462636E+02  0.69945028059E+01 -0.20101795575E+02  0.34136350958E+02  0.10566000000E+00 0.  1.
         23    2    1    0    0    0 -0.14372958832E+02  0.59745749008E+01  0.25258993380E+02  0.95330247096E+02  0.90595594672E+02 0.  0.
         13    1    3    3    0    0 -0.41061421468E+02 -0.10199279051E+01  0.45360788954E+02  0.61193896138E+02  0.10566000000E+00 0. -1.
         22    1    1    0    0    0  0.14372958832E+02 -0.59745749008E+01 -0.25258993380E+02  0.29669752904E+02  0.00000000000E+00 0. -1.
</event>
<event>
 5    1  0.1325832E-009  0.9118800E+02  0.7818608E-02  0.1130116E+00
         25   -1    0    0    0    0  0.00000000000E+00  0.00000000000E+00  0.99999998245E-14  0.12500000000E+03  0.12500000000E+03 0.  0.
        -13    1    3    3    0    0  0.14492212829E-01 -0.53306328929E+02  0.30167513614E+02  0.61250754735E+02  0.10566000000E+00 0. -1.
         23    2    1    0    0    0 -0.83076865814E+01 -0.23378293531E+02  0.16601039634E+02  0.95147750811E+02  0.90343443053E+02 0.  0.
         13    1    3    3    0    0 -0.83221787942E+01  0.29928035398E+02 -0.13566473980E+02  0.33896996076E+02  0.10566000000E+00 0.  1.
         22    1    1    0    0    0  0.83076865814E+01  0.23378293531E+02 -0.16601039634E+02  0.29852249189E+02  0.00000000000E+00 0. -1.
</event>
<event>
 5    1  0.1325832E-009  0.9118800E+02  0.7818608E-02  0.1130116E+00
         25   -1    0    0    0    0  0.00000000000E+00  0.00000000000E+00  0.99999998245E-14  0.12500000000E+03  0.12500000000E+03 0.  0.
        -13    1    3    3    0    0 -0.13230547579E+02 -0.31889307725E+02  0.47377713184E+02  0.58622813025E+02  0.10566000000E+00 0.  1.
         23    2    1    0    0    0 -0.13816135862E+02 -0.22291340861E+02  0.10472010208E+02  0.96760798784E+02  0.92548364091E+02 0.  0.
         13    1    3    3    0    0 -0.58558828301E+00  0.95979668642E+01 -0.36905702976E+02  0.38137985759E+02  0.10566000000E+00 0. -1.
         22    1    1    0    0    0  0.13816135862E+02  0.22291340861E+02 -0.10472010208E+02  0.28239201216E+02  0.00000000000E+00 0.  1.
</event>
<event>
 5    1  0.1325832E-009  0.9118800E+02  0.7818608E-02  0.1130116E+00
         25   -1    0    0    0    0  0.00000000000E+00  0.00000000000E+00  0.99999998245E-14  0.12500000000E+03  0.12500000000E+03 0.  0.
        -13    1    3    3    0    0  0.58926545650E+01 -0.24931341504E+02  0.28796678485E+02  0.38542898474E+02  0.10566000000E+00 0.  1.
         23    2    1    0    0    0 -0.24057477139E+02  0.79395329472E+01 -0.10200964062E+02  0.97689597998E+02  0.93794453458E+02 0.  0.
         13    1    3    3    0    0 -0.29950131704E+02  0.32870874451E+02 -0.38997642547E+02  0.59146699524E+02  0.10566000000E+00 0. -1.
         22    1    1    0    0    0  0.24057477139E+02 -0.79395329472E+01  0.10200964062E+02  0.27310402002E+02  0.00000000000E+00 0. -1.
</event>
<event>
 5    1  0.1325832E-009  0.9118800E+02  0.7818608E-02  0.1130116E+00
         25   -1    0    0    0    0  0.00000000000E+00  0.00000000000E+00  0.99999998245E-14  0.12500000000E+03  0.12500000000E+03 0.  0.
        -13    1    3    3    0    0  0.93622881769E+01  0.42355926287E+02 -0.34489783470E+02  0.55418708568E+02  0.10566000000E+00 0.  1.
         23    2    1    0    0    0  0.16205493947E+02  0.31240588088E+01 -0.22667591001E+02  0.96960787113E+02  0.92818084328E+02 0.  0.
         13    1    3    3    0    0  0.68432057703E+01 -0.39231867478E+02  0.11822192468E+02  0.41542078545E+02  0.10566000000E+00 0. -1.
         22    1    1    0    0    0 -0.16205493947E+02 -0.31240588088E+01  0.22667591001E+02  0.28039212887E+02  0.00000000000E+00 0.  1.
</event>
<event>
 5    1  0.1325832E-009  0.9118800E+02  0.7818608E-02  0.1130116E+00
         25   -1    0    0    0    0  0.00000000000E+00  0.00000000000E+00  0.99999998245E-14  0.12500000000E+03  0.12500000000E+03 0.  0.
        -13    1    3    3    0    0  0.33166142329E+02  0.13437846185E+01 -0.80325023542E+01  0.34151588722E+02  0.10566000000E+00 0. -1.
         23    2    1    0    0    0 -0.21069704735E+02 -0.25501237014E+01  0.20443162984E+02  0.95532076739E+02  0.90873644060E+02 0.  0.
         13    1    3    3    0    0 -0.54235847064E+02 -0.38939083199E+01  0.28475665338E+02  0.61380488017E+02  0.10566000000E+00 0.  1.
         22    1    1    0    0    0  0.21069704735E+02  0.25501237014E+01 -0.20443162984E+02  0.29467923261E+02  0.00000000000E+00 0.  1.
</event>
<event>
 5    1  0.1325832E-009  0.9118800E+02  0.7818608E-02  0.1130116E+00
         25   -1    0    0    0    0  0.00000000000E+00  0.00000000000E+00  0.99999998245E-14  0.12500000000E+03  0.12500000000E+03 0.  0.
        -13    1    3    3    0    0  0.11388168649E+02 -0.60275437000E+02 -0.40782004286E+01  0.61477325686E+02  0.10566000000E+00 0.  1.
         23    2    1    0    0    0 -0.24489848308E+01 -0.28856131209E+02 -0.87224862657E-01  0.96040002707E+02  0.91569649321E+02 0.  0.
         13    1    3    3    0    0 -0.13837153480E+02  0.31419305792E+02  0.39909755660E+01  0.34562677021E+02  0.10566000000E+00 0. -1.
         22    1    1    0    0    0  0.24489848308E+01  0.28856131209E+02  0.87224862657E-01  0.28959997293E+02  0.00000000000E+00 0.  1.
</event>
<event>
 5    1  0.1325832E-009  0.9118800E+02  0.7818608E-02  0.1130116E+00
         25   -1    0    0    0    0  0.00000000000E+00  0.00000000000E+00  0.99999998245E-14  0.12500000000E+03  0.12500000000E+03 0.  0.
        -13    1    3    3    0    0  0.37063759188E+02 -0.19084797476E+02  0.23745717589E+01  0.41756454530E+02  0.10566000000E+00 0. -1.
         23    2    1    0    0    0 -0.95791943389E+01 -0.13490051769E+02  0.25877674344E+02  0.94285239861E+02  0.89142077412E+02 0.  0.
         13    1    3    3    0    0 -0.46642953527E+02  0.55947457075E+01  0.23503102585E+02  0.52528785331E+02  0.10566000000E+00 0.  1.
         22    1    1    0    0    0  0.95791943389E+01  0.13490051769E+02 -0.25877674344E+02  0.30714760139E+02  0.00000000000E+00 0.  1.
</event>
<event>
 5    1  0.1325832E-009  0.9118800E+02  0.7818608E-02  0.1130116E+00
         25   -1    0    0    0    0  0.00000000000E+00  0.00000000000E+00  0.99999998245E-14  0.12500000000E+03  0.12500000000E+03 0.  0.
        -13    1    3    3    0    0  0.96958244071E+01 -0.47712716091E+01  0.49212460109E+02  0.50385031882E+02  0.10566000000E+00 0.  1.
         23    2    1    0    0    0 -0.18141923043E+02  0.13565026017E+02  0.17761837232E+02  0.96214202037E+02  0.91807137572E+02 0.  0.
         13    1    3    3    0    0 -0.27837747450E+02  0.18336297626E+02 -0.31450622877E+02  0.45829170155E+02  0.10566000000E+00 0. -1.
         22    1    1    0    0    0  0.18141923043E+02 -0.13565026017E+02 -0.17761837232E+02  0.28785797963E+02  0.00000000000E+00 0.  1.
</event>
<event>
 5    1  0.1325832E-009  0.9118800E+02  0.7818608E-02  0.1130116E+00
         25   -1    0    0    0    0  0.00000000000E+00  0.00000000000E+00  0.99999998245E-14  0.12500000000E+03  0.12500000000E+03 0.  0.
        -13    1    3    3    0    0 -0.28155427186E+02 -0.27882496812E+02 -0.45200548144E+02  0.60110418607E+02  0.10566000000E+00 0. -1.
         23    2    1    0    0    0 -0.23280390640E+02 -0.12687785998E+02 -0.14329374339E+02  0.94862192003E+02  0.89947473566E+02 0.  0.
         13    1    3    3    0    0  0.48750365455E+01  0.15194710814E+02  0.30871173806E+02  0.34751773397E+02  0.10566000000E+00 0.  1.
         22    1    1    0    0    0  0.23280390640E+02  0.12687785998E+02  0.14329374339E+02  0.30137807997E+02  0.00000000000E+00 0. -1.
</event>
<event>
 5    1  0.1325832E-009  0.9118800E+02  0.7818608E-02  0.1130116E+00
         25   -1    0    0    0    0  0.00000000000E+00  0.00000000000E+00  0.99999998245E-14  0.12500000000E+03  0.12500000000E+03 0.  0.
        -13    1    3    3    0    0 -0.23629641366E+02 -0.33583230208E+02 -0.85881258598E+01  0.41951881628E+02  0.10566000000E+00 0.  1.
         23    2    1    0    0    0 -0.14497869774E+02  0.90745398410E+01  0.23377253131E+02  0.96033960138E+02  0.91561400353E+02 0.  0.
         13    1    3    3    0    0  0.91317715926E+01  0.42657770049E+02  0.31965378991E+02  0.54082078511E+02  0.10566000000E+00 0. -1.
         22    1    1    0    0    0  0.14497869774E+02 -0.90745398410E+01 -0.23377253131E+02  0.28966039862E+02  0.00000000000E+00 0. -1.
</event>
<event>
 5    1  0.1325832E-009  0.9118800E+02  0.7818608E-02  0.1130116E+00
         25   -1    0    0    0    0  0.00000000000E+00  0.00000000000E+00  0.99999998245E-14  0.12500000000E+03  0.12500000000E+03 0.  0.
        -13    1    3    3    0    0  0.44330058877E+02 -0.28033436113E+02  0.87725939278E+01  0.53178917144E+02  0.10566000000E+00 0.  1.
         23    2    1    0    0    0  0.73046587984E+01 -0.26452439125E+02  0.18998152012E+02  0.91623071506E+02  0.85327415738E+02 0.  0.
         13    1    3    3    0    0 -0.37025400079E+02  0.15809969879E+01  0.10225558084E+02  0.38444154362E+02  0.10566000000E+00 0. -1.
         22    1    1    0    0    0 -0.73046587984E+01  0.26452439125E+02 -0.18998152012E+02  0.33376928494E+02  0.00000000000E+00 0. -1.
</event>
<event>
 5    1  0.1325832E-009  0.9118800E+02  0.7818608E-02  0.1130116E+00
         25   -1    0    0    0    0  0.00000000000E+00  0.00000000000E+00  0.99999998245E-14  0.12500000000E+03  0.12500000000E+03 0.  0.
        -13    1    3    3    0    0  0.55188592770E+01 -0.16277377499E+02  0.36301157044E+02  0.40164611199E+02  0.10566000000E+00 0.  1.
         23    2    1    0    0    0 -0.22378297294E+02  0.10682150589E+02 -0.78986103181E+01  0.98975308341E+02  0.95492549894E+02 0.  0.
         13    1    3    3    0    0 -0.27897156571E+02  0.26959528088E+02 -0.44199767362E+02  0.58810697142E+02  0.10566000000E+00 0. -1.
         22    1    1    0    0    0  0.22378297294E+02 -0.10682150589E+02  0.78986103181E+01  0.26024691659E+02  0.00000000000E+00 0. -1.
</event>
<event>
 5    1  0.1325832E-009  0.9118800E+02  0.7818608E-02  0.1130116E+00
         25   -1    0    0    0    0  0.00000000000E+00  0.00000000000E+00  0.99999998245E-14  0.12500000000E+03  0.12500000000E+03 0.  0.
        -13    1    3    3    0    0 -0.12121386885E+02 -0.30186782983E+02  0.15615589086E+02  0.36083620570E+02  0.10566000000E+00 0.  1.
         23    2    1    0    0    0  0.13550365998E+01  0.10442603410E+02 -0.26714515014E+02  0.96285031732E+02  0.91903525139E+02 0.  0.
         13    1    3    3    0    0  0.13476423484E+02  0.40629386394E+02 -0.42330104101E+02  0.60201411162E+02  0.10566000000E+00 0. -1.
         22    1    1    0    0    0 -0.13550365998E+01 -0.10442603410E+02  0.26714515014E+02  0.28714968268E+02  0.00000000000E+00 0.  1.
</event>
<event>
 5    1  0.1325832E-009  0.9118800E+02  0.7818608E-02  0.1130116E+00
         25   -1    0    0    0    0  0.00000000000E+00  0.00000000000E+00  0.99999998245E-14  0.12500000000E+03  0.12500000000E+03 0.  0.
        -13    1    3    3    0    0 -0.36963777100E+02 -0.32081435683E+02  0.30831550312E+02  0.57845786291E+02  0.10566000000E+00 0. -1.
         23    2    1    0    0    0 -0.27416005587E+02 -0.15245790976E+02  0.74375853727E+00  0.93621270236E+02  0.88206108400E+02 0.  0.
         13    1    3    3    0    0  0.95477715124E+01  0.16835644707E+02 -0.30087791775E+02  0.35775483945E+02  0.10566000000E+00 0.  1.
         22    1    1    0    0    0  0.27416005587E+02  0.15245790976E+02 -0.74375853727E+00  0.31378729764E+02  0.00000000000E+00 0. -1.
</event>
<event>
 5    1  0.1325832E-009  0.9118800E+02  0.7818608E-02  0.1130116E+00
         25   -1    0    0    0    0  0.00000000000E+00  0.00000000000E+00  0.99999998245E-14  0.12500000000E+03  0.12500000000E+03 0.  0.
        -13    1    3    3    0    0 -0.25784179248E+02  0.18147430763E+02 -0.13749328454E+02  0.34397795565E+02  0.10566000000E+00 0. -1.
         23    2    1    0    0    0  0.21108567668E+02 -0.40617212661E+01  0.19461964477E+02  0.96002805827E+02  0.91518858476E+02 0.  0.
         13    1    3    3    0    0  0.46892746916E+02 -0.22209152029E+02  0.33211292931E+02  0.61605010261E+02  0.10566000000E+00 0.  1.
         22    1    1    0    0    0 -0.21108567668E+02  0.40617212661E+01 -0.19461964477E+02  0.28997194173E+02  0.00000000000E+00 0.  1.
</event>
<event>
 5    1  0.1325832E-009  0.9118800E+02  0.7818608E-02  0.1130116E+00
         25   -1    0    0    0    0  0.00000000000E+00  0.00000000000E+00  0.99999998245E-14  0.12500000000E+03  0.12500000000E+03 0.  0.
        -13    1    3    3    0    0 -0.14875147647E+02 -0.27189607020E+02 -0.48132812974E+02  0.57247913466E+02  0.10566000000E+00 0.  1.
         23    2    1    0    0    0  0.83483305198E+01 -0.47515320058E+01 -0.28228385196E+02  0.95181995210E+02  0.90390811494E+02 0.  0.
         13    1    3    3    0    0  0.23223478167E+02  0.22438075015E+02  0.19904427778E+02  0.37934081744E+02  0.10566000000E+00 0. -1.
         22    1    1    0    0    0 -0.83483305198E+01  0.47515320058E+01  0.28228385196E+02  0.29818004790E+02  0.00000000000E+00 0.  1.
</event>
<event>
 5    1  0.1325832E-009  0.9118800E+02  0.7818608E-02  0.1130116E+00
         25   -1    0    0    0    0  0.00000000000E+00  0.00000000000E+00  0.99999998245E-14  0.12500000000E+03  0.12500000000E+03 0.  0.
        -13    1    3    3    0    0 -0.31684840581E+02 -0.20102945320E+02  0.27379051834E+01  0.37623992637E+02  0.10566000000E+00 0.  1.
         23    2    1    0    0    0  0.22453470978E+02  0.54797290013E+01 -0.11518556291E+02  0.99176310722E+02  0.95755301057E+02 0.  0.
         13    1    3    3    0    0  0.54138311559E+02  0.25582674321E+02 -0.14256461474E+02  0.61552318085E+02  0.10566000000E+00 0. -1.
         22    1    1    0    0    0 -0.22453470978E+02 -0.54797290013E+01  0.11518556291E+02  0.25823689278E+02  0.00000000000E+00 0. -1.
</event>
<event>
 5    1  0.1325832E-009  0.9118800E+02  0.7818608E-02  0.1130116E+00
         25   -1    0    0    0    0  0.00000000000E+00  0.00000000000E+00  0.99999998245E-14  0.12500000000E+03  0.12500000000E+03 0.  0.
        -13    1    3    3    0    0  0.13122797654E+02  0.28927906768E+02  0.18276133257E+02  0.36647780548E+02  0.10566000000E+00 0.  1.
         23    2    1    0    0    0  0.11356709603E+02 -0.19992449084E+02 -0.16503499091E+02  0.96697378998E+02  0.92462666787E+02 0.  0.
         13    1    3    3    0    0 -0.17660880510E+01 -0.48920355852E+02 -0.34779632347E+02  0.60049598449E+02  0.10566000000E+00 0. -1.
         22    1    1    0    0    0 -0.11356709603E+02  0.19992449084E+02  0.16503499091E+02  0.28302621002E+02  0.00000000000E+00 0. -1.
</event>
<event>
 5    1  0.1325832E-009  0.9118800E+02  0.7818608E-02  0.1130116E+00
         25   -1    0    0    0    0  0.00000000000E+00  0.00000000000E+00  0.99999998245E-14  0.12500000000E+03  0.12500000000E+03 0.  0.
        -13    1    3    3    0    0 -0.26976038210E+02  0.23958968146E+02 -0.42310649199E+02  0.55605224501E+02  0.10566000000E+00 0. -1.
         23    2    1    0    0    0 -0.33930038192E+01  0.27069653296E+02 -0.95412374815E+01  0.96098203911E+02  0.91649064249E+02 0.  0.
         13    1    3    3    0    0  0.23583034390E+02  0.31106851502E+01  0.32769411717E+02  0.40492979410E+02  0.10566000000E+00 0.  1.
         22    1    1    0    0    0  0.33930038192E+01 -0.27069653296E+02  0.95412374815E+01  0.28901796089E+02  0.00000000000E+00 0. -1.
</event>
<event>
 5    1  0.1325832E-009  0.9118800E+02  0.7818608E-02  0.1130116E+00
         25   -1    0    0    0    0  0.00000000000E+00  0.00000000000E+00  0.99999998245E-14  0.12500000000E+03  0.12500000000E+03 0.  0.
        -13    1    3    3    0    0 -0.36506879064E+01  0.35044707910E+02 -0.23323589077E+02  0.42254704427E+02  0.10566000000E+00 0. -1.
         23    2    1    0    0    0 -0.23175077309E+02 -0.10709557510E+02  0.42302907119E+01  0.99121936126E+02  0.95684293547E+02 0.  0.
         13    1    3    3    0    0 -0.19524389403E+02 -0.45754265420E+02  0.27553879789E+02  0.56867231700E+02  0.10566000000E+00 0.  1.
         22    1    1    0    0    0  0.23175077309E+02  0.10709557510E+02 -0.42302907119E+01  0.25878063874E+02  0.00000000000E+00 0.  1.
</event>
<event>
 5    1  0.1325832E-009  0.9118800E+02  0.7818608E-02  0.1130116E+00
         25   -1    0    0    0    0  0.00000000000E+00  0.00000000000E+00  0.99999998245E-14  0.12500000000E+03  0.12500000000E+03 0.  0.
        -13    1    3    3    0    0 -0.25623948386E+02 -0.33437617180E+02  0.43366764015E+02  0.60459476997E+02  0.10566000000E+00 0.  1.
         23    2    1    0    0    0 -0.64612663765E+01 -0.23836916309E+02  0.14678787317E+02  0.96269992353E+02  0.91883067472E+02 0.  0.
         13    1    3    3    0    0  0.19162682010E+02  0.96007008707E+01 -0.28687976698E+02  0.35810515356E+02  0.10566000000E+00 0. -1.
         22    1    1    0    0    0  0.64612663765E+01  0.23836916309E+02 -0.14678787317E+02  0.28730007647E+02  0.00000000000E+00 0.  1.
</event>
<event>
 5    1  0.1325832E-009  0.9118800E+02  0.7818608E-02  0.1130116E+00
         25   -1    0    0    0    0  0.00000000000E+00  0.00000000000E+00  0.99999998245E-14  0.12500000000E+03  0.12500000000E+03 0.  0.
        -13    1    3    3    0    0 -0.14164607827E+02 -0.25681335802E+02  0.26240183218E+02  0.39353849911E+02  0.10566000000E+00 0. -1.
         23    2    1    0    0    0  0.10086673363E+01  0.26785838520E+02  0.10695523053E+02  0.96140118358E+02  0.91706213473E+02 0.  0.
         13    1    3    3    0    0  0.15173275163E+02  0.52467174322E+02 -0.15544660165E+02  0.56786268447E+02  0.10566000000E+00 0.  1.
         22    1    1    0    0    0 -0.10086673363E+01 -0.26785838520E+02 -0.10695523053E+02  0.28859881642E+02  0.00000000000E+00 0.  1.
</event>
<event>
 5    1  0.1325832E-009  0.9118800E+02  0.7818608E-02  0.1130116E+00
         25   -1    0    0    0    0  0.00000000000E+00  0.00000000000E+00  0.99999998245E-14  0.12500000000E+03  0.12500000000E+03 0.  0.
        -13    1    3    3    0    0  0.29399425812E+02 -0.95958957597E+01 -0.39280140711E+02  0.49993480293E+02  0.10566000000E+00 0. -1.
         23    2    1    0    0    0  0.26948058626E+02 -0.12867265602E+02  0.52231340443E+01  0.94684236493E+02  0.89699827888E+02 0.  0.
         13    1    3    3    0    0 -0.24513671859E+01 -0.32713698420E+01  0.44503274755E+02  0.44690756200E+02  0.10566000000E+00 0.  1.
         22    1    1    0    0    0 -0.26948058626E+02  0.12867265602E+02 -0.52231340443E+01  0.30315763507E+02  0.00000000000E+00 0. -1.
</event>
<event>
 5    1  0.1325832E-009  0.9118800E+02  0.7818608E-02  0.1130116E+00
         25   -1    0    0    0    0  0.00000000000E+00  0.00000000000E+00  0.99999998245E-14  0.12500000000E+03  0.12500000000E+03 0.  0.
        -13    1    3    3    0    0  0.40340875557E+02  0.24758542502E+02 -0.28578213541E+00  0.47333545219E+02  0.10566000000E+00 0.  1.
         23    2    1    0    0    0  0.11165407508E+02 -0.21730248702E+01 -0.27345475691E+02  0.95383055480E+02  0.90668428188E+02 0.  0.
         13    1    3    3    0    0 -0.29175468048E+02 -0.26931567372E+02 -0.27059693556E+02  0.48049510261E+02  0.10566000000E+00 0. -1.
         22    1    1    0    0    0 -0.11165407508E+02  0.21730248702E+01  0.27345475691E+02  0.29616944520E+02  0.00000000000E+00 0. -1.
</event>
<event>
 5    1  0.1325832E-009  0.9118800E+02  0.7818608E-02  0.1130116E+00
         25   -1    0    0    0    0  0.00000000000E+00  0.00000000000E+00  0.99999998245E-14  0.12500000000E+03  0.12500000000E+03 0.  0.
        -13    1    3    3    0    0  0.20753444341E+02 -0.53383551741E+02 -0.18785042040E+02  0.60277674283E+02  0.10566000000E+00 0. -1.
         23    2    1    0    0    0 -0.11188258864E+01 -0.17221028146E+02 -0.13937289118E+02  0.10281749316E+03  0.10039608204E+03 0.  0.
         13    1    3    3    0    0 -0.21872270227E+02  0.36162523595E+02  0.48477529223E+01  0.42539818877E+02  0.10566000000E+00 0.  1.
         22    1    1    0    0    0  0.11188258864E+01  0.17221028146E+02  0.13937289118E+02  0.22182506841E+02  0.00000000000E+00 0. -1.
</event>
<event>
 5    1  0.1325832E-009  0.9118800E+02  0.7818608E-02  0.1130116E+00
         25   -1    0    0    0    0  0.00000000000E+00  0.00000000000E+00  0.99999998245E-14  0.12500000000E+03  0.12500000000E+03 0.  0.
        -13    1    3    3    0    0 -0.31060220632E+02  0.16735719446E+02 -0.25295757522E+02  0.43413225217E+02  0.10566000000E+00 0.  1.
         23    2    1    0    0    0  0.53824241449E+01  0.26003161450E+02  0.11535010676E+02  0.96048465216E+02  0.91581200603E+02 0.  0.
         13    1    3    3    0    0  0.36442644777E+02  0.92674420036E+01  0.36830768198E+02  0.52635239999E+02  0.10566000000E+00 0. -1.
         22    1    1    0    0    0 -0.53824241449E+01 -0.26003161450E+02 -0.11535010676E+02  0.28951534784E+02  0.00000000000E+00 0. -1.
</event>
<event>
 5    1  0.1325832E-009  0.9118800E+02  0.7818608E-02  0.1130116E+00
         25   -1    0    0    0    0  0.00000000000E+00  0.00000000000E+00  0.99999998245E-14  0.12500000000E+03  0.12500000000E+03 0.  0.
        -13    1    3    3    0    0 -0.41516232201E+02  0.19215760093E+02  0.94913360062E+01  0.46721939122E+02  0.10566000000E+00 0.  1.
         23    2    1    0    0    0 -0.72703151088E+01  0.13625298485E+02 -0.24978872517E+02  0.95632495632E+02  0.91011669076E+02 0.  0.
         13    1    3    3    0    0  0.34245917092E+02 -0.55904616080E+01 -0.34470208523E+02  0.48910556510E+02  0.10566000000E+00 0. -1.
         22    1    1    0    0    0  0.72703151088E+01 -0.13625298485E+02  0.24978872517E+02  0.29367504368E+02  0.00000000000E+00 0.  1.
</event>
<event>
 5    1  0.1325832E-009  0.9118800E+02  0.7818608E-02  0.1130116E+00
         25   -1    0    0    0    0  0.00000000000E+00  0.00000000000E+00  0.99999998245E-14  0.12500000000E+03  0.12500000000E+03 0.  0.
        -13    1    3    3    0    0 -0.17512927391E+02  0.19561011976E+02 -0.33233618031E+02  0.42353516345E+02  0.10566000000E+00 0.  1.
         23    2    1    0    0    0 -0.16294322345E+02 -0.24465205541E+02 -0.37205579903E+01  0.95370727741E+02  0.90651430961E+02 0.  0.
         13    1    3    3    0    0  0.12186050456E+01 -0.44026217517E+02  0.29513060041E+02  0.53017211396E+02  0.10566000000E+00 0. -1.
         22    1    1    0    0    0  0.16294322345E+02  0.24465205541E+02  0.37205579903E+01  0.29629272259E+02  0.00000000000E+00 0.  1.
</event>
<event>
 5    1  0.1325832E-009  0.9118800E+02  0.7818608E-02  0.1130116E+00
         25   -1    0    0    0    0  0.00000000000E+00  0.00000000000E+00  0.99999998245E-14  0.12500000000E+03  0.12500000000E+03 0.  0.
        -13    1    3    3    0    0 -0.14533986241E+02  0.18173440144E+02 -0.24125027693E+02  0.33519230419E+02  0.10566000000E+00 0.  1.
         23    2    1    0    0    0 -0.20731857622E+01 -0.20116766363E+02  0.22247514733E+02  0.94934499840E+02  0.90047903695E+02 0.  0.
         13    1    3    3    0    0  0.12460800479E+02 -0.38290206506E+02  0.46372542426E+02  0.61415269420E+02  0.10566000000E+00 0. -1.
         22    1    1    0    0    0  0.20731857622E+01  0.20116766363E+02 -0.22247514733E+02  0.30065500160E+02  0.00000000000E+00 0. -1.
</event>
<event>
 5    1  0.1325832E-009  0.9118800E+02  0.7818608E-02  0.1130116E+00
         25   -1    0    0    0    0  0.00000000000E+00  0.00000000000E+00  0.99999998245E-14  0.12500000000E+03  0.12500000000E+03 0.  0.
        -13    1    3    3    0    0  0.24009974430E+01 -0.78221742804E+01 -0.48312129515E+02  0.49000247158E+02  0.10566000000E+00 0.  1.
         23    2    1    0    0    0 -0.26409429002E+02 -0.41958399189E+01 -0.11487942612E+02  0.95896119875E+02  0.91373026484E+02 0.  0.
         13    1    3    3    0    0 -0.28810426445E+02  0.36263343614E+01  0.36824186902E+02  0.46895872718E+02  0.10566000000E+00 0. -1.
         22    1    1    0    0    0  0.26409429002E+02  0.41958399189E+01  0.11487942612E+02  0.29103880125E+02  0.00000000000E+00 0.  1.
</event>
<event>
 5    1  0.1325832E-009  0.9118800E+02  0.7818608E-02  0.1130116E+00
         25   -1    0    0    0    0  0.00000000000E+00  0.00000000000E+00  0.99999998245E-14  0.12500000000E+03  0.12500000000E+03 0.  0.
        -13    1    3    3    0    0 -0.38073231534E+02  0.46831970883E+02 -0.15701579826E+02  0.62364695376E+02  0.10566000000E+00 0. -1.
         23    2    1    0    0    0 -0.15156979113E+02  0.21770424966E+02 -0.47149789480E+01  0.98057163373E+02  0.94283035819E+02 0.  0.
         13    1    3    3    0    0  0.22916252421E+02 -0.25061545918E+02  0.10986600878E+02  0.35692467997E+02  0.10566000000E+00 0.  1.
         22    1    1    0    0    0  0.15156979113E+02 -0.21770424966E+02  0.47149789480E+01  0.26942836627E+02  0.00000000000E+00 0. -1.
</event>
<event>
 5    1  0.1325832E-009  0.9118800E+02  0.7818608E-02  0.1130116E+00
         25   -1    0    0    0    0  0.00000000000E+00  0.00000000000E+00  0.99999998245E-14  0.12500000000E+03  0.12500000000E+03 0.  0.
        -13    1    3    3    0    0  0.32439141182E+02  0.14239744829E+02  0.15889343823E+02  0.38827189244E+02  0.10566000000E+00 0.  1.
         23    2    1    0    0    0 -0.11699179102E+02  0.10793479294E+02 -0.22508693265E+02  0.97431698285E+02  0.93450118091E+02 0.  0.
         13    1    3    3    0    0 -0.44138320284E+02 -0.34462655353E+01 -0.38398037089E+02  0.58604509041E+02  0.10566000000E+00 0. -1.
         22    1    1    0    0    0  0.11699179102E+02 -0.10793479294E+02  0.22508693265E+02  0.27568301715E+02  0.00000000000E+00 0. -1.
</event>
<event>
 5    1  0.1325832E-009  0.9118800E+02  0.7818608E-02  0.1130116E+00
         25   -1    0    0    0    0  0.00000000000E+00  0.00000000000E+00  0.99999998245E-14  0.12500000000E+03  0.12500000000E+03 0.  0.
        -13    1    3    3    0    0  0.52277656756E+02 -0.23803138722E+02  0.11106950767E+02  0.58505711929E+02  0.10566000000E+00 0. -1.
         23    2    1    0    0    0  0.20405501894E+02 -0.55163445636E+01  0.19548174073E+02  0.96208583319E+02  0.91799487089E+02 0.  0.
         13    1    3    3    0    0 -0.31872154862E+02  0.18286794159E+02  0.84412233060E+01  0.37702871390E+02  0.10566000000E+00 0.  1.
         22    1    1    0    0    0 -0.20405501894E+02  0.55163445636E+01 -0.19548174073E+02  0.28791416681E+02  0.00000000000E+00 0. -1.
</event>
<event>
 5    1  0.1325832E-009  0.9118800E+02  0.7818608E-02  0.1130116E+00
         25   -1    0    0    0    0  0.00000000000E+00  0.00000000000E+00  0.99999998245E-14  0.12500000000E+03  0.12500000000E+03 0.  0.
        -13    1    3    3    0    0  0.38652287546E+02  0.86348523258E+01  0.61617524507E+01  0.40081646230E+02  0.10566000000E+00 0. -1.
         23    2    1    0    0    0 -0.29249913916E+01 -0.28261821311E+02 -0.30354304361E+01  0.96425536639E+02  0.92094430666E+02 0.  0.
         13    1    3    3    0    0 -0.41577278937E+02 -0.36896673637E+02 -0.91971828867E+01  0.56343890409E+02  0.10566000000E+00 0.  1.
         22    1    1    0    0    0  0.29249913916E+01  0.28261821311E+02  0.30354304361E+01  0.28574463361E+02  0.00000000000E+00 0.  1.
</event>
<event>
 5    1  0.1325832E-009  0.9118800E+02  0.7818608E-02  0.1130116E+00
         25   -1    0    0    0    0  0.00000000000E+00  0.00000000000E+00  0.99999998245E-14  0.12500000000E+03  0.12500000000E+03 0.  0.
        -13    1    3    3    0    0 -0.26351708036E+02  0.49500643277E+02  0.44422100815E+01  0.56253627400E+02  0.10566000000E+00 0.  1.
         23    2    1    0    0    0 -0.16725469198E+02  0.17653278038E+02 -0.16541887030E+02  0.95588886932E+02  0.90951754975E+02 0.  0.
         13    1    3    3    0    0  0.96262388377E+01 -0.31847365239E+02 -0.20984097111E+02  0.39335259532E+02  0.10566000000E+00 0. -1.
         22    1    1    0    0    0  0.16725469198E+02 -0.17653278038E+02  0.16541887030E+02  0.29411113068E+02  0.00000000000E+00 0.  1.
</event>
<event>
 5    1  0.1325832E-009  0.9118800E+02  0.7818608E-02  0.1130116E+00
         25   -1    0    0    0    0  0.00000000000E+00  0.00000000000E+00  0.99999998245E-14  0.12500000000E+03  0.12500000000E+03 0.  0.
        -13    1    3    3    0    0  0.25022621323E+02 -0.41206798029E+02  0.18887369611E+02  0.51777173315E+02  0.10566000000E+00 0.  1.
         23    2    1    0    0    0 -0.13735177889E+02 -0.25371944703E+02  0.86801010990E+01  0.94871361718E+02  0.89960215815E+02 0.  0.
         13    1    3    3    0    0 -0.38757799212E+02  0.15834853326E+02 -0.10207268512E+02  0.43094188403E+02  0.10566000000E+00 0. -1.
         22    1    1    0    0    0  0.13735177889E+02  0.25371944703E+02 -0.86801010990E+01  0.30128638282E+02  0.00000000000E+00 0.  1.
</event>
<event>
 5    1  0.1325832E-009  0.9118800E+02  0.7818608E-02  0.1130116E+00
         25   -1    0    0    0    0  0.00000000000E+00  0.00000000000E+00  0.99999998245E-14  0.12500000000E+03  0.12500000000E+03 0.  0.
        -13    1    3    3    0    0  0.27364394300E+02  0.37346619341E+02 -0.19620176900E+02  0.50284615512E+02  0.10566000000E+00 0.  1.
         23    2    1    0    0    0  0.10728583412E+02  0.98027314676E+01 -0.35844532711E+02  0.86321497295E+02  0.77171071807E+02 0.  0.
         13    1    3    3    0    0 -0.16635810889E+02 -0.27543887874E+02 -0.16224355811E+02  0.36036881783E+02  0.10566000000E+00 0. -1.
         22    1    1    0    0    0 -0.10728583412E+02 -0.98027314676E+01  0.35844532711E+02  0.38678502705E+02  0.00000000000E+00 0.  1.
</event>
<event>
 5    1  0.1325832E-009  0.9118800E+02  0.7818608E-02  0.1130116E+00
         25   -1    0    0    0    0  0.00000000000E+00  0.00000000000E+00  0.99999998245E-14  0.12500000000E+03  0.12500000000E+03 0.  0.
        -13    1    3    3    0    0  0.49306243753E+01  0.20772868087E+02  0.48535275172E+02  0.53023647605E+02  0.10566000000E+00 0.  1.
         23    2    1    0    0    0  0.18967989523E+02 -0.84031651348E+01  0.17850538265E+02  0.97631413497E+02  0.93716878812E+02 0.  0.
         13    1    3    3    0    0  0.14037365147E+02 -0.29176033222E+02 -0.30684736906E+02  0.44607765892E+02  0.10566000000E+00 0. -1.
         22    1    1    0    0    0 -0.18967989523E+02  0.84031651348E+01 -0.17850538265E+02  0.27368586503E+02  0.00000000000E+00 0.  1.
</event>
<event>
 5    1  0.1325832E-009  0.9118800E+02  0.7818608E-02  0.1130116E+00
         25   -1    0    0    0    0  0.00000000000E+00  0.00000000000E+00  0.99999998245E-14  0.12500000000E+03  0.12500000000E+03 0.  0.
        -13    1    3    3    0    0  0.24959056561E+02  0.38696793539E+02 -0.23148475599E+02  0.51538911720E+02  0.10566000000E+00 0.  1.
         23    2    1    0    0    0  0.28745478581E+02  0.33172900925E+01  0.33033991077E+01  0.95875793606E+02  0.91345215537E+02 0.  0.
         13    1    3    3    0    0  0.37864220197E+01 -0.35379503447E+02  0.26451874707E+02  0.44336881886E+02  0.10566000000E+00 0. -1.
         22    1    1    0    0    0 -0.28745478581E+02 -0.33172900925E+01 -0.33033991077E+01  0.29124206394E+02  0.00000000000E+00 0. -1.
</event>
<event>
 5    1  0.1325832E-009  0.9118800E+02  0.7818608E-02  0.1130116E+00
         25   -1    0    0    0    0  0.00000000000E+00  0.00000000000E+00  0.99999998245E-14  0.12500000000E+03  0.12500000000E+03 0.  0.
        -13    1    3    3    0    0  0.13031151246E+02 -0.39383580617E+02 -0.24469802123E+02  0.48162845691E+02  0.10566000000E+00 0. -1.
         23    2    1    0    0    0 -0.14310832305E+02 -0.25808120652E+02  0.96561280207E+01  0.93950043137E+02  0.88670800065E+02 0.  0.
         13    1    3    3    0    0 -0.27341983550E+02  0.13575459965E+02  0.34125930144E+02  0.45787197446E+02  0.10566000000E+00 0.  1.
         22    1    1    0    0    0  0.14310832305E+02  0.25808120652E+02 -0.96561280207E+01  0.31049956863E+02  0.00000000000E+00 0. -1.
</event>
<event>
 5    1  0.1325832E-009  0.9118800E+02  0.7818608E-02  0.1130116E+00
         25   -1    0    0    0    0  0.00000000000E+00  0.00000000000E+00  0.99999998245E-14  0.12500000000E+03  0.12500000000E+03 0.  0.
        -13    1    3    3    0    0  0.85269893547E+00  0.12813338222E+02  0.52362240018E+02  0.53914043398E+02  0.10566000000E+00 0. -1.
         23    2    1    0    0    0  0.51817186597E+00 -0.15585044999E+02  0.33615128148E+02  0.87944110184E+02  0.79756050215E+02 0.  0.
         13    1    3    3    0    0 -0.33452706950E+00 -0.28398383221E+02 -0.18747111870E+02  0.34030066785E+02  0.10566000000E+00 0.  1.
         22    1    1    0    0    0 -0.51817186597E+00  0.15585044999E+02 -0.33615128148E+02  0.37055889816E+02  0.00000000000E+00 0. -1.
</event>
<event>
 5    1  0.1325832E-009  0.9118800E+02  0.7818608E-02  0.1130116E+00
         25   -1    0    0    0    0  0.00000000000E+00  0.00000000000E+00  0.99999998245E-14  0.12500000000E+03  0.12500000000E+03 0.  0.
        -13    1    3    3    0    0 -0.23275818587E+02 -0.79348812213E+01  0.37079228979E+02  0.44492768587E+02  0.10566000000E+00 0.  1.
         23    2    1    0    0    0  0.22795899784E+02  0.48128889795E+01  0.15998188175E+02  0.96737675747E+02  0.92517127803E+02 0.  0.
         13    1    3    3    0    0  0.46071718371E+02  0.12747770201E+02 -0.21081040804E+02  0.52244907160E+02  0.10566000000E+00 0. -1.
         22    1    1    0    0    0 -0.22795899784E+02 -0.48128889795E+01 -0.15998188175E+02  0.28262324253E+02  0.00000000000E+00 0. -1.
</event>
<event>
 5    1  0.1325832E-009  0.9118800E+02  0.7818608E-02  0.1130116E+00
         25   -1    0    0    0    0  0.00000000000E+00  0.00000000000E+00  0.99999998245E-14  0.12500000000E+03  0.12500000000E+03 0.  0.
        -13    1    3    3    0    0 -0.35546109821E+02 -0.27544399525E+02 -0.21960328491E+02  0.50044850485E+02  0.10566000000E+00 0.  1.
         23    2    1    0    0    0  0.80115257420E+01 -0.24811018160E+02 -0.16779672396E+02  0.93994700896E+02  0.88733732165E+02 0.  0.
         13    1    3    3    0    0  0.43557635563E+02  0.27333813647E+01  0.51806560956E+01  0.43949850411E+02  0.10566000000E+00 0. -1.
         22    1    1    0    0    0 -0.80115257420E+01  0.24811018160E+02  0.16779672396E+02  0.31005299104E+02  0.00000000000E+00 0.  1.
</event>
<event>
 5    1  0.1325832E-009  0.9118800E+02  0.7818608E-02  0.1130116E+00
         25   -1    0    0    0    0  0.00000000000E+00  0.00000000000E+00  0.99999998245E-14  0.12500000000E+03  0.12500000000E+03 0.  0.
        -13    1    3    3    0    0  0.45711428187E+01 -0.38443605452E+02  0.11625637880E+02  0.40422429009E+02  0.10566000000E+00 0.  1.
         23    2    1    0    0    0 -0.13227965663E+02  0.11521348795E+02  0.24370314816E+02  0.94972799033E+02  0.90101053037E+02 0.  0.
         13    1    3    3    0    0 -0.17799108482E+02  0.49964954246E+02  0.12744676936E+02  0.54550370025E+02  0.10566000000E+00 0. -1.
         22    1    1    0    0    0  0.13227965663E+02 -0.11521348795E+02 -0.24370314816E+02  0.30027200967E+02  0.00000000000E+00 0. -1.
</event>
<event>
 5    1  0.1325832E-009  0.9118800E+02  0.7818608E-02  0.1130116E+00
         25   -1    0    0    0    0  0.00000000000E+00  0.00000000000E+00  0.99999998245E-14  0.12500000000E+03  0.12500000000E+03 0.  0.
        -13    1    3    3    0    0  0.13890998148E+02  0.79987400420E+01  0.38040848842E+02  0.41280225490E+02  0.10566000000E+00 0. -1.
         23    2    1    0    0    0 -0.26395184314E+02  0.28191342068E+01 -0.20813888835E+01  0.98373219264E+02  0.94701134186E+02 0.  0.
         13    1    3    3    0    0 -0.40286182463E+02 -0.51796058351E+01 -0.40122237725E+02  0.57092993775E+02  0.10566000000E+00 0.  1.
         22    1    1    0    0    0  0.26395184314E+02 -0.28191342068E+01  0.20813888835E+01  0.26626780736E+02  0.00000000000E+00 0.  1.
</event>
<event>
 5    1  0.1325832E-009  0.9118800E+02  0.7818608E-02  0.1130116E+00
         25   -1    0    0    0    0  0.00000000000E+00  0.00000000000E+00  0.99999998245E-14  0.12500000000E+03  0.12500000000E+03 0.  0.
        -13    1    3    3    0    0  0.30525626445E+02 -0.11807798376E+02 -0.19970441943E+01  0.32790811547E+02  0.10566000000E+00 0. -1.
         23    2    1    0    0    0 -0.23399464853E+02  0.18924635055E+02  0.36108798410E+00  0.94903369758E+02  0.90004680098E+02 0.  0.
         13    1    3    3    0    0 -0.53925091298E+02  0.30732433431E+02  0.23581321784E+01  0.62112558211E+02  0.10566000000E+00 0.  1.
         22    1    1    0    0    0  0.23399464853E+02 -0.18924635055E+02 -0.36108798410E+00  0.30096630242E+02  0.00000000000E+00 0.  1.
</event>
<event>
 5    1  0.1325832E-009  0.9118800E+02  0.7818608E-02  0.1130116E+00
         25   -1    0    0    0    0  0.00000000000E+00  0.00000000000E+00  0.99999998245E-14  0.12500000000E+03  0.12500000000E+03 0.  0.
        -13    1    3    3    0    0  0.16460167752E+02  0.48977231653E+02 -0.26049537703E+02  0.57864461645E+02  0.10566000000E+00 0. -1.
         23    2    1    0    0    0 -0.71867029832E+01  0.21413635946E+02 -0.20294050159E+02  0.94634872369E+02  0.89631010773E+02 0.  0.
         13    1    3    3    0    0 -0.23646870735E+02 -0.27563595708E+02  0.57554875439E+01  0.36770410724E+02  0.10566000000E+00 0.  1.
         22    1    1    0    0    0  0.71867029832E+01 -0.21413635946E+02  0.20294050159E+02  0.30365127631E+02  0.00000000000E+00 0. -1.
</event>
<event>
 5    1  0.1325832E-009  0.9118800E+02  0.7818608E-02  0.1130116E+00
         25   -1    0    0    0    0  0.00000000000E+00  0.00000000000E+00  0.99999998245E-14  0.12500000000E+03  0.12500000000E+03 0.  0.
        -13    1    3    3    0    0  0.53080276212E+02 -0.79747667314E+01 -0.27887114830E+02  0.60488139042E+02  0.10566000000E+00 0. -1.
         23    2    1    0    0    0  0.19066910125E+02 -0.93415160898E+01 -0.20836350220E+02  0.95251647524E+02  0.90487081293E+02 0.  0.
         13    1    3    3    0    0 -0.34013366087E+02 -0.13667493585E+01  0.70507646102E+01  0.34763508482E+02  0.10566000000E+00 0.  1.
         22    1    1    0    0    0 -0.19066910125E+02  0.93415160898E+01  0.20836350220E+02  0.29748352476E+02  0.00000000000E+00 0. -1.
</event>
<event>
 5    1  0.1325832E-009  0.9118800E+02  0.7818608E-02  0.1130116E+00
         25   -1    0    0    0    0  0.00000000000E+00  0.00000000000E+00  0.99999998245E-14  0.12500000000E+03  0.12500000000E+03 0.  0.
        -13    1    3    3    0    0  0.16596386289E+02 -0.32851835193E+02  0.32565488787E+02  0.49144738654E+02  0.10566000000E+00 0.  1.
         23    2    1    0    0    0  0.65288191674E+01 -0.25756638002E+02 -0.12335921305E+02  0.95704866696E+02  0.91111012912E+02 0.  0.
         13    1    3    3    0    0 -0.10067567122E+02  0.70951971909E+01 -0.44901410092E+02  0.46560128041E+02  0.10566000000E+00 0. -1.
         22    1    1    0    0    0 -0.65288191674E+01  0.25756638002E+02  0.12335921305E+02  0.29295133304E+02  0.00000000000E+00 0.  1.
</event>
<event>
 5    1  0.1325832E-009  0.9118800E+02  0.7818608E-02  0.1130116E+00
         25   -1    0    0    0    0  0.00000000000E+00  0.00000000000E+00  0.99999998245E-14  0.12500000000E+03  0.12500000000E+03 0.  0.
        -13    1    3    3    0    0  0.40226523934E+02  0.22544979080E+01  0.13187957553E+02  0.42393270423E+02  0.10566000000E+00 0. -1.
         23    2    1    0    0    0  0.55745276379E+01 -0.12523489411E+01 -0.28051503880E+02  0.96372555019E+02  0.92022490483E+02 0.  0.
         13    1    3    3    0    0 -0.34651996296E+02 -0.35068468491E+01 -0.41239461433E+02  0.53979284596E+02  0.10566000000E+00 0.  1.
         22    1    1    0    0    0 -0.55745276379E+01  0.12523489411E+01  0.28051503880E+02  0.28627444981E+02  0.00000000000E+00 0.  1.
</event>
<event>
 5    1  0.1325832E-009  0.9118800E+02  0.7818608E-02  0.1130116E+00
         25   -1    0    0    0    0  0.00000000000E+00  0.00000000000E+00  0.99999998245E-14  0.12500000000E+03  0.12500000000E+03 0.  0.
        -13    1    3    3    0    0 -0.42159234900E+02 -0.40047183572E+02 -0.20775299379E+02  0.61747892497E+02  0.10566000000E+00 0.  1.
         23    2    1    0    0    0 -0.24710010050E+02 -0.14126129933E+02 -0.88555937921E+01  0.95191382371E+02  0.90403791916E+02 0.  0.
         13    1    3    3    0    0  0.17449224850E+02  0.25921053640E+02  0.11919705587E+02  0.33443489875E+02  0.10566000000E+00 0. -1.
         22    1    1    0    0    0  0.24710010050E+02  0.14126129933E+02  0.88555937921E+01  0.29808617629E+02  0.00000000000E+00 0.  1.
</event>
<event>
 5    1  0.1325832E-009  0.9118800E+02  0.7818608E-02  0.1130116E+00
         25   -1    0    0    0    0  0.00000000000E+00  0.00000000000E+00  0.99999998245E-14  0.12500000000E+03  0.12500000000E+03 0.  0.
        -13    1    3    3    0    0  0.23649345819E+02  0.27624369982E+02  0.11827262784E+02  0.38239935716E+02  0.10566000000E+00 0.  1.
         23    2    1    0    0    0 -0.18443767218E+02 -0.10640951545E+02 -0.12720031900E+02  0.10019674194E+03  0.97078244135E+02 0.  0.
         13    1    3    3    0    0 -0.42093113037E+02 -0.38265321527E+02 -0.24547294684E+02  0.61956806221E+02  0.10566000000E+00 0. -1.
         22    1    1    0    0    0  0.18443767218E+02  0.10640951545E+02  0.12720031900E+02  0.24803258063E+02  0.00000000000E+00 0. -1.
</event>
<event>
 5    1  0.1325832E-009  0.9118800E+02  0.7818608E-02  0.1130116E+00
         25   -1    0    0    0    0  0.00000000000E+00  0.00000000000E+00  0.99999998245E-14  0.12500000000E+03  0.12500000000E+03 0.  0.
        -13    1    3    3    0    0 -0.64087315923E-01 -0.14380592197E+02  0.51655407229E+02  0.53619938448E+02  0.10566000000E+00 0.  1.
         23    2    1    0    0    0 -0.21485355964E+01 -0.26164731402E+02  0.10088226413E+02  0.96875603354E+02  0.92703294647E+02 0.  0.
         13    1    3    3    0    0 -0.20844482805E+01 -0.11784139205E+02 -0.41567180816E+02  0.43255664906E+02  0.10566000000E+00 0. -1.
         22    1    1    0    0    0  0.21485355964E+01  0.26164731402E+02 -0.10088226413E+02  0.28124396646E+02  0.00000000000E+00 0.  1.
</event>
<event>
 5    1  0.1325832E-009  0.9118800E+02  0.7818608E-02  0.1130116E+00
         25   -1    0    0    0    0  0.00000000000E+00  0.00000000000E+00  0.99999998245E-14  0.12500000000E+03  0.12500000000E+03 0.  0.
        -13    1    3    3    0    0  0.19384693695E+01  0.38479439270E+02 -0.89077728752E+01  0.39544715091E+02  0.10566000000E+00 0. -1.
         23    2    1    0    0    0 -0.12785080930E+02 -0.17159900307E+02 -0.17006240367E+02  0.97666272037E+02  0.93763361763E+02 0.  0.
         13    1    3    3    0    0 -0.14723550300E+02 -0.55639339577E+02 -0.80984674920E+01  0.58121556945E+02  0.10566000000E+00 0.  1.
         22    1    1    0    0    0  0.12785080930E+02  0.17159900307E+02  0.17006240367E+02  0.27333727963E+02  0.00000000000E+00 0.  1.
</event>
<event>
 5    1  0.1325832E-009  0.9118800E+02  0.7818608E-02  0.1130116E+00
         25   -1    0    0    0    0  0.00000000000E+00  0.00000000000E+00  0.99999998245E-14  0.12500000000E+03  0.12500000000E+03 0.  0.
        -13    1    3    3    0    0 -0.14850599615E+02  0.20199231135E+02  0.25635067448E+02  0.35856897447E+02  0.10566000000E+00 0.  1.
         23    2    1    0    0    0  0.19827162909E+02  0.76265362226E+01 -0.20873675228E+02  0.95217609879E+02  0.90440049036E+02 0.  0.
         13    1    3    3    0    0  0.34677762525E+02 -0.12572694912E+02 -0.46508742677E+02  0.59360712432E+02  0.10566000000E+00 0. -1.
         22    1    1    0    0    0 -0.19827162909E+02 -0.76265362226E+01  0.20873675228E+02  0.29782390121E+02  0.00000000000E+00 0. -1.
</event>
<event>
 5    1  0.1325832E-009  0.9118800E+02  0.7818608E-02  0.1130116E+00
         25   -1    0    0    0    0  0.00000000000E+00  0.00000000000E+00  0.99999998245E-14  0.12500000000E+03  0.12500000000E+03 0.  0.
        -13    1    3    3    0    0  0.26639108780E+02 -0.18368623352E+02  0.13995044964E+02  0.35255083151E+02  0.10566000000E+00 0. -1.
         23    2    1    0    0    0 -0.24263923881E+02 -0.54582107380E+00 -0.14980461715E+02  0.96478952405E+02  0.92166903502E+02 0.  0.
         13    1    3    3    0    0 -0.50903032661E+02  0.17822802278E+02 -0.28975506678E+02  0.61223869254E+02  0.10566000000E+00 0.  1.
         22    1    1    0    0    0  0.24263923881E+02  0.54582107380E+00  0.14980461715E+02  0.28521047595E+02  0.00000000000E+00 0.  1.
</event>
<event>
 5    1  0.1325832E-009  0.9118800E+02  0.7818608E-02  0.1130116E+00
         25   -1    0    0    0    0  0.00000000000E+00  0.00000000000E+00  0.99999998245E-14  0.12500000000E+03  0.12500000000E+03 0.  0.
        -13    1    3    3    0    0 -0.27679658583E+02 -0.16488155720E+02 -0.50687530570E+02  0.60060467011E+02  0.10566000000E+00 0. -1.
         23    2    1    0    0    0 -0.16857333746E+02 -0.17213517425E+02 -0.16836101060E+02  0.95607327749E+02  0.90977095674E+02 0.  0.
         13    1    3    3    0    0  0.10822324837E+02 -0.72536170520E+00  0.33851429509E+02  0.35546860738E+02  0.10566000000E+00 0.  1.
         22    1    1    0    0    0  0.16857333746E+02  0.17213517425E+02  0.16836101060E+02  0.29392672251E+02  0.00000000000E+00 0. -1.
</event>
<event>
 5    1  0.1325832E-009  0.9118800E+02  0.7818608E-02  0.1130116E+00
         25   -1    0    0    0    0  0.00000000000E+00  0.00000000000E+00  0.99999998245E-14  0.12500000000E+03  0.12500000000E+03 0.  0.
        -13    1    3    3    0    0  0.56116488380E+02  0.11668746426E+02  0.64744849052E+01  0.57681453086E+02  0.10566000000E+00 0. -1.
         23    2    1    0    0    0  0.25679511403E+02 -0.44952062339E+01 -0.11449218487E+02  0.96526700420E+02  0.92231638308E+02 0.  0.
         13    1    3    3    0    0 -0.30436976977E+02 -0.16163952660E+02 -0.17923703393E+02  0.38845247334E+02  0.10566000000E+00 0.  1.
         22    1    1    0    0    0 -0.25679511403E+02  0.44952062339E+01  0.11449218487E+02  0.28473299580E+02  0.00000000000E+00 0. -1.
</event>
<event>
 5    1  0.1325832E-009  0.9118800E+02  0.7818608E-02  0.1130116E+00
         25   -1    0    0    0    0  0.00000000000E+00  0.00000000000E+00  0.99999998245E-14  0.12500000000E+03  0.12500000000E+03 0.  0.
        -13    1    3    3    0    0  0.30565304292E+02  0.59312124265E+01  0.17139652452E+02  0.35541468140E+02  0.10566000000E+00 0.  1.
         23    2    1    0    0    0 -0.15677215249E+02  0.12971572038E+02 -0.20898957198E+02  0.95831469508E+02  0.91284540734E+02 0.  0.
         13    1    3    3    0    0 -0.46242519541E+02  0.70403596115E+01 -0.38038609649E+02  0.60290001369E+02  0.10566000000E+00 0. -1.
         22    1    1    0    0    0  0.15677215249E+02 -0.12971572038E+02  0.20898957198E+02  0.29168530492E+02  0.00000000000E+00 0. -1.
</event>
<event>
 5    1  0.1325832E-009  0.9118800E+02  0.7818608E-02  0.1130116E+00
         25   -1    0    0    0    0  0.00000000000E+00  0.00000000000E+00  0.99999998245E-14  0.12500000000E+03  0.12500000000E+03 0.  0.
        -13    1    3    3    0    0  0.81232728743E+01 -0.20892963258E+02 -0.32078755724E+02  0.39135165884E+02  0.10566000000E+00 0.  1.
         23    2    1    0    0    0  0.30997312738E+01 -0.21151937842E+02  0.22510569581E+02  0.93955861241E+02  0.88679001518E+02 0.  0.
         13    1    3    3    0    0 -0.50235416006E+01 -0.25897458386E+00  0.54589325306E+02  0.54820695357E+02  0.10566000000E+00 0. -1.
         22    1    1    0    0    0 -0.30997312738E+01  0.21151937842E+02 -0.22510569581E+02  0.31044138759E+02  0.00000000000E+00 0. -1.
</event>
<event>
 5    1  0.1325832E-009  0.9118800E+02  0.7818608E-02  0.1130116E+00
         25   -1    0    0    0    0  0.00000000000E+00  0.00000000000E+00  0.99999998245E-14  0.12500000000E+03  0.12500000000E+03 0.  0.
        -13    1    3    3    0    0 -0.46862960412E+02 -0.27871635127E+02 -0.14586883821E+02  0.56442479100E+02  0.10566000000E+00 0.  1.
         23    2    1    0    0    0 -0.26221480555E+02 -0.57791789664E+01  0.10933778152E+02  0.96008407138E+02  0.91526508643E+02 0.  0.
         13    1    3    3    0    0  0.20641479857E+02  0.22092456161E+02  0.25520661973E+02  0.39565928038E+02  0.10566000000E+00 0. -1.
         22    1    1    0    0    0  0.26221480555E+02  0.57791789664E+01 -0.10933778152E+02  0.28991592862E+02  0.00000000000E+00 0.  1.
</event>
<event>
 5    1  0.1325832E-009  0.9118800E+02  0.7818608E-02  0.1130116E+00
         25   -1    0    0    0    0  0.00000000000E+00  0.00000000000E+00  0.99999998245E-14  0.12500000000E+03  0.12500000000E+03 0.  0.
        -13    1    3    3    0    0  0.22597658467E+02 -0.13555485941E+02  0.15457011616E+02  0.30550544012E+02  0.10566000000E+00 0.  1.
         23    2    1    0    0    0 -0.20202737325E+02  0.25133524244E+02 -0.61746485142E+01  0.92167532523E+02  0.86121327967E+02 0.  0.
         13    1    3    3    0    0 -0.42800395792E+02  0.38689010185E+02 -0.21631660131E+02  0.61616988511E+02  0.10566000000E+00 0. -1.
         22    1    1    0    0    0  0.20202737325E+02 -0.25133524244E+02  0.61746485142E+01  0.32832467477E+02  0.00000000000E+00 0. -1.
</event>
<event>
 5    1  0.1325832E-009  0.9118800E+02  0.7818608E-02  0.1130116E+00
         25   -1    0    0    0    0  0.00000000000E+00  0.00000000000E+00  0.99999998245E-14  0.12500000000E+03  0.12500000000E+03 0.  0.
        -13    1    3    3    0    0 -0.16766414908E+02 -0.79778699680E+01  0.38619810894E+02  0.42851604820E+02  0.10566000000E+00 0. -1.
         23    2    1    0    0    0 -0.21912870834E+02  0.16428082961E+02 -0.86337102386E+01  0.96284206951E+02  0.91902403329E+02 0.  0.
         13    1    3    3    0    0 -0.51464559263E+01  0.24405952929E+02 -0.47253521133E+02  0.53432602131E+02  0.10566000000E+00 0.  1.
         22    1    1    0    0    0  0.21912870834E+02 -0.16428082961E+02  0.86337102386E+01  0.28715793049E+02  0.00000000000E+00 0.  1.
</event>
<event>
 5    1  0.1325832E-009  0.9118800E+02  0.7818608E-02  0.1130116E+00
         25   -1    0    0    0    0  0.00000000000E+00  0.00000000000E+00  0.99999998245E-14  0.12500000000E+03  0.12500000000E+03 0.  0.
        -13    1    3    3    0    0 -0.21027250942E+02  0.11609895163E+02  0.29317231566E+02  0.37900477287E+02  0.10566000000E+00 0.  1.
         23    2    1    0    0    0  0.12353628487E+02 -0.27755795568E+02  0.98709993434E+01  0.93055783740E+02  0.87401063695E+02 0.  0.
         13    1    3    3    0    0  0.33380879429E+02 -0.39365690731E+02 -0.19446232223E+02  0.55155306453E+02  0.10566000000E+00 0. -1.
         22    1    1    0    0    0 -0.12353628487E+02  0.27755795568E+02 -0.98709993434E+01  0.31944216260E+02  0.00000000000E+00 0. -1.
</event>
<event>
 5    1  0.1325832E-009  0.9118800E+02  0.7818608E-02  0.1130116E+00
         25   -1    0    0    0    0  0.00000000000E+00  0.00000000000E+00  0.99999998245E-14  0.12500000000E+03  0.12500000000E+03 0.  0.
        -13    1    3    3    0    0  0.23293229629E+02  0.11390804532E+02  0.35412024682E+02  0.43890176926E+02  0.10566000000E+00 0.  1.
         23    2    1    0    0    0  0.24617750528E+02 -0.17856101875E+02 -0.53951523005E+01  0.94113406086E+02  0.88900795955E+02 0.  0.
         13    1    3    3    0    0  0.13245208992E+01 -0.29246906407E+02 -0.40807176982E+02  0.50223229161E+02  0.10566000000E+00 0. -1.
         22    1    1    0    0    0 -0.24617750528E+02  0.17856101875E+02  0.53951523005E+01  0.30886593914E+02  0.00000000000E+00 0. -1.
</event>
<event>
 5    1  0.1325832E-009  0.9118800E+02  0.7818608E-02  0.1130116E+00
         25   -1    0    0    0    0  0.00000000000E+00  0.00000000000E+00  0.99999998245E-14  0.12500000000E+03  0.12500000000E+03 0.  0.
        -13    1    3    3    0    0 -0.95903072203E+01 -0.13941119316E+00  0.33290613335E+02  0.34644906239E+02  0.10566000000E+00 0. -1.
         23    2    1    0    0    0  0.13325067468E+02 -0.14885483131E+02 -0.21384886531E+02  0.95734860277E+02  0.91152153399E+02 0.  0.
         13    1    3    3    0    0  0.22915374689E+02 -0.14746071938E+02 -0.54675499866E+02  0.61089954038E+02  0.10566000000E+00 0.  1.
         22    1    1    0    0    0 -0.13325067468E+02  0.14885483131E+02  0.21384886531E+02  0.29265139723E+02  0.00000000000E+00 0.  1.
</event>
<event>
 5    1  0.1325832E-009  0.9118800E+02  0.7818608E-02  0.1130116E+00
         25   -1    0    0    0    0  0.00000000000E+00  0.00000000000E+00  0.99999998245E-14  0.12500000000E+03  0.12500000000E+03 0.  0.
        -13    1    3    3    0    0  0.27469055991E+01 -0.31652370958E+02  0.15182802440E+02  0.35212877355E+02  0.10566000000E+00 0.  1.
         23    2    1    0    0    0  0.15778131103E+02  0.98341949344E+01  0.36796505471E+02  0.83773265640E+02  0.72926788014E+02 0.  0.
         13    1    3    3    0    0  0.13031225504E+02  0.41486565893E+02  0.21613703030E+02  0.48560388285E+02  0.10566000000E+00 0. -1.
         22    1    1    0    0    0 -0.15778131103E+02 -0.98341949344E+01 -0.36796505471E+02  0.41226734360E+02  0.00000000000E+00 0. -1.
</event>
<event>
 5    1  0.1325832E-009  0.9118800E+02  0.7818608E-02  0.1130116E+00
         25   -1    0    0    0    0  0.00000000000E+00  0.00000000000E+00  0.99999998245E-14  0.12500000000E+03  0.12500000000E+03 0.  0.
        -13    1    3    3    0    0 -0.10764532060E+01  0.31213419871E+02 -0.24527699897E+02  0.39712158816E+02  0.10566000000E+00 0.  1.
         23    2    1    0    0    0  0.18996772541E+02  0.69346670091E+01  0.21497130932E+02  0.95485704958E+02  0.90809835588E+02 0.  0.
         13    1    3    3    0    0  0.20073225747E+02 -0.24278752862E+02  0.46024830829E+02  0.55773546142E+02  0.10566000000E+00 0. -1.
         22    1    1    0    0    0 -0.18996772541E+02 -0.69346670091E+01 -0.21497130932E+02  0.29514295042E+02  0.00000000000E+00 0. -1.
</event>
<event>
 5    1  0.1325832E-009  0.9118800E+02  0.7818608E-02  0.1130116E+00
         25   -1    0    0    0    0  0.00000000000E+00  0.00000000000E+00  0.99999998245E-14  0.12500000000E+03  0.12500000000E+03 0.  0.
        -13    1    3    3    0    0  0.30636353803E+02 -0.16379066344E+02  0.24235588993E+02  0.42358410340E+02  0.10566000000E+00 0.  1.
         23    2    1    0    0    0 -0.12235121379E+02  0.13023526069E+02  0.24904312951E+02  0.94348161066E+02  0.89230265418E+02 0.  0.
         13    1    3    3    0    0 -0.42871475182E+02  0.29402592413E+02  0.66872395794E+00  0.51989750727E+02  0.10566000000E+00 0. -1.
         22    1    1    0    0    0  0.12235121379E+02 -0.13023526069E+02 -0.24904312951E+02  0.30651838934E+02  0.00000000000E+00 0. -1.
</event>
<event>
 5    1  0.1325832E-009  0.9118800E+02  0.7818608E-02  0.1130116E+00
         25   -1    0    0    0    0  0.00000000000E+00  0.00000000000E+00  0.99999998245E-14  0.12500000000E+03  0.12500000000E+03 0.  0.
        -13    1    3    3    0    0 -0.12429252369E+01  0.19023785459E+02 -0.53643374775E+02  0.56930414522E+02  0.10566000000E+00 0. -1.
         23    2    1    0    0    0  0.33027507074E+01 -0.92637897371E+01 -0.27788900852E+02  0.95522059551E+02  0.90859864009E+02 0.  0.
         13    1    3    3    0    0  0.45456759443E+01 -0.28287575196E+02  0.25854473923E+02  0.38591645030E+02  0.10566000000E+00 0.  1.
         22    1    1    0    0    0 -0.33027507074E+01  0.92637897371E+01  0.27788900852E+02  0.29477940449E+02  0.00000000000E+00 0. -1.
</event>
<event>
 5    1  0.1325832E-009  0.9118800E+02  0.7818608E-02  0.1130116E+00
         25   -1    0    0    0    0  0.00000000000E+00  0.00000000000E+00  0.99999998245E-14  0.12500000000E+03  0.12500000000E+03 0.  0.
        -13    1    3    3    0    0 -0.81231771331E+01 -0.47768332390E+02 -0.30372949916E+02  0.57186771518E+02  0.10566000000E+00 0.  1.
         23    2    1    0    0    0  0.10160383542E+02 -0.18716592096E+02 -0.25370668196E+02  0.91875763887E+02  0.85696796741E+02 0.  0.
         13    1    3    3    0    0  0.18283560675E+02  0.29051740294E+02  0.50022817204E+01  0.34688992368E+02  0.10566000000E+00 0. -1.
         22    1    1    0    0    0 -0.10160383542E+02  0.18716592096E+02  0.25370668196E+02  0.33124236113E+02  0.00000000000E+00 0.  1.
</event>
<event>
 5    1  0.1325832E-009  0.9118800E+02  0.7818608E-02  0.1130116E+00
         25   -1    0    0    0    0  0.00000000000E+00  0.00000000000E+00  0.99999998245E-14  0.12500000000E+03  0.12500000000E+03 0.  0.
        -13    1    3    3    0    0  0.43723724474E+02 -0.25788000817E+01  0.43968626805E+00  0.43802040817E+02  0.10566000000E+00 0.  1.
         23    2    1    0    0    0 -0.13691609376E+02 -0.14871009568E+02  0.85044368430E+01  0.10306982584E+03  0.10070976347E+03 0.  0.
         13    1    3    3    0    0 -0.57415333850E+02 -0.12292209486E+02  0.80647505750E+01  0.59267785018E+02  0.10566000000E+00 0. -1.
         22    1    1    0    0    0  0.13691609376E+02  0.14871009568E+02 -0.85044368430E+01  0.21930174165E+02  0.00000000000E+00 0. -1.
</event>
<event>
 5    1  0.1325832E-009  0.9118800E+02  0.7818608E-02  0.1130116E+00
         25   -1    0    0    0    0  0.00000000000E+00  0.00000000000E+00  0.99999998245E-14  0.12500000000E+03  0.12500000000E+03 0.  0.
        -13    1    3    3    0    0 -0.14275470419E+02  0.32976188785E+02 -0.13918949676E+02  0.38535261860E+02  0.10566000000E+00 0.  1.
         23    2    1    0    0    0  0.22027803373E+02 -0.11308218844E+02 -0.15442175797E+02  0.95818486533E+02  0.91266760835E+02 0.  0.
         13    1    3    3    0    0  0.36303273792E+02 -0.44284407629E+02 -0.15232261209E+01  0.57283224673E+02  0.10566000000E+00 0. -1.
         22    1    1    0    0    0 -0.22027803373E+02  0.11308218844E+02  0.15442175797E+02  0.29181513467E+02  0.00000000000E+00 0. -1.
</event>
<event>
 5    1  0.1325832E-009  0.9118800E+02  0.7818608E-02  0.1130116E+00
         25   -1    0    0    0    0  0.00000000000E+00  0.00000000000E+00  0.99999998245E-14  0.12500000000E+03  0.12500000000E+03 0.  0.
        -13    1    3    3    0    0  0.22403686013E+02  0.20217729127E+02  0.29258154308E+02  0.42032516883E+02  0.10566000000E+00 0.  1.
         23    2    1    0    0    0  0.46013907175E+00 -0.25440617838E+02  0.17735021211E+02  0.93984395197E+02  0.88719213247E+02 0.  0.
         13    1    3    3    0    0 -0.21943546941E+02 -0.45658346965E+02 -0.11523133097E+02  0.51951878314E+02  0.10566000000E+00 0. -1.
         22    1    1    0    0    0 -0.46013907175E+00  0.25440617838E+02 -0.17735021211E+02  0.31015604803E+02  0.00000000000E+00 0. -1.
</event>
<event>
 5    1  0.1325832E-009  0.9118800E+02  0.7818608E-02  0.1130116E+00
         25   -1    0    0    0    0  0.00000000000E+00  0.00000000000E+00  0.99999998245E-14  0.12500000000E+03  0.12500000000E+03 0.  0.
        -13    1    3    3    0    0  0.26536754469E+02 -0.17878632095E+02  0.30248714945E+02  0.44032269339E+02  0.10566000000E+00 0.  1.
         23    2    1    0    0    0 -0.20486633296E+02 -0.19069662959E+02  0.13077868228E+02  0.94106880595E+02  0.88891620239E+02 0.  0.
         13    1    3    3    0    0 -0.47023387765E+02 -0.11910308647E+01 -0.17170846716E+02  0.50074611256E+02  0.10566000000E+00 0. -1.
         22    1    1    0    0    0  0.20486633296E+02  0.19069662959E+02 -0.13077868228E+02  0.30893119405E+02  0.00000000000E+00 0.  1.
</event>
<event>
 5    1  0.1325832E-009  0.9118800E+02  0.7818608E-02  0.1130116E+00
         25   -1    0    0    0    0  0.00000000000E+00  0.00000000000E+00  0.99999998245E-14  0.12500000000E+03  0.12500000000E+03 0.  0.
        -13    1    3    3    0    0  0.40650471237E+02  0.14729561987E+02 -0.27612540413E+02  0.51301894314E+02  0.10566000000E+00 0. -1.
         23    2    1    0    0    0  0.10209627711E+02  0.23623188272E+02  0.70834776340E+01  0.98307919199E+02  0.94614902630E+02 0.  0.
         13    1    3    3    0    0 -0.30440843526E+02  0.88936262848E+01  0.34696018047E+02  0.47006024885E+02  0.10566000000E+00 0.  1.
         22    1    1    0    0    0 -0.10209627711E+02 -0.23623188272E+02 -0.70834776340E+01  0.26692080801E+02  0.00000000000E+00 0.  1.
</event>
<event>
 5    1  0.1325832E-009  0.9118800E+02  0.7818608E-02  0.1130116E+00
         25   -1    0    0    0    0  0.00000000000E+00  0.00000000000E+00  0.99999998245E-14  0.12500000000E+03  0.12500000000E+03 0.  0.
        -13    1    3    3    0    0 -0.32443835230E+02  0.14445493633E+02 -0.43507509189E+02  0.56162169212E+02  0.10566000000E+00 0.  1.
         23    2    1    0    0    0 -0.27017765469E+02 -0.83605968129E+01 -0.15281918710E+02  0.92853518552E+02  0.87111306028E+02 0.  0.
         13    1    3    3    0    0  0.54260697606E+01 -0.22806090446E+02  0.28225590479E+02  0.36691349340E+02  0.10566000000E+00 0. -1.
         22    1    1    0    0    0  0.27017765469E+02  0.83605968129E+01  0.15281918710E+02  0.32146481448E+02  0.00000000000E+00 0.  1.
</event>
<event>
 5    1  0.1325832E-009  0.9118800E+02  0.7818608E-02  0.1130116E+00
         25   -1    0    0    0    0  0.00000000000E+00  0.00000000000E+00  0.99999998245E-14  0.12500000000E+03  0.12500000000E+03 0.  0.
        -13    1    3    3    0    0  0.25316777578E+02 -0.40485592739E+02 -0.14751353377E+02  0.49976354778E+02  0.10566000000E+00 0.  1.
         23    2    1    0    0    0 -0.10853303767E+02 -0.25487340417E+02  0.91197148043E+01  0.95835502365E+02  0.91290062938E+02 0.  0.
         13    1    3    3    0    0 -0.36170081345E+02  0.14998252323E+02  0.23871068182E+02  0.45859147587E+02  0.10566000000E+00 0. -1.
         22    1    1    0    0    0  0.10853303767E+02  0.25487340417E+02 -0.91197148043E+01  0.29164497635E+02  0.00000000000E+00 0. -1.
</event>
<event>
 5    1  0.1325832E-009  0.9118800E+02  0.7818608E-02  0.1130116E+00
         25   -1    0    0    0    0  0.00000000000E+00  0.00000000000E+00  0.99999998245E-14  0.12500000000E+03  0.12500000000E+03 0.  0.
        -13    1    3    3    0    0  0.38669178245E+02 -0.11786177538E+02 -0.89940911781E+00  0.40435620780E+02  0.10566000000E+00 0. -1.
         23    2    1    0    0    0 -0.98008666933E+01 -0.17345252266E+01 -0.26876924710E+02  0.96339318787E+02  0.91977332516E+02 0.  0.
         13    1    3    3    0    0 -0.48470044938E+02  0.10051652312E+02 -0.25977515593E+02  0.55903698007E+02  0.10566000000E+00 0.  1.
         22    1    1    0    0    0  0.98008666933E+01  0.17345252266E+01  0.26876924710E+02  0.28660681213E+02  0.00000000000E+00 0.  1.
</event>
<event>
 5    1  0.1325832E-009  0.9118800E+02  0.7818608E-02  0.1130116E+00
         25   -1    0    0    0    0  0.00000000000E+00  0.00000000000E+00  0.99999998245E-14  0.12500000000E+03  0.12500000000E+03 0.  0.
        -13    1    3    3    0    0  0.47447651442E+02 -0.12685126997E+02 -0.24401728651E+02  0.54842024028E+02  0.10566000000E+00 0.  1.
         23    2    1    0    0    0  0.36192530829E+01 -0.67200739929E+01 -0.24774705015E+02  0.99076180915E+02  0.95624501195E+02 0.  0.
         13    1    3    3    0    0 -0.43828398360E+02  0.59650530040E+01 -0.37297636375E+00  0.44234156887E+02  0.10566000000E+00 0. -1.
         22    1    1    0    0    0 -0.36192530829E+01  0.67200739929E+01  0.24774705015E+02  0.25923819085E+02  0.00000000000E+00 0.  1.
</event>
<event>
 5    1  0.1325832E-009  0.9118800E+02  0.7818608E-02  0.1130116E+00
         25   -1    0    0    0    0  0.00000000000E+00  0.00000000000E+00  0.99999998245E-14  0.12500000000E+03  0.12500000000E+03 0.  0.
        -13    1    3    3    0    0 -0.68660287281E+01 -0.38193086311E+02  0.14174443011E+01  0.38831359812E+02  0.10566000000E+00 0. -1.
         23    2    1    0    0    0  0.28822409645E+02  0.42154987886E+01 -0.73758091753E+01  0.94951634174E+02  0.90071685582E+02 0.  0.
         13    1    3    3    0    0  0.35688438374E+02  0.42408585100E+02 -0.87932534765E+01  0.56120274362E+02  0.10566000000E+00 0.  1.
         22    1    1    0    0    0 -0.28822409645E+02 -0.42154987886E+01  0.73758091753E+01  0.30048365826E+02  0.00000000000E+00 0.  1.
</event>
<event>
 5    1  0.1325832E-009  0.9118800E+02  0.7818608E-02  0.1130116E+00
         25   -1    0    0    0    0  0.00000000000E+00  0.00000000000E+00  0.99999998245E-14  0.12500000000E+03  0.12500000000E+03 0.  0.
        -13    1    3    3    0    0 -0.61152114642E+01 -0.34402206391E+02 -0.15285462891E+02  0.38138748742E+02  0.10566000000E+00 0.  1.
         23    2    1    0    0    0 -0.18808408124E+02  0.18177385809E+02  0.88737907844E+01  0.97379034523E+02  0.93379647841E+02 0.  0.
         13    1    3    3    0    0 -0.12693196659E+02  0.52579592199E+02  0.24159253675E+02  0.59240285781E+02  0.10566000000E+00 0. -1.
         22    1    1    0    0    0  0.18808408124E+02 -0.18177385809E+02 -0.88737907844E+01  0.27620965477E+02  0.00000000000E+00 0. -1.
</event>
<event>
 5    1  0.1325832E-009  0.9118800E+02  0.7818608E-02  0.1130116E+00
         25   -1    0    0    0    0  0.00000000000E+00  0.00000000000E+00  0.99999998245E-14  0.12500000000E+03  0.12500000000E+03 0.  0.
        -13    1    3    3    0    0  0.14539626334E+02  0.10686296290E+02  0.55874526864E+02  0.58716024888E+02  0.10566000000E+00 0.  1.
         23    2    1    0    0    0  0.19944840293E+02 -0.22336496507E+01  0.22849606582E+02  0.94587989774E+02  0.89565604132E+02 0.  0.
         13    1    3    3    0    0  0.54052139589E+01 -0.12919945941E+02 -0.33024920283E+02  0.35871964886E+02  0.10566000000E+00 0. -1.
         22    1    1    0    0    0 -0.19944840293E+02  0.22336496507E+01 -0.22849606582E+02  0.30412010226E+02  0.00000000000E+00 0.  1.
</event>
<event>
 5    1  0.1325832E-009  0.9118800E+02  0.7818608E-02  0.1130116E+00
         25   -1    0    0    0    0  0.00000000000E+00  0.00000000000E+00  0.99999998245E-14  0.12500000000E+03  0.12500000000E+03 0.  0.
        -13    1    3    3    0    0  0.34549175343E+02  0.45195205387E+02  0.12720611645E+02  0.58293029013E+02  0.10566000000E+00 0.  1.
         23    2    1    0    0    0  0.15402553468E+02  0.94924054645E+01  0.18391552958E+02  0.99200898561E+02  0.95787392909E+02 0.  0.
         13    1    3    3    0    0 -0.19146621875E+02 -0.35702799923E+02  0.56709413131E+01  0.40907869548E+02  0.10566000000E+00 0. -1.
         22    1    1    0    0    0 -0.15402553468E+02 -0.94924054645E+01 -0.18391552958E+02  0.25799101439E+02  0.00000000000E+00 0.  1.
</event>
<event>
 5    1  0.1325832E-009  0.9118800E+02  0.7818608E-02  0.1130116E+00
         25   -1    0    0    0    0  0.00000000000E+00  0.00000000000E+00  0.99999998245E-14  0.12500000000E+03  0.12500000000E+03 0.  0.
        -13    1    3    3    0    0 -0.43785473068E+01  0.19437142702E+02 -0.25039432359E+02  0.31999352022E+02  0.10566000000E+00 0. -1.
         23    2    1    0    0    0  0.72042449537E+01 -0.32377450438E+02  0.23617983652E+01  0.91746751531E+02  0.85508408257E+02 0.  0.
         13    1    3    3    0    0  0.11582792260E+02 -0.51814593140E+02  0.27401230724E+02  0.59747399509E+02  0.10566000000E+00 0.  1.
         22    1    1    0    0    0 -0.72042449537E+01  0.32377450438E+02 -0.23617983652E+01  0.33253248469E+02  0.00000000000E+00 0.  1.
</event>
<event>
 5    1  0.1325832E-009  0.9118800E+02  0.7818608E-02  0.1130116E+00
         25   -1    0    0    0    0  0.00000000000E+00  0.00000000000E+00  0.99999998245E-14  0.12500000000E+03  0.12500000000E+03 0.  0.
        -13    1    3    3    0    0 -0.33942486176E+02  0.12907686227E+02  0.21789236411E+02  0.42349530327E+02  0.10566000000E+00 0.  1.
         23    2    1    0    0    0  0.15464504742E+02 -0.86645021081E+01  0.22613209783E+02  0.96267061403E+02  0.91879080050E+02 0.  0.
         13    1    3    3    0    0  0.49406990918E+02 -0.21572188335E+02  0.82397337257E+00  0.53917531076E+02  0.10566000000E+00 0. -1.
         22    1    1    0    0    0 -0.15464504742E+02  0.86645021081E+01 -0.22613209783E+02  0.28732938597E+02  0.00000000000E+00 0.  1.
</event>
<event>
 5    1  0.1325832E-009  0.9118800E+02  0.7818608E-02  0.1130116E+00
         25   -1    0    0    0    0  0.00000000000E+00  0.00000000000E+00  0.99999998245E-14  0.12500000000E+03  0.12500000000E+03 0.  0.
        -13    1    3    3    0    0 -0.28557159627E+02  0.55248971451E+02  0.24488707828E+00  0.62193499227E+02  0.10566000000E+00 0.  1.
         23    2    1    0    0    0 -0.12331231539E+02  0.26292213500E+02 -0.41069463099E+01  0.95670718215E+02  0.91064150761E+02 0.  0.
         13    1    3    3    0    0  0.16225928088E+02 -0.28956757951E+02 -0.43518333882E+01  0.33477218988E+02  0.10566000000E+00 0. -1.
         22    1    1    0    0    0  0.12331231539E+02 -0.26292213500E+02  0.41069463099E+01  0.29329281785E+02  0.00000000000E+00 0.  1.
</event>
<event>
 5    1  0.1325832E-009  0.9118800E+02  0.7818608E-02  0.1130116E+00
         25   -1    0    0    0    0  0.00000000000E+00  0.00000000000E+00  0.99999998245E-14  0.12500000000E+03  0.12500000000E+03 0.  0.
        -13    1    3    3    0    0  0.16652849955E+02  0.35112180418E+02  0.22054414481E+02  0.44683229376E+02  0.10566000000E+00 0.  1.
         23    2    1    0    0    0  0.24342955400E+02  0.76481451846E+00 -0.15482021614E+02  0.96140730916E+02  0.91707048414E+02 0.  0.
         13    1    3    3    0    0  0.76901054446E+01 -0.34347365899E+02 -0.37536436095E+02  0.51457501540E+02  0.10566000000E+00 0. -1.
         22    1    1    0    0    0 -0.24342955400E+02 -0.76481451846E+00  0.15482021614E+02  0.28859269084E+02  0.00000000000E+00 0. -1.
</event>
<event>
 5    1  0.1325832E-009  0.9118800E+02  0.7818608E-02  0.1130116E+00
         25   -1    0    0    0    0  0.00000000000E+00  0.00000000000E+00  0.99999998245E-14  0.12500000000E+03  0.12500000000E+03 0.  0.
        -13    1    3    3    0    0  0.12621171247E+02  0.13432696110E+02 -0.52597932382E+02  0.55734055508E+02  0.10566000000E+00 0. -1.
         23    2    1    0    0    0 -0.15727644207E+01  0.24394571208E+02 -0.18210145531E+02  0.94517577318E+02  0.89467280776E+02 0.  0.
         13    1    3    3    0    0 -0.14193935668E+02  0.10961875098E+02  0.34387786851E+02  0.38783521810E+02  0.10566000000E+00 0.  1.
         22    1    1    0    0    0  0.15727644207E+01 -0.24394571208E+02  0.18210145531E+02  0.30482422682E+02  0.00000000000E+00 0. -1.
</event>
<event>
 5    1  0.1325832E-009  0.9118800E+02  0.7818608E-02  0.1130116E+00
         25   -1    0    0    0    0  0.00000000000E+00  0.00000000000E+00  0.99999998245E-14  0.12500000000E+03  0.12500000000E+03 0.  0.
        -13    1    3    3    0    0 -0.44754523271E+01  0.21520239467E+02 -0.52548806411E+02  0.56960851464E+02  0.10566000000E+00 0.  1.
         23    2    1    0    0    0 -0.19963808786E+02  0.14077458404E+02 -0.21452298208E+02  0.92489546377E+02  0.86587450558E+02 0.  0.
         13    1    3    3    0    0 -0.15488356459E+02 -0.74427810632E+01  0.31096508203E+02  0.35528694913E+02  0.10566000000E+00 0. -1.
         22    1    1    0    0    0  0.19963808786E+02 -0.14077458404E+02  0.21452298208E+02  0.32510453623E+02  0.00000000000E+00 0.  1.
</event>
<event>
 5    1  0.1325832E-009  0.9118800E+02  0.7818608E-02  0.1130116E+00
         25   -1    0    0    0    0  0.00000000000E+00  0.00000000000E+00  0.99999998245E-14  0.12500000000E+03  0.12500000000E+03 0.  0.
        -13    1    3    3    0    0 -0.26852183551E+02  0.33390229705E+02 -0.28372137253E+02  0.51390043175E+02  0.10566000000E+00 0.  1.
         23    2    1    0    0    0 -0.18043322178E+02  0.19512263532E+02  0.12638051314E+02  0.95571948002E+02  0.90928471891E+02 0.  0.
         13    1    3    3    0    0  0.88088613727E+01 -0.13877966173E+02  0.41010188567E+02  0.44181904827E+02  0.10566000000E+00 0. -1.
         22    1    1    0    0    0  0.18043322178E+02 -0.19512263532E+02 -0.12638051314E+02  0.29428051998E+02  0.00000000000E+00 0. -1.
</event>
<event>
 5    1  0.1325832E-009  0.9118800E+02  0.7818608E-02  0.1130116E+00
         25   -1    0    0    0    0  0.00000000000E+00  0.00000000000E+00  0.99999998245E-14  0.12500000000E+03  0.12500000000E+03 0.  0.
        -13    1    3    3    0    0 -0.10090624048E+02  0.12189756710E+02  0.47040311039E+02  0.49630765549E+02  0.10566000000E+00 0. -1.
         23    2    1    0    0    0 -0.22187080403E+02  0.20507156917E+02  0.47253318151E+01  0.94419961047E+02  0.89330791229E+02 0.  0.
         13    1    3    3    0    0 -0.12096456354E+02  0.83174002073E+01 -0.42314979224E+02  0.44789195497E+02  0.10566000000E+00 0.  1.
         22    1    1    0    0    0  0.22187080403E+02 -0.20507156917E+02 -0.47253318151E+01  0.30580038953E+02  0.00000000000E+00 0.  1.
</event>
<event>
 5    1  0.1325832E-009  0.9118800E+02  0.7818608E-02  0.1130116E+00
         25   -1    0    0    0    0  0.00000000000E+00  0.00000000000E+00  0.99999998245E-14  0.12500000000E+03  0.12500000000E+03 0.  0.
        -13    1    3    3    0    0  0.48962335466E+02 -0.23761196928E+02 -0.90383194121E+01  0.55168896631E+02  0.10566000000E+00 0. -1.
         23    2    1    0    0    0  0.26322638132E+02  0.74317980075E+01 -0.14410175003E+02  0.94084533911E+02  0.88860190624E+02 0.  0.
         13    1    3    3    0    0 -0.22639697333E+02  0.31192994935E+02 -0.53718555913E+01  0.38915637280E+02  0.10566000000E+00 0.  1.
         22    1    1    0    0    0 -0.26322638132E+02 -0.74317980075E+01  0.14410175003E+02  0.30915466089E+02  0.00000000000E+00 0. -1.
</event>
<event>
 5    1  0.1325832E-009  0.9118800E+02  0.7818608E-02  0.1130116E+00
         25   -1    0    0    0    0  0.00000000000E+00  0.00000000000E+00  0.99999998245E-14  0.12500000000E+03  0.12500000000E+03 0.  0.
        -13    1    3    3    0    0 -0.18148295630E+02 -0.27440605584E+02  0.67287078060E+01  0.33580264172E+02  0.10566000000E+00 0.  1.
         23    2    1    0    0    0  0.20876138567E+02  0.20532279244E+02  0.75615131511E+00  0.95709055712E+02  0.91116759864E+02 0.  0.
         13    1    3    3    0    0  0.39024434198E+02  0.47972884828E+02 -0.59725564909E+01  0.62128791540E+02  0.10566000000E+00 0. -1.
         22    1    1    0    0    0 -0.20876138567E+02 -0.20532279244E+02 -0.75615131511E+00  0.29290944288E+02  0.00000000000E+00 0. -1.
</event>
<event>
 5    1  0.1325832E-009  0.9118800E+02  0.7818608E-02  0.1130116E+00
         25   -1    0    0    0    0  0.00000000000E+00  0.00000000000E+00  0.99999998245E-14  0.12500000000E+03  0.12500000000E+03 0.  0.
        -13    1    3    3    0    0  0.16084788823E+02  0.26882693298E+02  0.52294411474E+02  0.60959956249E+02  0.10566000000E+00 0.  1.
         23    2    1    0    0    0  0.12071349194E+02  0.19385347011E+02  0.19092793375E+02  0.95233510302E+02  0.90462022835E+02 0.  0.
         13    1    3    3    0    0 -0.40134396297E+01 -0.74973462872E+01 -0.33201618099E+02  0.34273554053E+02  0.10566000000E+00 0. -1.
         22    1    1    0    0    0 -0.12071349194E+02 -0.19385347011E+02 -0.19092793375E+02  0.29766489698E+02  0.00000000000E+00 0.  1.
</event>
<event>
 5    1  0.1325832E-009  0.9118800E+02  0.7818608E-02  0.1130116E+00
         25   -1    0    0    0    0  0.00000000000E+00  0.00000000000E+00  0.99999998245E-14  0.12500000000E+03  0.12500000000E+03 0.  0.
        -13    1    3    3    0    0  0.45756956840E+02  0.11122329351E+02 -0.11143573989E+00  0.47089583683E+02  0.10566000000E+00 0. -1.
         23    2    1    0    0    0  0.12575446819E+01  0.22490225446E+02  0.17701509231E+02  0.96351525551E+02  0.91993920384E+02 0.  0.
         13    1    3    3    0    0 -0.44499412158E+02  0.11367896094E+02  0.17812944970E+02  0.49261941868E+02  0.10566000000E+00 0.  1.
         22    1    1    0    0    0 -0.12575446819E+01 -0.22490225446E+02 -0.17701509231E+02  0.28648474449E+02  0.00000000000E+00 0.  1.
</event>
<event>
 5    1  0.1325832E-009  0.9118800E+02  0.7818608E-02  0.1130116E+00
         25   -1    0    0    0    0  0.00000000000E+00  0.00000000000E+00  0.99999998245E-14  0.12500000000E+03  0.12500000000E+03 0.  0.
        -13    1    3    3    0    0 -0.14225896606E+02  0.31848615834E+02 -0.10189133233E+02  0.36339235888E+02  0.10566000000E+00 0.  1.
         23    2    1    0    0    0 -0.12100882003E+02 -0.26787794137E+02 -0.38076509066E+01  0.95360238439E+02  0.90636966022E+02 0.  0.
         13    1    3    3    0    0  0.21250146035E+01 -0.58636409972E+02  0.63814823262E+01  0.59021002551E+02  0.10566000000E+00 0. -1.
         22    1    1    0    0    0  0.12100882003E+02  0.26787794137E+02  0.38076509066E+01  0.29639761561E+02  0.00000000000E+00 0. -1.
</event>
<event>
 5    1  0.1325832E-009  0.9118800E+02  0.7818608E-02  0.1130116E+00
         25   -1    0    0    0    0  0.00000000000E+00  0.00000000000E+00  0.99999998245E-14  0.12500000000E+03  0.12500000000E+03 0.  0.
        -13    1    3    3    0    0  0.27146395968E+02 -0.30085427380E+02 -0.43091772394E+02  0.59152107036E+02  0.10566000000E+00 0.  1.
         23    2    1    0    0    0  0.28331788535E+00 -0.10383269213E+02 -0.26843019442E+02  0.96217362155E+02  0.91811440130E+02 0.  0.
         13    1    3    3    0    0 -0.26863078083E+02  0.19702158167E+02  0.16248752952E+02  0.37065255119E+02  0.10566000000E+00 0. -1.
         22    1    1    0    0    0 -0.28331788535E+00  0.10383269213E+02  0.26843019442E+02  0.28782637845E+02  0.00000000000E+00 0.  1.
</event>
<event>
 5    1  0.1325832E-009  0.9118800E+02  0.7818608E-02  0.1130116E+00
         25   -1    0    0    0    0  0.00000000000E+00  0.00000000000E+00  0.99999998245E-14  0.12500000000E+03  0.12500000000E+03 0.  0.
        -13    1    3    3    0    0 -0.23025261200E+02 -0.31360056893E+02 -0.45955649312E+02  0.60212529339E+02  0.10566000000E+00 0. -1.
         23    2    1    0    0    0 -0.16564705134E+02 -0.20785029298E+02 -0.13017233154E+02  0.95405148115E+02  0.90698881077E+02 0.  0.
         13    1    3    3    0    0  0.64605560653E+01  0.10575027595E+02  0.32938416158E+02  0.35192618776E+02  0.10566000000E+00 0.  1.
         22    1    1    0    0    0  0.16564705134E+02  0.20785029298E+02  0.13017233154E+02  0.29594851885E+02  0.00000000000E+00 0. -1.
</event>
<event>
 5    1  0.1325832E-009  0.9118800E+02  0.7818608E-02  0.1130116E+00
         25   -1    0    0    0    0  0.00000000000E+00  0.00000000000E+00  0.99999998245E-14  0.12500000000E+03  0.12500000000E+03 0.  0.
        -13    1    3    3    0    0 -0.13349462320E+02  0.13935965891E+02  0.28968040983E+02  0.34807726900E+02  0.10566000000E+00 0. -1.
         23    2    1    0    0    0  0.20998176892E+02 -0.11337394788E+02 -0.15599225030E+02  0.96490426609E+02  0.92182463909E+02 0.  0.
         13    1    3    3    0    0  0.34347639212E+02 -0.25273360679E+02 -0.44567266013E+02  0.61682699709E+02  0.10566000000E+00 0.  1.
         22    1    1    0    0    0 -0.20998176892E+02  0.11337394788E+02  0.15599225030E+02  0.28509573391E+02  0.00000000000E+00 0.  1.
</event>
<event>
 5    1  0.1325832E-009  0.9118800E+02  0.7818608E-02  0.1130116E+00
         25   -1    0    0    0    0  0.00000000000E+00  0.00000000000E+00  0.99999998245E-14  0.12500000000E+03  0.12500000000E+03 0.  0.
        -13    1    3    3    0    0  0.12901656156E+01 -0.36570068801E+02  0.12421527080E+02  0.38643757044E+02  0.10566000000E+00 0. -1.
         23    2    1    0    0    0 -0.22676014258E+02  0.58615242787E+01 -0.17441203154E+02  0.95798036761E+02  0.91238748295E+02 0.  0.
         13    1    3    3    0    0 -0.23966179874E+02  0.42431593080E+02 -0.29862730234E+02  0.57154279718E+02  0.10566000000E+00 0.  1.
         22    1    1    0    0    0  0.22676014258E+02 -0.58615242787E+01  0.17441203154E+02  0.29201963239E+02  0.00000000000E+00 0.  1.
</event>
<event>
 5    1  0.1325832E-009  0.9118800E+02  0.7818608E-02  0.1130116E+00
         25   -1    0    0    0    0  0.00000000000E+00  0.00000000000E+00  0.99999998245E-14  0.12500000000E+03  0.12500000000E+03 0.  0.
        -13    1    3    3    0    0 -0.44254688626E+02  0.19921241140E+02 -0.24815438323E+02  0.54508260449E+02  0.10566000000E+00 0. -1.
         23    2    1    0    0    0 -0.18668305753E+02 -0.96367329489E+01 -0.23293368557E+02  0.93631970411E+02  0.88221270693E+02 0.  0.
         13    1    3    3    0    0  0.25586382874E+02 -0.29557974089E+02  0.15220697660E+01  0.39123709962E+02  0.10566000000E+00 0.  1.
         22    1    1    0    0    0  0.18668305753E+02  0.96367329489E+01  0.23293368557E+02  0.31368029589E+02  0.00000000000E+00 0. -1.
</event>
<event>
 5    1  0.1325832E-009  0.9118800E+02  0.7818608E-02  0.1130116E+00
         25   -1    0    0    0    0  0.00000000000E+00  0.00000000000E+00  0.99999998245E-14  0.12500000000E+03  0.12500000000E+03 0.  0.
        -13    1    3    3    0    0  0.16884549016E+02  0.44381622742E+02  0.31606789128E+02  0.57042236244E+02  0.10566000000E+00 0.  1.
         23    2    1    0    0    0 -0.49335718461E+01  0.12183656136E+02  0.25361445724E+02  0.96434556940E+02  0.92106673129E+02 0.  0.
         13    1    3    3    0    0 -0.21818120863E+02 -0.32197966606E+02 -0.62453434039E+01  0.39392320696E+02  0.10566000000E+00 0. -1.
         22    1    1    0    0    0  0.49335718461E+01 -0.12183656136E+02 -0.25361445724E+02  0.28565443060E+02  0.00000000000E+00 0.  1.
</event>
<event>
 5    1  0.1325832E-009  0.9118800E+02  0.7818608E-02  0.1130116E+00
         25   -1    0    0    0    0  0.00000000000E+00  0.00000000000E+00  0.99999998245E-14  0.12500000000E+03  0.12500000000E+03 0.  0.
        -13    1    3    3    0    0  0.20820103806E+02 -0.18425672111E+02  0.20957266600E+02  0.34816667023E+02  0.10566000000E+00 0. -1.
         23    2    1    0    0    0 -0.26836304528E+02  0.12028363014E+01 -0.11557261324E+02  0.95756122945E+02  0.91181306945E+02 0.  0.
         13    1    3    3    0    0 -0.47656408335E+02  0.19628508412E+02 -0.32514527924E+02  0.60939455921E+02  0.10566000000E+00 0.  1.
         22    1    1    0    0    0  0.26836304528E+02 -0.12028363014E+01  0.11557261324E+02  0.29243877055E+02  0.00000000000E+00 0.  1.
</event>
<event>
 5    1  0.1325832E-009  0.9118800E+02  0.7818608E-02  0.1130116E+00
         25   -1    0    0    0    0  0.00000000000E+00  0.00000000000E+00  0.99999998245E-14  0.12500000000E+03  0.12500000000E+03 0.  0.
        -13    1    3    3    0    0  0.47251375937E+02  0.20640206173E+02  0.17980463060E+02  0.54607864403E+02  0.10566000000E+00 0. -1.
         23    2    1    0    0    0  0.14370863814E+02  0.24979492068E+02 -0.60362655761E+01  0.95556269720E+02  0.90906916293E+02 0.  0.
         13    1    3    3    0    0 -0.32880512123E+02  0.43392858942E+01 -0.24016728637E+02  0.40948405316E+02  0.10566000000E+00 0.  1.
         22    1    1    0    0    0 -0.14370863814E+02 -0.24979492068E+02  0.60362655761E+01  0.29443730280E+02  0.00000000000E+00 0. -1.
</event>
<event>
 5    1  0.1325832E-009  0.9118800E+02  0.7818608E-02  0.1130116E+00
         25   -1    0    0    0    0  0.00000000000E+00  0.00000000000E+00  0.99999998245E-14  0.12500000000E+03  0.12500000000E+03 0.  0.
        -13    1    3    3    0    0  0.36039609820E+02  0.41048115795E+02  0.13545648136E+02  0.56278744067E+02  0.10566000000E+00 0.  1.
         23    2    1    0    0    0  0.21672955248E+02  0.15972247816E+02 -0.12622057271E+02  0.95265407028E+02  0.90506086850E+02 0.  0.
         13    1    3    3    0    0 -0.14366654572E+02 -0.25075867979E+02 -0.26167705407E+02  0.38986662961E+02  0.10566000000E+00 0. -1.
         22    1    1    0    0    0 -0.21672955248E+02 -0.15972247816E+02  0.12622057271E+02  0.29734592972E+02  0.00000000000E+00 0.  1.
</event>
<event>
 5    1  0.1325832E-009  0.9118800E+02  0.7818608E-02  0.1130116E+00
         25   -1    0    0    0    0  0.00000000000E+00  0.00000000000E+00  0.99999998245E-14  0.12500000000E+03  0.12500000000E+03 0.  0.
        -13    1    3    3    0    0  0.24229992276E+01  0.26208405324E+02 -0.23397192504E+02  0.35216348703E+02  0.10566000000E+00 0.  1.
         23    2    1    0    0    0  0.49780838199E+01 -0.60094797417E+01  0.28001359786E+02  0.95931609691E+02  0.91421564321E+02 0.  0.
         13    1    3    3    0    0  0.25550845923E+01 -0.32217885066E+02  0.51398552289E+02  0.60715260988E+02  0.10566000000E+00 0. -1.
         22    1    1    0    0    0 -0.49780838199E+01  0.60094797417E+01 -0.28001359786E+02  0.29068390309E+02  0.00000000000E+00 0. -1.
</event>
<event>
 5    1  0.1325832E-009  0.9118800E+02  0.7818608E-02  0.1130116E+00
         25   -1    0    0    0    0  0.00000000000E+00  0.00000000000E+00  0.99999998245E-14  0.12500000000E+03  0.12500000000E+03 0.  0.
        -13    1    3    3    0    0  0.12095749558E+02 -0.35731976274E+02  0.23842250598E+01  0.37799166380E+02  0.10566000000E+00 0. -1.
         23    2    1    0    0    0 -0.18020258670E+02  0.11736862640E+02  0.18876991282E+02  0.96384890931E+02  0.92039245611E+02 0.  0.
         13    1    3    3    0    0 -0.30116008229E+02  0.47468838914E+02  0.16492766222E+02  0.58585724551E+02  0.10566000000E+00 0.  1.
         22    1    1    0    0    0  0.18020258670E+02 -0.11736862640E+02 -0.18876991282E+02  0.28615109069E+02  0.00000000000E+00 0.  1.
</event>
<event>
 5    1  0.1325832E-009  0.9118800E+02  0.7818608E-02  0.1130116E+00
         25   -1    0    0    0    0  0.00000000000E+00  0.00000000000E+00  0.99999998245E-14  0.12500000000E+03  0.12500000000E+03 0.  0.
        -13    1    3    3    0    0 -0.42832198789E+02  0.27256153616E+02 -0.82003764461E+01  0.51427157232E+02  0.10566000000E+00 0.  1.
         23    2    1    0    0    0 -0.27283666755E+02 -0.12033975740E+02  0.26789540272E+01  0.95060196421E+02  0.90222220684E+02 0.  0.
         13    1    3    3    0    0  0.15548532035E+02 -0.39290129356E+02  0.10879330473E+02  0.43633039189E+02  0.10566000000E+00 0. -1.
         22    1    1    0    0    0  0.27283666755E+02  0.12033975740E+02 -0.26789540272E+01  0.29939803579E+02  0.00000000000E+00 0.  1.
</event>
<event>
 5    1  0.1325832E-009  0.9118800E+02  0.7818608E-02  0.1130116E+00
         25   -1    0    0    0    0  0.00000000000E+00  0.00000000000E+00  0.99999998245E-14  0.12500000000E+03  0.12500000000E+03 0.  0.
        -13    1    3    3    0    0 -0.30071881729E+02 -0.32103847552E+02 -0.44086315971E+02  0.62278323021E+02  0.10566000000E+00 0.  1.
         23    2    1    0    0    0 -0.13542074819E+02 -0.19879088291E+02 -0.23991649689E+02  0.91026993120E+02  0.84449678981E+02 0.  0.
         13    1    3    3    0    0  0.16529806910E+02  0.12224759261E+02  0.20094666282E+02  0.28748670100E+02  0.10566000000E+00 0. -1.
         22    1    1    0    0    0  0.13542074819E+02  0.19879088291E+02  0.23991649689E+02  0.33973006880E+02  0.00000000000E+00 0.  1.
</event>
<event>
 5    1  0.1325832E-009  0.9118800E+02  0.7818608E-02  0.1130116E+00
         25   -1    0    0    0    0  0.00000000000E+00  0.00000000000E+00  0.99999998245E-14  0.12500000000E+03  0.12500000000E+03 0.  0.
        -13    1    3    3    0    0  0.46796287021E+02 -0.23666319057E+02  0.98953713997E+01  0.53365875575E+02  0.10566000000E+00 0.  1.
         23    2    1    0    0    0  0.10092816044E+02 -0.15644978330E+02  0.24974951315E+02  0.93849101524E+02  0.88528387430E+02 0.  0.
         13    1    3    3    0    0 -0.36703470977E+02  0.80213407266E+01  0.15079579916E+02  0.40483225949E+02  0.10566000000E+00 0. -1.
         22    1    1    0    0    0 -0.10092816044E+02  0.15644978330E+02 -0.24974951315E+02  0.31150898476E+02  0.00000000000E+00 0.  1.
</event>
<event>
 5    1  0.1325832E-009  0.9118800E+02  0.7818608E-02  0.1130116E+00
         25   -1    0    0    0    0  0.00000000000E+00  0.00000000000E+00  0.99999998245E-14  0.12500000000E+03  0.12500000000E+03 0.  0.
        -13    1    3    3    0    0 -0.10709287860E+02 -0.49230991113E+02 -0.41962135074E+01  0.50556885825E+02  0.10566000000E+00 0. -1.
         23    2    1    0    0    0  0.88214966126E+01 -0.15559134549E+02  0.21373469966E+02  0.97130111432E+02  0.93045837403E+02 0.  0.
         13    1    3    3    0    0  0.19530784473E+02  0.33671856564E+02  0.25569683473E+02  0.46573225608E+02  0.10566000000E+00 0.  1.
         22    1    1    0    0    0 -0.88214966126E+01  0.15559134549E+02 -0.21373469966E+02  0.27869888568E+02  0.00000000000E+00 0.  1.
</event>
<event>
 5    1  0.1325832E-009  0.9118800E+02  0.7818608E-02  0.1130116E+00
         25   -1    0    0    0    0  0.00000000000E+00  0.00000000000E+00  0.99999998245E-14  0.12500000000E+03  0.12500000000E+03 0.  0.
        -13    1    3    3    0    0  0.12674874524E+01 -0.32842795941E+02 -0.39058287811E+02  0.51047201495E+02  0.10566000000E+00 0. -1.
         23    2    1    0    0    0 -0.81937209583E+01  0.10212239885E+02 -0.24054527424E+02  0.97613010458E+02  0.93692329539E+02 0.  0.
         13    1    3    3    0    0 -0.94612084107E+01  0.43055035826E+02  0.15003760388E+02  0.46565808963E+02  0.10566000000E+00 0.  1.
         22    1    1    0    0    0  0.81937209583E+01 -0.10212239885E+02  0.24054527424E+02  0.27386989542E+02  0.00000000000E+00 0. -1.
</event>
<event>
 5    1  0.1325832E-009  0.9118800E+02  0.7818608E-02  0.1130116E+00
         25   -1    0    0    0    0  0.00000000000E+00  0.00000000000E+00  0.99999998245E-14  0.12500000000E+03  0.12500000000E+03 0.  0.
        -13    1    3    3    0    0  0.20435541366E+02 -0.52828961917E+02 -0.76080221769E+01  0.57152460433E+02  0.10566000000E+00 0.  1.
         23    2    1    0    0    0  0.18777307865E+02 -0.17764117663E+02  0.11028554595E+02  0.96896971987E+02  0.92732103378E+02 0.  0.
         13    1    3    3    0    0 -0.16582335008E+01  0.35064844253E+02  0.18636576772E+02  0.39744511554E+02  0.10566000000E+00 0. -1.
         22    1    1    0    0    0 -0.18777307865E+02  0.17764117663E+02 -0.11028554595E+02  0.28103028013E+02  0.00000000000E+00 0. -1.
</event>
<event>
 5    1  0.1325832E-009  0.9118800E+02  0.7818608E-02  0.1130116E+00
         25   -1    0    0    0    0  0.00000000000E+00  0.00000000000E+00  0.99999998245E-14  0.12500000000E+03  0.12500000000E+03 0.  0.
        -13    1    3    3    0    0  0.50514944428E+02 -0.21439030123E+02 -0.74674409126E+01  0.55381995820E+02  0.10566000000E+00 0. -1.
         23    2    1    0    0    0  0.12047334249E+02 -0.18037566674E+02 -0.19501586894E+02  0.95831455891E+02  0.91284522088E+02 0.  0.
         13    1    3    3    0    0 -0.38467610179E+02  0.34014634489E+01 -0.12034145982E+02  0.40449460071E+02  0.10566000000E+00 0.  1.
         22    1    1    0    0    0 -0.12047334249E+02  0.18037566674E+02  0.19501586894E+02  0.29168544109E+02  0.00000000000E+00 0. -1.
</event>
<event>
 5    1  0.1325832E-009  0.9118800E+02  0.7818608E-02  0.1130116E+00
         25   -1    0    0    0    0  0.00000000000E+00  0.00000000000E+00  0.99999998245E-14  0.12500000000E+03  0.12500000000E+03 0.  0.
        -13    1    3    3    0    0  0.23999503913E+02 -0.28493738265E+02 -0.40333007237E+01  0.37471962681E+02  0.10566000000E+00 0.  1.
         23    2    1    0    0    0 -0.23381306728E+02 -0.48735162850E+01  0.18279388328E+02  0.94923884843E+02  0.90033167282E+02 0.  0.
         13    1    3    3    0    0 -0.47380810641E+02  0.23620221980E+02  0.22312689051E+02  0.57451922162E+02  0.10566000000E+00 0. -1.
         22    1    1    0    0    0  0.23381306728E+02  0.48735162850E+01 -0.18279388328E+02  0.30076115157E+02  0.00000000000E+00 0. -1.
</event>
<event>
 5    1  0.1325832E-009  0.9118800E+02  0.7818608E-02  0.1130116E+00
         25   -1    0    0    0    0  0.00000000000E+00  0.00000000000E+00  0.99999998245E-14  0.12500000000E+03  0.12500000000E+03 0.  0.
        -13    1    3    3    0    0 -0.12282391039E+02  0.82129143327E+01  0.37045322761E+02  0.39883282137E+02  0.10566000000E+00 0. -1.
         23    2    1    0    0    0 -0.16652958371E+02  0.15274095638E+02 -0.18345780912E+02  0.95893528257E+02  0.91369481033E+02 0.  0.
         13    1    3    3    0    0 -0.43705673319E+01  0.70611813050E+01 -0.55391103673E+02  0.56010246120E+02  0.10566000000E+00 0.  1.
         22    1    1    0    0    0  0.16652958371E+02 -0.15274095638E+02  0.18345780912E+02  0.29106471743E+02  0.00000000000E+00 0.  1.
</event>
<event>
 5    1  0.1325832E-009  0.9118800E+02  0.7818608E-02  0.1130116E+00
         25   -1    0    0    0    0  0.00000000000E+00  0.00000000000E+00  0.99999998245E-14  0.12500000000E+03  0.12500000000E+03 0.  0.
        -13    1    3    3    0    0 -0.73135765293E+01 -0.14576374566E+02  0.30242128086E+02  0.34359228344E+02  0.10566000000E+00 0.  1.
         23    2    1    0    0    0  0.16175211506E+02  0.18859448580E+01 -0.24162453061E+02  0.95862079807E+02  0.91326447164E+02 0.  0.
         13    1    3    3    0    0  0.23488788035E+02  0.16462319424E+02 -0.54404581148E+02  0.61502851463E+02  0.10566000000E+00 0. -1.
         22    1    1    0    0    0 -0.16175211506E+02 -0.18859448580E+01  0.24162453061E+02  0.29137920193E+02  0.00000000000E+00 0. -1.
</event>
<event>
 5    1  0.1325832E-009  0.9118800E+02  0.7818608E-02  0.1130116E+00
         25   -1    0    0    0    0  0.00000000000E+00  0.00000000000E+00  0.99999998245E-14  0.12500000000E+03  0.12500000000E+03 0.  0.
        -13    1    3    3    0    0 -0.87949404037E+01 -0.11550417066E+02 -0.37267838595E+02  0.39995825641E+02  0.10566000000E+00 0. -1.
         23    2    1    0    0    0  0.29399808596E+02 -0.36710429394E+01  0.19551229469E+01  0.95307445252E+02  0.90564128179E+02 0.  0.
         13    1    3    3    0    0  0.38194749000E+02  0.78793741264E+01  0.39222961542E+02  0.55311619611E+02  0.10566000000E+00 0.  1.
         22    1    1    0    0    0 -0.29399808596E+02  0.36710429394E+01 -0.19551229469E+01  0.29692554748E+02  0.00000000000E+00 0.  1.
</event>
<event>
 5    1  0.1325832E-009  0.9118800E+02  0.7818608E-02  0.1130116E+00
         25   -1    0    0    0    0  0.00000000000E+00  0.00000000000E+00  0.99999998245E-14  0.12500000000E+03  0.12500000000E+03 0.  0.
        -13    1    3    3    0    0 -0.32197845194E+02 -0.38654711428E+01 -0.31816378301E+01  0.32584921139E+02  0.10566000000E+00 0.  1.
         23    2    1    0    0    0  0.14181332945E+02 -0.23995525583E+02  0.22394374150E+02  0.89245231847E+02  0.81769847509E+02 0.  0.
         13    1    3    3    0    0  0.46379178139E+02 -0.20130054441E+02  0.25576011980E+02  0.56660310708E+02  0.10566000000E+00 0. -1.
         22    1    1    0    0    0 -0.14181332945E+02  0.23995525583E+02 -0.22394374150E+02  0.35754768153E+02  0.00000000000E+00 0. -1.
</event>
<event>
 5    1  0.1325832E-009  0.9118800E+02  0.7818608E-02  0.1130116E+00
         25   -1    0    0    0    0  0.00000000000E+00  0.00000000000E+00  0.99999998245E-14  0.12500000000E+03  0.12500000000E+03 0.  0.
        -13    1    3    3    0    0 -0.29317772938E+01  0.31193324945E+02 -0.18419673979E+02  0.36344385987E+02  0.10566000000E+00 0.  1.
         23    2    1    0    0    0  0.23577293317E+02 -0.11202613345E+02  0.13446359968E+02  0.95636895561E+02  0.91017711959E+02 0.  0.
         13    1    3    3    0    0  0.26509070611E+02 -0.42395938290E+02  0.31866033947E+02  0.59292509574E+02  0.10566000000E+00 0. -1.
         22    1    1    0    0    0 -0.23577293317E+02  0.11202613345E+02 -0.13446359968E+02  0.29363104439E+02  0.00000000000E+00 0. -1.
</event>
<event>
 5    1  0.1325832E-009  0.9118800E+02  0.7818608E-02  0.1130116E+00
         25   -1    0    0    0    0  0.00000000000E+00  0.00000000000E+00  0.99999998245E-14  0.12500000000E+03  0.12500000000E+03 0.  0.
        -13    1    3    3    0    0 -0.36491693415E+02 -0.81717918533E+01 -0.25637800651E+01  0.37483409698E+02  0.10566000000E+00 0.  1.
         23    2    1    0    0    0  0.10850562391E+02  0.12510026164E+02  0.24207236025E+02  0.95670394909E+02  0.91063706970E+02 0.  0.
         13    1    3    3    0    0  0.47342255806E+02  0.20681818018E+02  0.26771016090E+02  0.58186985210E+02  0.10566000000E+00 0. -1.
         22    1    1    0    0    0 -0.10850562391E+02 -0.12510026164E+02 -0.24207236025E+02  0.29329605091E+02  0.00000000000E+00 0. -1.
</event>
<event>
 5    1  0.1325832E-009  0.9118800E+02  0.7818608E-02  0.1130116E+00
         25   -1    0    0    0    0  0.00000000000E+00  0.00000000000E+00  0.99999998245E-14  0.12500000000E+03  0.12500000000E+03 0.  0.
        -13    1    3    3    0    0  0.30524741150E+02 -0.47134472115E+02  0.10031854988E+02  0.57044434981E+02  0.10566000000E+00 0.  1.
         23    2    1    0    0    0 -0.20941664436E+01 -0.24556883258E+02  0.13557186048E+02  0.96871307496E+02  0.92697501984E+02 0.  0.
         13    1    3    3    0    0 -0.32618907594E+02  0.22577588857E+02  0.35253310603E+01  0.39826872515E+02  0.10566000000E+00 0. -1.
         22    1    1    0    0    0  0.20941664436E+01  0.24556883258E+02 -0.13557186048E+02  0.28128692504E+02  0.00000000000E+00 0.  1.
</event>
<event>
 5    1  0.1325832E-009  0.9118800E+02  0.7818608E-02  0.1130116E+00
         25   -1    0    0    0    0  0.00000000000E+00  0.00000000000E+00  0.99999998245E-14  0.12500000000E+03  0.12500000000E+03 0.  0.
        -13    1    3    3    0    0  0.39934819390E+02  0.28363894227E+02 -0.28721078263E+02  0.56782143285E+02  0.10566000000E+00 0. -1.
         23    2    1    0    0    0  0.29464806340E+02  0.36878168189E+01 -0.10809243340E+01  0.95285639786E+02  0.90534026456E+02 0.  0.
         13    1    3    3    0    0 -0.10470013050E+02 -0.24676077408E+02  0.27640153929E+02  0.38503496501E+02  0.10566000000E+00 0.  1.
         22    1    1    0    0    0 -0.29464806340E+02 -0.36878168189E+01  0.10809243340E+01  0.29714360214E+02  0.00000000000E+00 0. -1.
</event>
<event>
 5    1  0.1325832E-009  0.9118800E+02  0.7818608E-02  0.1130116E+00
         25   -1    0    0    0    0  0.00000000000E+00  0.00000000000E+00  0.99999998245E-14  0.12500000000E+03  0.12500000000E+03 0.  0.
        -13    1    3    3    0    0  0.50214530262E+00  0.22535460788E+02  0.36366128679E+02  0.42785577265E+02  0.10566000000E+00 0. -1.
         23    2    1    0    0    0 -0.15252496942E+02 -0.21836171296E+02  0.12405853188E+02  0.95616973724E+02  0.90990348010E+02 0.  0.
         13    1    3    3    0    0 -0.15754642245E+02 -0.44371632084E+02 -0.23960275491E+02  0.52831396458E+02  0.10566000000E+00 0.  1.
         22    1    1    0    0    0  0.15252496942E+02  0.21836171296E+02 -0.12405853188E+02  0.29383026276E+02  0.00000000000E+00 0.  1.
</event>
<event>
 5    1  0.1325832E-009  0.9118800E+02  0.7818608E-02  0.1130116E+00
         25   -1    0    0    0    0  0.00000000000E+00  0.00000000000E+00  0.99999998245E-14  0.12500000000E+03  0.12500000000E+03 0.  0.
        -13    1    3    3    0    0  0.30452626747E+02 -0.55688562166E+01  0.13739539459E+02  0.33869761498E+02  0.10566000000E+00 0. -1.
         23    2    1    0    0    0 -0.20847425946E+02 -0.96802592956E+01 -0.19265630087E+02  0.95008549697E+02  0.90150637404E+02 0.  0.
         13    1    3    3    0    0 -0.51300052693E+02 -0.41114030790E+01 -0.33005169546E+02  0.61138788199E+02  0.10566000000E+00 0.  1.
         22    1    1    0    0    0  0.20847425946E+02  0.96802592956E+01  0.19265630087E+02  0.29991450303E+02  0.00000000000E+00 0.  1.
</event>
<event>
 4    1  0.1325832E-009  0.9118800E+02  0.7818608E-02  0.1130116E+00
         25   -1    0    0    0    0  0.00000000000E+00  0.00000000000E+00  0.99999998245E-14  0.12500000000E+03  0.12500000000E+03 0.  0.
        -13    1    1    0    0    0  0.12716077892E+02 -0.14916639979E+02  0.58315888184E+01  0.20450510444E+02  0.10566000000E+00 0.  1.
         13    1    1    0    0    0 -0.26760508646E+02 -0.29991642349E+02  0.25881636921E+02  0.47806837665E+02  0.10566000000E+00 0. -1.
         22    1    1    0    0    0  0.14044430754E+02  0.44908282328E+02 -0.31713225739E+02  0.56742651891E+02  0.00000000000E+00 0. -1.
</event>
<event>
 5    1  0.1325832E-009  0.9118800E+02  0.7818608E-02  0.1130116E+00
         25   -1    0    0    0    0  0.00000000000E+00  0.00000000000E+00  0.99999998245E-14  0.12500000000E+03  0.12500000000E+03 0.  0.
        -13    1    3    3    0    0 -0.28646940562E+01 -0.21534294175E+02 -0.24804006543E+02  0.32972446107E+02  0.10566000000E+00 0.  1.
         23    2    1    0    0    0 -0.15079466274E+01  0.23494862062E+02  0.18192042831E+02  0.95247136798E+02  0.90480849905E+02 0.  0.
         13    1    3    3    0    0  0.13567474288E+01  0.45029156236E+02  0.42996049374E+02  0.62274690692E+02  0.10566000000E+00 0. -1.
         22    1    1    0    0    0  0.15079466274E+01 -0.23494862062E+02 -0.18192042831E+02  0.29752863202E+02  0.00000000000E+00 0. -1.
</event>
<event>
 5    1  0.1325832E-009  0.9118800E+02  0.7818608E-02  0.1130116E+00
         25   -1    0    0    0    0  0.00000000000E+00  0.00000000000E+00  0.99999998245E-14  0.12500000000E+03  0.12500000000E+03 0.  0.
        -13    1    3    3    0    0  0.21335056081E+02  0.30012161888E+02  0.38863464347E+02  0.53537785762E+02  0.10566000000E+00 0. -1.
         23    2    1    0    0    0 -0.11059324522E+02  0.28539287051E+01  0.24128157192E+02  0.98305027863E+02  0.94611082679E+02 0.  0.
         13    1    3    3    0    0 -0.32394380603E+02 -0.27158233183E+02 -0.14735307155E+02  0.44767242101E+02  0.10566000000E+00 0.  1.
         22    1    1    0    0    0  0.11059324522E+02 -0.28539287051E+01 -0.24128157192E+02  0.26694972137E+02  0.00000000000E+00 0. -1.
</event>
<event>
 5    1  0.1325832E-009  0.9118800E+02  0.7818608E-02  0.1130116E+00
         25   -1    0    0    0    0  0.00000000000E+00  0.00000000000E+00  0.99999998245E-14  0.12500000000E+03  0.12500000000E+03 0.  0.
        -13    1    3    3    0    0 -0.35364551415E+02 -0.15967808022E+02 -0.44866799923E+02  0.59318321699E+02  0.10566000000E+00 0.  1.
         23    2    1    0    0    0 -0.28528934194E+01 -0.41626660915E+01 -0.25592350232E+02  0.98914847514E+02  0.95413373687E+02 0.  0.
         13    1    3    3    0    0  0.32511657996E+02  0.11805141930E+02  0.19274449692E+02  0.39596525814E+02  0.10566000000E+00 0. -1.
         22    1    1    0    0    0  0.28528934194E+01  0.41626660915E+01  0.25592350232E+02  0.26085152486E+02  0.00000000000E+00 0.  1.
</event>
<event>
 5    1  0.1325832E-009  0.9118800E+02  0.7818608E-02  0.1130116E+00
         25   -1    0    0    0    0  0.00000000000E+00  0.00000000000E+00  0.99999998245E-14  0.12500000000E+03  0.12500000000E+03 0.  0.
        -13    1    3    3    0    0 -0.84613442828E+01  0.20092494047E+02  0.30129124014E+02  0.37189755874E+02  0.10566000000E+00 0. -1.
         23    2    1    0    0    0 -0.19742174203E+02 -0.19450823334E+02 -0.10844381670E+02  0.95239479433E+02  0.90470270576E+02 0.  0.
         13    1    3    3    0    0 -0.11280829921E+02 -0.39543317381E+02 -0.40973505684E+02  0.58049723559E+02  0.10566000000E+00 0.  1.
         22    1    1    0    0    0  0.19742174203E+02  0.19450823334E+02  0.10844381670E+02  0.29760520567E+02  0.00000000000E+00 0.  1.
</event>
<event>
 5    1  0.1325832E-009  0.9118800E+02  0.7818608E-02  0.1130116E+00
         25   -1    0    0    0    0  0.00000000000E+00  0.00000000000E+00  0.99999998245E-14  0.12500000000E+03  0.12500000000E+03 0.  0.
        -13    1    3    3    0    0  0.21681703336E+02 -0.27737651642E+02  0.18636930572E+02  0.39834908352E+02  0.10566000000E+00 0. -1.
         23    2    1    0    0    0  0.86165185695E+01 -0.65178404291E+01 -0.29250375093E+02  0.93818096928E+02  0.88484598840E+02 0.  0.
         13    1    3    3    0    0 -0.13065184766E+02  0.21219811213E+02 -0.47887305666E+02  0.53983188576E+02  0.10566000000E+00 0.  1.
         22    1    1    0    0    0 -0.86165185695E+01  0.65178404291E+01  0.29250375093E+02  0.31181903072E+02  0.00000000000E+00 0.  1.
</event>
<event>
 5    1  0.1325832E-009  0.9118800E+02  0.7818608E-02  0.1130116E+00
         25   -1    0    0    0    0  0.00000000000E+00  0.00000000000E+00  0.99999998245E-14  0.12500000000E+03  0.12500000000E+03 0.  0.
        -13    1    3    3    0    0 -0.28358421210E+02  0.31388041647E+02  0.38948992341E+01  0.42480473349E+02  0.10566000000E+00 0.  1.
         23    2    1    0    0    0 -0.21779929164E+02 -0.18719513674E+02  0.12381282894E+02  0.93725702683E+02  0.88353979371E+02 0.  0.
         13    1    3    3    0    0  0.65784920456E+01 -0.50107555320E+02  0.84863836602E+01  0.51245229334E+02  0.10566000000E+00 0. -1.
         22    1    1    0    0    0  0.21779929164E+02  0.18719513674E+02 -0.12381282894E+02  0.31274297317E+02  0.00000000000E+00 0. -1.
</event>
<event>
 5    1  0.1325832E-009  0.9118800E+02  0.7818608E-02  0.1130116E+00
         25   -1    0    0    0    0  0.00000000000E+00  0.00000000000E+00  0.99999998245E-14  0.12500000000E+03  0.12500000000E+03 0.  0.
        -13    1    3    3    0    0  0.31198782398E+02 -0.31862894001E+02  0.41404791982E+02  0.60852082958E+02  0.10566000000E+00 0. -1.
         23    2    1    0    0    0  0.10968619170E+02 -0.10029064945E+02  0.27577501965E+02  0.93672514227E+02  0.88278698206E+02 0.  0.
         13    1    3    3    0    0 -0.20230163228E+02  0.21833829056E+02 -0.13827290016E+02  0.32820431269E+02  0.10566000000E+00 0.  1.
         22    1    1    0    0    0 -0.10968619170E+02  0.10029064945E+02 -0.27577501965E+02  0.31327485773E+02  0.00000000000E+00 0. -1.
</event>
<event>
 5    1  0.1325832E-009  0.9118800E+02  0.7818608E-02  0.1130116E+00
         25   -1    0    0    0    0  0.00000000000E+00  0.00000000000E+00  0.99999998245E-14  0.12500000000E+03  0.12500000000E+03 0.  0.
        -13    1    3    3    0    0 -0.15956495989E+02  0.10933123626E+02 -0.58677750656E+02  0.61783756301E+02  0.10566000000E+00 0.  1.
         23    2    1    0    0    0 -0.12828396207E+02  0.12700443006E+02 -0.36182673915E+02  0.84564187984E+02  0.74270094896E+02 0.  0.
         13    1    3    3    0    0  0.31280997826E+01  0.17673193795E+01  0.22495076741E+02  0.22780431683E+02  0.10566000000E+00 0. -1.
         22    1    1    0    0    0  0.12828396207E+02 -0.12700443006E+02  0.36182673915E+02  0.40435812016E+02  0.00000000000E+00 0.  1.
</event>
<event>
 5    1  0.1325832E-009  0.9118800E+02  0.7818608E-02  0.1130116E+00
         25   -1    0    0    0    0  0.00000000000E+00  0.00000000000E+00  0.99999998245E-14  0.12500000000E+03  0.12500000000E+03 0.  0.
        -13    1    3    3    0    0 -0.56478671730E+02  0.10680181622E+02  0.98668460806E+01  0.58320429144E+02  0.10566000000E+00 0.  1.
         23    2    1    0    0    0 -0.22580070029E+02 -0.52791935513E+01  0.16722664375E+02  0.96410194984E+02  0.92073605045E+02 0.  0.
         13    1    3    3    0    0  0.33898601701E+02 -0.15959375174E+02  0.68558182942E+01  0.38089765840E+02  0.10566000000E+00 0. -1.
         22    1    1    0    0    0  0.22580070029E+02  0.52791935513E+01 -0.16722664375E+02  0.28589805016E+02  0.00000000000E+00 0.  1.
</event>
<event>
 5    1  0.1325832E-009  0.9118800E+02  0.7818608E-02  0.1130116E+00
         25   -1    0    0    0    0  0.00000000000E+00  0.00000000000E+00  0.99999998245E-14  0.12500000000E+03  0.12500000000E+03 0.  0.
        -13    1    3    3    0    0  0.17204938492E+02  0.45926609591E+02 -0.24508947427E+02  0.54826663633E+02  0.10566000000E+00 0.  1.
         23    2    1    0    0    0  0.83224074757E+00  0.25539874728E+02  0.95108355661E+01  0.97734017184E+02  0.93853632300E+02 0.  0.
         13    1    3    3    0    0 -0.16372697744E+02 -0.20386734863E+02  0.34019782993E+02  0.42907353551E+02  0.10566000000E+00 0. -1.
         22    1    1    0    0    0 -0.83224074757E+00 -0.25539874728E+02 -0.95108355661E+01  0.27265982816E+02  0.00000000000E+00 0.  1.
</event>
<event>
 5    1  0.1325832E-009  0.9118800E+02  0.7818608E-02  0.1130116E+00
         25   -1    0    0    0    0  0.00000000000E+00  0.00000000000E+00  0.99999998245E-14  0.12500000000E+03  0.12500000000E+03 0.  0.
        -13    1    3    3    0    0 -0.25555515822E+02 -0.32794983629E+02  0.25099869233E+02  0.48565522129E+02  0.10566000000E+00 0. -1.
         23    2    1    0    0    0  0.26419431031E+01  0.92007594903E+01  0.23999800620E+02  0.99161573803E+02  0.95736061391E+02 0.  0.
         13    1    3    3    0    0  0.28197458925E+02  0.41995743119E+02 -0.11000686126E+01  0.50596051674E+02  0.10566000000E+00 0.  1.
         22    1    1    0    0    0 -0.26419431031E+01 -0.92007594903E+01 -0.23999800620E+02  0.25838426197E+02  0.00000000000E+00 0.  1.
</event>
<event>
 5    1  0.1325832E-009  0.9118800E+02  0.7818608E-02  0.1130116E+00
         25   -1    0    0    0    0  0.00000000000E+00  0.00000000000E+00  0.99999998245E-14  0.12500000000E+03  0.12500000000E+03 0.  0.
        -13    1    3    3    0    0 -0.12639485409E+02  0.32465181318E+02  0.58683261529E+01  0.35329775053E+02  0.10566000000E+00 0.  1.
         23    2    1    0    0    0  0.21672230061E+02 -0.12744221141E+02 -0.14910522832E+02  0.95769460842E+02  0.91199589970E+02 0.  0.
         13    1    3    3    0    0  0.34311715471E+02 -0.45209402458E+02 -0.20778848985E+02  0.60439685790E+02  0.10566000000E+00 0. -1.
         22    1    1    0    0    0 -0.21672230061E+02  0.12744221141E+02  0.14910522832E+02  0.29230539158E+02  0.00000000000E+00 0. -1.
</event>
<event>
 5    1  0.1325832E-009  0.9118800E+02  0.7818608E-02  0.1130116E+00
         25   -1    0    0    0    0  0.00000000000E+00  0.00000000000E+00  0.99999998245E-14  0.12500000000E+03  0.12500000000E+03 0.  0.
        -13    1    3    3    0    0  0.32069927717E+02 -0.11474727500E+02 -0.22611950180E+02  0.40883506332E+02  0.10566000000E+00 0.  1.
         23    2    1    0    0    0 -0.12266389388E+01 -0.18897437638E+02  0.21306159835E+02  0.96494382320E+02  0.92187827722E+02 0.  0.
         13    1    3    3    0    0 -0.33296566656E+02 -0.74227101383E+01  0.43918110015E+02  0.55610875989E+02  0.10566000000E+00 0. -1.
         22    1    1    0    0    0  0.12266389388E+01  0.18897437638E+02 -0.21306159835E+02  0.28505617680E+02  0.00000000000E+00 0. -1.
</event>
<event>
 5    1  0.1325832E-009  0.9118800E+02  0.7818608E-02  0.1130116E+00
         25   -1    0    0    0    0  0.00000000000E+00  0.00000000000E+00  0.99999998245E-14  0.12500000000E+03  0.12500000000E+03 0.  0.
        -13    1    3    3    0    0  0.65678291452E+01  0.58394891910E+01 -0.30179186224E+02  0.31432951800E+02  0.10566000000E+00 0. -1.
         23    2    1    0    0    0 -0.89665743921E+00 -0.15568022619E+02  0.27488054721E+02  0.93396828084E+02  0.87887467940E+02 0.  0.
         13    1    3    3    0    0 -0.74644865844E+01 -0.21407511810E+02  0.57667240945E+02  0.61963876284E+02  0.10566000000E+00 0.  1.
         22    1    1    0    0    0  0.89665743921E+00  0.15568022619E+02 -0.27488054721E+02  0.31603171916E+02  0.00000000000E+00 0.  1.
</event>
<event>
 5    1  0.1325832E-009  0.9118800E+02  0.7818608E-02  0.1130116E+00
         25   -1    0    0    0    0  0.00000000000E+00  0.00000000000E+00  0.99999998245E-14  0.12500000000E+03  0.12500000000E+03 0.  0.
        -13    1    3    3    0    0 -0.43385030142E+01 -0.39210070625E+02 -0.35051488058E+02  0.52771869646E+02  0.10566000000E+00 0.  1.
         23    2    1    0    0    0 -0.97278845260E+01  0.21578430139E+01 -0.28254959926E+02  0.95039512951E+02  0.90193559846E+02 0.  0.
         13    1    3    3    0    0 -0.53893815118E+01  0.41367913638E+02  0.67965281320E+01  0.42267643305E+02  0.10566000000E+00 0. -1.
         22    1    1    0    0    0  0.97278845260E+01 -0.21578430139E+01  0.28254959926E+02  0.29960487049E+02  0.00000000000E+00 0.  1.
</event>
<event>
 5    1  0.1325832E-009  0.9118800E+02  0.7818608E-02  0.1130116E+00
         25   -1    0    0    0    0  0.00000000000E+00  0.00000000000E+00  0.99999998245E-14  0.12500000000E+03  0.12500000000E+03 0.  0.
        -13    1    3    3    0    0  0.13088295305E+02 -0.18998239274E+02  0.56771557309E+01  0.23758742195E+02  0.10566000000E+00 0.  1.
         23    2    1    0    0    0 -0.33694469320E+02  0.31250792183E+01 -0.24092386104E+02  0.83460543443E+02  0.72388782699E+02 0.  0.
         13    1    3    3    0    0 -0.46782764625E+02  0.22123318492E+02 -0.29769541835E+02  0.59701801247E+02  0.10566000000E+00 0. -1.
         22    1    1    0    0    0  0.33694469320E+02 -0.31250792183E+01  0.24092386104E+02  0.41539456557E+02  0.00000000000E+00 0. -1.
</event>
<event>
 5    1  0.1325832E-009  0.9118800E+02  0.7818608E-02  0.1130116E+00
         25   -1    0    0    0    0  0.00000000000E+00  0.00000000000E+00  0.99999998245E-14  0.12500000000E+03  0.12500000000E+03 0.  0.
        -13    1    3    3    0    0 -0.42152530346E+01  0.42167173262E+02  0.64675272757E+01  0.42868157554E+02  0.10566000000E+00 0. -1.
         23    2    1    0    0    0  0.15492351640E+02  0.48582139530E+00 -0.22764382805E+02  0.97459736634E+02  0.93487615001E+02 0.  0.
         13    1    3    3    0    0  0.19707604674E+02 -0.41681351866E+02 -0.29231910081E+02  0.54591579080E+02  0.10566000000E+00 0.  1.
         22    1    1    0    0    0 -0.15492351640E+02 -0.48582139530E+00  0.22764382805E+02  0.27540263366E+02  0.00000000000E+00 0.  1.
</event>
<event>
 5    1  0.1325832E-009  0.9118800E+02  0.7818608E-02  0.1130116E+00
         25   -1    0    0    0    0  0.00000000000E+00  0.00000000000E+00  0.99999998245E-14  0.12500000000E+03  0.12500000000E+03 0.  0.
        -13    1    3    3    0    0 -0.41288983888E+02 -0.41913818991E+02 -0.46921346469E+01  0.59021823968E+02  0.10566000000E+00 0. -1.
         23    2    1    0    0    0 -0.11633073882E+02 -0.23575126501E+02 -0.14142866528E+02  0.95148104397E+02  0.90343932276E+02 0.  0.
         13    1    3    3    0    0  0.29655910006E+02  0.18338692490E+02 -0.94507318808E+01  0.36126280429E+02  0.10566000000E+00 0.  1.
         22    1    1    0    0    0  0.11633073882E+02  0.23575126501E+02  0.14142866528E+02  0.29851895603E+02  0.00000000000E+00 0. -1.
</event>
<event>
 5    1  0.1325832E-009  0.9118800E+02  0.7818608E-02  0.1130116E+00
         25   -1    0    0    0    0  0.00000000000E+00  0.00000000000E+00  0.99999998245E-14  0.12500000000E+03  0.12500000000E+03 0.  0.
        -13    1    3    3    0    0 -0.32234044128E+02 -0.13486943900E+02  0.22639928623E+02  0.41635427087E+02  0.10566000000E+00 0.  1.
         23    2    1    0    0    0  0.20460845074E+02 -0.34541041288E+00  0.20571251831E+02  0.95983765038E+02  0.91492848133E+02 0.  0.
         13    1    3    3    0    0  0.52694889202E+02  0.13141533487E+02 -0.20686767917E+01  0.54348337951E+02  0.10566000000E+00 0. -1.
         22    1    1    0    0    0 -0.20460845074E+02  0.34541041288E+00 -0.20571251831E+02  0.29016234962E+02  0.00000000000E+00 0.  1.
</event>
<event>
 5    1  0.1325832E-009  0.9118800E+02  0.7818608E-02  0.1130116E+00
         25   -1    0    0    0    0  0.00000000000E+00  0.00000000000E+00  0.99999998245E-14  0.12500000000E+03  0.12500000000E+03 0.  0.
        -13    1    3    3    0    0 -0.28844991809E+02 -0.31909784210E+02  0.31213222186E+02  0.53146441875E+02  0.10566000000E+00 0. -1.
         23    2    1    0    0    0 -0.42609377905E+01 -0.28365040908E+02 -0.37903834901E+01  0.96067351598E+02  0.91606975169E+02 0.  0.
         13    1    3    3    0    0  0.24584054018E+02  0.35447433020E+01 -0.35003605676E+02  0.42920909723E+02  0.10566000000E+00 0.  1.
         22    1    1    0    0    0  0.42609377905E+01  0.28365040908E+02  0.37903834901E+01  0.28932648402E+02  0.00000000000E+00 0. -1.
</event>
<event>
 5    1  0.1325832E-009  0.9118800E+02  0.7818608E-02  0.1130116E+00
         25   -1    0    0    0    0  0.00000000000E+00  0.00000000000E+00  0.99999998245E-14  0.12500000000E+03  0.12500000000E+03 0.  0.
        -13    1    3    3    0    0  0.55899339605E+02 -0.15756597521E+02 -0.19364030868E+02  0.61220775797E+02  0.10566000000E+00 0.  1.
         23    2    1    0    0    0  0.23340675114E+02 -0.15703657987E+02 -0.73662204234E+01  0.95919883214E+02  0.91405529392E+02 0.  0.
         13    1    3    3    0    0 -0.32558664491E+02  0.52939534105E-01  0.11997810444E+02  0.34699107417E+02  0.10566000000E+00 0. -1.
         22    1    1    0    0    0 -0.23340675114E+02  0.15703657987E+02  0.73662204234E+01  0.29080116786E+02  0.00000000000E+00 0.  1.
</event>
<event>
 5    1  0.1325832E-009  0.9118800E+02  0.7818608E-02  0.1130116E+00
         25   -1    0    0    0    0  0.00000000000E+00  0.00000000000E+00  0.99999998245E-14  0.12500000000E+03  0.12500000000E+03 0.  0.
        -13    1    3    3    0    0 -0.12048470904E+01 -0.19842176778E+02 -0.40533651512E+02  0.45145893553E+02  0.10566000000E+00 0.  1.
         23    2    1    0    0    0  0.23926007560E+02  0.88439436854E+01 -0.19176937656E+01  0.99419798143E+02  0.96072626360E+02 0.  0.
         13    1    3    3    0    0  0.25130854651E+02  0.28686120464E+02  0.38615957746E+02  0.54273904590E+02  0.10566000000E+00 0. -1.
         22    1    1    0    0    0 -0.23926007560E+02 -0.88439436854E+01  0.19176937656E+01  0.25580201857E+02  0.00000000000E+00 0. -1.
</event>
<event>
 5    1  0.1325832E-009  0.9118800E+02  0.7818608E-02  0.1130116E+00
         25   -1    0    0    0    0  0.00000000000E+00  0.00000000000E+00  0.99999998245E-14  0.12500000000E+03  0.12500000000E+03 0.  0.
        -13    1    3    3    0    0 -0.19900654844E+02  0.29252743672E+02  0.38919028509E+02  0.52597157905E+02  0.10566000000E+00 0. -1.
         23    2    1    0    0    0  0.64298542476E+01  0.27875799862E+02  0.43661477674E+01  0.96060986715E+02  0.91598289715E+02 0.  0.
         13    1    3    3    0    0  0.26330509092E+02 -0.13769438104E+01 -0.34552880741E+02  0.43463828810E+02  0.10566000000E+00 0.  1.
         22    1    1    0    0    0 -0.64298542476E+01 -0.27875799862E+02 -0.43661477674E+01  0.28939013285E+02  0.00000000000E+00 0.  1.
</event>
<event>
 5    1  0.1325832E-009  0.9118800E+02  0.7818608E-02  0.1130116E+00
         25   -1    0    0    0    0  0.00000000000E+00  0.00000000000E+00  0.99999998245E-14  0.12500000000E+03  0.12500000000E+03 0.  0.
        -13    1    3    3    0    0  0.32657151785E+02 -0.39953377581E+02 -0.59021501030E+01  0.51938506743E+02  0.10566000000E+00 0.  1.
         23    2    1    0    0    0  0.14527183000E+02 -0.50288918016E+01 -0.24979403277E+02  0.95669139346E+02  0.91061983486E+02 0.  0.
         13    1    3    3    0    0 -0.18129968785E+02  0.34924485779E+02 -0.19077253174E+02  0.43730632602E+02  0.10566000000E+00 0. -1.
         22    1    1    0    0    0 -0.14527183000E+02  0.50288918016E+01  0.24979403277E+02  0.29330860654E+02  0.00000000000E+00 0.  1.
</event>
<event>
 5    1  0.1325832E-009  0.9118800E+02  0.7818608E-02  0.1130116E+00
         25   -1    0    0    0    0  0.00000000000E+00  0.00000000000E+00  0.99999998245E-14  0.12500000000E+03  0.12500000000E+03 0.  0.
        -13    1    3    3    0    0 -0.27873892980E+02 -0.20888293665E+02 -0.19546696277E+02  0.39941948143E+02  0.10566000000E+00 0. -1.
         23    2    1    0    0    0  0.12870139348E+02  0.19663001737E+02 -0.13883186382E+02  0.97705000673E+02  0.93814978379E+02 0.  0.
         13    1    3    3    0    0  0.40744032328E+02  0.40551295402E+02  0.56635098955E+01  0.57763052529E+02  0.10566000000E+00 0.  1.
         22    1    1    0    0    0 -0.12870139348E+02 -0.19663001737E+02  0.13883186382E+02  0.27294999327E+02  0.00000000000E+00 0.  1.
</event>
<event>
 5    1  0.1325832E-009  0.9118800E+02  0.7818608E-02  0.1130116E+00
         25   -1    0    0    0    0  0.00000000000E+00  0.00000000000E+00  0.99999998245E-14  0.12500000000E+03  0.12500000000E+03 0.  0.
        -13    1    3    3    0    0 -0.45904776810E+01 -0.86645038957E+01 -0.34162315082E+02  0.35541821125E+02  0.10566000000E+00 0. -1.
         23    2    1    0    0    0  0.33670088221E+01 -0.15930507258E+02  0.24718501717E+02  0.95400639584E+02  0.90692667267E+02 0.  0.
         13    1    3    3    0    0  0.79574865032E+01 -0.72660033623E+01  0.58880816799E+02  0.59858818459E+02  0.10566000000E+00 0.  1.
         22    1    1    0    0    0 -0.33670088221E+01  0.15930507258E+02 -0.24718501717E+02  0.29599360416E+02  0.00000000000E+00 0.  1.
</event>
<event>
 5    1  0.1325832E-009  0.9118800E+02  0.7818608E-02  0.1130116E+00
         25   -1    0    0    0    0  0.00000000000E+00  0.00000000000E+00  0.99999998245E-14  0.12500000000E+03  0.12500000000E+03 0.  0.
        -13    1    3    3    0    0  0.13804600569E+02 -0.31130915474E+02 -0.70358993236E-01  0.34054618035E+02  0.10566000000E+00 0. -1.
         23    2    1    0    0    0 -0.18837203396E+02  0.20640347377E+02 -0.83984562474E+01  0.95821270779E+02  0.91270574090E+02 0.  0.
         13    1    3    3    0    0 -0.32641803965E+02  0.51771262851E+02 -0.83280972542E+01  0.61766652744E+02  0.10566000000E+00 0.  1.
         22    1    1    0    0    0  0.18837203396E+02 -0.20640347377E+02  0.83984562474E+01  0.29178729221E+02  0.00000000000E+00 0.  1.
</event>
<event>
 5    1  0.1325832E-009  0.9118800E+02  0.7818608E-02  0.1130116E+00
         25   -1    0    0    0    0  0.00000000000E+00  0.00000000000E+00  0.99999998245E-14  0.12500000000E+03  0.12500000000E+03 0.  0.
        -13    1    3    3    0    0 -0.22083316910E+02  0.24785668331E+02  0.30138579119E+01  0.33333117825E+02  0.10566000000E+00 0.  1.
         23    2    1    0    0    0  0.27445170900E+02 -0.11725042177E+02  0.41048661599E+01  0.94874198003E+02  0.89964156756E+02 0.  0.
         13    1    3    3    0    0  0.49528487810E+02 -0.36510710507E+02  0.10910082480E+01  0.61541080178E+02  0.10566000000E+00 0. -1.
         22    1    1    0    0    0 -0.27445170900E+02  0.11725042177E+02 -0.41048661599E+01  0.30125801997E+02  0.00000000000E+00 0. -1.
</event>
<event>
 5    1  0.1325832E-009  0.9118800E+02  0.7818608E-02  0.1130116E+00
         25   -1    0    0    0    0  0.00000000000E+00  0.00000000000E+00  0.99999998245E-14  0.12500000000E+03  0.12500000000E+03 0.  0.
        -13    1    3    3    0    0 -0.27151813492E+02  0.98949652381E+01  0.18665395660E+02  0.34402608508E+02  0.10566000000E+00 0.  1.
         23    2    1    0    0    0  0.29171505922E+02 -0.38762026391E+01 -0.78819768345E+00  0.95561539438E+02  0.90914162040E+02 0.  0.
         13    1    3    3    0    0  0.56323319414E+02 -0.13771167877E+02 -0.19453593343E+02  0.61158930930E+02  0.10566000000E+00 0. -1.
         22    1    1    0    0    0 -0.29171505922E+02  0.38762026391E+01  0.78819768345E+00  0.29438460562E+02  0.00000000000E+00 0. -1.
</event>
<event>
 5    1  0.1325832E-009  0.9118800E+02  0.7818608E-02  0.1130116E+00
         25   -1    0    0    0    0  0.00000000000E+00  0.00000000000E+00  0.99999998245E-14  0.12500000000E+03  0.12500000000E+03 0.  0.
        -13    1    3    3    0    0  0.29744954620E+02 -0.28110492540E+02 -0.17328779672E+02  0.44443895926E+02  0.10566000000E+00 0.  1.
         23    2    1    0    0    0  0.22725980502E+02  0.15599556686E+02  0.90625812954E+01  0.95983681517E+02  0.91492734025E+02 0.  0.
         13    1    3    3    0    0 -0.70189741183E+01  0.43710049226E+02  0.26391360967E+02  0.51539785591E+02  0.10566000000E+00 0. -1.
         22    1    1    0    0    0 -0.22725980502E+02 -0.15599556686E+02 -0.90625812954E+01  0.29016318483E+02  0.00000000000E+00 0. -1.
</event>
<event>
 5    1  0.1325832E-009  0.9118800E+02  0.7818608E-02  0.1130116E+00
         25   -1    0    0    0    0  0.00000000000E+00  0.00000000000E+00  0.99999998245E-14  0.12500000000E+03  0.12500000000E+03 0.  0.
        -13    1    3    3    0    0 -0.24895485723E+02  0.39761268369E+02  0.19461411756E+02  0.50788791906E+02  0.10566000000E+00 0. -1.
         23    2    1    0    0    0 -0.23230051219E+02  0.14027852914E+02 -0.15126594329E+02  0.93931852437E+02  0.88645152768E+02 0.  0.
         13    1    3    3    0    0  0.16654345048E+01 -0.25733415454E+02 -0.34588006085E+02  0.43143060531E+02  0.10566000000E+00 0.  1.
         22    1    1    0    0    0  0.23230051219E+02 -0.14027852914E+02  0.15126594329E+02  0.31068147563E+02  0.00000000000E+00 0.  1.
</event>
<event>
 5    1  0.1325832E-009  0.9118800E+02  0.7818608E-02  0.1130116E+00
         25   -1    0    0    0    0  0.00000000000E+00  0.00000000000E+00  0.99999998245E-14  0.12500000000E+03  0.12500000000E+03 0.  0.
        -13    1    3    3    0    0  0.28012704850E+02 -0.24157735333E+00  0.31504619205E+02  0.42158299158E+02  0.10566000000E+00 0.  1.
         23    2    1    0    0    0 -0.39285084503E+01 -0.24083044557E+02 -0.90062758470E+01  0.98989632482E+02  0.95511298392E+02 0.  0.
         13    1    3    3    0    0 -0.31941213300E+02 -0.23841467204E+02 -0.40510895052E+02  0.56831333324E+02  0.10566000000E+00 0. -1.
         22    1    1    0    0    0  0.39285084503E+01  0.24083044557E+02  0.90062758470E+01  0.26010367518E+02  0.00000000000E+00 0. -1.
</event>
<event>
 5    1  0.1325832E-009  0.9118800E+02  0.7818608E-02  0.1130116E+00
         25   -1    0    0    0    0  0.00000000000E+00  0.00000000000E+00  0.99999998245E-14  0.12500000000E+03  0.12500000000E+03 0.  0.
        -13    1    3    3    0    0  0.48713389420E+01 -0.27680705775E+02 -0.23962072870E+02  0.36934313525E+02  0.10566000000E+00 0.  1.
         23    2    1    0    0    0  0.19693990375E+02  0.77418649607E+01  0.20400043457E+02  0.95606948049E+02  0.90976573975E+02 0.  0.
         13    1    3    3    0    0  0.14822651433E+02  0.35422570736E+02  0.44362116326E+02  0.58672634524E+02  0.10566000000E+00 0. -1.
         22    1    1    0    0    0 -0.19693990375E+02 -0.77418649607E+01 -0.20400043457E+02  0.29393051951E+02  0.00000000000E+00 0. -1.
</event>
<event>
 5    1  0.1325832E-009  0.9118800E+02  0.7818608E-02  0.1130116E+00
         25   -1    0    0    0    0  0.00000000000E+00  0.00000000000E+00  0.99999998245E-14  0.12500000000E+03  0.12500000000E+03 0.  0.
        -13    1    3    3    0    0  0.72275130368E+01  0.39980527389E+02  0.38978563012E+02  0.56302922247E+02  0.10566000000E+00 0. -1.
         23    2    1    0    0    0  0.11691300321E+02  0.26555630859E+02  0.19765887567E+01  0.95917446181E+02  0.91402196611E+02 0.  0.
         13    1    3    3    0    0  0.44637872844E+01 -0.13424896530E+02 -0.37001974255E+02  0.39614523935E+02  0.10566000000E+00 0.  1.
         22    1    1    0    0    0 -0.11691300321E+02 -0.26555630859E+02 -0.19765887567E+01  0.29082553819E+02  0.00000000000E+00 0. -1.
</event>
<event>
 5    1  0.1325832E-009  0.9118800E+02  0.7818608E-02  0.1130116E+00
         25   -1    0    0    0    0  0.00000000000E+00  0.00000000000E+00  0.99999998245E-14  0.12500000000E+03  0.12500000000E+03 0.  0.
        -13    1    3    3    0    0  0.27551759344E+02  0.36219496126E+02 -0.11846030474E+02  0.47024365435E+02  0.10566000000E+00 0. -1.
         23    2    1    0    0    0 -0.18392826092E+02  0.22353617428E+02 -0.22583061311E+01  0.95964156455E+02  0.91466054434E+02 0.  0.
         13    1    3    3    0    0 -0.45944585436E+02 -0.13865878697E+02  0.95877243430E+01  0.48939791020E+02  0.10566000000E+00 0.  1.
         22    1    1    0    0    0  0.18392826092E+02 -0.22353617428E+02  0.22583061311E+01  0.29035843545E+02  0.00000000000E+00 0. -1.
</event>
<event>
 5    1  0.1325832E-009  0.9118800E+02  0.7818608E-02  0.1130116E+00
         25   -1    0    0    0    0  0.00000000000E+00  0.00000000000E+00  0.99999998245E-14  0.12500000000E+03  0.12500000000E+03 0.  0.
        -13    1    3    3    0    0 -0.18887751065E+02 -0.92621136953E+01  0.51610160227E+02  0.55732878026E+02  0.10566000000E+00 0. -1.
         23    2    1    0    0    0 -0.24013316850E+02  0.70404448696E+01  0.15817921125E+02  0.95395711818E+02  0.90685875165E+02 0.  0.
         13    1    3    3    0    0 -0.51255657849E+01  0.16302558565E+02 -0.35792239102E+02  0.39662833791E+02  0.10566000000E+00 0.  1.
         22    1    1    0    0    0  0.24013316850E+02 -0.70404448696E+01 -0.15817921125E+02  0.29604288182E+02  0.00000000000E+00 0. -1.
</event>
<event>
 5    1  0.1325832E-009  0.9118800E+02  0.7818608E-02  0.1130116E+00
         25   -1    0    0    0    0  0.00000000000E+00  0.00000000000E+00  0.99999998245E-14  0.12500000000E+03  0.12500000000E+03 0.  0.
        -13    1    3    3    0    0  0.26030622512E+02  0.12179314127E+02 -0.37018766420E+02  0.46865010747E+02  0.10566000000E+00 0.  1.
         23    2    1    0    0    0 -0.19545146594E+02  0.31599559223E+01 -0.21318082620E+02  0.95906036306E+02  0.91386591339E+02 0.  0.
         13    1    3    3    0    0 -0.45575769107E+02 -0.90193582048E+01  0.15700683800E+02  0.49041025560E+02  0.10566000000E+00 0. -1.
         22    1    1    0    0    0  0.19545146594E+02 -0.31599559223E+01  0.21318082620E+02  0.29093963694E+02  0.00000000000E+00 0. -1.
</event>
<event>
 5    1  0.1325832E-009  0.9118800E+02  0.7818608E-02  0.1130116E+00
         25   -1    0    0    0    0  0.00000000000E+00  0.00000000000E+00  0.99999998245E-14  0.12500000000E+03  0.12500000000E+03 0.  0.
        -13    1    3    3    0    0 -0.15853891282E+02  0.31426960063E+02 -0.36434567925E+02  0.50660523009E+02  0.10566000000E+00 0. -1.
         23    2    1    0    0    0  0.19936260463E+02  0.95292955065E+01 -0.18045077847E+02  0.96471298863E+02  0.92156522914E+02 0.  0.
         13    1    3    3    0    0  0.35790151745E+02 -0.21897664557E+02  0.18389490078E+02  0.45810775854E+02  0.10566000000E+00 0.  1.
         22    1    1    0    0    0 -0.19936260463E+02 -0.95292955065E+01  0.18045077847E+02  0.28528701137E+02  0.00000000000E+00 0. -1.
</event>
<event>
 5    1  0.1325832E-009  0.9118800E+02  0.7818608E-02  0.1130116E+00
         25   -1    0    0    0    0  0.00000000000E+00  0.00000000000E+00  0.99999998245E-14  0.12500000000E+03  0.12500000000E+03 0.  0.
        -13    1    3    3    0    0  0.69429494559E+01  0.42632027786E+02 -0.23915471951E+02  0.49372616935E+02  0.10566000000E+00 0. -1.
         23    2    1    0    0    0 -0.23915355561E+02  0.20992118055E+02 -0.16770086490E+01  0.93134256480E+02  0.87513222544E+02 0.  0.
         13    1    3    3    0    0 -0.30858305017E+02 -0.21639909730E+02  0.22238463302E+02  0.43761639546E+02  0.10566000000E+00 0.  1.
         22    1    1    0    0    0  0.23915355561E+02 -0.20992118055E+02  0.16770086490E+01  0.31865743520E+02  0.00000000000E+00 0.  1.
</event>
<event>
 5    1  0.1325832E-009  0.9118800E+02  0.7818608E-02  0.1130116E+00
         25   -1    0    0    0    0  0.00000000000E+00  0.00000000000E+00  0.99999998245E-14  0.12500000000E+03  0.12500000000E+03 0.  0.
        -13    1    3    3    0    0 -0.10848503833E+00  0.25051215048E+02 -0.54089940896E+02  0.59609630216E+02  0.10566000000E+00 0. -1.
         23    2    1    0    0    0  0.63804207725E+01  0.21382314127E+02 -0.18375869212E+02  0.96093500801E+02  0.91642649461E+02 0.  0.
         13    1    3    3    0    0  0.64889058108E+01 -0.36689009211E+01  0.35714071684E+02  0.36483870585E+02  0.10566000000E+00 0.  1.
         22    1    1    0    0    0 -0.63804207725E+01 -0.21382314127E+02  0.18375869212E+02  0.28906499199E+02  0.00000000000E+00 0. -1.
</event>
<event>
 5    1  0.1325832E-009  0.9118800E+02  0.7818608E-02  0.1130116E+00
         25   -1    0    0    0    0  0.00000000000E+00  0.00000000000E+00  0.99999998245E-14  0.12500000000E+03  0.12500000000E+03 0.  0.
        -13    1    3    3    0    0 -0.19464513752E+01  0.40855546235E+02 -0.10330396593E+02  0.42186402891E+02  0.10566000000E+00 0.  1.
         23    2    1    0    0    0 -0.28593399084E+02 -0.39652766066E+01  0.29148876943E+01  0.95986167781E+02  0.91496130767E+02 0.  0.
         13    1    3    3    0    0 -0.26646947709E+02 -0.44820822841E+02  0.13245284287E+02  0.53799764890E+02  0.10566000000E+00 0. -1.
         22    1    1    0    0    0  0.28593399084E+02  0.39652766066E+01 -0.29148876943E+01  0.29013832219E+02  0.00000000000E+00 0. -1.
</event>
<event>
 5    1  0.1325832E-009  0.9118800E+02  0.7818608E-02  0.1130116E+00
         25   -1    0    0    0    0  0.00000000000E+00  0.00000000000E+00  0.99999998245E-14  0.12500000000E+03  0.12500000000E+03 0.  0.
        -13    1    3    3    0    0  0.20499392648E+02 -0.99433504492E+01  0.27116471321E+02  0.35417643880E+02  0.10566000000E+00 0.  1.
         23    2    1    0    0    0 -0.28966881911E+02  0.72229247276E+01 -0.15393605505E+01  0.95106513751E+02  0.90286369058E+02 0.  0.
         13    1    3    3    0    0 -0.49466274558E+02  0.17166275177E+02 -0.28655831872E+02  0.59688869870E+02  0.10566000000E+00 0. -1.
         22    1    1    0    0    0  0.28966881911E+02 -0.72229247276E+01  0.15393605505E+01  0.29893486249E+02  0.00000000000E+00 0. -1.
</event>
<event>
 5    1  0.1325832E-009  0.9118800E+02  0.7818608E-02  0.1130116E+00
         25   -1    0    0    0    0  0.00000000000E+00  0.00000000000E+00  0.99999998245E-14  0.12500000000E+03  0.12500000000E+03 0.  0.
        -13    1    3    3    0    0  0.15636362934E+02 -0.29195559612E+02 -0.36403557073E+02  0.49214903011E+02  0.10566000000E+00 0.  1.
         23    2    1    0    0    0 -0.10487427733E+02  0.68724827123E+01 -0.27702598791E+02  0.94591923131E+02  0.89571093455E+02 0.  0.
         13    1    3    3    0    0 -0.26123790667E+02  0.36068042324E+02  0.87009582812E+01  0.45377020120E+02  0.10566000000E+00 0. -1.
         22    1    1    0    0    0  0.10487427733E+02 -0.68724827123E+01  0.27702598791E+02  0.30408076869E+02  0.00000000000E+00 0.  1.
</event>
<event>
 5    1  0.1325832E-009  0.9118800E+02  0.7818608E-02  0.1130116E+00
         25   -1    0    0    0    0  0.00000000000E+00  0.00000000000E+00  0.99999998245E-14  0.12500000000E+03  0.12500000000E+03 0.  0.
        -13    1    3    3    0    0 -0.47076869277E+02  0.13855689135E+02  0.22775606064E+02  0.54101304402E+02  0.10566000000E+00 0. -1.
         23    2    1    0    0    0 -0.16221086474E+02  0.25297211110E+02 -0.13692810411E+01  0.94917655229E+02  0.90024517812E+02 0.  0.
         13    1    3    3    0    0  0.30855782803E+02  0.11441521975E+02 -0.24144887105E+02  0.40816350827E+02  0.10566000000E+00 0.  1.
         22    1    1    0    0    0  0.16221086474E+02 -0.25297211110E+02  0.13692810411E+01  0.30082344771E+02  0.00000000000E+00 0. -1.
</event>
<event>
 5    1  0.1325832E-009  0.9118800E+02  0.7818608E-02  0.1130116E+00
         25   -1    0    0    0    0  0.00000000000E+00  0.00000000000E+00  0.99999998245E-14  0.12500000000E+03  0.12500000000E+03 0.  0.
        -13    1    3    3    0    0 -0.12351263221E+02  0.58971738562E+02 -0.16303766157E+00  0.60251617385E+02  0.10566000000E+00 0. -1.
         23    2    1    0    0    0 -0.16824945445E+02  0.28934122133E+02  0.53133665255E+01  0.91110560986E+02  0.84573283291E+02 0.  0.
         13    1    3    3    0    0 -0.44736822240E+01 -0.30037616429E+02  0.54764041871E+01  0.30858943602E+02  0.10566000000E+00 0.  1.
         22    1    1    0    0    0  0.16824945445E+02 -0.28934122133E+02 -0.53133665255E+01  0.33889439014E+02  0.00000000000E+00 0. -1.
</event>
<event>
 5    1  0.1325832E-009  0.9118800E+02  0.7818608E-02  0.1130116E+00
         25   -1    0    0    0    0  0.00000000000E+00  0.00000000000E+00  0.99999998245E-14  0.12500000000E+03  0.12500000000E+03 0.  0.
        -13    1    3    3    0    0  0.52186364908E+02 -0.41138016520E+01 -0.26757526731E+02  0.58790445203E+02  0.10566000000E+00 0.  1.
         23    2    1    0    0    0  0.17083811052E+02  0.10387198093E+02 -0.18717552017E+02  0.97612096872E+02  0.93691110666E+02 0.  0.
         13    1    3    3    0    0 -0.35102553856E+02  0.14500999745E+02  0.80399747145E+01  0.38821651669E+02  0.10566000000E+00 0. -1.
         22    1    1    0    0    0 -0.17083811052E+02 -0.10387198093E+02  0.18717552017E+02  0.27387903128E+02  0.00000000000E+00 0.  1.
</event>
<event>
 5    1  0.1325832E-009  0.9118800E+02  0.7818608E-02  0.1130116E+00
         25   -1    0    0    0    0  0.00000000000E+00  0.00000000000E+00  0.99999998245E-14  0.12500000000E+03  0.12500000000E+03 0.  0.
        -13    1    3    3    0    0  0.93338483806E+01  0.54769047653E+02 -0.15422523665E+02  0.57659645392E+02  0.10566000000E+00 0. -1.
         23    2    1    0    0    0 -0.13217449185E+02  0.23986276504E+02 -0.68135558588E+01  0.96778253652E+02  0.92571936423E+02 0.  0.
         13    1    3    3    0    0 -0.22551297565E+02 -0.30782771150E+02  0.86089678062E+01  0.39118608261E+02  0.10566000000E+00 0.  1.
         22    1    1    0    0    0  0.13217449185E+02 -0.23986276504E+02  0.68135558588E+01  0.28221746348E+02  0.00000000000E+00 0. -1.
</event>
<event>
 5    1  0.1325832E-009  0.9118800E+02  0.7818608E-02  0.1130116E+00
         25   -1    0    0    0    0  0.00000000000E+00  0.00000000000E+00  0.99999998245E-14  0.12500000000E+03  0.12500000000E+03 0.  0.
        -13    1    3    3    0    0 -0.80056741775E+01  0.18344849133E+02 -0.58880660598E+02  0.62189771388E+02  0.10566000000E+00 0.  1.
         23    2    1    0    0    0 -0.34932676942E+01  0.13424993575E+02 -0.28399629245E+02  0.93393476734E+02  0.87882701276E+02 0.  0.
         13    1    3    3    0    0  0.45124064833E+01 -0.49198555579E+01  0.30481031353E+02  0.31203705346E+02  0.10566000000E+00 0. -1.
         22    1    1    0    0    0  0.34932676942E+01 -0.13424993575E+02  0.28399629245E+02  0.31606523266E+02  0.00000000000E+00 0.  1.
</event>
<event>
 5    1  0.1325832E-009  0.9118800E+02  0.7818608E-02  0.1130116E+00
         25   -1    0    0    0    0  0.00000000000E+00  0.00000000000E+00  0.99999998245E-14  0.12500000000E+03  0.12500000000E+03 0.  0.
        -13    1    3    3    0    0  0.80977463497E+01 -0.31653597681E+02  0.31697763433E+02  0.45522336416E+02  0.10566000000E+00 0.  1.
         23    2    1    0    0    0  0.22531764970E+01  0.18447212243E+02  0.20762980239E+02  0.97134648894E+02  0.93051932938E+02 0.  0.
         13    1    3    3    0    0 -0.58445698528E+01  0.50100809924E+02 -0.10934783194E+02  0.51612312478E+02  0.10566000000E+00 0. -1.
         22    1    1    0    0    0 -0.22531764970E+01 -0.18447212243E+02 -0.20762980239E+02  0.27865351106E+02  0.00000000000E+00 0. -1.
</event>
<event>
 4    1  0.1325832E-009  0.9118800E+02  0.7818608E-02  0.1130116E+00
         25   -1    0    0    0    0  0.00000000000E+00  0.00000000000E+00  0.99999998245E-14  0.12500000000E+03  0.12500000000E+03 0.  0.
        -13    1    1    0    0    0 -0.44289869522E+01  0.80417372698E+01  0.30737665264E+01  0.96821830407E+01  0.10566000000E+00 0. -1.
         13    1    1    0    0    0  0.35480405436E+02 -0.27176308233E+02 -0.42453631600E+02  0.61641973518E+02  0.10566000000E+00 0.  1.
         22    1    1    0    0    0 -0.31051418484E+02  0.19134570964E+02  0.39379865074E+02  0.53675843441E+02  0.00000000000E+00 0.  1.
</event>
<event>
 5    1  0.1325832E-009  0.9118800E+02  0.7818608E-02  0.1130116E+00
         25   -1    0    0    0    0  0.00000000000E+00  0.00000000000E+00  0.99999998245E-14  0.12500000000E+03  0.12500000000E+03 0.  0.
        -13    1    3    3    0    0 -0.18270734202E+02  0.16816390670E+02 -0.27753097018E+02  0.37240519351E+02  0.10566000000E+00 0. -1.
         23    2    1    0    0    0 -0.64803975439E+01  0.92442871185E+01  0.28043270060E+02  0.94769594903E+02  0.89818699199E+02 0.  0.
         13    1    3    3    0    0  0.11790336658E+02 -0.75721035514E+01  0.55796367078E+02  0.57529075552E+02  0.10566000000E+00 0.  1.
         22    1    1    0    0    0  0.64803975439E+01 -0.92442871185E+01 -0.28043270060E+02  0.30230405097E+02  0.00000000000E+00 0.  1.
</event>
<event>
 5    1  0.1325832E-009  0.9118800E+02  0.7818608E-02  0.1130116E+00
         25   -1    0    0    0    0  0.00000000000E+00  0.00000000000E+00  0.99999998245E-14  0.12500000000E+03  0.12500000000E+03 0.  0.
        -13    1    3    3    0    0 -0.31731489411E+01 -0.58075047457E+02 -0.22836280552E+00  0.58162215612E+02  0.10566000000E+00 0. -1.
         23    2    1    0    0    0 -0.12261470962E+02 -0.25733193963E+02  0.12215787206E+02  0.93987641194E+02  0.88723786543E+02 0.  0.
         13    1    3    3    0    0 -0.90883220210E+01  0.32341853494E+02  0.12444150011E+02  0.35825425582E+02  0.10566000000E+00 0.  1.
         22    1    1    0    0    0  0.12261470962E+02  0.25733193963E+02 -0.12215787206E+02  0.31012358806E+02  0.00000000000E+00 0. -1.
</event>
<event>
 5    1  0.1325832E-009  0.9118800E+02  0.7818608E-02  0.1130116E+00
         25   -1    0    0    0    0  0.00000000000E+00  0.00000000000E+00  0.99999998245E-14  0.12500000000E+03  0.12500000000E+03 0.  0.
        -13    1    3    3    0    0 -0.24539970466E+02 -0.26546900306E+02  0.19943850078E+02  0.41288211226E+02  0.10566000000E+00 0. -1.
         23    2    1    0    0    0  0.23653709990E+02 -0.18122234738E+02 -0.24644738305E+01  0.95100384293E+02  0.90277882525E+02 0.  0.
         13    1    3    3    0    0  0.48193680455E+02  0.84246655682E+01 -0.22408323908E+02  0.53812173067E+02  0.10566000000E+00 0.  1.
         22    1    1    0    0    0 -0.23653709990E+02  0.18122234738E+02  0.24644738305E+01  0.29899615707E+02  0.00000000000E+00 0.  1.
</event>
<event>
 5    1  0.1325832E-009  0.9118800E+02  0.7818608E-02  0.1130116E+00
         25   -1    0    0    0    0  0.00000000000E+00  0.00000000000E+00  0.99999998245E-14  0.12500000000E+03  0.12500000000E+03 0.  0.
        -13    1    3    3    0    0  0.29308906471E+02 -0.29984450577E+02 -0.16061188922E+02  0.44900470249E+02  0.10566000000E+00 0.  1.
         23    2    1    0    0    0  0.20927501659E+02  0.13588255671E+01  0.21792355146E+02  0.94755769552E+02  0.89799456501E+02 0.  0.
         13    1    3    3    0    0 -0.83814048123E+01  0.31343276144E+02  0.37853544068E+02  0.49855299303E+02  0.10566000000E+00 0. -1.
         22    1    1    0    0    0 -0.20927501659E+02 -0.13588255671E+01 -0.21792355146E+02  0.30244230448E+02  0.00000000000E+00 0.  1.
</event>
<event>
 5    1  0.1325832E-009  0.9118800E+02  0.7818608E-02  0.1130116E+00
         25   -1    0    0    0    0  0.00000000000E+00  0.00000000000E+00  0.99999998245E-14  0.12500000000E+03  0.12500000000E+03 0.  0.
        -13    1    3    3    0    0  0.15965611079E+02 -0.44510565487E+01 -0.42000305121E+02  0.45152513062E+02  0.10566000000E+00 0.  1.
         23    2    1    0    0    0 -0.33131114677E+01  0.26864778040E+02 -0.47109553846E+01  0.97524809239E+02  0.93574581537E+02 0.  0.
         13    1    3    3    0    0 -0.19278722547E+02  0.31315834588E+02  0.37289349737E+02  0.52372296177E+02  0.10566000000E+00 0. -1.
         22    1    1    0    0    0  0.33131114677E+01 -0.26864778040E+02  0.47109553846E+01  0.27475190761E+02  0.00000000000E+00 0. -1.
</event>
<event>
 5    1  0.1325832E-009  0.9118800E+02  0.7818608E-02  0.1130116E+00
         25   -1    0    0    0    0  0.00000000000E+00  0.00000000000E+00  0.99999998245E-14  0.12500000000E+03  0.12500000000E+03 0.  0.
        -13    1    3    3    0    0 -0.36615978534E+02  0.23205942516E+02 -0.15714084438E+02  0.46110619881E+02  0.10566000000E+00 0. -1.
         23    2    1    0    0    0 -0.49883774183E+01 -0.13631937616E+02 -0.25517170863E+02  0.95642894535E+02  0.91025950332E+02 0.  0.
         13    1    3    3    0    0  0.31627601116E+02 -0.36837880132E+02 -0.98030864248E+01  0.49532274654E+02  0.10566000000E+00 0.  1.
         22    1    1    0    0    0  0.49883774183E+01  0.13631937616E+02  0.25517170863E+02  0.29357105465E+02  0.00000000000E+00 0.  1.
</event>
<event>
 5    1  0.1325832E-009  0.9118800E+02  0.7818608E-02  0.1130116E+00
         25   -1    0    0    0    0  0.00000000000E+00  0.00000000000E+00  0.99999998245E-14  0.12500000000E+03  0.12500000000E+03 0.  0.
        -13    1    3    3    0    0 -0.29253920379E+02  0.18278855677E+02  0.11228450918E+02  0.36276682545E+02  0.10566000000E+00 0.  1.
         23    2    1    0    0    0  0.24048613607E+02  0.10592400512E+02 -0.13408725722E+02  0.95498666293E+02  0.90827675151E+02 0.  0.
         13    1    3    3    0    0  0.53302533986E+02 -0.76864551649E+01 -0.24637176640E+02  0.59221983748E+02  0.10566000000E+00 0. -1.
         22    1    1    0    0    0 -0.24048613607E+02 -0.10592400512E+02  0.13408725722E+02  0.29501333707E+02  0.00000000000E+00 0. -1.
</event>
<event>
 5    1  0.1325832E-009  0.9118800E+02  0.7818608E-02  0.1130116E+00
         25   -1    0    0    0    0  0.00000000000E+00  0.00000000000E+00  0.99999998245E-14  0.12500000000E+03  0.12500000000E+03 0.  0.
        -13    1    3    3    0    0 -0.33414020260E+02  0.53991277599E+00 -0.42533509018E+02  0.54091577988E+02  0.10566000000E+00 0. -1.
         23    2    1    0    0    0 -0.97353946001E+00  0.19159405032E+02 -0.16870005078E+02  0.99453421920E+02  0.96116364268E+02 0.  0.
         13    1    3    3    0    0  0.32440480800E+02  0.18619492256E+02  0.25663503941E+02  0.45361843933E+02  0.10566000000E+00 0.  1.
         22    1    1    0    0    0  0.97353946001E+00 -0.19159405032E+02  0.16870005078E+02  0.25546578080E+02  0.00000000000E+00 0.  1.
</event>
<event>
 5    1  0.1325832E-009  0.9118800E+02  0.7818608E-02  0.1130116E+00
         25   -1    0    0    0    0  0.00000000000E+00  0.00000000000E+00  0.99999998245E-14  0.12500000000E+03  0.12500000000E+03 0.  0.
        -13    1    3    3    0    0 -0.36804896009E+02  0.29357295027E+01 -0.12991214138E+02  0.39140793129E+02  0.10566000000E+00 0.  1.
         23    2    1    0    0    0  0.75600329716E+01  0.27399396441E+02  0.10123680676E+02  0.94827662764E+02  0.89899475477E+02 0.  0.
         13    1    3    3    0    0  0.44364928981E+02  0.24463666938E+02  0.23114894814E+02  0.55686869635E+02  0.10566000000E+00 0. -1.
         22    1    1    0    0    0 -0.75600329716E+01 -0.27399396441E+02 -0.10123680676E+02  0.30172337236E+02  0.00000000000E+00 0. -1.
</event>
<event>
 5    1  0.1325832E-009  0.9118800E+02  0.7818608E-02  0.1130116E+00
         25   -1    0    0    0    0  0.00000000000E+00  0.00000000000E+00  0.99999998245E-14  0.12500000000E+03  0.12500000000E+03 0.  0.
        -13    1    3    3    0    0 -0.26287552090E+01  0.37998912147E+02 -0.34791482730E+02  0.51587654656E+02  0.10566000000E+00 0.  1.
         23    2    1    0    0    0 -0.20023309133E+02  0.18547100462E+01 -0.25071001842E+02  0.92860802883E+02  0.87121758021E+02 0.  0.
         13    1    3    3    0    0 -0.17394553924E+02 -0.36144202101E+02  0.97204808886E+01  0.41273148226E+02  0.10566000000E+00 0. -1.
         22    1    1    0    0    0  0.20023309133E+02 -0.18547100462E+01  0.25071001842E+02  0.32139197117E+02  0.00000000000E+00 0.  1.
</event>
<event>
 5    1  0.1325832E-009  0.9118800E+02  0.7818608E-02  0.1130116E+00
         25   -1    0    0    0    0  0.00000000000E+00  0.00000000000E+00  0.99999998245E-14  0.12500000000E+03  0.12500000000E+03 0.  0.
        -13    1    3    3    0    0 -0.26999660553E+02  0.58091987696E+01  0.24968230254E+02  0.37231064266E+02  0.10566000000E+00 0. -1.
         23    2    1    0    0    0  0.25208347794E+02  0.15157125399E+02  0.65039776860E+00  0.95578540721E+02  0.90937534496E+02 0.  0.
         13    1    3    3    0    0  0.52208008347E+02  0.93479266291E+01 -0.24317832485E+02  0.58347476455E+02  0.10566000000E+00 0.  1.
         22    1    1    0    0    0 -0.25208347794E+02 -0.15157125399E+02 -0.65039776860E+00  0.29421459279E+02  0.00000000000E+00 0.  1.
</event>
<event>
 5    1  0.1325832E-009  0.9118800E+02  0.7818608E-02  0.1130116E+00
         25   -1    0    0    0    0  0.00000000000E+00  0.00000000000E+00  0.99999998245E-14  0.12500000000E+03  0.12500000000E+03 0.  0.
        -13    1    3    3    0    0  0.91233901101E+01  0.21227493747E+01 -0.58846528815E+02  0.59587477121E+02  0.10566000000E+00 0.  1.
         23    2    1    0    0    0  0.17376063135E+02  0.22819805238E+01 -0.24721534954E+02  0.94696711471E+02  0.89717210544E+02 0.  0.
         13    1    3    3    0    0  0.82526730249E+01  0.15923114909E+00  0.34124993861E+02  0.35109234350E+02  0.10566000000E+00 0. -1.
         22    1    1    0    0    0 -0.17376063135E+02 -0.22819805238E+01  0.24721534954E+02  0.30303288529E+02  0.00000000000E+00 0.  1.
</event>
<event>
 5    1  0.1325832E-009  0.9118800E+02  0.7818608E-02  0.1130116E+00
         25   -1    0    0    0    0  0.00000000000E+00  0.00000000000E+00  0.99999998245E-14  0.12500000000E+03  0.12500000000E+03 0.  0.
        -13    1    3    3    0    0 -0.11056958766E+02  0.31584411685E+02  0.75368654745E+01  0.34302287152E+02  0.10566000000E+00 0.  1.
         23    2    1    0    0    0  0.16188638227E+02 -0.42523418155E+01 -0.28487279792E+02  0.91959426026E+02  0.85818742164E+02 0.  0.
         13    1    3    3    0    0  0.27245596993E+02 -0.35836753501E+02 -0.36024145267E+02  0.57657138874E+02  0.10566000000E+00 0. -1.
         22    1    1    0    0    0 -0.16188638227E+02  0.42523418155E+01  0.28487279792E+02  0.33040573974E+02  0.00000000000E+00 0. -1.
</event>
<event>
 5    1  0.1325832E-009  0.9118800E+02  0.7818608E-02  0.1130116E+00
         25   -1    0    0    0    0  0.00000000000E+00  0.00000000000E+00  0.99999998245E-14  0.12500000000E+03  0.12500000000E+03 0.  0.
        -13    1    3    3    0    0  0.17771757252E+02  0.13488492538E+02  0.51711448924E+02  0.56319267579E+02  0.10566000000E+00 0.  1.
         23    2    1    0    0    0  0.22221501580E+02  0.11451786010E+02  0.10392587272E+02  0.97927053993E+02  0.94110379333E+02 0.  0.
         13    1    3    3    0    0  0.44497443277E+01 -0.20367065282E+01 -0.41318861652E+02  0.41607786414E+02  0.10566000000E+00 0. -1.
         22    1    1    0    0    0 -0.22221501580E+02 -0.11451786010E+02 -0.10392587272E+02  0.27072946007E+02  0.00000000000E+00 0.  1.
</event>
<event>
 5    1  0.1325832E-009  0.9118800E+02  0.7818608E-02  0.1130116E+00
         25   -1    0    0    0    0  0.00000000000E+00  0.00000000000E+00  0.99999998245E-14  0.12500000000E+03  0.12500000000E+03 0.  0.
        -13    1    3    3    0    0 -0.35708595286E+02  0.10765908993E+02 -0.18314234308E+02  0.41550341949E+02  0.10566000000E+00 0.  1.
         23    2    1    0    0    0  0.19476955851E+02  0.16323270016E+02 -0.13494685696E+01  0.99551581215E+02  0.96243936452E+02 0.  0.
         13    1    3    3    0    0  0.55185551137E+02  0.55573610224E+01  0.16964765738E+02  0.58001239266E+02  0.10566000000E+00 0. -1.
         22    1    1    0    0    0 -0.19476955851E+02 -0.16323270016E+02  0.13494685696E+01  0.25448418785E+02  0.00000000000E+00 0. -1.
</event>
<event>
 5    1  0.1325832E-009  0.9118800E+02  0.7818608E-02  0.1130116E+00
         25   -1    0    0    0    0  0.00000000000E+00  0.00000000000E+00  0.99999998245E-14  0.12500000000E+03  0.12500000000E+03 0.  0.
        -13    1    3    3    0    0 -0.28689741831E+02 -0.49546270120E+02  0.12642449618E+02  0.58632558068E+02  0.10566000000E+00 0. -1.
         23    2    1    0    0    0 -0.23358704255E+02 -0.17490098878E+02 -0.46613643671E+01  0.95449011167E+02  0.90759312424E+02 0.  0.
         13    1    3    3    0    0  0.53310375757E+01  0.32056171242E+02 -0.17303813985E+02  0.36816453099E+02  0.10566000000E+00 0.  1.
         22    1    1    0    0    0  0.23358704255E+02  0.17490098878E+02  0.46613643671E+01  0.29550988833E+02  0.00000000000E+00 0. -1.
</event>
<event>
 5    1  0.1325832E-009  0.9118800E+02  0.7818608E-02  0.1130116E+00
         25   -1    0    0    0    0  0.00000000000E+00  0.00000000000E+00  0.99999998245E-14  0.12500000000E+03  0.12500000000E+03 0.  0.
        -13    1    3    3    0    0 -0.42397751351E+01  0.57293124615E+02  0.99602857384E+01  0.58306914490E+02  0.10566000000E+00 0. -1.
         23    2    1    0    0    0  0.11790115885E+02  0.23333989409E+02  0.12652405995E+02  0.95955804852E+02  0.91454640195E+02 0.  0.
         13    1    3    3    0    0  0.16029891020E+02 -0.33959135206E+02  0.26921202563E+01  0.37648890363E+02  0.10566000000E+00 0.  1.
         22    1    1    0    0    0 -0.11790115885E+02 -0.23333989409E+02 -0.12652405995E+02  0.29044195148E+02  0.00000000000E+00 0. -1.
</event>
<event>
 5    1  0.1325832E-009  0.9118800E+02  0.7818608E-02  0.1130116E+00
         25   -1    0    0    0    0  0.00000000000E+00  0.00000000000E+00  0.99999998245E-14  0.12500000000E+03  0.12500000000E+03 0.  0.
        -13    1    3    3    0    0  0.34642059654E+01  0.44036807365E-01  0.35202168474E+02  0.35372397311E+02  0.10566000000E+00 0.  1.
         23    2    1    0    0    0  0.47737225602E+01  0.46070900186E+01 -0.26716109490E+02  0.97472482644E+02  0.93504655825E+02 0.  0.
         13    1    3    3    0    0  0.13095165949E+01  0.45630532113E+01 -0.61918277964E+02  0.62100085333E+02  0.10566000000E+00 0. -1.
         22    1    1    0    0    0 -0.47737225602E+01 -0.46070900186E+01  0.26716109490E+02  0.27527517356E+02  0.00000000000E+00 0. -1.
</event>
<event>
 5    1  0.1325832E-009  0.9118800E+02  0.7818608E-02  0.1130116E+00
         25   -1    0    0    0    0  0.00000000000E+00  0.00000000000E+00  0.99999998245E-14  0.12500000000E+03  0.12500000000E+03 0.  0.
        -13    1    3    3    0    0 -0.43374600677E+02  0.15278759702E+01 -0.22973485377E+02  0.49106848639E+02  0.10566000000E+00 0.  1.
         23    2    1    0    0    0 -0.21089242295E+02 -0.20595318577E+02  0.92545809399E+01  0.94103874737E+02  0.88887393281E+02 0.  0.
         13    1    3    3    0    0  0.22285358381E+02 -0.22123194547E+02  0.32228066317E+02  0.44997026098E+02  0.10566000000E+00 0. -1.
         22    1    1    0    0    0  0.21089242295E+02  0.20595318577E+02 -0.92545809399E+01  0.30896125263E+02  0.00000000000E+00 0.  1.
</event>
<event>
 5    1  0.1325832E-009  0.9118800E+02  0.7818608E-02  0.1130116E+00
         25   -1    0    0    0    0  0.00000000000E+00  0.00000000000E+00  0.99999998245E-14  0.12500000000E+03  0.12500000000E+03 0.  0.
        -13    1    3    3    0    0 -0.29260513704E+02  0.51495083141E+01  0.34093257900E+02  0.45222300875E+02  0.10566000000E+00 0. -1.
         23    2    1    0    0    0  0.16879864857E+02  0.77763034429E+00  0.28447847240E+02  0.91912017904E+02  0.85749661667E+02 0.  0.
         13    1    3    3    0    0  0.46140378561E+02 -0.43718779698E+01 -0.56454106597E+01  0.46689717030E+02  0.10566000000E+00 0.  1.
         22    1    1    0    0    0 -0.16879864857E+02 -0.77763034429E+00 -0.28447847240E+02  0.33087982096E+02  0.00000000000E+00 0. -1.
</event>
<event>
 5    1  0.1325832E-009  0.9118800E+02  0.7818608E-02  0.1130116E+00
         25   -1    0    0    0    0  0.00000000000E+00  0.00000000000E+00  0.99999998245E-14  0.12500000000E+03  0.12500000000E+03 0.  0.
        -13    1    3    3    0    0  0.45711172720E+02  0.75630560432E+01 -0.12025383072E+02  0.47867861141E+02  0.10566000000E+00 0.  1.
         23    2    1    0    0    0  0.16097872120E+02  0.85952920052E+00  0.24691010756E+02  0.95512268833E+02  0.90846393479E+02 0.  0.
         13    1    3    3    0    0 -0.29613300600E+02 -0.67035268427E+01  0.36716393828E+02  0.47644407692E+02  0.10566000000E+00 0. -1.
         22    1    1    0    0    0 -0.16097872120E+02 -0.85952920052E+00 -0.24691010756E+02  0.29487731167E+02  0.00000000000E+00 0. -1.
</event>
<event>
 5    1  0.1325832E-009  0.9118800E+02  0.7818608E-02  0.1130116E+00
         25   -1    0    0    0    0  0.00000000000E+00  0.00000000000E+00  0.99999998245E-14  0.12500000000E+03  0.12500000000E+03 0.  0.
        -13    1    3    3    0    0  0.30140021168E+02 -0.34126822254E+02 -0.62755618312E+01  0.45961448122E+02  0.10566000000E+00 0. -1.
         23    2    1    0    0    0  0.65890615824E+01  0.57262660924E+01 -0.26958281618E+02  0.96663542852E+02  0.92416912483E+02 0.  0.
         13    1    3    3    0    0 -0.23550959586E+02  0.39853088346E+02 -0.20682719787E+02  0.50702094730E+02  0.10566000000E+00 0.  1.
         22    1    1    0    0    0 -0.65890615824E+01 -0.57262660924E+01  0.26958281618E+02  0.28336457148E+02  0.00000000000E+00 0. -1.
</event>
<event>
 5    1  0.1325832E-009  0.9118800E+02  0.7818608E-02  0.1130116E+00
         25   -1    0    0    0    0  0.00000000000E+00  0.00000000000E+00  0.99999998245E-14  0.12500000000E+03  0.12500000000E+03 0.  0.
        -13    1    3    3    0    0 -0.38936999825E+01  0.49728823763E+02 -0.29937228907E+02  0.58175301040E+02  0.10566000000E+00 0. -1.
         23    2    1    0    0    0  0.11540050483E+02  0.15457367050E+02 -0.20339643859E+02  0.96967802912E+02  0.92827532166E+02 0.  0.
         13    1    3    3    0    0  0.15433750466E+02 -0.34271456713E+02  0.95975850481E+01  0.38792501872E+02  0.10566000000E+00 0.  1.
         22    1    1    0    0    0 -0.11540050483E+02 -0.15457367050E+02  0.20339643859E+02  0.28032197088E+02  0.00000000000E+00 0. -1.
</event>
<event>
 5    1  0.1325832E-009  0.9118800E+02  0.7818608E-02  0.1130116E+00
         25   -1    0    0    0    0  0.00000000000E+00  0.00000000000E+00  0.99999998245E-14  0.12500000000E+03  0.12500000000E+03 0.  0.
        -13    1    3    3    0    0 -0.39087053043E+01  0.48096890321E+01 -0.34781931308E+02  0.35329944739E+02  0.10566000000E+00 0. -1.
         23    2    1    0    0    0  0.12339604098E+02 -0.18450389636E+02  0.18768121638E+02  0.95932404694E+02  0.91422651316E+02 0.  0.
         13    1    3    3    0    0  0.16248309403E+02 -0.23260078669E+02  0.53550052946E+02  0.60602459955E+02  0.10566000000E+00 0.  1.
         22    1    1    0    0    0 -0.12339604098E+02  0.18450389636E+02 -0.18768121638E+02  0.29067595306E+02  0.00000000000E+00 0.  1.
</event>
<event>
 5    1  0.1325832E-009  0.9118800E+02  0.7818608E-02  0.1130116E+00
         25   -1    0    0    0    0  0.00000000000E+00  0.00000000000E+00  0.99999998245E-14  0.12500000000E+03  0.12500000000E+03 0.  0.
        -13    1    3    3    0    0 -0.91075198532E+01  0.49942138461E+02 -0.15836356700E+02  0.53178618537E+02  0.10566000000E+00 0.  1.
         23    2    1    0    0    0  0.15283076025E+02  0.14801120946E+02 -0.19537603164E+02  0.96114648497E+02  0.91671490248E+02 0.  0.
         13    1    3    3    0    0  0.24390595878E+02 -0.35141017515E+02 -0.37012464639E+01  0.42936029960E+02  0.10566000000E+00 0. -1.
         22    1    1    0    0    0 -0.15283076025E+02 -0.14801120946E+02  0.19537603164E+02  0.28885351503E+02  0.00000000000E+00 0.  1.
</event>
<event>
 5    1  0.1325832E-009  0.9118800E+02  0.7818608E-02  0.1130116E+00
         25   -1    0    0    0    0  0.00000000000E+00  0.00000000000E+00  0.99999998245E-14  0.12500000000E+03  0.12500000000E+03 0.  0.
        -13    1    3    3    0    0  0.78994760528E+01  0.32252636722E+02 -0.13838084983E+02  0.35974130392E+02  0.10566000000E+00 0.  1.
         23    2    1    0    0    0  0.19207695534E+01 -0.27622310432E+02 -0.61515860786E+01  0.96635878287E+02  0.92379486747E+02 0.  0.
         13    1    3    3    0    0 -0.59787064994E+01 -0.59874947155E+02  0.76864989042E+01  0.60661747894E+02  0.10566000000E+00 0. -1.
         22    1    1    0    0    0 -0.19207695534E+01  0.27622310432E+02  0.61515860786E+01  0.28364121713E+02  0.00000000000E+00 0. -1.
</event>
<event>
 5    1  0.1325832E-009  0.9118800E+02  0.7818608E-02  0.1130116E+00
         25   -1    0    0    0    0  0.00000000000E+00  0.00000000000E+00  0.99999998245E-14  0.12500000000E+03  0.12500000000E+03 0.  0.
        -13    1    3    3    0    0  0.44477794272E+02 -0.20605870112E+01 -0.11596709291E+02  0.46011031640E+02  0.10566000000E+00 0. -1.
         23    2    1    0    0    0  0.76365608295E+01 -0.28892193964E+02  0.53580847928E+01  0.94639087530E+02  0.89636889072E+02 0.  0.
         13    1    3    3    0    0 -0.36841233443E+02 -0.26831606953E+02  0.16954794083E+02  0.48628055891E+02  0.10566000000E+00 0.  1.
         22    1    1    0    0    0 -0.76365608295E+01  0.28892193964E+02 -0.53580847928E+01  0.30360912470E+02  0.00000000000E+00 0.  1.
</event>
<event>
 5    1  0.1325832E-009  0.9118800E+02  0.7818608E-02  0.1130116E+00
         25   -1    0    0    0    0  0.00000000000E+00  0.00000000000E+00  0.99999998245E-14  0.12500000000E+03  0.12500000000E+03 0.  0.
        -13    1    3    3    0    0 -0.25522927947E+02 -0.16676743741E+02 -0.23488787105E+02  0.38487243556E+02  0.10566000000E+00 0.  1.
         23    2    1    0    0    0 -0.74262858004E+00  0.29206811254E+02  0.24715044446E+00  0.95782703682E+02  0.91217739067E+02 0.  0.
         13    1    3    3    0    0  0.24780299367E+02  0.45883554995E+02  0.23735937550E+02  0.57295460126E+02  0.10566000000E+00 0. -1.
         22    1    1    0    0    0  0.74262858004E+00 -0.29206811254E+02 -0.24715044446E+00  0.29217296318E+02  0.00000000000E+00 0. -1.
</event>
<event>
 5    1  0.1325832E-009  0.9118800E+02  0.7818608E-02  0.1130116E+00
         25   -1    0    0    0    0  0.00000000000E+00  0.00000000000E+00  0.99999998245E-14  0.12500000000E+03  0.12500000000E+03 0.  0.
        -13    1    3    3    0    0  0.53811207097E+02  0.20335276848E+02  0.13750517559E+02  0.59146068262E+02  0.10566000000E+00 0.  1.
         23    2    1    0    0    0  0.17798645114E+02  0.21612752454E+02  0.95130594166E+01  0.95429725466E+02  0.90732746936E+02 0.  0.
         13    1    3    3    0    0 -0.36012561983E+02  0.12774756068E+01 -0.42374581425E+01  0.36283657204E+02  0.10566000000E+00 0. -1.
         22    1    1    0    0    0 -0.17798645114E+02 -0.21612752454E+02 -0.95130594166E+01  0.29570274534E+02  0.00000000000E+00 0.  1.
</event>
<event>
 5    1  0.1325832E-009  0.9118800E+02  0.7818608E-02  0.1130116E+00
         25   -1    0    0    0    0  0.00000000000E+00  0.00000000000E+00  0.99999998245E-14  0.12500000000E+03  0.12500000000E+03 0.  0.
        -13    1    3    3    0    0 -0.22480030460E+02 -0.17299813071E+02  0.18246792807E+02  0.33728206498E+02  0.10566000000E+00 0. -1.
         23    2    1    0    0    0  0.17067623395E+02  0.10387308123E+02 -0.21050819611E+02  0.95976958383E+02  0.91483548225E+02 0.  0.
         13    1    3    3    0    0  0.39547653855E+02  0.27687121194E+02 -0.39297612418E+02  0.62248751885E+02  0.10566000000E+00 0.  1.
         22    1    1    0    0    0 -0.17067623395E+02 -0.10387308123E+02  0.21050819611E+02  0.29023041617E+02  0.00000000000E+00 0.  1.
</event>
<event>
 5    1  0.1325832E-009  0.9118800E+02  0.7818608E-02  0.1130116E+00
         25   -1    0    0    0    0  0.00000000000E+00  0.00000000000E+00  0.99999998245E-14  0.12500000000E+03  0.12500000000E+03 0.  0.
        -13    1    3    3    0    0  0.11934587718E+02 -0.36426397289E+02 -0.16354343597E+02  0.41674842795E+02  0.10566000000E+00 0. -1.
         23    2    1    0    0    0 -0.21951309217E+02  0.93689775800E+01 -0.10437630867E+02  0.98950396254E+02  0.95459934336E+02 0.  0.
         13    1    3    3    0    0 -0.33885896934E+02  0.45795374869E+02  0.59167127295E+01  0.57275553459E+02  0.10566000000E+00 0.  1.
         22    1    1    0    0    0  0.21951309217E+02 -0.93689775800E+01  0.10437630867E+02  0.26049603746E+02  0.00000000000E+00 0.  1.
</event>
<event>
 5    1  0.1325832E-009  0.9118800E+02  0.7818608E-02  0.1130116E+00
         25   -1    0    0    0    0  0.00000000000E+00  0.00000000000E+00  0.99999998245E-14  0.12500000000E+03  0.12500000000E+03 0.  0.
        -13    1    3    3    0    0 -0.13488812415E+02  0.18009031252E+00 -0.36536315816E+02  0.38947323789E+02  0.10566000000E+00 0. -1.
         23    2    1    0    0    0 -0.77608968951E+01  0.24173777292E+02  0.14592665023E+02  0.95716064102E+02  0.91126373930E+02 0.  0.
         13    1    3    3    0    0  0.57279155197E+01  0.23993686979E+02  0.51128980839E+02  0.56768740313E+02  0.10566000000E+00 0.  1.
         22    1    1    0    0    0  0.77608968951E+01 -0.24173777292E+02 -0.14592665023E+02  0.29283935898E+02  0.00000000000E+00 0.  1.
</event>
<event>
 5    1  0.1325832E-009  0.9118800E+02  0.7818608E-02  0.1130116E+00
         25   -1    0    0    0    0  0.00000000000E+00  0.00000000000E+00  0.99999998245E-14  0.12500000000E+03  0.12500000000E+03 0.  0.
        -13    1    3    3    0    0 -0.55787185484E+02  0.17012893427E+02  0.14361288793E+02  0.60065850421E+02  0.10566000000E+00 0.  1.
         23    2    1    0    0    0 -0.26496534989E+02  0.44376887444E+01  0.18743935646E+02  0.92241877781E+02  0.86229168181E+02 0.  0.
         13    1    3    3    0    0  0.29290650495E+02 -0.12575204683E+02  0.43826468534E+01  0.32176027360E+02  0.10566000000E+00 0. -1.
         22    1    1    0    0    0  0.26496534989E+02 -0.44376887444E+01 -0.18743935646E+02  0.32758122219E+02  0.00000000000E+00 0.  1.
</event>
<event>
 5    1  0.1325832E-009  0.9118800E+02  0.7818608E-02  0.1130116E+00
         25   -1    0    0    0    0  0.00000000000E+00  0.00000000000E+00  0.99999998245E-14  0.12500000000E+03  0.12500000000E+03 0.  0.
        -13    1    3    3    0    0 -0.36049944196E+02 -0.37344351635E+02  0.28819824081E+02  0.59369962942E+02  0.10566000000E+00 0.  1.
         23    2    1    0    0    0 -0.23439733009E+02 -0.49852601927E+01  0.14876093250E+02  0.96794113148E+02  0.92593349043E+02 0.  0.
         13    1    3    3    0    0  0.12610211187E+02  0.32359091443E+02 -0.13943730830E+02  0.37424150207E+02  0.10566000000E+00 0. -1.
         22    1    1    0    0    0  0.23439733009E+02  0.49852601927E+01 -0.14876093250E+02  0.28205886852E+02  0.00000000000E+00 0.  1.
</event>
<event>
 5    1  0.1325832E-009  0.9118800E+02  0.7818608E-02  0.1130116E+00
         25   -1    0    0    0    0  0.00000000000E+00  0.00000000000E+00  0.99999998245E-14  0.12500000000E+03  0.12500000000E+03 0.  0.
        -13    1    3    3    0    0 -0.81069357768E+01 -0.21735516564E+02 -0.24881088845E+02  0.34018154478E+02  0.10566000000E+00 0. -1.
         23    2    1    0    0    0  0.39749467625E+01  0.26530069568E+02  0.11659507356E+02  0.95749548639E+02  0.91172293817E+02 0.  0.
         13    1    3    3    0    0  0.12081882539E+02  0.48265586131E+02  0.36540596201E+02  0.61731394161E+02  0.10566000000E+00 0.  1.
         22    1    1    0    0    0 -0.39749467625E+01 -0.26530069568E+02 -0.11659507356E+02  0.29250451361E+02  0.00000000000E+00 0.  1.
</event>
<event>
 5    1  0.1325832E-009  0.9118800E+02  0.7818608E-02  0.1130116E+00
         25   -1    0    0    0    0  0.00000000000E+00  0.00000000000E+00  0.99999998245E-14  0.12500000000E+03  0.12500000000E+03 0.  0.
        -13    1    3    3    0    0 -0.82754388966E+01  0.40341380646E+02  0.15099149823E+01  0.41209233051E+02  0.10566000000E+00 0.  1.
         23    2    1    0    0    0  0.28739002072E+02  0.56958715325E+00  0.56775617413E+01  0.95700010632E+02  0.91104350379E+02 0.  0.
         13    1    3    3    0    0  0.37014440969E+02 -0.39771793493E+02  0.41676467590E+01  0.54490777581E+02  0.10566000000E+00 0. -1.
         22    1    1    0    0    0 -0.28739002072E+02 -0.56958715325E+00 -0.56775617413E+01  0.29299989368E+02  0.00000000000E+00 0. -1.
</event>
<event>
 5    1  0.1325832E-009  0.9118800E+02  0.7818608E-02  0.1130116E+00
         25   -1    0    0    0    0  0.00000000000E+00  0.00000000000E+00  0.99999998245E-14  0.12500000000E+03  0.12500000000E+03 0.  0.
        -13    1    3    3    0    0 -0.37751480028E+02  0.32282465416E+02 -0.89724728166E+01  0.50476214697E+02  0.10566000000E+00 0.  1.
         23    2    1    0    0    0 -0.27541072057E+02 -0.40624675877E+01  0.13127273399E+02  0.94221117632E+02  0.89052116246E+02 0.  0.
         13    1    3    3    0    0  0.10210407972E+02 -0.36344933003E+02  0.22099746216E+02  0.43744902935E+02  0.10566000000E+00 0. -1.
         22    1    1    0    0    0  0.27541072057E+02  0.40624675877E+01 -0.13127273399E+02  0.30778882368E+02  0.00000000000E+00 0. -1.
</event>
<event>
 5    1  0.1325832E-009  0.9118800E+02  0.7818608E-02  0.1130116E+00
         25   -1    0    0    0    0  0.00000000000E+00  0.00000000000E+00  0.99999998245E-14  0.12500000000E+03  0.12500000000E+03 0.  0.
        -13    1    3    3    0    0  0.19755081129E+02 -0.91540356074E+00  0.50121904956E+02  0.53882443472E+02  0.10566000000E+00 0.  1.
         23    2    1    0    0    0  0.26816204306E+02  0.67179779009E+01  0.95714790812E+01  0.95745030298E+02  0.91166098822E+02 0.  0.
         13    1    3    3    0    0  0.70611231776E+01  0.76333814616E+01 -0.40550425875E+02  0.41862586826E+02  0.10566000000E+00 0. -1.
         22    1    1    0    0    0 -0.26816204306E+02 -0.67179779009E+01 -0.95714790812E+01  0.29254969702E+02  0.00000000000E+00 0.  1.
</event>
<event>
 5    1  0.1325832E-009  0.9118800E+02  0.7818608E-02  0.1130116E+00
         25   -1    0    0    0    0  0.00000000000E+00  0.00000000000E+00  0.99999998245E-14  0.12500000000E+03  0.12500000000E+03 0.  0.
        -13    1    3    3    0    0  0.46699228603E+02 -0.13385025349E+02  0.34360204206E+02  0.59503039022E+02  0.10566000000E+00 0. -1.
         23    2    1    0    0    0  0.25713420129E+02  0.66448475633E+01  0.13715863024E+02  0.95109217602E+02  0.90290112418E+02 0.  0.
         13    1    3    3    0    0 -0.20985808474E+02  0.20029872913E+02 -0.20644341182E+02  0.35606178580E+02  0.10566000000E+00 0.  1.
         22    1    1    0    0    0 -0.25713420129E+02 -0.66448475633E+01 -0.13715863024E+02  0.29890782398E+02  0.00000000000E+00 0. -1.
</event>
<event>
 5    1  0.1325832E-009  0.9118800E+02  0.7818608E-02  0.1130116E+00
         25   -1    0    0    0    0  0.00000000000E+00  0.00000000000E+00  0.99999998245E-14  0.12500000000E+03  0.12500000000E+03 0.  0.
        -13    1    3    3    0    0  0.33042356488E+02 -0.73706778429E+01 -0.75378673514E+01  0.34683639117E+02  0.10566000000E+00 0.  1.
         23    2    1    0    0    0 -0.26065479287E+02  0.10445070890E+02 -0.50563622993E+01  0.96467991377E+02  0.92152036571E+02 0.  0.
         13    1    3    3    0    0 -0.59107835775E+02  0.17815748733E+02  0.24815050521E+01  0.61784352260E+02  0.10566000000E+00 0. -1.
         22    1    1    0    0    0  0.26065479287E+02 -0.10445070890E+02  0.50563622993E+01  0.28532008623E+02  0.00000000000E+00 0. -1.
</event>
<event>
 5    1  0.1325832E-009  0.9118800E+02  0.7818608E-02  0.1130116E+00
         25   -1    0    0    0    0  0.00000000000E+00  0.00000000000E+00  0.99999998245E-14  0.12500000000E+03  0.12500000000E+03 0.  0.
        -13    1    3    3    0    0  0.16421520424E+02  0.28834226761E+02 -0.47300510617E+02  0.57779134941E+02  0.10566000000E+00 0.  1.
         23    2    1    0    0    0 -0.87671206357E+01  0.11110953578E+02 -0.26539954849E+02  0.94922019731E+02  0.90030577766E+02 0.  0.
         13    1    3    3    0    0 -0.25188641059E+02 -0.17723273182E+02  0.20760555768E+02  0.37142884790E+02  0.10566000000E+00 0. -1.
         22    1    1    0    0    0  0.87671206357E+01 -0.11110953578E+02  0.26539954849E+02  0.30077980269E+02  0.00000000000E+00 0.  1.
</event>
<event>
 5    1  0.1325832E-009  0.9118800E+02  0.7818608E-02  0.1130116E+00
         25   -1    0    0    0    0  0.00000000000E+00  0.00000000000E+00  0.99999998245E-14  0.12500000000E+03  0.12500000000E+03 0.  0.
        -13    1    3    3    0    0 -0.71206738870E+01 -0.12885302148E+02 -0.25662338241E+02  0.29585499423E+02  0.10566000000E+00 0.  1.
         23    2    1    0    0    0  0.88150313149E+00  0.26716444713E+02  0.20779918960E+02  0.91142201816E+02  0.84620035772E+02 0.  0.
         13    1    3    3    0    0  0.80021770185E+01  0.39601746861E+02  0.46442257201E+02  0.61556702393E+02  0.10566000000E+00 0. -1.
         22    1    1    0    0    0 -0.88150313149E+00 -0.26716444713E+02 -0.20779918960E+02  0.33857798184E+02  0.00000000000E+00 0. -1.
</event>
<event>
 5    1  0.1325832E-009  0.9118800E+02  0.7818608E-02  0.1130116E+00
         25   -1    0    0    0    0  0.00000000000E+00  0.00000000000E+00  0.99999998245E-14  0.12500000000E+03  0.12500000000E+03 0.  0.
        -13    1    3    3    0    0 -0.28672484389E+02 -0.20512874862E+02  0.58127874994E+01  0.35730785867E+02  0.10566000000E+00 0.  1.
         23    2    1    0    0    0  0.24411609598E+02 -0.42448052168E+01 -0.16134208392E+02  0.95432150316E+02  0.90736087523E+02 0.  0.
         13    1    3    3    0    0  0.53084093987E+02  0.16268069646E+02 -0.21946995891E+02  0.59701364449E+02  0.10566000000E+00 0. -1.
         22    1    1    0    0    0 -0.24411609598E+02  0.42448052168E+01  0.16134208392E+02  0.29567849684E+02  0.00000000000E+00 0. -1.
</event>
<event>
 5    1  0.1325832E-009  0.9118800E+02  0.7818608E-02  0.1130116E+00
         25   -1    0    0    0    0  0.00000000000E+00  0.00000000000E+00  0.99999998245E-14  0.12500000000E+03  0.12500000000E+03 0.  0.
        -13    1    3    3    0    0 -0.20286998024E+02 -0.21479210296E+02 -0.19295277266E+02  0.35287925025E+02  0.10566000000E+00 0.  1.
         23    2    1    0    0    0  0.29033453045E+02  0.77239416739E+01 -0.98789665185E+01  0.93374145858E+02  0.87855201693E+02 0.  0.
         13    1    3    3    0    0  0.49320451069E+02  0.29203151970E+02  0.94163107471E+01  0.58086220834E+02  0.10566000000E+00 0. -1.
         22    1    1    0    0    0 -0.29033453045E+02 -0.77239416739E+01  0.98789665185E+01  0.31625854142E+02  0.00000000000E+00 0. -1.
</event>
<event>
 5    1  0.1325832E-009  0.9118800E+02  0.7818608E-02  0.1130116E+00
         25   -1    0    0    0    0  0.00000000000E+00  0.00000000000E+00  0.99999998245E-14  0.12500000000E+03  0.12500000000E+03 0.  0.
        -13    1    3    3    0    0 -0.66824035733E+01 -0.33122574345E+02  0.29174936946E+02  0.44642441225E+02  0.10566000000E+00 0.  1.
         23    2    1    0    0    0 -0.29836513644E+02  0.49236186066E+01  0.13804306578E+02  0.91758182260E+02  0.85525116573E+02 0.  0.
         13    1    3    3    0    0 -0.23154110071E+02  0.38046192951E+02 -0.15370630368E+02  0.47115741034E+02  0.10566000000E+00 0. -1.
         22    1    1    0    0    0  0.29836513644E+02 -0.49236186066E+01 -0.13804306578E+02  0.33241817740E+02  0.00000000000E+00 0. -1.
</event>
<event>
 5    1  0.1325832E-009  0.9118800E+02  0.7818608E-02  0.1130116E+00
         25   -1    0    0    0    0  0.00000000000E+00  0.00000000000E+00  0.99999998245E-14  0.12500000000E+03  0.12500000000E+03 0.  0.
        -13    1    3    3    0    0 -0.31646791358E+02 -0.21847434390E+02 -0.42688576880E+01  0.38691912626E+02  0.10566000000E+00 0. -1.
         23    2    1    0    0    0  0.35847157730E+01  0.25879633332E+02 -0.65734575017E+01  0.98059028375E+02  0.94285508397E+02 0.  0.
         13    1    3    3    0    0  0.35231507131E+02  0.47727067722E+02 -0.23045998138E+01  0.59367115749E+02  0.10566000000E+00 0.  1.
         22    1    1    0    0    0 -0.35847157730E+01 -0.25879633332E+02  0.65734575017E+01  0.26940971625E+02  0.00000000000E+00 0.  1.
</event>
<event>
 5    1  0.1325832E-009  0.9118800E+02  0.7818608E-02  0.1130116E+00
         25   -1    0    0    0    0  0.00000000000E+00  0.00000000000E+00  0.99999998245E-14  0.12500000000E+03  0.12500000000E+03 0.  0.
        -13    1    3    3    0    0 -0.68880590087E+01 -0.46198239542E+02 -0.29960918778E+02  0.55492256322E+02  0.10566000000E+00 0.  1.
         23    2    1    0    0    0 -0.22915177919E+02 -0.14377600669E+02 -0.11739766568E+02  0.95510291640E+02  0.90843672923E+02 0.  0.
         13    1    3    3    0    0 -0.16027118910E+02  0.31820638873E+02  0.18221152210E+02  0.40018035318E+02  0.10566000000E+00 0. -1.
         22    1    1    0    0    0  0.22915177919E+02  0.14377600669E+02  0.11739766568E+02  0.29489708360E+02  0.00000000000E+00 0.  1.
</event>
<event>
 5    1  0.1325832E-009  0.9118800E+02  0.7818608E-02  0.1130116E+00
         25   -1    0    0    0    0  0.00000000000E+00  0.00000000000E+00  0.99999998245E-14  0.12500000000E+03  0.12500000000E+03 0.  0.
        -13    1    3    3    0    0  0.40307993946E+02  0.63732908973E+01 -0.25076919871E+02  0.47897977902E+02  0.10566000000E+00 0.  1.
         23    2    1    0    0    0  0.24196435901E+02 -0.81557123502E+01  0.16362581345E+02  0.94673160030E+02  0.89684391103E+02 0.  0.
         13    1    3    3    0    0 -0.16111558045E+02 -0.14529003247E+02  0.41439501217E+02  0.46775182128E+02  0.10566000000E+00 0. -1.
         22    1    1    0    0    0 -0.24196435901E+02  0.81557123502E+01 -0.16362581345E+02  0.30326839970E+02  0.00000000000E+00 0.  1.
</event>
<event>
 5    1  0.1325832E-009  0.9118800E+02  0.7818608E-02  0.1130116E+00
         25   -1    0    0    0    0  0.00000000000E+00  0.00000000000E+00  0.99999998245E-14  0.12500000000E+03  0.12500000000E+03 0.  0.
        -13    1    3    3    0    0 -0.92770682831E+01 -0.38903256446E+02  0.19905009691E+02  0.44673794700E+02  0.10566000000E+00 0. -1.
         23    2    1    0    0    0 -0.15349646843E+02 -0.14460806019E+02 -0.22605539773E+02  0.94085003682E+02  0.88860851450E+02 0.  0.
         13    1    3    3    0    0 -0.60725785604E+01  0.24442450427E+02 -0.42510549464E+02  0.49411208982E+02  0.10566000000E+00 0.  1.
         22    1    1    0    0    0  0.15349646843E+02  0.14460806019E+02  0.22605539773E+02  0.30914996318E+02  0.00000000000E+00 0. -1.
</event>
<event>
 5    1  0.1325832E-009  0.9118800E+02  0.7818608E-02  0.1130116E+00
         25   -1    0    0    0    0  0.00000000000E+00  0.00000000000E+00  0.99999998245E-14  0.12500000000E+03  0.12500000000E+03 0.  0.
        -13    1    3    3    0    0 -0.10315458562E+01 -0.37215621038E+02 -0.46016552461E+01  0.37513370032E+02  0.10566000000E+00 0. -1.
         23    2    1    0    0    0  0.33204322758E+02  0.43220073816E+01 -0.28589876673E+00  0.91514353288E+02  0.85168000575E+02 0.  0.
         13    1    3    3    0    0  0.34235868615E+02  0.41537628420E+02  0.43157564793E+01  0.54000983256E+02  0.10566000000E+00 0.  1.
         22    1    1    0    0    0 -0.33204322758E+02 -0.43220073816E+01  0.28589876673E+00  0.33485646712E+02  0.00000000000E+00 0.  1.
</event>
<event>
 5    1  0.1325832E-009  0.9118800E+02  0.7818608E-02  0.1130116E+00
         25   -1    0    0    0    0  0.00000000000E+00  0.00000000000E+00  0.99999998245E-14  0.12500000000E+03  0.12500000000E+03 0.  0.
        -13    1    3    3    0    0 -0.30477190936E+02 -0.79429809063E+01 -0.12253803474E+02  0.33795221210E+02  0.10566000000E+00 0.  1.
         23    2    1    0    0    0  0.22101550590E+02  0.16346075189E+02  0.98663070527E+01  0.95793549900E+02  0.91232600944E+02 0.  0.
         13    1    3    3    0    0  0.52578741526E+02  0.24289056096E+02  0.22120110527E+02  0.61998328689E+02  0.10566000000E+00 0. -1.
         22    1    1    0    0    0 -0.22101550590E+02 -0.16346075189E+02 -0.98663070527E+01  0.29206450100E+02  0.00000000000E+00 0. -1.
</event>
<event>
 5    1  0.1325832E-009  0.9118800E+02  0.7818608E-02  0.1130116E+00
         25   -1    0    0    0    0  0.00000000000E+00  0.00000000000E+00  0.99999998245E-14  0.12500000000E+03  0.12500000000E+03 0.  0.
        -13    1    3    3    0    0  0.40069638987E+02 -0.14423148925E+02  0.88272017863E+01  0.43491767599E+02  0.10566000000E+00 0.  1.
         23    2    1    0    0    0  0.40146692620E+01  0.25472091707E+02  0.10165636296E+02  0.97282042165E+02  0.93249721401E+02 0.  0.
         13    1    3    3    0    0 -0.36054969725E+02  0.39895240632E+02  0.13384345095E+01  0.53790274567E+02  0.10566000000E+00 0. -1.
         22    1    1    0    0    0 -0.40146692620E+01 -0.25472091707E+02 -0.10165636296E+02  0.27717957835E+02  0.00000000000E+00 0. -1.
</event>
<event>
 5    1  0.1325832E-009  0.9118800E+02  0.7818608E-02  0.1130116E+00
         25   -1    0    0    0    0  0.00000000000E+00  0.00000000000E+00  0.99999998245E-14  0.12500000000E+03  0.12500000000E+03 0.  0.
        -13    1    3    3    0    0  0.34743717335E+02  0.30436090630E+02 -0.13053336708E+02  0.47998773633E+02  0.10566000000E+00 0. -1.
         23    2    1    0    0    0  0.21924444238E+02 -0.15979510389E+01  0.19632688270E+02  0.95526670507E+02  0.90866207287E+02 0.  0.
         13    1    3    3    0    0 -0.12819273097E+02 -0.32034041669E+02  0.32686024978E+02  0.47527896874E+02  0.10566000000E+00 0.  1.
         22    1    1    0    0    0 -0.21924444238E+02  0.15979510389E+01 -0.19632688270E+02  0.29473329493E+02  0.00000000000E+00 0. -1.
</event>
<event>
 5    1  0.1325832E-009  0.9118800E+02  0.7818608E-02  0.1130116E+00
         25   -1    0    0    0    0  0.00000000000E+00  0.00000000000E+00  0.99999998245E-14  0.12500000000E+03  0.12500000000E+03 0.  0.
        -13    1    3    3    0    0  0.57760300972E+01  0.46481185540E+02 -0.18119430292E+02  0.50221390374E+02  0.10566000000E+00 0. -1.
         23    2    1    0    0    0  0.28260477285E+02  0.13040853764E+02 -0.14135503420E+01  0.93843675316E+02  0.88520725421E+02 0.  0.
         13    1    3    3    0    0  0.22484447187E+02 -0.33440331776E+02  0.16705879950E+02  0.43622284942E+02  0.10566000000E+00 0.  1.
         22    1    1    0    0    0 -0.28260477285E+02 -0.13040853764E+02  0.14135503420E+01  0.31156324684E+02  0.00000000000E+00 0. -1.
</event>
<event>
 5    1  0.1325832E-009  0.9118800E+02  0.7818608E-02  0.1130116E+00
         25   -1    0    0    0    0  0.00000000000E+00  0.00000000000E+00  0.99999998245E-14  0.12500000000E+03  0.12500000000E+03 0.  0.
        -13    1    3    3    0    0 -0.24341513144E+02  0.14173034996E+02 -0.27746001320E+02  0.39537778598E+02  0.10566000000E+00 0. -1.
         23    2    1    0    0    0 -0.89477077080E+01 -0.94621993980E+01  0.23556687095E+02  0.98083235752E+02  0.94317596121E+02 0.  0.
         13    1    3    3    0    0  0.15393805436E+02 -0.23635234394E+02  0.51302688416E+02  0.58545457154E+02  0.10566000000E+00 0.  1.
         22    1    1    0    0    0  0.89477077080E+01  0.94621993980E+01 -0.23556687095E+02  0.26916764248E+02  0.00000000000E+00 0.  1.
</event>
<event>
 5    1  0.1325832E-009  0.9118800E+02  0.7818608E-02  0.1130116E+00
         25   -1    0    0    0    0  0.00000000000E+00  0.00000000000E+00  0.99999998245E-14  0.12500000000E+03  0.12500000000E+03 0.  0.
        -13    1    3    3    0    0  0.39771977379E+02  0.39027951635E+02  0.22454518329E+02  0.60076682256E+02  0.10566000000E+00 0. -1.
         23    2    1    0    0    0  0.93657250021E+01  0.25363492011E+02  0.57735908127E+01  0.97352976965E+02  0.93344760117E+02 0.  0.
         13    1    3    3    0    0 -0.30406252377E+02 -0.13664459624E+02 -0.16680927517E+02  0.37276294709E+02  0.10566000000E+00 0.  1.
         22    1    1    0    0    0 -0.93657250021E+01 -0.25363492011E+02 -0.57735908127E+01  0.27647023035E+02  0.00000000000E+00 0. -1.
</event>
<event>
 5    1  0.1325832E-009  0.9118800E+02  0.7818608E-02  0.1130116E+00
         25   -1    0    0    0    0  0.00000000000E+00  0.00000000000E+00  0.99999998245E-14  0.12500000000E+03  0.12500000000E+03 0.  0.
        -13    1    3    3    0    0 -0.56306343612E+01 -0.12128385186E+02  0.32890199285E+02  0.35504621440E+02  0.10566000000E+00 0. -1.
         23    2    1    0    0    0  0.13933800237E+02 -0.73108145259E+01 -0.24249371171E+02  0.96092720635E+02  0.91641585314E+02 0.  0.
         13    1    3    3    0    0  0.19564434598E+02  0.48175706604E+01 -0.57139570456E+02  0.60588099196E+02  0.10566000000E+00 0.  1.
         22    1    1    0    0    0 -0.13933800237E+02  0.73108145259E+01  0.24249371171E+02  0.28907279365E+02  0.00000000000E+00 0.  1.
</event>
<event>
 5    1  0.1325832E-009  0.9118800E+02  0.7818608E-02  0.1130116E+00
         25   -1    0    0    0    0  0.00000000000E+00  0.00000000000E+00  0.99999998245E-14  0.12500000000E+03  0.12500000000E+03 0.  0.
        -13    1    3    3    0    0 -0.22367985431E+02 -0.44314882512E+02 -0.35852491807E+02  0.61233552217E+02  0.10566000000E+00 0.  1.
         23    2    1    0    0    0 -0.94168380838E+01 -0.15269196709E+02 -0.23693697015E+02  0.95281041642E+02  0.90527677594E+02 0.  0.
         13    1    3    3    0    0  0.12951147347E+02  0.29045685803E+02  0.12158794792E+02  0.34047489426E+02  0.10566000000E+00 0. -1.
         22    1    1    0    0    0  0.94168380838E+01  0.15269196709E+02  0.23693697015E+02  0.29718958358E+02  0.00000000000E+00 0.  1.
</event>
<event>
 5    1  0.1325832E-009  0.9118800E+02  0.7818608E-02  0.1130116E+00
         25   -1    0    0    0    0  0.00000000000E+00  0.00000000000E+00  0.99999998245E-14  0.12500000000E+03  0.12500000000E+03 0.  0.
        -13    1    3    3    0    0 -0.10870606679E+02 -0.13476780825E+02 -0.59142161224E+02  0.61624671271E+02  0.10566000000E+00 0.  1.
         23    2    1    0    0    0 -0.68771568852E+01 -0.11538006062E+02 -0.20690690113E+02  0.10033168980E+03  0.97251850626E+02 0.  0.
         13    1    3    3    0    0  0.39934497938E+01  0.19387747627E+01  0.38451471111E+02  0.38707018530E+02  0.10566000000E+00 0. -1.
         22    1    1    0    0    0  0.68771568852E+01  0.11538006062E+02  0.20690690113E+02  0.24668310199E+02  0.00000000000E+00 0.  1.
</event>
<event>
 5    1  0.1325832E-009  0.9118800E+02  0.7818608E-02  0.1130116E+00
         25   -1    0    0    0    0  0.00000000000E+00  0.00000000000E+00  0.99999998245E-14  0.12500000000E+03  0.12500000000E+03 0.  0.
        -13    1    3    3    0    0 -0.23990144503E+02 -0.39443875188E+02 -0.17159908143E+02  0.49252613481E+02  0.10566000000E+00 0. -1.
         23    2    1    0    0    0 -0.24964828610E+02 -0.79672107538E+01  0.15444219423E+02  0.94582192250E+02  0.89557512597E+02 0.  0.
         13    1    3    3    0    0 -0.97468410635E+00  0.31476664435E+02  0.32604127566E+02  0.45329578770E+02  0.10566000000E+00 0.  1.
         22    1    1    0    0    0  0.24964828610E+02  0.79672107538E+01 -0.15444219423E+02  0.30417807750E+02  0.00000000000E+00 0. -1.
</event>
<event>
 5    1  0.1325832E-009  0.9118800E+02  0.7818608E-02  0.1130116E+00
         25   -1    0    0    0    0  0.00000000000E+00  0.00000000000E+00  0.99999998245E-14  0.12500000000E+03  0.12500000000E+03 0.  0.
        -13    1    3    3    0    0  0.28787000746E+01 -0.13996158719E+02 -0.34079186899E+02  0.36953775406E+02  0.10566000000E+00 0.  1.
         23    2    1    0    0    0  0.21444215620E+02  0.27496529420E+01  0.19376730913E+02  0.95967730441E+02  0.91470938610E+02 0.  0.
         13    1    3    3    0    0  0.18565515545E+02  0.16745811661E+02  0.53455917813E+02  0.59013955035E+02  0.10566000000E+00 0. -1.
         22    1    1    0    0    0 -0.21444215620E+02 -0.27496529420E+01 -0.19376730913E+02  0.29032269559E+02  0.00000000000E+00 0. -1.
</event>
<event>
 5    1  0.1325832E-009  0.9118800E+02  0.7818608E-02  0.1130116E+00
         25   -1    0    0    0    0  0.00000000000E+00  0.00000000000E+00  0.99999998245E-14  0.12500000000E+03  0.12500000000E+03 0.  0.
        -13    1    3    3    0    0  0.16300744727E+02  0.39372125146E+02  0.14070440691E+02  0.44876129317E+02  0.10566000000E+00 0.  1.
         23    2    1    0    0    0 -0.12235697009E+01 -0.62196884120E+01  0.28497393255E+02  0.95806112470E+02  0.91249811603E+02 0.  0.
         13    1    3    3    0    0 -0.17524314428E+02 -0.45591813558E+02  0.14426952564E+02  0.50929983154E+02  0.10566000000E+00 0. -1.
         22    1    1    0    0    0  0.12235697009E+01  0.62196884120E+01 -0.28497393255E+02  0.29193887530E+02  0.00000000000E+00 0. -1.
</event>
<event>
 5    1  0.1325832E-009  0.9118800E+02  0.7818608E-02  0.1130116E+00
         25   -1    0    0    0    0  0.00000000000E+00  0.00000000000E+00  0.99999998245E-14  0.12500000000E+03  0.12500000000E+03 0.  0.
        -13    1    3    3    0    0 -0.41160838655E+02 -0.15442546161E+02  0.22920428225E+02  0.49578665419E+02  0.10566000000E+00 0.  1.
         23    2    1    0    0    0 -0.27013712508E+02  0.16175070975E+02 -0.37447273983E+01  0.93292010978E+02  0.87738262717E+02 0.  0.
         13    1    3    3    0    0  0.14147126146E+02  0.31617617136E+02 -0.26665155623E+02  0.43713345559E+02  0.10566000000E+00 0. -1.
         22    1    1    0    0    0  0.27013712508E+02 -0.16175070975E+02  0.37447273983E+01  0.31707989022E+02  0.00000000000E+00 0. -1.
</event>
<event>
 5    1  0.1325832E-009  0.9118800E+02  0.7818608E-02  0.1130116E+00
         25   -1    0    0    0    0  0.00000000000E+00  0.00000000000E+00  0.99999998245E-14  0.12500000000E+03  0.12500000000E+03 0.  0.
        -13    1    3    3    0    0  0.50764427193E+01  0.63296158925E+01 -0.44527428524E+02  0.45260770685E+02  0.10566000000E+00 0.  1.
         23    2    1    0    0    0  0.14980241368E+02  0.25363353893E+02  0.93087378499E+00  0.95528422537E+02  0.90868617434E+02 0.  0.
         13    1    3    3    0    0  0.99037986489E+01  0.19033738000E+02  0.45458302309E+02  0.50267651852E+02  0.10566000000E+00 0. -1.
         22    1    1    0    0    0 -0.14980241368E+02 -0.25363353893E+02 -0.93087378499E+00  0.29471577463E+02  0.00000000000E+00 0. -1.
</event>
<event>
 5    1  0.1325832E-009  0.9118800E+02  0.7818608E-02  0.1130116E+00
         25   -1    0    0    0    0  0.00000000000E+00  0.00000000000E+00  0.99999998245E-14  0.12500000000E+03  0.12500000000E+03 0.  0.
        -13    1    3    3    0    0 -0.18628333558E+02 -0.32638600892E+02 -0.46912341535E+02  0.60108834889E+02  0.10566000000E+00 0.  1.
         23    2    1    0    0    0  0.18532389389E+01 -0.21146501506E+02 -0.19899704309E+02  0.95903483850E+02  0.91383099983E+02 0.  0.
         13    1    3    3    0    0  0.20481572497E+02  0.11492099387E+02  0.27012637226E+02  0.35794648961E+02  0.10566000000E+00 0. -1.
         22    1    1    0    0    0 -0.18532389389E+01  0.21146501506E+02  0.19899704309E+02  0.29096516150E+02  0.00000000000E+00 0.  1.
</event>
<event>
 5    1  0.1325832E-009  0.9118800E+02  0.7818608E-02  0.1130116E+00
         25   -1    0    0    0    0  0.00000000000E+00  0.00000000000E+00  0.99999998245E-14  0.12500000000E+03  0.12500000000E+03 0.  0.
        -13    1    3    3    0    0  0.34973991225E+02 -0.22464151047E+01  0.13839165082E+02  0.37679704049E+02  0.10566000000E+00 0.  1.
         23    2    1    0    0    0 -0.49522727687E+01 -0.55019647521E+01 -0.28256706234E+02  0.95789760889E+02  0.91227409380E+02 0.  0.
         13    1    3    3    0    0 -0.39926263994E+02 -0.32555496474E+01 -0.42095871316E+02  0.58110056840E+02  0.10566000000E+00 0. -1.
         22    1    1    0    0    0  0.49522727687E+01  0.55019647521E+01  0.28256706234E+02  0.29210239111E+02  0.00000000000E+00 0. -1.
</event>
<event>
 5    1  0.1325832E-009  0.9118800E+02  0.7818608E-02  0.1130116E+00
         25   -1    0    0    0    0  0.00000000000E+00  0.00000000000E+00  0.99999998245E-14  0.12500000000E+03  0.12500000000E+03 0.  0.
        -13    1    3    3    0    0 -0.22126511637E+02 -0.19304802805E+02 -0.21974987975E+02  0.36676548217E+02  0.10566000000E+00 0. -1.
         23    2    1    0    0    0  0.10507863950E+02  0.20793549620E+02  0.12249482025E+02  0.98678208259E+02  0.95102849929E+02 0.  0.
         13    1    3    3    0    0  0.32634375587E+02  0.40098352425E+02  0.34224470000E+02  0.62001660042E+02  0.10566000000E+00 0.  1.
         22    1    1    0    0    0 -0.10507863950E+02 -0.20793549620E+02 -0.12249482025E+02  0.26321791741E+02  0.00000000000E+00 0.  1.
</event>
<event>
 5    1  0.1325832E-009  0.9118800E+02  0.7818608E-02  0.1130116E+00
         25   -1    0    0    0    0  0.00000000000E+00  0.00000000000E+00  0.99999998245E-14  0.12500000000E+03  0.12500000000E+03 0.  0.
        -13    1    3    3    0    0 -0.28981290511E+02 -0.20654001061E+02 -0.50350084003E+01  0.35942529587E+02  0.10566000000E+00 0. -1.
         23    2    1    0    0    0  0.17243034221E+02  0.85088525980E+01  0.21038599146E+02  0.96498325387E+02  0.92193174079E+02 0.  0.
         13    1    3    3    0    0  0.46224324732E+02  0.29162853659E+02  0.26073607547E+02  0.60555795800E+02  0.10566000000E+00 0.  1.
         22    1    1    0    0    0 -0.17243034221E+02 -0.85088525980E+01 -0.21038599146E+02  0.28501674613E+02  0.00000000000E+00 0.  1.
</event>
<event>
 5    1  0.1325832E-009  0.9118800E+02  0.7818608E-02  0.1130116E+00
         25   -1    0    0    0    0  0.00000000000E+00  0.00000000000E+00  0.99999998245E-14  0.12500000000E+03  0.12500000000E+03 0.  0.
        -13    1    3    3    0    0  0.41345479573E+02 -0.13756816496E+02 -0.19144738182E+02  0.47594441328E+02  0.10566000000E+00 0.  1.
         23    2    1    0    0    0  0.79120824017E+01 -0.18294643672E+02  0.18259984563E+02  0.97968128602E+02  0.94164919957E+02 0.  0.
         13    1    3    3    0    0 -0.33433397171E+02 -0.45378271768E+01  0.37404722746E+02  0.50373687274E+02  0.10566000000E+00 0. -1.
         22    1    1    0    0    0 -0.79120824017E+01  0.18294643672E+02 -0.18259984563E+02  0.27031871398E+02  0.00000000000E+00 0.  1.
</event>
<event>
 5    1  0.1325832E-009  0.9118800E+02  0.7818608E-02  0.1130116E+00
         25   -1    0    0    0    0  0.00000000000E+00  0.00000000000E+00  0.99999998245E-14  0.12500000000E+03  0.12500000000E+03 0.  0.
        -13    1    3    3    0    0 -0.27385555711E+02  0.15588479998E+02  0.10427400298E+02  0.33192035359E+02  0.10566000000E+00 0.  1.
         23    2    1    0    0    0  0.59034271052E+01 -0.20405763870E+02 -0.23885811794E+02  0.93034742990E+02  0.87370966273E+02 0.  0.
         13    1    3    3    0    0  0.33288982816E+02 -0.35994243868E+02 -0.34313212092E+02  0.59842707631E+02  0.10566000000E+00 0. -1.
         22    1    1    0    0    0 -0.59034271052E+01  0.20405763870E+02  0.23885811794E+02  0.31965257010E+02  0.00000000000E+00 0. -1.
</event>
<event>
 5    1  0.1325832E-009  0.9118800E+02  0.7818608E-02  0.1130116E+00
         25   -1    0    0    0    0  0.00000000000E+00  0.00000000000E+00  0.99999998245E-14  0.12500000000E+03  0.12500000000E+03 0.  0.
        -13    1    3    3    0    0  0.13499086722E+02 -0.45310972898E+02  0.14593481064E+02  0.49480202717E+02  0.10566000000E+00 0. -1.
         23    2    1    0    0    0  0.27778358101E+02 -0.13531152689E+01  0.70290282024E+01  0.96314196243E+02  0.91943183873E+02 0.  0.
         13    1    3    3    0    0  0.14279271380E+02  0.43957857629E+02 -0.75644528619E+01  0.46833993526E+02  0.10566000000E+00 0.  1.
         22    1    1    0    0    0 -0.27778358101E+02  0.13531152689E+01 -0.70290282024E+01  0.28685803757E+02  0.00000000000E+00 0. -1.
</event>
<event>
 5    1  0.1325832E-009  0.9118800E+02  0.7818608E-02  0.1130116E+00
         25   -1    0    0    0    0  0.00000000000E+00  0.00000000000E+00  0.99999998245E-14  0.12500000000E+03  0.12500000000E+03 0.  0.
        -13    1    3    3    0    0 -0.47178137412E+02 -0.30023107071E+02 -0.16625929113E+02  0.58340348737E+02  0.10566000000E+00 0.  1.
         23    2    1    0    0    0 -0.25662792300E+02 -0.12796467608E+02  0.79221936859E+01  0.95249543790E+02  0.90484175123E+02 0.  0.
         13    1    3    3    0    0  0.21515345113E+02  0.17226639462E+02  0.24548122799E+02  0.36909195053E+02  0.10566000000E+00 0. -1.
         22    1    1    0    0    0  0.25662792300E+02  0.12796467608E+02 -0.79221936859E+01  0.29750456210E+02  0.00000000000E+00 0.  1.
</event>
<event>
 5    1  0.1325832E-009  0.9118800E+02  0.7818608E-02  0.1130116E+00
         25   -1    0    0    0    0  0.00000000000E+00  0.00000000000E+00  0.99999998245E-14  0.12500000000E+03  0.12500000000E+03 0.  0.
        -13    1    3    3    0    0 -0.38706027319E+02  0.25440644674E+01  0.10186448992E+02  0.40104908951E+02  0.10566000000E+00 0. -1.
         23    2    1    0    0    0 -0.16088941497E+01 -0.30744848415E+02 -0.80473096131E+01  0.93178726669E+02  0.87576718751E+02 0.  0.
         13    1    3    3    0    0  0.37097133169E+02 -0.33288912882E+02 -0.18233758606E+02  0.53073817718E+02  0.10566000000E+00 0.  1.
         22    1    1    0    0    0  0.16088941497E+01  0.30744848415E+02  0.80473096131E+01  0.31821273331E+02  0.00000000000E+00 0. -1.
</event>
<event>
 5    1  0.1325832E-009  0.9118800E+02  0.7818608E-02  0.1130116E+00
         25   -1    0    0    0    0  0.00000000000E+00  0.00000000000E+00  0.99999998245E-14  0.12500000000E+03  0.12500000000E+03 0.  0.
        -13    1    3    3    0    0 -0.27089599513E+02  0.28163226791E+02  0.68473616685E+01  0.39672550598E+02  0.10566000000E+00 0. -1.
         23    2    1    0    0    0 -0.94162804160E+01 -0.56065972160E+01 -0.30228880853E+02  0.92845909952E+02  0.87100387415E+02 0.  0.
         13    1    3    3    0    0  0.17673319097E+02 -0.33769824007E+02 -0.37076242522E+02  0.53173359354E+02  0.10566000000E+00 0.  1.
         22    1    1    0    0    0  0.94162804160E+01  0.56065972160E+01  0.30228880853E+02  0.32154090048E+02  0.00000000000E+00 0. -1.
</event>
<event>
 5    1  0.1325832E-009  0.9118800E+02  0.7818608E-02  0.1130116E+00
         25   -1    0    0    0    0  0.00000000000E+00  0.00000000000E+00  0.99999998245E-14  0.12500000000E+03  0.12500000000E+03 0.  0.
        -13    1    3    3    0    0  0.11471004555E+02 -0.57704914282E+02  0.72582704051E+01  0.59280137746E+02  0.10566000000E+00 0.  1.
         23    2    1    0    0    0 -0.55995864042E+01 -0.27178091824E+02 -0.58670991682E+01  0.96637579516E+02  0.92381788676E+02 0.  0.
         13    1    3    3    0    0 -0.17070590960E+02  0.30526822458E+02 -0.13125369573E+02  0.37357441770E+02  0.10566000000E+00 0. -1.
         22    1    1    0    0    0  0.55995864042E+01  0.27178091824E+02  0.58670991682E+01  0.28362420484E+02  0.00000000000E+00 0.  1.
</event>
<event>
 5    1  0.1325832E-009  0.9118800E+02  0.7818608E-02  0.1130116E+00
         25   -1    0    0    0    0  0.00000000000E+00  0.00000000000E+00  0.99999998245E-14  0.12500000000E+03  0.12500000000E+03 0.  0.
        -13    1    3    3    0    0 -0.80296186058E+01 -0.44030788882E+02  0.37000962933E+01  0.44909765320E+02  0.10566000000E+00 0. -1.
         23    2    1    0    0    0  0.28754541731E+02 -0.11743315737E+02  0.14995027680E+01  0.93903735864E+02  0.88605496252E+02 0.  0.
         13    1    3    3    0    0  0.36784160337E+02  0.32287473145E+02 -0.22005935253E+01  0.48993970544E+02  0.10566000000E+00 0.  1.
         22    1    1    0    0    0 -0.28754541731E+02  0.11743315737E+02 -0.14995027680E+01  0.31096264136E+02  0.00000000000E+00 0.  1.
</event>
<event>
 5    1  0.1325832E-009  0.9118800E+02  0.7818608E-02  0.1130116E+00
         25   -1    0    0    0    0  0.00000000000E+00  0.00000000000E+00  0.99999998245E-14  0.12500000000E+03  0.12500000000E+03 0.  0.
        -13    1    3    3    0    0  0.28261949459E+02 -0.67559413106E+01 -0.38958363371E+02  0.48601911185E+02  0.10566000000E+00 0. -1.
         23    2    1    0    0    0 -0.10687909046E+02  0.16879571810E+02 -0.93194479641E+01  0.10295451396E+03  0.10056653763E+03 0.  0.
         13    1    3    3    0    0 -0.38949858506E+02  0.23635513121E+02  0.29638915407E+02  0.54352602777E+02  0.10566000000E+00 0.  1.
         22    1    1    0    0    0  0.10687909046E+02 -0.16879571810E+02  0.93194479641E+01  0.22045486038E+02  0.00000000000E+00 0.  1.
</event>
<event>
 5    1  0.1325832E-009  0.9118800E+02  0.7818608E-02  0.1130116E+00
         25   -1    0    0    0    0  0.00000000000E+00  0.00000000000E+00  0.99999998245E-14  0.12500000000E+03  0.12500000000E+03 0.  0.
        -13    1    3    3    0    0  0.28188153350E+02  0.38902056159E+02 -0.36675564126E+02  0.60440467657E+02  0.10566000000E+00 0.  1.
         23    2    1    0    0    0  0.21212492038E+02  0.12043411187E+02 -0.11018238786E+02  0.98234067223E+02  0.94517283106E+02 0.  0.
         13    1    3    3    0    0 -0.69756613116E+01 -0.26858644971E+02  0.25657325341E+02  0.37793599565E+02  0.10566000000E+00 0. -1.
         22    1    1    0    0    0 -0.21212492038E+02 -0.12043411187E+02  0.11018238786E+02  0.26765932777E+02  0.00000000000E+00 0.  1.
</event>
<event>
 5    1  0.1325832E-009  0.9118800E+02  0.7818608E-02  0.1130116E+00
         25   -1    0    0    0    0  0.00000000000E+00  0.00000000000E+00  0.99999998245E-14  0.12500000000E+03  0.12500000000E+03 0.  0.
        -13    1    3    3    0    0  0.57438906828E+00 -0.24614714992E+02 -0.25951676701E+02  0.35773101690E+02  0.10566000000E+00 0. -1.
         23    2    1    0    0    0  0.47009914594E+01  0.68674335529E+01  0.26575876303E+02  0.97151514124E+02  0.93074585849E+02 0.  0.
         13    1    3    3    0    0  0.41266023911E+01  0.31482148545E+02  0.52527553004E+02  0.61378412434E+02  0.10566000000E+00 0.  1.
         22    1    1    0    0    0 -0.47009914594E+01 -0.68674335529E+01 -0.26575876303E+02  0.27848485876E+02  0.00000000000E+00 0.  1.
</event>
<event>
 5    1  0.1325832E-009  0.9118800E+02  0.7818608E-02  0.1130116E+00
         25   -1    0    0    0    0  0.00000000000E+00  0.00000000000E+00  0.99999998245E-14  0.12500000000E+03  0.12500000000E+03 0.  0.
        -13    1    3    3    0    0  0.12506615310E+00 -0.39295803340E+02 -0.16808803312E+02  0.42740178222E+02  0.10566000000E+00 0.  1.
         23    2    1    0    0    0  0.35221930234E+01  0.10635551920E+02 -0.28708921323E+02  0.94182424302E+02  0.88997786914E+02 0.  0.
         13    1    3    3    0    0  0.33971268703E+01  0.49931355260E+02 -0.11900118012E+02  0.51442246080E+02  0.10566000000E+00 0. -1.
         22    1    1    0    0    0 -0.35221930234E+01 -0.10635551920E+02  0.28708921323E+02  0.30817575698E+02  0.00000000000E+00 0. -1.
</event>
<event>
 5    1  0.1325832E-009  0.9118800E+02  0.7818608E-02  0.1130116E+00
         25   -1    0    0    0    0  0.00000000000E+00  0.00000000000E+00  0.99999998245E-14  0.12500000000E+03  0.12500000000E+03 0.  0.
        -13    1    3    3    0    0  0.97835939680E+01  0.40327702012E+02 -0.99111257852E+01  0.42664784529E+02  0.10566000000E+00 0.  1.
         23    2    1    0    0    0  0.30785838791E+02 -0.38965861432E+01  0.43678556763E+01  0.93662651406E+02  0.88264731641E+02 0.  0.
         13    1    3    3    0    0  0.21002244823E+02 -0.44224288155E+02  0.14278981461E+02  0.50997866878E+02  0.10566000000E+00 0. -1.
         22    1    1    0    0    0 -0.30785838791E+02  0.38965861432E+01 -0.43678556763E+01  0.31337348594E+02  0.00000000000E+00 0. -1.
</event>
<event>
 5    1  0.1325832E-009  0.9118800E+02  0.7818608E-02  0.1130116E+00
         25   -1    0    0    0    0  0.00000000000E+00  0.00000000000E+00  0.99999998245E-14  0.12500000000E+03  0.12500000000E+03 0.  0.
        -13    1    3    3    0    0  0.35001838672E+02 -0.88379227923E+01  0.44230075189E+01  0.36370479091E+02  0.10566000000E+00 0. -1.
         23    2    1    0    0    0 -0.14728713093E+02  0.88119265417E+01 -0.23364087693E+02  0.96009214697E+02  0.91527611540E+02 0.  0.
         13    1    3    3    0    0 -0.49730551766E+02  0.17649849334E+02 -0.27787095212E+02  0.59638735607E+02  0.10566000000E+00 0.  1.
         22    1    1    0    0    0  0.14728713093E+02 -0.88119265417E+01  0.23364087693E+02  0.28990785303E+02  0.00000000000E+00 0.  1.
</event>
<event>
 5    1  0.1325832E-009  0.9118800E+02  0.7818608E-02  0.1130116E+00
         25   -1    0    0    0    0  0.00000000000E+00  0.00000000000E+00  0.99999998245E-14  0.12500000000E+03  0.12500000000E+03 0.  0.
        -13    1    3    3    0    0  0.34783488087E+02  0.18467147273E+02  0.92102530728E+01  0.40444610242E+02  0.10566000000E+00 0.  1.
         23    2    1    0    0    0 -0.17918088507E+02  0.16389645337E+02 -0.12746039399E+02  0.97574831079E+02  0.93641378512E+02 0.  0.
         13    1    3    3    0    0 -0.52701576594E+02 -0.20775019369E+01 -0.21956292472E+02  0.57130220837E+02  0.10566000000E+00 0. -1.
         22    1    1    0    0    0  0.17918088507E+02 -0.16389645337E+02  0.12746039399E+02  0.27425168921E+02  0.00000000000E+00 0. -1.
</event>
<event>
 5    1  0.1325832E-009  0.9118800E+02  0.7818608E-02  0.1130116E+00
         25   -1    0    0    0    0  0.00000000000E+00  0.00000000000E+00  0.99999998245E-14  0.12500000000E+03  0.12500000000E+03 0.  0.
        -13    1    3    3    0    0 -0.34233208114E+02  0.28697229263E+02  0.73271094853E+01  0.45267440866E+02  0.10566000000E+00 0. -1.
         23    2    1    0    0    0 -0.21101617490E+02 -0.12567195677E+02 -0.17182250652E+02  0.95025971152E+02  0.90174790203E+02 0.  0.
         13    1    3    3    0    0  0.13131590623E+02 -0.41264424940E+02 -0.24509360137E+02  0.49758530287E+02  0.10566000000E+00 0.  1.
         22    1    1    0    0    0  0.21101617490E+02  0.12567195677E+02  0.17182250652E+02  0.29974028848E+02  0.00000000000E+00 0.  1.
</event>
<event>
 5    1  0.1325832E-009  0.9118800E+02  0.7818608E-02  0.1130116E+00
         25   -1    0    0    0    0  0.00000000000E+00  0.00000000000E+00  0.99999998245E-14  0.12500000000E+03  0.12500000000E+03 0.  0.
        -13    1    3    3    0    0 -0.78721665339E+01  0.24904450476E+02 -0.23984894708E+02  0.35461091321E+02  0.10566000000E+00 0. -1.
         23    2    1    0    0    0  0.82569568822E+01 -0.28322792454E+02 -0.14741526599E+01  0.95461363684E+02  0.90776323571E+02 0.  0.
         13    1    3    3    0    0  0.16129123416E+02 -0.53227242930E+02  0.22510742048E+02  0.60000272364E+02  0.10566000000E+00 0.  1.
         22    1    1    0    0    0 -0.82569568822E+01  0.28322792454E+02  0.14741526599E+01  0.29538636316E+02  0.00000000000E+00 0.  1.
</event>
<event>
 5    1  0.1325832E-009  0.9118800E+02  0.7818608E-02  0.1130116E+00
         25   -1    0    0    0    0  0.00000000000E+00  0.00000000000E+00  0.99999998245E-14  0.12500000000E+03  0.12500000000E+03 0.  0.
        -13    1    3    3    0    0  0.20512849274E+02 -0.42933657169E+02 -0.33170872957E+02  0.58003395418E+02  0.10566000000E+00 0. -1.
         23    2    1    0    0    0  0.23963735067E+02 -0.11662118926E+02 -0.13298263426E+02  0.95215617744E+02  0.90437295603E+02 0.  0.
         13    1    3    3    0    0  0.34508857931E+01  0.31271538243E+02  0.19872609530E+02  0.37212222326E+02  0.10566000000E+00 0.  1.
         22    1    1    0    0    0 -0.23963735067E+02  0.11662118926E+02  0.13298263426E+02  0.29784382256E+02  0.00000000000E+00 0. -1.
</event>
<event>
 5    1  0.1325832E-009  0.9118800E+02  0.7818608E-02  0.1130116E+00
         25   -1    0    0    0    0  0.00000000000E+00  0.00000000000E+00  0.99999998245E-14  0.12500000000E+03  0.12500000000E+03 0.  0.
        -13    1    3    3    0    0 -0.33864876569E+02 -0.19610308030E+02  0.10319838650E+02  0.40471030131E+02  0.10566000000E+00 0.  1.
         23    2    1    0    0    0  0.17866449958E+02 -0.66852925771E+01  0.22838641504E+02  0.95242535110E+02  0.90474492414E+02 0.  0.
         13    1    3    3    0    0  0.51731326527E+02  0.12925015452E+02  0.12518802854E+02  0.54771504979E+02  0.10566000000E+00 0. -1.
         22    1    1    0    0    0 -0.17866449958E+02  0.66852925771E+01 -0.22838641504E+02  0.29757464890E+02  0.00000000000E+00 0. -1.
</event>
<event>
 5    1  0.1325832E-009  0.9118800E+02  0.7818608E-02  0.1130116E+00
         25   -1    0    0    0    0  0.00000000000E+00  0.00000000000E+00  0.99999998245E-14  0.12500000000E+03  0.12500000000E+03 0.  0.
        -13    1    3    3    0    0  0.19844979850E+02 -0.11852545891E+02  0.53555077756E+02  0.58330640206E+02  0.10566000000E+00 0. -1.
         23    2    1    0    0    0  0.24025449763E+02 -0.73584836674E+01  0.18813921145E+02  0.93609983321E+02  0.88190111863E+02 0.  0.
         13    1    3    3    0    0  0.41804699137E+01  0.44940622236E+01 -0.34741156611E+02  0.35279343116E+02  0.10566000000E+00 0.  1.
         22    1    1    0    0    0 -0.24025449763E+02  0.73584836674E+01 -0.18813921145E+02  0.31390016679E+02  0.00000000000E+00 0. -1.
</event>
<event>
 5    1  0.1325832E-009  0.9118800E+02  0.7818608E-02  0.1130116E+00
         25   -1    0    0    0    0  0.00000000000E+00  0.00000000000E+00  0.99999998245E-14  0.12500000000E+03  0.12500000000E+03 0.  0.
        -13    1    3    3    0    0 -0.21693598128E+02 -0.17806014288E+02 -0.90928643515E+01  0.29501825210E+02  0.10566000000E+00 0. -1.
         23    2    1    0    0    0  0.23765134926E+02  0.18888379431E+02  0.13021433196E+02  0.91968042170E+02  0.85831291162E+02 0.  0.
         13    1    3    3    0    0  0.45458733054E+02  0.36694393719E+02  0.22114297548E+02  0.62466216960E+02  0.10566000000E+00 0.  1.
         22    1    1    0    0    0 -0.23765134926E+02 -0.18888379431E+02 -0.13021433196E+02  0.33031957830E+02  0.00000000000E+00 0.  1.
</event>
<event>
 5    1  0.1325832E-009  0.9118800E+02  0.7818608E-02  0.1130116E+00
         25   -1    0    0    0    0  0.00000000000E+00  0.00000000000E+00  0.99999998245E-14  0.12500000000E+03  0.12500000000E+03 0.  0.
        -13    1    3    3    0    0 -0.28005962889E+02  0.79470410677E+01  0.17319020982E+02  0.33874017637E+02  0.10566000000E+00 0.  1.
         23    2    1    0    0    0  0.28754815083E+02 -0.82495924050E+01  0.10513279468E+02  0.93291575087E+02  0.87737641704E+02 0.  0.
         13    1    3    3    0    0  0.56760777971E+02 -0.16196633473E+02 -0.68057415142E+01  0.59417557450E+02  0.10566000000E+00 0. -1.
         22    1    1    0    0    0 -0.28754815083E+02  0.82495924050E+01 -0.10513279468E+02  0.31708424913E+02  0.00000000000E+00 0. -1.
</event>
<event>
 5    1  0.1325832E-009  0.9118800E+02  0.7818608E-02  0.1130116E+00
         25   -1    0    0    0    0  0.00000000000E+00  0.00000000000E+00  0.99999998245E-14  0.12500000000E+03  0.12500000000E+03 0.  0.
        -13    1    3    3    0    0  0.30261072958E+02  0.98485245445E+00 -0.18250556408E+02  0.35352460228E+02  0.10566000000E+00 0.  1.
         23    2    1    0    0    0 -0.52331207571E+01  0.15510463375E+02  0.26228416052E+02  0.94082531870E+02  0.88857374301E+02 0.  0.
         13    1    3    3    0    0 -0.35494193715E+02  0.14525610921E+02  0.44478972459E+02  0.58730071643E+02  0.10566000000E+00 0. -1.
         22    1    1    0    0    0  0.52331207571E+01 -0.15510463375E+02 -0.26228416052E+02  0.30917468130E+02  0.00000000000E+00 0. -1.
</event>
<event>
 5    1  0.1325832E-009  0.9118800E+02  0.7818608E-02  0.1130116E+00
         25   -1    0    0    0    0  0.00000000000E+00  0.00000000000E+00  0.99999998245E-14  0.12500000000E+03  0.12500000000E+03 0.  0.
        -13    1    3    3    0    0 -0.17445377415E+01 -0.47134754594E+02  0.28607188742E+02  0.55164398975E+02  0.10566000000E+00 0.  1.
         23    2    1    0    0    0 -0.20869522015E+02 -0.19248825812E+02  0.56042159839E+01  0.96061073257E+02  0.91598407814E+02 0.  0.
         13    1    3    3    0    0 -0.19124984273E+02  0.27885928782E+02 -0.23002972758E+02  0.40896674281E+02  0.10566000000E+00 0. -1.
         22    1    1    0    0    0  0.20869522015E+02  0.19248825812E+02 -0.56042159839E+01  0.28938926743E+02  0.00000000000E+00 0.  1.
</event>
<event>
 5    1  0.1325832E-009  0.9118800E+02  0.7818608E-02  0.1130116E+00
         25   -1    0    0    0    0  0.00000000000E+00  0.00000000000E+00  0.99999998245E-14  0.12500000000E+03  0.12500000000E+03 0.  0.
        -13    1    3    3    0    0 -0.39663870253E+02  0.66987788990E+01 -0.10996376392E+02  0.41701651046E+02  0.10566000000E+00 0. -1.
         23    2    1    0    0    0  0.14279672441E+02  0.94075948919E+01 -0.22314975426E+02  0.96886479855E+02  0.92717959230E+02 0.  0.
         13    1    3    3    0    0  0.53943542695E+02  0.27088159929E+01 -0.11318599034E+02  0.55184828809E+02  0.10566000000E+00 0.  1.
         22    1    1    0    0    0 -0.14279672441E+02 -0.94075948919E+01  0.22314975426E+02  0.28113520145E+02  0.00000000000E+00 0.  1.
</event>
<event>
 5    1  0.1325832E-009  0.9118800E+02  0.7818608E-02  0.1130116E+00
         25   -1    0    0    0    0  0.00000000000E+00  0.00000000000E+00  0.99999998245E-14  0.12500000000E+03  0.12500000000E+03 0.  0.
        -13    1    3    3    0    0  0.30014214237E+01  0.26164835057E+02  0.56176530097E+02  0.62043700904E+02  0.10566000000E+00 0. -1.
         23    2    1    0    0    0  0.62459304643E+01  0.91273169147E+01  0.20847610176E+02  0.10140037264E+03  0.98615886957E+02 0.  0.
         13    1    3    3    0    0  0.32445090405E+01 -0.17037518142E+02 -0.35328919921E+02  0.39356671736E+02  0.10566000000E+00 0.  1.
         22    1    1    0    0    0 -0.62459304643E+01 -0.91273169147E+01 -0.20847610176E+02  0.23599627359E+02  0.00000000000E+00 0. -1.
</event>
<event>
 5    1  0.1325832E-009  0.9118800E+02  0.7818608E-02  0.1130116E+00
         25   -1    0    0    0    0  0.00000000000E+00  0.00000000000E+00  0.99999998245E-14  0.12500000000E+03  0.12500000000E+03 0.  0.
        -13    1    3    3    0    0 -0.17155020853E+02 -0.15917244770E+02 -0.34013115062E+02  0.41286275950E+02  0.10566000000E+00 0. -1.
         23    2    1    0    0    0  0.28092676699E+02  0.63385452636E+00 -0.95445945630E+01  0.95323417632E+02  0.90586171174E+02 0.  0.
         13    1    3    3    0    0  0.45247697552E+02  0.16551099297E+02  0.24468520499E+02  0.54037141682E+02  0.10566000000E+00 0.  1.
         22    1    1    0    0    0 -0.28092676699E+02 -0.63385452636E+00  0.95445945630E+01  0.29676582368E+02  0.00000000000E+00 0.  1.
</event>
<event>
 5    1  0.1325832E-009  0.9118800E+02  0.7818608E-02  0.1130116E+00
         25   -1    0    0    0    0  0.00000000000E+00  0.00000000000E+00  0.99999998245E-14  0.12500000000E+03  0.12500000000E+03 0.  0.
        -13    1    3    3    0    0 -0.13645494854E+02 -0.49106769921E+02 -0.12894453749E+02  0.52573305806E+02  0.10566000000E+00 0.  1.
         23    2    1    0    0    0 -0.18391199030E+02 -0.76781516255E+01 -0.22062366067E+02  0.95268901624E+02  0.90510913188E+02 0.  0.
         13    1    3    3    0    0 -0.47457041762E+01  0.41428618295E+02 -0.91679123177E+01  0.42695595818E+02  0.10566000000E+00 0. -1.
         22    1    1    0    0    0  0.18391199030E+02  0.76781516255E+01  0.22062366067E+02  0.29731098376E+02  0.00000000000E+00 0.  1.
</event>
<event>
 5    1  0.1325832E-009  0.9118800E+02  0.7818608E-02  0.1130116E+00
         25   -1    0    0    0    0  0.00000000000E+00  0.00000000000E+00  0.99999998245E-14  0.12500000000E+03  0.12500000000E+03 0.  0.
        -13    1    3    3    0    0  0.16451878682E+02 -0.53250569107E+02  0.12968851109E+02  0.57223156900E+02  0.10566000000E+00 0. -1.
         23    2    1    0    0    0  0.37350703398E+01 -0.30188211832E+02  0.24469568457E+02  0.85961062200E+02  0.76585021708E+02 0.  0.
         13    1    3    3    0    0 -0.12716808343E+02  0.23062357275E+02  0.11500717348E+02  0.28737905300E+02  0.10566000000E+00 0.  1.
         22    1    1    0    0    0 -0.37350703398E+01  0.30188211832E+02 -0.24469568457E+02  0.39038937800E+02  0.00000000000E+00 0. -1.
</event>
<event>
 5    1  0.1325832E-009  0.9118800E+02  0.7818608E-02  0.1130116E+00
         25   -1    0    0    0    0  0.00000000000E+00  0.00000000000E+00  0.99999998245E-14  0.12500000000E+03  0.12500000000E+03 0.  0.
        -13    1    3    3    0    0 -0.10408577641E+02 -0.20457251035E+02  0.17320381442E+02  0.28754901943E+02  0.10566000000E+00 0.  1.
         23    2    1    0    0    0  0.26225986154E+02  0.13784848034E+02 -0.18219709431E+02  0.90218076580E+02  0.83243733367E+02 0.  0.
         13    1    3    3    0    0  0.36634563795E+02  0.34242099069E+02 -0.35540090873E+02  0.61463174637E+02  0.10566000000E+00 0. -1.
         22    1    1    0    0    0 -0.26225986154E+02 -0.13784848034E+02  0.18219709431E+02  0.34781923420E+02  0.00000000000E+00 0. -1.
</event>
<event>
 5    1  0.1325832E-009  0.9118800E+02  0.7818608E-02  0.1130116E+00
         25   -1    0    0    0    0  0.00000000000E+00  0.00000000000E+00  0.99999998245E-14  0.12500000000E+03  0.12500000000E+03 0.  0.
        -13    1    3    3    0    0  0.28072991887E+02 -0.82935775604E+01  0.29340033330E+02  0.41445446337E+02  0.10566000000E+00 0. -1.
         23    2    1    0    0    0 -0.18341511050E+02 -0.14535230427E+02 -0.68319538177E+01  0.10062050976E+03  0.97622371622E+02 0.  0.
         13    1    3    3    0    0 -0.46414502937E+02 -0.62416528670E+01 -0.36171987148E+02  0.59175063427E+02  0.10566000000E+00 0.  1.
         22    1    1    0    0    0  0.18341511050E+02  0.14535230427E+02  0.68319538177E+01  0.24379490236E+02  0.00000000000E+00 0. -1.
</event>
<event>
 5    1  0.1325832E-009  0.9118800E+02  0.7818608E-02  0.1130116E+00
         25   -1    0    0    0    0  0.00000000000E+00  0.00000000000E+00  0.99999998245E-14  0.12500000000E+03  0.12500000000E+03 0.  0.
        -13    1    3    3    0    0 -0.33405556234E+02 -0.68170894977E+01 -0.49601670977E+02  0.60189208537E+02  0.10566000000E+00 0. -1.
         23    2    1    0    0    0 -0.95209905898E+01  0.67893252125E+01 -0.26271363240E+02  0.96243631572E+02  0.91847198613E+02 0.  0.
         13    1    3    3    0    0  0.23884565644E+02  0.13606414710E+02  0.23330307737E+02  0.36054423036E+02  0.10566000000E+00 0.  1.
         22    1    1    0    0    0  0.95209905898E+01 -0.67893252125E+01  0.26271363240E+02  0.28756368428E+02  0.00000000000E+00 0. -1.
</event>
<event>
 5    1  0.1325832E-009  0.9118800E+02  0.7818608E-02  0.1130116E+00
         25   -1    0    0    0    0  0.00000000000E+00  0.00000000000E+00  0.99999998245E-14  0.12500000000E+03  0.12500000000E+03 0.  0.
        -13    1    3    3    0    0  0.38937160825E+02  0.35801363561E+02  0.14819126499E+02  0.54931391755E+02  0.10566000000E+00 0. -1.
         23    2    1    0    0    0  0.21787767608E+02  0.69173225216E+01 -0.13137204903E+02  0.98634448216E+02  0.95045315792E+02 0.  0.
         13    1    3    3    0    0 -0.17149393217E+02 -0.28884041039E+02 -0.27956331402E+02  0.43703056461E+02  0.10566000000E+00 0.  1.
         22    1    1    0    0    0 -0.21787767608E+02 -0.69173225216E+01  0.13137204903E+02  0.26365551784E+02  0.00000000000E+00 0. -1.
</event>
<event>
 5    1  0.1325832E-009  0.9118800E+02  0.7818608E-02  0.1130116E+00
         25   -1    0    0    0    0  0.00000000000E+00  0.00000000000E+00  0.99999998245E-14  0.12500000000E+03  0.12500000000E+03 0.  0.
        -13    1    3    3    0    0  0.38290848789E+02  0.35075808911E+02  0.32259589724E+02  0.61132591675E+02  0.10566000000E+00 0.  1.
         23    2    1    0    0    0  0.25498809547E+02  0.11285609160E+02  0.13500923437E+02  0.94018889690E+02  0.88767800595E+02 0.  0.
         13    1    3    3    0    0 -0.12792039242E+02 -0.23790199751E+02 -0.18758666287E+02  0.32886298014E+02  0.10566000000E+00 0. -1.
         22    1    1    0    0    0 -0.25498809547E+02 -0.11285609160E+02 -0.13500923437E+02  0.30981110310E+02  0.00000000000E+00 0.  1.
</event>
