<event>
 5    1  0.1254921E-009  0.9118800E+02  0.7561462E-02  0.1125453E+00
         25   -1    0    0    0    0  0.00000000000E+00  0.00000000000E+00  0.99999998245E-14  0.12509000000E+03  0.12509000000E+03 0.  0.
        -13    1    3    3    0    0 -0.16101607582E+02 -0.25094828257E+02  0.47814957005E+02  0.56349742230E+02  0.10566000000E+00 0. -1.
         23    2    1    0    0    0 -0.21608063722E+02  0.19749748632E+01  0.19315997565E+02  0.96039755501E+02  0.91540799271E+02 0.  0.
         13    1    3    3    0    0 -0.55064561400E+01  0.27069803120E+02 -0.28498959440E+02  0.39690013270E+02  0.10566000000E+00 0.  1.
         22    1    1    0    0    0  0.21608063722E+02 -0.19749748632E+01 -0.19315997565E+02  0.29050244499E+02  0.00000000000E+00 0. -1.
</event>
<event>
 5    1  0.1254921E-009  0.9118800E+02  0.7561462E-02  0.1125453E+00
         25   -1    0    0    0    0  0.00000000000E+00  0.00000000000E+00  0.99999998245E-14  0.12509000000E+03  0.12509000000E+03 0.  0.
        -13    1    3    3    0    0 -0.94704962435E+00  0.26935969464E+02 -0.25992280603E+02  0.37444000440E+02  0.10566000000E+00 0.  1.
         23    2    1    0    0    0  0.18897389792E+02  0.49813618222E+01  0.23140536767E+02  0.94801227354E+02  0.89832415972E+02 0.  0.
         13    1    3    3    0    0  0.19844439417E+02 -0.21954607642E+02  0.49132817370E+02  0.57357226914E+02  0.10566000000E+00 0. -1.
         22    1    1    0    0    0 -0.18897389792E+02 -0.49813618222E+01 -0.23140536767E+02  0.30288772646E+02  0.00000000000E+00 0. -1.
</event>
<event>
 5    1  0.1254921E-009  0.9118800E+02  0.7561462E-02  0.1125453E+00
         25   -1    0    0    0    0  0.00000000000E+00  0.00000000000E+00  0.99999998245E-14  0.12509000000E+03  0.12509000000E+03 0.  0.
        -13    1    3    3    0    0 -0.46364202107E+01 -0.34088199920E+02  0.11622744838E+02  0.36312547800E+02  0.10566000000E+00 0. -1.
         23    2    1    0    0    0 -0.20527856889E+02  0.21305820900E+02 -0.16793891232E+01  0.95456382933E+02  0.90740122229E+02 0.  0.
         13    1    3    3    0    0 -0.15891436678E+02  0.55394020820E+02 -0.13302133961E+02  0.59143835133E+02  0.10566000000E+00 0.  1.
         22    1    1    0    0    0  0.20527856889E+02 -0.21305820900E+02  0.16793891232E+01  0.29633617067E+02  0.00000000000E+00 0.  1.
</event>
<event>
 5    1  0.1254921E-009  0.9118800E+02  0.7561462E-02  0.1125453E+00
         25   -1    0    0    0    0  0.00000000000E+00  0.00000000000E+00  0.99999998245E-14  0.12509000000E+03  0.12509000000E+03 0.  0.
        -13    1    3    3    0    0 -0.41143428329E+02 -0.33578454184E+02 -0.18739098685E+02  0.56315710628E+02  0.10566000000E+00 0. -1.
         23    2    1    0    0    0 -0.10682337911E+02 -0.25472790571E+02  0.65199736166E+01  0.96708924286E+02  0.92450692685E+02 0.  0.
         13    1    3    3    0    0  0.30461090418E+02  0.81056636133E+01  0.25259072301E+02  0.40393213658E+02  0.10566000000E+00 0.  1.
         22    1    1    0    0    0  0.10682337911E+02  0.25472790571E+02 -0.65199736166E+01  0.28381075714E+02  0.00000000000E+00 0. -1.
</event>
<event>
 5    1  0.1254921E-009  0.9118800E+02  0.7561462E-02  0.1125453E+00
         25   -1    0    0    0    0  0.00000000000E+00  0.00000000000E+00  0.99999998245E-14  0.12509000000E+03  0.12509000000E+03 0.  0.
        -13    1    3    3    0    0  0.52628196095E+02  0.95157179636E+01  0.93124743415E+01  0.54286363434E+02  0.10566000000E+00 0.  1.
         23    2    1    0    0    0  0.14147295143E+02  0.17100643278E+02 -0.12958511011E+02  0.99389786615E+02  0.96009524087E+02 0.  0.
         13    1    3    3    0    0 -0.38480900951E+02  0.75849253146E+01 -0.22270985352E+02  0.45103423181E+02  0.10566000000E+00 0. -1.
         22    1    1    0    0    0 -0.14147295143E+02 -0.17100643278E+02  0.12958511011E+02  0.25700213385E+02  0.00000000000E+00 0.  1.
</event>
<event>
 5    1  0.1254921E-009  0.9118800E+02  0.7561462E-02  0.1125453E+00
         25   -1    0    0    0    0  0.00000000000E+00  0.00000000000E+00  0.99999998245E-14  0.12509000000E+03  0.12509000000E+03 0.  0.
        -13    1    3    3    0    0  0.20565121946E+02 -0.22045828751E+01  0.52287161699E+02  0.56229377276E+02  0.10566000000E+00 0.  1.
         23    2    1    0    0    0  0.24690477312E+02 -0.60937592785E+01  0.11900880012E+02  0.97011814213E+02  0.92859612210E+02 0.  0.
         13    1    3    3    0    0  0.41253553661E+01 -0.38891764034E+01 -0.40386281687E+02  0.40782436937E+02  0.10566000000E+00 0. -1.
         22    1    1    0    0    0 -0.24690477312E+02  0.60937592785E+01 -0.11900880012E+02  0.28078185787E+02  0.00000000000E+00 0.  1.
</event>
<event>
 5    1  0.1254921E-009  0.9118800E+02  0.7561462E-02  0.1125453E+00
         25   -1    0    0    0    0  0.00000000000E+00  0.00000000000E+00  0.99999998245E-14  0.12509000000E+03  0.12509000000E+03 0.  0.
        -13    1    3    3    0    0 -0.56784265155E+01 -0.36081177527E+02 -0.16308106657E+02  0.40000767570E+02  0.10566000000E+00 0.  1.
         23    2    1    0    0    0  0.55782778884E+01  0.17211535240E+02 -0.24025848457E+02  0.95013505464E+02  0.90127524635E+02 0.  0.
         13    1    3    3    0    0  0.11256704404E+02  0.53292712767E+02 -0.77177418002E+01  0.55012737894E+02  0.10566000000E+00 0. -1.
         22    1    1    0    0    0 -0.55782778884E+01 -0.17211535240E+02  0.24025848457E+02  0.30076494536E+02  0.00000000000E+00 0. -1.
</event>
<event>
 5    1  0.1254921E-009  0.9118800E+02  0.7561462E-02  0.1125453E+00
         25   -1    0    0    0    0  0.00000000000E+00  0.00000000000E+00  0.99999998245E-14  0.12509000000E+03  0.12509000000E+03 0.  0.
        -13    1    3    3    0    0 -0.55866560987E+02 -0.14232791707E+02 -0.73950852561E+01  0.58123518874E+02  0.10566000000E+00 0. -1.
         23    2    1    0    0    0 -0.32657460391E+02 -0.78049261212E+01  0.12398495987E+02  0.89296854097E+02  0.81809405681E+02 0.  0.
         13    1    3    3    0    0  0.23209100596E+02  0.64278655856E+01  0.19793581243E+02  0.31173335223E+02  0.10566000000E+00 0.  1.
         22    1    1    0    0    0  0.32657460391E+02  0.78049261212E+01 -0.12398495987E+02  0.35793145903E+02  0.00000000000E+00 0. -1.
</event>
<event>
 5    1  0.1254921E-009  0.9118800E+02  0.7561462E-02  0.1125453E+00
         25   -1    0    0    0    0  0.00000000000E+00  0.00000000000E+00  0.99999998245E-14  0.12509000000E+03  0.12509000000E+03 0.  0.
        -13    1    3    3    0    0  0.35272907049E+01  0.15108403296E+02  0.53115471485E+02  0.55335071203E+02  0.10566000000E+00 0.  1.
         23    2    1    0    0    0 -0.17291148885E+02 -0.30440936851E+01  0.19260805027E+02  0.99027978850E+02  0.95536964829E+02 0.  0.
         13    1    3    3    0    0 -0.20818439590E+02 -0.18152496981E+02 -0.33854666459E+02  0.43692907647E+02  0.10566000000E+00 0. -1.
         22    1    1    0    0    0  0.17291148885E+02  0.30440936851E+01 -0.19260805027E+02  0.26062021150E+02  0.00000000000E+00 0.  1.
</event>
<event>
 5    1  0.1254921E-009  0.9118800E+02  0.7561462E-02  0.1125453E+00
         25   -1    0    0    0    0  0.00000000000E+00  0.00000000000E+00  0.99999998245E-14  0.12509000000E+03  0.12509000000E+03 0.  0.
        -13    1    3    3    0    0 -0.46401594640E+02  0.36315654985E+02  0.20830988914E+02  0.62497008291E+02  0.10566000000E+00 0.  1.
         23    2    1    0    0    0 -0.21300636190E+02  0.17429294567E+02  0.80105648504E+01  0.96425273236E+02  0.92066099941E+02 0.  0.
         13    1    3    3    0    0  0.25100958450E+02 -0.18886360419E+02 -0.12820424063E+02  0.33928264945E+02  0.10566000000E+00 0. -1.
         22    1    1    0    0    0  0.21300636190E+02 -0.17429294567E+02 -0.80105648504E+01  0.28664726764E+02  0.00000000000E+00 0.  1.
</event>
<event>
 5    1  0.1254921E-009  0.9118800E+02  0.7561462E-02  0.1125453E+00
         25   -1    0    0    0    0  0.00000000000E+00  0.00000000000E+00  0.99999998245E-14  0.12509000000E+03  0.12509000000E+03 0.  0.
        -13    1    3    3    0    0  0.11364563490E+02  0.31920975018E+02  0.16493740046E+02  0.37684964829E+02  0.10566000000E+00 0.  1.
         23    2    1    0    0    0  0.12416809090E+02 -0.14794078648E+02 -0.20233331472E+02  0.97118056673E+02  0.93002619955E+02 0.  0.
         13    1    3    3    0    0  0.10522456004E+01 -0.46715053666E+02 -0.36727071518E+02  0.59433091844E+02  0.10566000000E+00 0. -1.
         22    1    1    0    0    0 -0.12416809090E+02  0.14794078648E+02  0.20233331472E+02  0.27971943327E+02  0.00000000000E+00 0. -1.
</event>
<event>
 5    1  0.1254921E-009  0.9118800E+02  0.7561462E-02  0.1125453E+00
         25   -1    0    0    0    0  0.00000000000E+00  0.00000000000E+00  0.99999998245E-14  0.12509000000E+03  0.12509000000E+03 0.  0.
        -13    1    3    3    0    0  0.45233175984E+02  0.29385742577E+02 -0.88856488508E+01  0.54667430851E+02  0.10566000000E+00 0.  1.
         23    2    1    0    0    0  0.12151676758E+02  0.22812642829E+02  0.14256511692E+02  0.95571733680E+02  0.90899000171E+02 0.  0.
         13    1    3    3    0    0 -0.33081499226E+02 -0.65730997477E+01  0.23142160543E+02  0.40904302829E+02  0.10566000000E+00 0. -1.
         22    1    1    0    0    0 -0.12151676758E+02 -0.22812642829E+02 -0.14256511692E+02  0.29518266320E+02  0.00000000000E+00 0.  1.
</event>
<event>
 5    1  0.1254921E-009  0.9118800E+02  0.7561462E-02  0.1125453E+00
         25   -1    0    0    0    0  0.00000000000E+00  0.00000000000E+00  0.99999998245E-14  0.12509000000E+03  0.12509000000E+03 0.  0.
        -13    1    3    3    0    0  0.77189396695E+01 -0.14597011337E+01  0.51449170439E+02  0.52045567150E+02  0.10566000000E+00 0. -1.
         23    2    1    0    0    0 -0.10891041446E+02 -0.21231058743E+02  0.17597128365E+02  0.95441533500E+02  0.90719649200E+02 0.  0.
         13    1    3    3    0    0 -0.18609981116E+02 -0.19771357609E+02 -0.33852042074E+02  0.43395966350E+02  0.10566000000E+00 0.  1.
         22    1    1    0    0    0  0.10891041446E+02  0.21231058743E+02 -0.17597128365E+02  0.29648466500E+02  0.00000000000E+00 0. -1.
</event>
<event>
 5    1  0.1254921E-009  0.9118800E+02  0.7561462E-02  0.1125453E+00
         25   -1    0    0    0    0  0.00000000000E+00  0.00000000000E+00  0.99999998245E-14  0.12509000000E+03  0.12509000000E+03 0.  0.
        -13    1    3    3    0    0 -0.98973550326E+01 -0.53266491604E+02 -0.97505343590E+01  0.55048713416E+02  0.10566000000E+00 0.  1.
         23    2    1    0    0    0  0.16029566516E+02 -0.22119898985E+02  0.31822975296E+01  0.97587928235E+02  0.93632471856E+02 0.  0.
         13    1    3    3    0    0  0.25926921549E+02  0.31146592619E+02  0.12932831889E+02  0.42539214819E+02  0.10566000000E+00 0. -1.
         22    1    1    0    0    0 -0.16029566516E+02  0.22119898985E+02 -0.31822975296E+01  0.27502071765E+02  0.00000000000E+00 0.  1.
</event>
<event>
 5    1  0.1254921E-009  0.9118800E+02  0.7561462E-02  0.1125453E+00
         25   -1    0    0    0    0  0.00000000000E+00  0.00000000000E+00  0.99999998245E-14  0.12509000000E+03  0.12509000000E+03 0.  0.
        -13    1    3    3    0    0  0.11000412572E+02 -0.34028169116E+02  0.34312236087E+01  0.35926450279E+02  0.10566000000E+00 0. -1.
         23    2    1    0    0    0 -0.26540715723E+02  0.10786745769E+02 -0.76692150529E+01  0.95432280349E+02  0.90706889472E+02 0.  0.
         13    1    3    3    0    0 -0.37541128295E+02  0.44814914885E+02 -0.11100438662E+02  0.59505830070E+02  0.10566000000E+00 0.  1.
         22    1    1    0    0    0  0.26540715723E+02 -0.10786745769E+02  0.76692150529E+01  0.29657719651E+02  0.00000000000E+00 0.  1.
</event>
<event>
 5    1  0.1254921E-009  0.9118800E+02  0.7561462E-02  0.1125453E+00
         25   -1    0    0    0    0  0.00000000000E+00  0.00000000000E+00  0.99999998245E-14  0.12509000000E+03  0.12509000000E+03 0.  0.
        -13    1    3    3    0    0  0.24041389045E+02  0.17979283505E+02  0.15994126425E+02  0.34015676779E+02  0.10566000000E+00 0.  1.
         23    2    1    0    0    0 -0.22934990131E+02  0.98440293264E+01 -0.19470361161E+02  0.93435400818E+02  0.87909956640E+02 0.  0.
         13    1    3    3    0    0 -0.46976379176E+02 -0.81352541785E+01 -0.35464487586E+02  0.59419724039E+02  0.10566000000E+00 0. -1.
         22    1    1    0    0    0  0.22934990131E+02 -0.98440293264E+01  0.19470361161E+02  0.31654599182E+02  0.00000000000E+00 0. -1.
</event>
<event>
 5    1  0.1254921E-009  0.9118800E+02  0.7561462E-02  0.1125453E+00
         25   -1    0    0    0    0  0.00000000000E+00  0.00000000000E+00  0.99999998245E-14  0.12509000000E+03  0.12509000000E+03 0.  0.
        -13    1    3    3    0    0  0.24442581294E+02  0.57106544234E+02  0.35505795635E+01  0.62219088340E+02  0.10566000000E+00 0.  1.
         23    2    1    0    0    0  0.76840838194E+01  0.29361294450E+02  0.21723068050E+01  0.94662222020E+02  0.89638644596E+02 0.  0.
         13    1    3    3    0    0 -0.16758497475E+02 -0.27745249783E+02 -0.13782727585E+01  0.32443133680E+02  0.10566000000E+00 0. -1.
         22    1    1    0    0    0 -0.76840838194E+01 -0.29361294450E+02 -0.21723068050E+01  0.30427777980E+02  0.00000000000E+00 0.  1.
</event>
<event>
 5    1  0.1254921E-009  0.9118800E+02  0.7561462E-02  0.1125453E+00
         25   -1    0    0    0    0  0.00000000000E+00  0.00000000000E+00  0.99999998245E-14  0.12509000000E+03  0.12509000000E+03 0.  0.
        -13    1    3    3    0    0  0.44226829263E+02  0.32682716754E+02  0.18284596377E+01  0.55022966385E+02  0.10566000000E+00 0.  1.
         23    2    1    0    0    0  0.13937850693E+02  0.13125357320E+02  0.21668103571E+02  0.96175550341E+02  0.91726174478E+02 0.  0.
         13    1    3    3    0    0 -0.30288978570E+02 -0.19557359435E+02  0.19839643933E+02  0.41152583956E+02  0.10566000000E+00 0. -1.
         22    1    1    0    0    0 -0.13937850693E+02 -0.13125357320E+02 -0.21668103571E+02  0.28914449659E+02  0.00000000000E+00 0.  1.
</event>
<event>
 5    1  0.1254921E-009  0.9118800E+02  0.7561462E-02  0.1125453E+00
         25   -1    0    0    0    0  0.00000000000E+00  0.00000000000E+00  0.99999998245E-14  0.12509000000E+03  0.12509000000E+03 0.  0.
        -13    1    3    3    0    0  0.29551241800E+02 -0.34509166420E+02  0.14792706071E+02  0.47780684130E+02  0.10566000000E+00 0.  1.
         23    2    1    0    0    0  0.18347039419E+02  0.13605410816E+02  0.16008210727E+02  0.97197637791E+02  0.93109596297E+02 0.  0.
         13    1    3    3    0    0 -0.11204202381E+02  0.48114577236E+02  0.12155046560E+01  0.49416953662E+02  0.10566000000E+00 0. -1.
         22    1    1    0    0    0 -0.18347039419E+02 -0.13605410816E+02 -0.16008210727E+02  0.27892362209E+02  0.00000000000E+00 0. -1.
</event>
<event>
 5    1  0.1254921E-009  0.9118800E+02  0.7561462E-02  0.1125453E+00
         25   -1    0    0    0    0  0.00000000000E+00  0.00000000000E+00  0.99999998245E-14  0.12509000000E+03  0.12509000000E+03 0.  0.
        -13    1    3    3    0    0 -0.55028764384E+02  0.59848232854E+01  0.13266505233E+02  0.56920948205E+02  0.10566000000E+00 0. -1.
         23    2    1    0    0    0 -0.20613004550E+02  0.19828213348E+02 -0.48692067900E+00  0.96484212249E+02  0.92146145445E+02 0.  0.
         13    1    3    3    0    0  0.34415759835E+02  0.13843390063E+02 -0.13753425912E+02  0.39563264044E+02  0.10566000000E+00 0.  1.
         22    1    1    0    0    0  0.20613004550E+02 -0.19828213348E+02  0.48692067900E+00  0.28605787751E+02  0.00000000000E+00 0. -1.
</event>
<event>
 5    1  0.1254921E-009  0.9118800E+02  0.7561462E-02  0.1125453E+00
         25   -1    0    0    0    0  0.00000000000E+00  0.00000000000E+00  0.99999998245E-14  0.12509000000E+03  0.12509000000E+03 0.  0.
        -13    1    3    3    0    0 -0.14076534307E+02 -0.33353150059E+02 -0.10662671575E+02  0.37739702782E+02  0.10566000000E+00 0.  1.
         23    2    1    0    0    0 -0.17866239158E+02  0.17700567291E+02  0.15820185150E+02  0.95378203652E+02  0.90632283926E+02 0.  0.
         13    1    3    3    0    0 -0.37897048506E+01  0.51053717350E+02  0.26482856725E+02  0.57638500869E+02  0.10566000000E+00 0. -1.
         22    1    1    0    0    0  0.17866239158E+02 -0.17700567291E+02 -0.15820185150E+02  0.29711796348E+02  0.00000000000E+00 0. -1.
</event>
<event>
 5    1  0.1254921E-009  0.9118800E+02  0.7561462E-02  0.1125453E+00
         25   -1    0    0    0    0  0.00000000000E+00  0.00000000000E+00  0.99999998245E-14  0.12509000000E+03  0.12509000000E+03 0.  0.
        -13    1    3    3    0    0  0.48404571366E+02  0.13452851135E+02 -0.57426850113E+00  0.50242638079E+02  0.10566000000E+00 0. -1.
         23    2    1    0    0    0  0.53564809129E+01  0.27412255547E+02 -0.78462109223E+01  0.96078163316E+02  0.91593268303E+02 0.  0.
         13    1    3    3    0    0 -0.43048090453E+02  0.13959404411E+02 -0.72719424212E+01  0.45835525237E+02  0.10566000000E+00 0.  1.
         22    1    1    0    0    0 -0.53564809129E+01 -0.27412255547E+02  0.78462109223E+01  0.29011836684E+02  0.00000000000E+00 0. -1.
</event>
<event>
 5    1  0.1254921E-009  0.9118800E+02  0.7561462E-02  0.1125453E+00
         25   -1    0    0    0    0  0.00000000000E+00  0.00000000000E+00  0.99999998245E-14  0.12509000000E+03  0.12509000000E+03 0.  0.
        -13    1    3    3    0    0  0.19630536012E+02 -0.46179588643E+02 -0.32516140375E+02  0.59793167672E+02  0.10566000000E+00 0.  1.
         23    2    1    0    0    0 -0.23718931419E+01 -0.21016461561E+02 -0.21356996574E+02  0.95032740706E+02  0.90154217704E+02 0.  0.
         13    1    3    3    0    0 -0.22002429154E+02  0.25163127082E+02  0.11159143802E+02  0.35239573034E+02  0.10566000000E+00 0. -1.
         22    1    1    0    0    0  0.23718931419E+01  0.21016461561E+02  0.21356996574E+02  0.30057259294E+02  0.00000000000E+00 0.  1.
</event>
<event>
 5    1  0.1254921E-009  0.9118800E+02  0.7561462E-02  0.1125453E+00
         25   -1    0    0    0    0  0.00000000000E+00  0.00000000000E+00  0.99999998245E-14  0.12509000000E+03  0.12509000000E+03 0.  0.
        -13    1    3    3    0    0 -0.13668175285E+02 -0.31533447851E+02  0.44080878579E+02  0.55895548743E+02  0.10566000000E+00 0.  1.
         23    2    1    0    0    0 -0.22400621570E+02 -0.19452342658E+01  0.18808071685E+02  0.95775919023E+02  0.91179555390E+02 0.  0.
         13    1    3    3    0    0 -0.87324462850E+01  0.29588213586E+02 -0.25272806894E+02  0.39880370280E+02  0.10566000000E+00 0. -1.
         22    1    1    0    0    0  0.22400621570E+02  0.19452342658E+01 -0.18808071685E+02  0.29314080977E+02  0.00000000000E+00 0.  1.
</event>
<event>
 5    1  0.1254921E-009  0.9118800E+02  0.7561462E-02  0.1125453E+00
         25   -1    0    0    0    0  0.00000000000E+00  0.00000000000E+00  0.99999998245E-14  0.12509000000E+03  0.12509000000E+03 0.  0.
        -13    1    3    3    0    0 -0.48555942587E+02  0.16285032204E+02 -0.33120589227E+02  0.60990707728E+02  0.10566000000E+00 0. -1.
         23    2    1    0    0    0 -0.20372148213E+02 -0.15870403233E+01 -0.18860004160E+02  0.97282754960E+02  0.93223878572E+02 0.  0.
         13    1    3    3    0    0  0.28183794375E+02 -0.17872072528E+02  0.14260585067E+02  0.36292047232E+02  0.10566000000E+00 0.  1.
         22    1    1    0    0    0  0.20372148213E+02  0.15870403233E+01  0.18860004160E+02  0.27807245040E+02  0.00000000000E+00 0. -1.
</event>
<event>
 5    1  0.1254921E-009  0.9118800E+02  0.7561462E-02  0.1125453E+00
         25   -1    0    0    0    0  0.00000000000E+00  0.00000000000E+00  0.99999998245E-14  0.12509000000E+03  0.12509000000E+03 0.  0.
        -13    1    3    3    0    0  0.32785822618E+02  0.19928864405E+02  0.19908093785E+02  0.43225145036E+02  0.10566000000E+00 0. -1.
         23    2    1    0    0    0 -0.17940613455E+02  0.16878158663E+02  0.18881563084E+02  0.94053710346E+02  0.88785410707E+02 0.  0.
         13    1    3    3    0    0 -0.50726436073E+02 -0.30507057415E+01 -0.10265307006E+01  0.50828565310E+02  0.10566000000E+00 0.  1.
         22    1    1    0    0    0  0.17940613455E+02 -0.16878158663E+02 -0.18881563084E+02  0.31036289654E+02  0.00000000000E+00 0.  1.
</event>
<event>
 5    1  0.1254921E-009  0.9118800E+02  0.7561462E-02  0.1125453E+00
         25   -1    0    0    0    0  0.00000000000E+00  0.00000000000E+00  0.99999998245E-14  0.12509000000E+03  0.12509000000E+03 0.  0.
        -13    1    3    3    0    0 -0.44772676288E+02 -0.20724974424E+02 -0.19775898391E+02  0.53152746195E+02  0.10566000000E+00 0. -1.
         23    2    1    0    0    0 -0.16554093182E+02 -0.23374461784E+02  0.10461215797E+02  0.94596713842E+02  0.89547181803E+02 0.  0.
         13    1    3    3    0    0  0.28218583107E+02 -0.26494873601E+01  0.30237114188E+02  0.41443967646E+02  0.10566000000E+00 0.  1.
         22    1    1    0    0    0  0.16554093182E+02  0.23374461784E+02 -0.10461215797E+02  0.30493286158E+02  0.00000000000E+00 0.  1.
</event>
<event>
 5    1  0.1254921E-009  0.9118800E+02  0.7561462E-02  0.1125453E+00
         25   -1    0    0    0    0  0.00000000000E+00  0.00000000000E+00  0.99999998245E-14  0.12509000000E+03  0.12509000000E+03 0.  0.
        -13    1    3    3    0    0 -0.38391901149E+02 -0.12596527897E+02 -0.57161596420E+01  0.40808041291E+02  0.10566000000E+00 0.  1.
         23    2    1    0    0    0  0.22058585505E+01 -0.82757066054E+00  0.29298866031E+02  0.95696561347E+02  0.91070618850E+02 0.  0.
         13    1    3    3    0    0  0.40597759699E+02  0.11768957236E+02  0.35015025673E+02  0.54888520056E+02  0.10566000000E+00 0. -1.
         22    1    1    0    0    0 -0.22058585505E+01  0.82757066054E+00 -0.29298866031E+02  0.29393438653E+02  0.00000000000E+00 0. -1.
</event>
<event>
 5    1  0.1254921E-009  0.9118800E+02  0.7561462E-02  0.1125453E+00
         25   -1    0    0    0    0  0.00000000000E+00  0.00000000000E+00  0.99999998245E-14  0.12509000000E+03  0.12509000000E+03 0.  0.
        -13    1    3    3    0    0 -0.82001320836E+01  0.31588691002E+02 -0.50375377181E+02  0.60023140167E+02  0.10566000000E+00 0.  1.
         23    2    1    0    0    0  0.18116176812E+01  0.45099674117E+01 -0.28324787343E+02  0.96351257113E+02  0.91965479418E+02 0.  0.
         13    1    3    3    0    0  0.10011749765E+02 -0.27078723590E+02  0.22050589837E+02  0.36328116946E+02  0.10566000000E+00 0. -1.
         22    1    1    0    0    0 -0.18116176812E+01 -0.45099674117E+01  0.28324787343E+02  0.28738742887E+02  0.00000000000E+00 0.  1.
</event>
<event>
 5    1  0.1254921E-009  0.9118800E+02  0.7561462E-02  0.1125453E+00
         25   -1    0    0    0    0  0.00000000000E+00  0.00000000000E+00  0.99999998245E-14  0.12509000000E+03  0.12509000000E+03 0.  0.
        -13    1    3    3    0    0  0.49174753994E+02 -0.53767617715E+01 -0.22023637927E+02  0.54149033132E+02  0.10566000000E+00 0.  1.
         23    2    1    0    0    0  0.17493565910E+02  0.16883737876E+02 -0.21129111178E+02  0.92879368338E+02  0.87115166709E+02 0.  0.
         13    1    3    3    0    0 -0.31681188085E+02  0.22260499648E+02  0.89452674875E+00  0.38730335206E+02  0.10566000000E+00 0. -1.
         22    1    1    0    0    0 -0.17493565910E+02 -0.16883737876E+02  0.21129111178E+02  0.32210631662E+02  0.00000000000E+00 0.  1.
</event>
<event>
 5    1  0.1254921E-009  0.9118800E+02  0.7561462E-02  0.1125453E+00
         25   -1    0    0    0    0  0.00000000000E+00  0.00000000000E+00  0.99999998245E-14  0.12509000000E+03  0.12509000000E+03 0.  0.
        -13    1    3    3    0    0 -0.21674286361E+02  0.22939092112E+02 -0.35265178941E+02  0.47324630437E+02  0.10566000000E+00 0. -1.
         23    2    1    0    0    0  0.26264042147E+01  0.27255884036E+02  0.74984692320E+01  0.96699715491E+02  0.92438231926E+02 0.  0.
         13    1    3    3    0    0  0.24300690576E+02  0.43167919241E+01  0.42763648173E+02  0.49375085054E+02  0.10566000000E+00 0.  1.
         22    1    1    0    0    0 -0.26264042147E+01 -0.27255884036E+02 -0.74984692320E+01  0.28390284509E+02  0.00000000000E+00 0.  1.
</event>
<event>
 5    1  0.1254921E-009  0.9118800E+02  0.7561462E-02  0.1125453E+00
         25   -1    0    0    0    0  0.00000000000E+00  0.00000000000E+00  0.99999998245E-14  0.12509000000E+03  0.12509000000E+03 0.  0.
        -13    1    3    3    0    0 -0.33233674067E+02 -0.12904899690E+02 -0.38312313172E+00  0.35653491770E+02  0.10566000000E+00 0. -1.
         23    2    1    0    0    0  0.21565082892E+02 -0.21219382247E+01 -0.20737537568E+02  0.95096652632E+02  0.90242852656E+02 0.  0.
         13    1    3    3    0    0  0.54798756959E+02  0.10782961465E+02 -0.20354414436E+02  0.59443160862E+02  0.10566000000E+00 0.  1.
         22    1    1    0    0    0 -0.21565082892E+02  0.21219382247E+01  0.20737537568E+02  0.29993347368E+02  0.00000000000E+00 0.  1.
</event>
<event>
 5    1  0.1254921E-009  0.9118800E+02  0.7561462E-02  0.1125453E+00
         25   -1    0    0    0    0  0.00000000000E+00  0.00000000000E+00  0.99999998245E-14  0.12509000000E+03  0.12509000000E+03 0.  0.
        -13    1    3    3    0    0  0.58306617338E+01 -0.38471204578E+02 -0.40177201858E+02  0.55930751033E+02  0.10566000000E+00 0.  1.
         23    2    1    0    0    0  0.64901210555E+01 -0.27414892237E+02 -0.72535411379E+00  0.96908017702E+02  0.92719683825E+02 0.  0.
         13    1    3    3    0    0  0.65945932165E+00  0.11056312342E+02  0.39451847744E+02  0.40977266669E+02  0.10566000000E+00 0. -1.
         22    1    1    0    0    0 -0.64901210555E+01  0.27414892237E+02  0.72535411379E+00  0.28181982298E+02  0.00000000000E+00 0.  1.
</event>
<event>
 5    1  0.1254921E-009  0.9118800E+02  0.7561462E-02  0.1125453E+00
         25   -1    0    0    0    0  0.00000000000E+00  0.00000000000E+00  0.99999998245E-14  0.12509000000E+03  0.12509000000E+03 0.  0.
        -13    1    3    3    0    0 -0.24680319462E+02  0.24919630494E+02 -0.27089058036E+01  0.35177485519E+02  0.10566000000E+00 0. -1.
         23    2    1    0    0    0  0.21714112394E+02 -0.99301628297E+01 -0.18005050842E+02  0.95185273506E+02  0.90365610857E+02 0.  0.
         13    1    3    3    0    0  0.46394431856E+02 -0.34849793324E+02 -0.15296145038E+02  0.60007787987E+02  0.10566000000E+00 0.  1.
         22    1    1    0    0    0 -0.21714112394E+02  0.99301628297E+01  0.18005050842E+02  0.29904726494E+02  0.00000000000E+00 0.  1.
</event>
<event>
 5    1  0.1254921E-009  0.9118800E+02  0.7561462E-02  0.1125453E+00
         25   -1    0    0    0    0  0.00000000000E+00  0.00000000000E+00  0.99999998245E-14  0.12509000000E+03  0.12509000000E+03 0.  0.
        -13    1    3    3    0    0  0.80140155860E+01 -0.55030202915E+02 -0.21155481618E+01  0.55651005263E+02  0.10566000000E+00 0. -1.
         23    2    1    0    0    0 -0.33610916317E+01 -0.21858520249E+02 -0.20226804493E+02  0.95119757018E+02  0.90274873086E+02 0.  0.
         13    1    3    3    0    0 -0.11375107218E+02  0.33171682666E+02 -0.18111256331E+02  0.39468751754E+02  0.10566000000E+00 0.  1.
         22    1    1    0    0    0  0.33610916317E+01  0.21858520249E+02  0.20226804493E+02  0.29970242982E+02  0.00000000000E+00 0. -1.
</event>
<event>
 5    1  0.1254921E-009  0.9118800E+02  0.7561462E-02  0.1125453E+00
         25   -1    0    0    0    0  0.00000000000E+00  0.00000000000E+00  0.99999998245E-14  0.12509000000E+03  0.12509000000E+03 0.  0.
        -13    1    3    3    0    0 -0.32958382955E+01 -0.40069721193E+02  0.22881863720E+02  0.46260522672E+02  0.10566000000E+00 0. -1.
         23    2    1    0    0    0  0.20036571638E+02 -0.16063190382E+02 -0.13811719352E+02  0.95930886850E+02  0.91391909774E+02 0.  0.
         13    1    3    3    0    0  0.23332409933E+02  0.24006530811E+02 -0.36693583072E+02  0.49670364178E+02  0.10566000000E+00 0.  1.
         22    1    1    0    0    0 -0.20036571638E+02  0.16063190382E+02  0.13811719352E+02  0.29159113150E+02  0.00000000000E+00 0.  1.
</event>
<event>
 5    1  0.1254921E-009  0.9118800E+02  0.7561462E-02  0.1125453E+00
         25   -1    0    0    0    0  0.00000000000E+00  0.00000000000E+00  0.99999998245E-14  0.12509000000E+03  0.12509000000E+03 0.  0.
        -13    1    3    3    0    0 -0.29393911609E+02  0.40297390366E+02 -0.35571970647E+02  0.61263839006E+02  0.10566000000E+00 0.  1.
         23    2    1    0    0    0 -0.18878057209E+02  0.11911963099E+02 -0.19014898494E+02  0.95766932739E+02  0.91167226198E+02 0.  0.
         13    1    3    3    0    0  0.10515854399E+02 -0.28385427266E+02  0.16557072153E+02  0.34503093733E+02  0.10566000000E+00 0. -1.
         22    1    1    0    0    0  0.18878057209E+02 -0.11911963099E+02  0.19014898494E+02  0.29323067261E+02  0.00000000000E+00 0.  1.
</event>
<event>
 5    1  0.1254921E-009  0.9118800E+02  0.7561462E-02  0.1125453E+00
         25   -1    0    0    0    0  0.00000000000E+00  0.00000000000E+00  0.99999998245E-14  0.12509000000E+03  0.12509000000E+03 0.  0.
        -13    1    3    3    0    0 -0.15656679488E+02 -0.23128203670E+02  0.28287138249E+02  0.39751965636E+02  0.10566000000E+00 0.  1.
         23    2    1    0    0    0 -0.19560623683E+02 -0.16108071539E+01 -0.22610722559E+02  0.95149100327E+02  0.90315523693E+02 0.  0.
         13    1    3    3    0    0 -0.39039441956E+01  0.21517396516E+02 -0.50897860808E+02  0.55397134691E+02  0.10566000000E+00 0. -1.
         22    1    1    0    0    0  0.19560623683E+02  0.16108071539E+01  0.22610722559E+02  0.29940899673E+02  0.00000000000E+00 0. -1.
</event>
<event>
 5    1  0.1254921E-009  0.9118800E+02  0.7561462E-02  0.1125453E+00
         25   -1    0    0    0    0  0.00000000000E+00  0.00000000000E+00  0.99999998245E-14  0.12509000000E+03  0.12509000000E+03 0.  0.
        -13    1    3    3    0    0  0.13965721776E+02 -0.50163185691E+02 -0.29341980743E+02  0.59769135691E+02  0.10566000000E+00 0. -1.
         23    2    1    0    0    0  0.10793744178E+02 -0.28497007845E+02 -0.23492808619E+01  0.94526893317E+02  0.89449595137E+02 0.  0.
         13    1    3    3    0    0 -0.31719775980E+01  0.21666177845E+02  0.26992699881E+02  0.34757757626E+02  0.10566000000E+00 0.  1.
         22    1    1    0    0    0 -0.10793744178E+02  0.28497007845E+02  0.23492808619E+01  0.30563106683E+02  0.00000000000E+00 0. -1.
</event>
<event>
 5    1  0.1254921E-009  0.9118800E+02  0.7561462E-02  0.1125453E+00
         25   -1    0    0    0    0  0.00000000000E+00  0.00000000000E+00  0.99999998245E-14  0.12509000000E+03  0.12509000000E+03 0.  0.
        -13    1    3    3    0    0 -0.20688143493E+02  0.42558109035E+02 -0.22964738410E+02  0.52598310811E+02  0.10566000000E+00 0.  1.
         23    2    1    0    0    0  0.10952443785E+01  0.59108387790E+01 -0.28836565869E+02  0.95633504852E+02  0.90983966411E+02 0.  0.
         13    1    3    3    0    0  0.21783387872E+02 -0.36647270256E+02 -0.58718274582E+01  0.43035194041E+02  0.10566000000E+00 0. -1.
         22    1    1    0    0    0 -0.10952443785E+01 -0.59108387790E+01  0.28836565869E+02  0.29456495148E+02  0.00000000000E+00 0.  1.
</event>
<event>
 5    1  0.1254921E-009  0.9118800E+02  0.7561462E-02  0.1125453E+00
         25   -1    0    0    0    0  0.00000000000E+00  0.00000000000E+00  0.99999998245E-14  0.12509000000E+03  0.12509000000E+03 0.  0.
        -13    1    3    3    0    0 -0.29995343707E+02  0.10117835259E+02 -0.33216303260E+01  0.31829791493E+02  0.10566000000E+00 0.  1.
         23    2    1    0    0    0  0.23984532870E+02 -0.49221777532E+01 -0.23270910541E+02  0.91310998709E+02  0.84833233800E+02 0.  0.
         13    1    3    3    0    0  0.53979876577E+02 -0.15040013013E+02 -0.19949280215E+02  0.59481207216E+02  0.10566000000E+00 0. -1.
         22    1    1    0    0    0 -0.23984532870E+02  0.49221777532E+01  0.23270910541E+02  0.33779001291E+02  0.00000000000E+00 0.  1.
</event>
<event>
 5    1  0.1254921E-009  0.9118800E+02  0.7561462E-02  0.1125453E+00
         25   -1    0    0    0    0  0.00000000000E+00  0.00000000000E+00  0.99999998245E-14  0.12509000000E+03  0.12509000000E+03 0.  0.
        -13    1    3    3    0    0  0.45017691720E+02 -0.32310694247E+02  0.21046302930E+02  0.59275050077E+02  0.10566000000E+00 0.  1.
         23    2    1    0    0    0  0.12894850644E+02 -0.18674750626E+02  0.20996917977E+02  0.94172463737E+02  0.88952565324E+02 0.  0.
         13    1    3    3    0    0 -0.32122841076E+02  0.13635943622E+02 -0.49384953296E-01  0.34897413660E+02  0.10566000000E+00 0. -1.
         22    1    1    0    0    0 -0.12894850644E+02  0.18674750626E+02 -0.20996917977E+02  0.30917536263E+02  0.00000000000E+00 0.  1.
</event>
<event>
 5    1  0.1254921E-009  0.9118800E+02  0.7561462E-02  0.1125453E+00
         25   -1    0    0    0    0  0.00000000000E+00  0.00000000000E+00  0.99999998245E-14  0.12509000000E+03  0.12509000000E+03 0.  0.
        -13    1    3    3    0    0 -0.43887543921E+02 -0.27743430331E+02  0.28207437126E+02  0.59088790063E+02  0.10566000000E+00 0.  1.
         23    2    1    0    0    0 -0.27850231862E+02 -0.40315939556E+01  0.38264686743E+01  0.96690510091E+02  0.92425774081E+02 0.  0.
         13    1    3    3    0    0  0.16037312059E+02  0.23711836375E+02 -0.24380968451E+02  0.37601720027E+02  0.10566000000E+00 0. -1.
         22    1    1    0    0    0  0.27850231862E+02  0.40315939556E+01 -0.38264686743E+01  0.28399489909E+02  0.00000000000E+00 0.  1.
</event>
<event>
 5    1  0.1254921E-009  0.9118800E+02  0.7561462E-02  0.1125453E+00
         25   -1    0    0    0    0  0.00000000000E+00  0.00000000000E+00  0.99999998245E-14  0.12509000000E+03  0.12509000000E+03 0.  0.
        -13    1    3    3    0    0  0.40655601695E+02 -0.35180842858E+02 -0.26841126562E+02  0.60091820513E+02  0.10566000000E+00 0. -1.
         23    2    1    0    0    0  0.12359151885E+02 -0.24641781136E+02 -0.57357325479E+01  0.96932147796E+02  0.92752232510E+02 0.  0.
         13    1    3    3    0    0 -0.28296449810E+02  0.10539061721E+02  0.21105394014E+02  0.36840327283E+02  0.10566000000E+00 0.  1.
         22    1    1    0    0    0 -0.12359151885E+02  0.24641781136E+02  0.57357325479E+01  0.28157852204E+02  0.00000000000E+00 0. -1.
</event>
<event>
 5    1  0.1254921E-009  0.9118800E+02  0.7561462E-02  0.1125453E+00
         25   -1    0    0    0    0  0.00000000000E+00  0.00000000000E+00  0.99999998245E-14  0.12509000000E+03  0.12509000000E+03 0.  0.
        -13    1    3    3    0    0 -0.44984204987E+02  0.74898849520E+01  0.36892520412E+02  0.58657875016E+02  0.10566000000E+00 0.  1.
         23    2    1    0    0    0 -0.26343455982E+02  0.90455877633E+01  0.33867175334E+01  0.97031664577E+02  0.92886348534E+02 0.  0.
         13    1    3    3    0    0  0.18640749005E+02  0.15557028112E+01 -0.33505802879E+02  0.38373789562E+02  0.10566000000E+00 0. -1.
         22    1    1    0    0    0  0.26343455982E+02 -0.90455877633E+01 -0.33867175334E+01  0.28058335423E+02  0.00000000000E+00 0.  1.
</event>
<event>
 5    1  0.1254921E-009  0.9118800E+02  0.7561462E-02  0.1125453E+00
         25   -1    0    0    0    0  0.00000000000E+00  0.00000000000E+00  0.99999998245E-14  0.12509000000E+03  0.12509000000E+03 0.  0.
        -13    1    3    3    0    0 -0.14543408329E+01  0.31182044035E+02 -0.41324576574E+02  0.51789639605E+02  0.10566000000E+00 0.  1.
         23    2    1    0    0    0 -0.13479081990E+01  0.27422510655E+02  0.40651687679E+01  0.97335062705E+02  0.93294039936E+02 0.  0.
         13    1    3    3    0    0  0.10643263396E+00 -0.37595333796E+01  0.45389745341E+02  0.45545423100E+02  0.10566000000E+00 0. -1.
         22    1    1    0    0    0  0.13479081990E+01 -0.27422510655E+02 -0.40651687679E+01  0.27754937295E+02  0.00000000000E+00 0. -1.
</event>
<event>
 5    1  0.1254921E-009  0.9118800E+02  0.7561462E-02  0.1125453E+00
         25   -1    0    0    0    0  0.00000000000E+00  0.00000000000E+00  0.99999998245E-14  0.12509000000E+03  0.12509000000E+03 0.  0.
        -13    1    3    3    0    0  0.38244446492E+02  0.28849044922E+02  0.82298813813E+01  0.48607069362E+02  0.10566000000E+00 0. -1.
         23    2    1    0    0    0  0.26796391333E+02 -0.14047644105E+02  0.10503391822E+02  0.93063383989E+02  0.87378998085E+02 0.  0.
         13    1    3    3    0    0 -0.11448055159E+02 -0.42896689027E+02  0.22735104404E+01  0.44456314627E+02  0.10566000000E+00 0.  1.
         22    1    1    0    0    0 -0.26796391333E+02  0.14047644105E+02 -0.10503391822E+02  0.32026616011E+02  0.00000000000E+00 0. -1.
</event>
<event>
 5    1  0.1254921E-009  0.9118800E+02  0.7561462E-02  0.1125453E+00
         25   -1    0    0    0    0  0.00000000000E+00  0.00000000000E+00  0.99999998245E-14  0.12509000000E+03  0.12509000000E+03 0.  0.
        -13    1    3    3    0    0 -0.17597004874E+02 -0.24145342179E+02 -0.62731004615E+01  0.30528922072E+02  0.10566000000E+00 0. -1.
         23    2    1    0    0    0  0.13513824690E+02  0.12431432010E+02  0.29454647098E+02  0.90380632457E+02  0.83450096034E+02 0.  0.
         13    1    3    3    0    0  0.31110829564E+02  0.36576774189E+02  0.35727747560E+02  0.59851710384E+02  0.10566000000E+00 0.  1.
         22    1    1    0    0    0 -0.13513824690E+02 -0.12431432010E+02 -0.29454647098E+02  0.34709367543E+02  0.00000000000E+00 0.  1.
</event>
<event>
 5    1  0.1254921E-009  0.9118800E+02  0.7561462E-02  0.1125453E+00
         25   -1    0    0    0    0  0.00000000000E+00  0.00000000000E+00  0.99999998245E-14  0.12509000000E+03  0.12509000000E+03 0.  0.
        -13    1    3    3    0    0  0.77543315072E+01  0.32195303870E+02  0.31109652234E+02  0.45436646824E+02  0.10566000000E+00 0. -1.
         23    2    1    0    0    0  0.15425621107E+02  0.17240166385E+02 -0.16989344550E+02  0.96387892904E+02  0.92015297351E+02 0.  0.
         13    1    3    3    0    0  0.76712895998E+01 -0.14955137485E+02 -0.48098996785E+02  0.50951246080E+02  0.10566000000E+00 0.  1.
         22    1    1    0    0    0 -0.15425621107E+02 -0.17240166385E+02  0.16989344550E+02  0.28702107096E+02  0.00000000000E+00 0.  1.
</event>
<event>
 5    1  0.1254921E-009  0.9118800E+02  0.7561462E-02  0.1125453E+00
         25   -1    0    0    0    0  0.00000000000E+00  0.00000000000E+00  0.99999998245E-14  0.12509000000E+03  0.12509000000E+03 0.  0.
        -13    1    3    3    0    0  0.52127549189E+02 -0.34960305083E+01  0.91272057489E+01  0.53036031739E+02  0.10566000000E+00 0.  1.
         23    2    1    0    0    0 -0.38886112126E+01 -0.11714030833E+02  0.92730368978E+01  0.10965209118E+03  0.10855990084E+03 0.  0.
         13    1    3    3    0    0 -0.56016160402E+02 -0.82180003249E+01  0.14583114897E+00  0.56616059438E+02  0.10566000000E+00 0. -1.
         22    1    1    0    0    0  0.38886112126E+01  0.11714030833E+02 -0.92730368978E+01  0.15437908823E+02  0.00000000000E+00 0. -1.
</event>
<event>
 5    1  0.1254921E-009  0.9118800E+02  0.7561462E-02  0.1125453E+00
         25   -1    0    0    0    0  0.00000000000E+00  0.00000000000E+00  0.99999998245E-14  0.12509000000E+03  0.12509000000E+03 0.  0.
        -13    1    3    3    0    0 -0.21209628684E+01 -0.70668793593E+01  0.27107889484E+02  0.28094271724E+02  0.10566000000E+00 0.  1.
         23    2    1    0    0    0  0.23519734514E+02 -0.10446660034E-01 -0.27542388327E+02  0.88871756317E+02  0.81156810530E+02 0.  0.
         13    1    3    3    0    0  0.25640697382E+02  0.70564326993E+01 -0.54650277811E+02  0.60777484593E+02  0.10566000000E+00 0. -1.
         22    1    1    0    0    0 -0.23519734514E+02  0.10446660034E-01  0.27542388327E+02  0.36218243683E+02  0.00000000000E+00 0. -1.
</event>
<event>
 5    1  0.1254921E-009  0.9118800E+02  0.7561462E-02  0.1125453E+00
         25   -1    0    0    0    0  0.00000000000E+00  0.00000000000E+00  0.99999998245E-14  0.12509000000E+03  0.12509000000E+03 0.  0.
        -13    1    3    3    0    0  0.40623903564E+02 -0.22043201745E+02  0.22480408512E+02  0.51396344373E+02  0.10566000000E+00 0.  1.
         23    2    1    0    0    0 -0.33839003135E+01 -0.25178983818E+02  0.13116034199E+02  0.96498701314E+02  0.92165812505E+02 0.  0.
         13    1    3    3    0    0 -0.44007803878E+02 -0.31357820727E+01 -0.93643743124E+01  0.45102356941E+02  0.10566000000E+00 0. -1.
         22    1    1    0    0    0  0.33839003135E+01  0.25178983818E+02 -0.13116034199E+02  0.28591298686E+02  0.00000000000E+00 0. -1.
</event>
<event>
 5    1  0.1254921E-009  0.9118800E+02  0.7561462E-02  0.1125453E+00
         25   -1    0    0    0    0  0.00000000000E+00  0.00000000000E+00  0.99999998245E-14  0.12509000000E+03  0.12509000000E+03 0.  0.
        -13    1    3    3    0    0  0.27529453747E+02  0.33444131112E+02  0.19624994368E+02  0.47555570625E+02  0.10566000000E+00 0. -1.
         23    2    1    0    0    0 -0.58058241983E+01  0.26486900118E+02 -0.13268923668E+02  0.94901793564E+02  0.89972343605E+02 0.  0.
         13    1    3    3    0    0 -0.33335277946E+02 -0.69572309939E+01 -0.32893918036E+02  0.47346222939E+02  0.10566000000E+00 0.  1.
         22    1    1    0    0    0  0.58058241983E+01 -0.26486900118E+02  0.13268923668E+02  0.30188206436E+02  0.00000000000E+00 0.  1.
</event>
<event>
 5    1  0.1254921E-009  0.9118800E+02  0.7561462E-02  0.1125453E+00
         25   -1    0    0    0    0  0.00000000000E+00  0.00000000000E+00  0.99999998245E-14  0.12509000000E+03  0.12509000000E+03 0.  0.
        -13    1    3    3    0    0  0.41973060687E+01  0.20055662736E+02 -0.49785513575E+02  0.53837305950E+02  0.10566000000E+00 0.  1.
         23    2    1    0    0    0  0.23487611942E+02  0.35736904602E+01 -0.14643664802E+02  0.97181648256E+02  0.93088112349E+02 0.  0.
         13    1    3    3    0    0  0.19290305873E+02 -0.16481972276E+02  0.35141848773E+02  0.43344342306E+02  0.10566000000E+00 0. -1.
         22    1    1    0    0    0 -0.23487611942E+02 -0.35736904602E+01  0.14643664802E+02  0.27908351744E+02  0.00000000000E+00 0.  1.
</event>
<event>
 5    1  0.1254921E-009  0.9118800E+02  0.7561462E-02  0.1125453E+00
         25   -1    0    0    0    0  0.00000000000E+00  0.00000000000E+00  0.99999998245E-14  0.12509000000E+03  0.12509000000E+03 0.  0.
        -13    1    3    3    0    0 -0.21828400300E+02  0.27288281960E+02 -0.84983640356E+01  0.35963352837E+02  0.10566000000E+00 0.  1.
         23    2    1    0    0    0 -0.33598726351E+01 -0.25406112503E+02  0.13675328105E+02  0.96042213588E+02  0.91544158173E+02 0.  0.
         13    1    3    3    0    0  0.18468527665E+02 -0.52694394463E+02  0.22173692141E+02  0.60078860751E+02  0.10566000000E+00 0. -1.
         22    1    1    0    0    0  0.33598726351E+01  0.25406112503E+02 -0.13675328105E+02  0.29047786412E+02  0.00000000000E+00 0. -1.
</event>
<event>
 5    1  0.1254921E-009  0.9118800E+02  0.7561462E-02  0.1125453E+00
         25   -1    0    0    0    0  0.00000000000E+00  0.00000000000E+00  0.99999998245E-14  0.12509000000E+03  0.12509000000E+03 0.  0.
        -13    1    3    3    0    0 -0.21454822392E+02  0.44977170348E+02  0.30273912099E+02  0.58307599627E+02  0.10566000000E+00 0.  1.
         23    2    1    0    0    0 -0.18024655594E+02  0.78914114417E+01  0.20201092646E+02  0.96889880711E+02  0.92695211615E+02 0.  0.
         13    1    3    3    0    0  0.34301667983E+01 -0.37085758906E+02 -0.10072819453E+02  0.38582281085E+02  0.10566000000E+00 0. -1.
         22    1    1    0    0    0  0.18024655594E+02 -0.78914114417E+01 -0.20201092646E+02  0.28200119289E+02  0.00000000000E+00 0.  1.
</event>
<event>
 5    1  0.1254921E-009  0.9118800E+02  0.7561462E-02  0.1125453E+00
         25   -1    0    0    0    0  0.00000000000E+00  0.00000000000E+00  0.99999998245E-14  0.12509000000E+03  0.12509000000E+03 0.  0.
        -13    1    3    3    0    0 -0.46820337296E+02  0.31606356320E+02 -0.22703462459E+02  0.60881558094E+02  0.10566000000E+00 0. -1.
         23    2    1    0    0    0 -0.24348587293E+02  0.55953966033E+01 -0.14436869206E+02  0.96235444748E+02  0.91807818115E+02 0.  0.
         13    1    3    3    0    0  0.22471750003E+02 -0.26010959716E+02  0.82665932524E+01  0.35353886654E+02  0.10566000000E+00 0.  1.
         22    1    1    0    0    0  0.24348587293E+02 -0.55953966033E+01  0.14436869206E+02  0.28854555252E+02  0.00000000000E+00 0. -1.
</event>
<event>
 5    1  0.1254921E-009  0.9118800E+02  0.7561462E-02  0.1125453E+00
         25   -1    0    0    0    0  0.00000000000E+00  0.00000000000E+00  0.99999998245E-14  0.12509000000E+03  0.12509000000E+03 0.  0.
        -13    1    3    3    0    0  0.17361556690E+02 -0.64188594937E+01 -0.51840426319E+02  0.55046038667E+02  0.10566000000E+00 0.  1.
         23    2    1    0    0    0  0.48632253376E+01  0.18464709062E+02 -0.23978974000E+02  0.94437306228E+02  0.89324225001E+02 0.  0.
         13    1    3    3    0    0 -0.12498331353E+02  0.24883568555E+02  0.27861452320E+02  0.39391267561E+02  0.10566000000E+00 0. -1.
         22    1    1    0    0    0 -0.48632253376E+01 -0.18464709062E+02  0.23978974000E+02  0.30652693772E+02  0.00000000000E+00 0.  1.
</event>
<event>
 5    1  0.1254921E-009  0.9118800E+02  0.7561462E-02  0.1125453E+00
         25   -1    0    0    0    0  0.00000000000E+00  0.00000000000E+00  0.99999998245E-14  0.12509000000E+03  0.12509000000E+03 0.  0.
        -13    1    3    3    0    0 -0.25204863703E+02  0.75718254542E+01 -0.19283306387E+02  0.32626289465E+02  0.10566000000E+00 0.  1.
         23    2    1    0    0    0  0.22139087552E+02  0.14754108411E+02  0.17703618853E+02  0.93133137934E+02  0.87478799422E+02 0.  0.
         13    1    3    3    0    0  0.47343951255E+02  0.71822829571E+01  0.36986925240E+02  0.60506848469E+02  0.10566000000E+00 0. -1.
         22    1    1    0    0    0 -0.22139087552E+02 -0.14754108411E+02 -0.17703618853E+02  0.31956862066E+02  0.00000000000E+00 0. -1.
</event>
<event>
 5    1  0.1254921E-009  0.9118800E+02  0.7561462E-02  0.1125453E+00
         25   -1    0    0    0    0  0.00000000000E+00  0.00000000000E+00  0.99999998245E-14  0.12509000000E+03  0.12509000000E+03 0.  0.
        -13    1    3    3    0    0 -0.20414092635E+02 -0.29285605493E+02 -0.19244294589E+02  0.40555343735E+02  0.10566000000E+00 0. -1.
         23    2    1    0    0    0 -0.56022084117E+01  0.11268287379E+02  0.21666567412E+02  0.10003407888E+03  0.96845329032E+02 0.  0.
         13    1    3    3    0    0  0.14811884223E+02  0.40553892872E+02  0.40910862000E+02  0.59478735149E+02  0.10566000000E+00 0.  1.
         22    1    1    0    0    0  0.56022084117E+01 -0.11268287379E+02 -0.21666567412E+02  0.25055921115E+02  0.00000000000E+00 0.  1.
</event>
<event>
 5    1  0.1254921E-009  0.9118800E+02  0.7561462E-02  0.1125453E+00
         25   -1    0    0    0    0  0.00000000000E+00  0.00000000000E+00  0.99999998245E-14  0.12509000000E+03  0.12509000000E+03 0.  0.
        -13    1    3    3    0    0  0.13690369663E+02 -0.42118294174E+00 -0.30654143660E+02  0.33575159034E+02  0.10566000000E+00 0.  1.
         23    2    1    0    0    0 -0.18801869988E+01 -0.20395943759E+01  0.29360891520E+02  0.95598357130E+02  0.90935630457E+02 0.  0.
         13    1    3    3    0    0 -0.15570556662E+02 -0.16184114341E+01  0.60015035180E+02  0.62023198096E+02  0.10566000000E+00 0. -1.
         22    1    1    0    0    0  0.18801869988E+01  0.20395943759E+01 -0.29360891520E+02  0.29491642870E+02  0.00000000000E+00 0. -1.
</event>
<event>
 5    1  0.1254921E-009  0.9118800E+02  0.7561462E-02  0.1125453E+00
         25   -1    0    0    0    0  0.00000000000E+00  0.00000000000E+00  0.99999998245E-14  0.12509000000E+03  0.12509000000E+03 0.  0.
        -13    1    3    3    0    0  0.23818737575E+02 -0.30486586949E+02  0.20793235644E+02  0.43921908611E+02  0.10566000000E+00 0. -1.
         23    2    1    0    0    0 -0.79122806740E+01  0.10264964015E+02  0.26207098835E+02  0.95853281631E+02  0.91285628104E+02 0.  0.
         13    1    3    3    0    0 -0.31731018249E+02  0.40751550963E+02  0.54138631908E+01  0.51931373020E+02  0.10566000000E+00 0.  1.
         22    1    1    0    0    0  0.79122806740E+01 -0.10264964015E+02 -0.26207098835E+02  0.29236718369E+02  0.00000000000E+00 0.  1.
</event>
<event>
 5    1  0.1254921E-009  0.9118800E+02  0.7561462E-02  0.1125453E+00
         25   -1    0    0    0    0  0.00000000000E+00  0.00000000000E+00  0.99999998245E-14  0.12509000000E+03  0.12509000000E+03 0.  0.
        -13    1    3    3    0    0 -0.38788103021E+02  0.90764459393E+01  0.41733563085E+02  0.57694022729E+02  0.10566000000E+00 0.  1.
         23    2    1    0    0    0 -0.40332846140E+01 -0.14025187938E+01  0.28407811846E+02  0.96363040230E+02  0.91981505232E+02 0.  0.
         13    1    3    3    0    0  0.34754818407E+02 -0.10478964733E+02 -0.13325751239E+02  0.38669017501E+02  0.10566000000E+00 0. -1.
         22    1    1    0    0    0  0.40332846140E+01  0.14025187938E+01 -0.28407811846E+02  0.28726959770E+02  0.00000000000E+00 0.  1.
</event>
<event>
 5    1  0.1254921E-009  0.9118800E+02  0.7561462E-02  0.1125453E+00
         25   -1    0    0    0    0  0.00000000000E+00  0.00000000000E+00  0.99999998245E-14  0.12509000000E+03  0.12509000000E+03 0.  0.
        -13    1    3    3    0    0 -0.31657653445E+02  0.32958467518E+02 -0.14952349971E+02  0.48083797026E+02  0.10566000000E+00 0. -1.
         23    2    1    0    0    0 -0.98216760272E+01  0.16539964216E+02  0.23164120695E+02  0.94979997944E+02  0.90081006798E+02 0.  0.
         13    1    3    3    0    0  0.21835977418E+02 -0.16418503303E+02  0.38116470665E+02  0.46896200918E+02  0.10566000000E+00 0.  1.
         22    1    1    0    0    0  0.98216760272E+01 -0.16539964216E+02 -0.23164120695E+02  0.30110002056E+02  0.00000000000E+00 0.  1.
</event>
<event>
 5    1  0.1254921E-009  0.9118800E+02  0.7561462E-02  0.1125453E+00
         25   -1    0    0    0    0  0.00000000000E+00  0.00000000000E+00  0.99999998245E-14  0.12509000000E+03  0.12509000000E+03 0.  0.
        -13    1    3    3    0    0  0.20619340354E+02 -0.38231102649E+02  0.38200237871E+01  0.43604795059E+02  0.10566000000E+00 0. -1.
         23    2    1    0    0    0  0.79776563445E+01  0.69848828418E+00 -0.28328370486E+02  0.95651462995E+02  0.91008652952E+02 0.  0.
         13    1    3    3    0    0 -0.12641684009E+02  0.38929590933E+02 -0.32148394273E+02  0.52046667935E+02  0.10566000000E+00 0.  1.
         22    1    1    0    0    0 -0.79776563445E+01 -0.69848828418E+00  0.28328370486E+02  0.29438537005E+02  0.00000000000E+00 0.  1.
</event>
<event>
 5    1  0.1254921E-009  0.9118800E+02  0.7561462E-02  0.1125453E+00
         25   -1    0    0    0    0  0.00000000000E+00  0.00000000000E+00  0.99999998245E-14  0.12509000000E+03  0.12509000000E+03 0.  0.
        -13    1    3    3    0    0  0.28502107923E+01 -0.27025468668E+02 -0.32982652301E+02  0.42736005606E+02  0.10566000000E+00 0.  1.
         23    2    1    0    0    0 -0.28282665796E+02 -0.24421567410E+01  0.33200504023E+01  0.96508606599E+02  0.92179255253E+02 0.  0.
         13    1    3    3    0    0 -0.31132876588E+02  0.24583311927E+02  0.36302702704E+02  0.53772600993E+02  0.10566000000E+00 0. -1.
         22    1    1    0    0    0  0.28282665796E+02  0.24421567410E+01 -0.33200504023E+01  0.28581393401E+02  0.00000000000E+00 0.  1.
</event>
<event>
 5    1  0.1254921E-009  0.9118800E+02  0.7561462E-02  0.1125453E+00
         25   -1    0    0    0    0  0.00000000000E+00  0.00000000000E+00  0.99999998245E-14  0.12509000000E+03  0.12509000000E+03 0.  0.
        -13    1    3    3    0    0 -0.22990589963E+02  0.11084542911E+02  0.22358547498E+02  0.33931550637E+02  0.10566000000E+00 0. -1.
         23    2    1    0    0    0  0.20105501868E+02 -0.24890103626E+02  0.49042358443E+01  0.92720261151E+02  0.86886401898E+02 0.  0.
         13    1    3    3    0    0  0.43096091831E+02 -0.35974646537E+02 -0.17454311653E+02  0.58788710514E+02  0.10566000000E+00 0.  1.
         22    1    1    0    0    0 -0.20105501868E+02  0.24890103626E+02 -0.49042358443E+01  0.32369738849E+02  0.00000000000E+00 0.  1.
</event>
<event>
 4    1  0.1254921E-009  0.9118800E+02  0.7561462E-02  0.1125453E+00
         25   -1    0    0    0    0  0.00000000000E+00  0.00000000000E+00  0.99999998245E-14  0.12509000000E+03  0.12509000000E+03 0.  0.
        -13    1    1    0    0    0  0.44727690947E+02  0.25235525081E+02 -0.38676029959E+01  0.51501141546E+02  0.10566000000E+00 0. -1.
         13    1    1    0    0    0  0.98375794771E+01 -0.15045276166E+02  0.11880264745E+01  0.18015573147E+02  0.10566000000E+00 0.  1.
         22    1    1    0    0    0 -0.54565270424E+02 -0.10190248915E+02  0.26795765215E+01  0.55573285306E+02  0.00000000000E+00 0. -1.
</event>
<event>
 5    1  0.1254921E-009  0.9118800E+02  0.7561462E-02  0.1125453E+00
         25   -1    0    0    0    0  0.00000000000E+00  0.00000000000E+00  0.99999998245E-14  0.12509000000E+03  0.12509000000E+03 0.  0.
        -13    1    3    3    0    0  0.10989843289E+02  0.25911600984E+01  0.39648506943E+02  0.41225065592E+02  0.10566000000E+00 0.  1.
         23    2    1    0    0    0  0.11295418715E+02 -0.25576288271E+02 -0.74949918976E+01  0.96143361004E+02  0.91682266311E+02 0.  0.
         13    1    3    3    0    0  0.30557542572E+00 -0.28167448369E+02 -0.47143498841E+02  0.54918295412E+02  0.10566000000E+00 0. -1.
         22    1    1    0    0    0 -0.11295418715E+02  0.25576288271E+02  0.74949918976E+01  0.28946638996E+02  0.00000000000E+00 0. -1.
</event>
<event>
 5    1  0.1254921E-009  0.9118800E+02  0.7561462E-02  0.1125453E+00
         25   -1    0    0    0    0  0.00000000000E+00  0.00000000000E+00  0.99999998245E-14  0.12509000000E+03  0.12509000000E+03 0.  0.
        -13    1    3    3    0    0  0.22858627267E+02 -0.33912261142E+02  0.18598551227E+02  0.44927447825E+02  0.10566000000E+00 0. -1.
         23    2    1    0    0    0  0.11237930975E+02 -0.21917580766E+02 -0.24010508208E+02  0.90692675342E+02  0.83916538400E+02 0.  0.
         13    1    3    3    0    0 -0.11620696292E+02  0.11994680376E+02 -0.42609059436E+02  0.45765227517E+02  0.10566000000E+00 0.  1.
         22    1    1    0    0    0 -0.11237930975E+02  0.21917580766E+02  0.24010508208E+02  0.34397324658E+02  0.00000000000E+00 0.  1.
</event>
<event>
 5    1  0.1254921E-009  0.9118800E+02  0.7561462E-02  0.1125453E+00
         25   -1    0    0    0    0  0.00000000000E+00  0.00000000000E+00  0.99999998245E-14  0.12509000000E+03  0.12509000000E+03 0.  0.
        -13    1    3    3    0    0  0.23456606395E+02 -0.27993306602E+02  0.11088269262E+02  0.38168029519E+02  0.10566000000E+00 0. -1.
         23    2    1    0    0    0  0.10497126695E+02  0.27382874151E+02  0.30473842378E+01  0.95606139732E+02  0.90946335485E+02 0.  0.
         13    1    3    3    0    0 -0.12959479701E+02  0.55376180753E+02 -0.80408850245E+01  0.57438110213E+02  0.10566000000E+00 0.  1.
         22    1    1    0    0    0 -0.10497126695E+02 -0.27382874151E+02 -0.30473842378E+01  0.29483860268E+02  0.00000000000E+00 0.  1.
</event>
<event>
 5    1  0.1254921E-009  0.9118800E+02  0.7561462E-02  0.1125453E+00
         25   -1    0    0    0    0  0.00000000000E+00  0.00000000000E+00  0.99999998245E-14  0.12509000000E+03  0.12509000000E+03 0.  0.
        -13    1    3    3    0    0 -0.39644781408E+02  0.38735248207E+02  0.20269754680E+02  0.59016965911E+02  0.10566000000E+00 0.  1.
         23    2    1    0    0    0 -0.27764374716E+02  0.20601520796E+02  0.26449819721E+02  0.81559825112E+02  0.68971943184E+02 0.  0.
         13    1    3    3    0    0  0.11880406693E+02 -0.18133727411E+02  0.61800650418E+01  0.22542859201E+02  0.10566000000E+00 0. -1.
         22    1    1    0    0    0  0.27764374716E+02 -0.20601520796E+02 -0.26449819721E+02  0.43530174888E+02  0.00000000000E+00 0.  1.
</event>
<event>
 5    1  0.1254921E-009  0.9118800E+02  0.7561462E-02  0.1125453E+00
         25   -1    0    0    0    0  0.00000000000E+00  0.00000000000E+00  0.99999998245E-14  0.12509000000E+03  0.12509000000E+03 0.  0.
        -13    1    3    3    0    0  0.50697886800E+02 -0.11254663774E+02  0.25674152981E+01  0.51995634125E+02  0.10566000000E+00 0.  1.
         23    2    1    0    0    0  0.10364675975E+02 -0.18888356323E+02 -0.17166535307E+02  0.97542106304E+02  0.93571235191E+02 0.  0.
         13    1    3    3    0    0 -0.40333210826E+02 -0.76336925492E+01 -0.19733950605E+02  0.45546472179E+02  0.10566000000E+00 0. -1.
         22    1    1    0    0    0 -0.10364675975E+02  0.18888356323E+02  0.17166535307E+02  0.27547893696E+02  0.00000000000E+00 0. -1.
</event>
<event>
 5    1  0.1254921E-009  0.9118800E+02  0.7561462E-02  0.1125453E+00
         25   -1    0    0    0    0  0.00000000000E+00  0.00000000000E+00  0.99999998245E-14  0.12509000000E+03  0.12509000000E+03 0.  0.
        -13    1    3    3    0    0 -0.46435763916E+02 -0.10715544151E+02  0.81124001690E+01  0.48341754803E+02  0.10566000000E+00 0. -1.
         23    2    1    0    0    0 -0.22265918595E+01 -0.24435692545E+02  0.16684190851E+02  0.95418077146E+02  0.90687300326E+02 0.  0.
         13    1    3    3    0    0  0.44209172056E+02 -0.13720148395E+02  0.85717906821E+01  0.47076322343E+02  0.10566000000E+00 0.  1.
         22    1    1    0    0    0  0.22265918595E+01  0.24435692545E+02 -0.16684190851E+02  0.29671922854E+02  0.00000000000E+00 0.  1.
</event>
<event>
 5    1  0.1254921E-009  0.9118800E+02  0.7561462E-02  0.1125453E+00
         25   -1    0    0    0    0  0.00000000000E+00  0.00000000000E+00  0.99999998245E-14  0.12509000000E+03  0.12509000000E+03 0.  0.
        -13    1    3    3    0    0  0.92108651464E+01 -0.32971028016E+02  0.19593285530E+02  0.39444096226E+02  0.10566000000E+00 0. -1.
         23    2    1    0    0    0 -0.19636532461E+02  0.15539033217E+02  0.14598936564E+02  0.96104073946E+02  0.91628647921E+02 0.  0.
         13    1    3    3    0    0 -0.28847397607E+02  0.48510061233E+02 -0.49943489660E+01  0.56659977720E+02  0.10566000000E+00 0.  1.
         22    1    1    0    0    0  0.19636532461E+02 -0.15539033217E+02 -0.14598936564E+02  0.28985926054E+02  0.00000000000E+00 0.  1.
</event>
<event>
 5    1  0.1254921E-009  0.9118800E+02  0.7561462E-02  0.1125453E+00
         25   -1    0    0    0    0  0.00000000000E+00  0.00000000000E+00  0.99999998245E-14  0.12509000000E+03  0.12509000000E+03 0.  0.
        -13    1    3    3    0    0  0.57136444510E+02 -0.53051247717E+01 -0.13306369123E+02  0.58904908653E+02  0.10566000000E+00 0.  1.
         23    2    1    0    0    0  0.27428258316E+02 -0.94308551122E+01  0.71589867582E+01  0.95215236841E+02  0.90407078555E+02 0.  0.
         13    1    3    3    0    0 -0.29708186194E+02 -0.41257303405E+01  0.20465355881E+02  0.36310328188E+02  0.10566000000E+00 0. -1.
         22    1    1    0    0    0 -0.27428258316E+02  0.94308551122E+01 -0.71589867582E+01  0.29874763159E+02  0.00000000000E+00 0.  1.
</event>
<event>
 5    1  0.1254921E-009  0.9118800E+02  0.7561462E-02  0.1125453E+00
         25   -1    0    0    0    0  0.00000000000E+00  0.00000000000E+00  0.99999998245E-14  0.12509000000E+03  0.12509000000E+03 0.  0.
        -13    1    3    3    0    0  0.29071533613E+02 -0.23645455558E+02 -0.21520251330E+02  0.43213354608E+02  0.10566000000E+00 0.  1.
         23    2    1    0    0    0 -0.21673408290E+02 -0.13805731510E+01 -0.14278649737E+02  0.99099185325E+02  0.95630152591E+02 0.  0.
         13    1    3    3    0    0 -0.50744941903E+02  0.22264882407E+02  0.72416015931E+01  0.55885830717E+02  0.10566000000E+00 0. -1.
         22    1    1    0    0    0  0.21673408290E+02  0.13805731510E+01  0.14278649737E+02  0.25990814675E+02  0.00000000000E+00 0. -1.
</event>
<event>
 5    1  0.1254921E-009  0.9118800E+02  0.7561462E-02  0.1125453E+00
         25   -1    0    0    0    0  0.00000000000E+00  0.00000000000E+00  0.99999998245E-14  0.12509000000E+03  0.12509000000E+03 0.  0.
        -13    1    3    3    0    0  0.20655736014E+02 -0.19884832501E+02  0.33189385689E+02  0.43859006832E+02  0.10566000000E+00 0. -1.
         23    2    1    0    0    0  0.33341000230E+01  0.25418822059E+02  0.11794948303E+02  0.96870263231E+02  0.92668734507E+02 0.  0.
         13    1    3    3    0    0 -0.17321635991E+02  0.45303654560E+02 -0.21394437387E+02  0.53011256399E+02  0.10566000000E+00 0.  1.
         22    1    1    0    0    0 -0.33341000230E+01 -0.25418822059E+02 -0.11794948303E+02  0.28219736769E+02  0.00000000000E+00 0.  1.
</event>
<event>
 5    1  0.1254921E-009  0.9118800E+02  0.7561462E-02  0.1125453E+00
         25   -1    0    0    0    0  0.00000000000E+00  0.00000000000E+00  0.99999998245E-14  0.12509000000E+03  0.12509000000E+03 0.  0.
        -13    1    3    3    0    0  0.32319122840E+02  0.10959196281E+02  0.34764341803E+01  0.34303446517E+02  0.10566000000E+00 0.  1.
         23    2    1    0    0    0 -0.20009825956E+02 -0.21296197382E+02  0.93529751363E-01  0.95867920923E+02  0.91305686332E+02 0.  0.
         13    1    3    3    0    0 -0.52328948797E+02 -0.32255393663E+02 -0.33829044290E+01  0.61564474406E+02  0.10566000000E+00 0. -1.
         22    1    1    0    0    0  0.20009825956E+02  0.21296197382E+02 -0.93529751363E-01  0.29222079077E+02  0.00000000000E+00 0. -1.
</event>
<event>
 5    1  0.1254921E-009  0.9118800E+02  0.7561462E-02  0.1125453E+00
         25   -1    0    0    0    0  0.00000000000E+00  0.00000000000E+00  0.99999998245E-14  0.12509000000E+03  0.12509000000E+03 0.  0.
        -13    1    3    3    0    0 -0.27229266153E+02  0.28837497226E+02 -0.35182100797E+02  0.53017219486E+02  0.10566000000E+00 0.  1.
         23    2    1    0    0    0 -0.77263655021E+01 -0.81581338962E+01 -0.27290464190E+02  0.95576929874E+02  0.90906150594E+02 0.  0.
         13    1    3    3    0    0  0.19502900651E+02 -0.36995631122E+02  0.78916366073E+01  0.42559710388E+02  0.10566000000E+00 0. -1.
         22    1    1    0    0    0  0.77263655021E+01  0.81581338962E+01  0.27290464190E+02  0.29513070126E+02  0.00000000000E+00 0. -1.
</event>
<event>
 5    1  0.1254921E-009  0.9118800E+02  0.7561462E-02  0.1125453E+00
         25   -1    0    0    0    0  0.00000000000E+00  0.00000000000E+00  0.99999998245E-14  0.12509000000E+03  0.12509000000E+03 0.  0.
        -13    1    3    3    0    0  0.39114876147E+02 -0.30871279092E+02  0.19731606900E+02  0.53594373619E+02  0.10566000000E+00 0.  1.
         23    2    1    0    0    0  0.11061581898E+02 -0.23087643319E+02 -0.12136040793E+02  0.96758368309E+02  0.92517568513E+02 0.  0.
         13    1    3    3    0    0 -0.28053294249E+02  0.77836357724E+01 -0.31867647693E+02  0.43163994690E+02  0.10566000000E+00 0. -1.
         22    1    1    0    0    0 -0.11061581898E+02  0.23087643319E+02  0.12136040793E+02  0.28331631691E+02  0.00000000000E+00 0.  1.
</event>
<event>
 5    1  0.1254921E-009  0.9118800E+02  0.7561462E-02  0.1125453E+00
         25   -1    0    0    0    0  0.00000000000E+00  0.00000000000E+00  0.99999998245E-14  0.12509000000E+03  0.12509000000E+03 0.  0.
        -13    1    3    3    0    0 -0.24872160655E+02 -0.14037024174E+02  0.38190933201E+02  0.47688792877E+02  0.10566000000E+00 0.  1.
         23    2    1    0    0    0  0.80119350364E+01 -0.27900706369E+02  0.66655850121E+01  0.95306270508E+02  0.90532947901E+02 0.  0.
         13    1    3    3    0    0  0.32884095691E+02 -0.13863682195E+02 -0.31525348189E+02  0.47617477630E+02  0.10566000000E+00 0. -1.
         22    1    1    0    0    0 -0.80119350364E+01  0.27900706369E+02 -0.66655850121E+01  0.29783729492E+02  0.00000000000E+00 0.  1.
</event>
<event>
 5    1  0.1254921E-009  0.9118800E+02  0.7561462E-02  0.1125453E+00
         25   -1    0    0    0    0  0.00000000000E+00  0.00000000000E+00  0.99999998245E-14  0.12509000000E+03  0.12509000000E+03 0.  0.
        -13    1    3    3    0    0  0.10523117654E+02 -0.17880672521E+02  0.27767583354E+02  0.34662722113E+02  0.10566000000E+00 0.  1.
         23    2    1    0    0    0 -0.21882038222E+02  0.31441309378E+00 -0.20176451836E+02  0.95324051988E+02  0.90557513362E+02 0.  0.
         13    1    3    3    0    0 -0.32405155876E+02  0.18195085615E+02 -0.47944035190E+02  0.60661329875E+02  0.10566000000E+00 0. -1.
         22    1    1    0    0    0  0.21882038222E+02 -0.31441309378E+00  0.20176451836E+02  0.29765948012E+02  0.00000000000E+00 0. -1.
</event>
<event>
 5    1  0.1254921E-009  0.9118800E+02  0.7561462E-02  0.1125453E+00
         25   -1    0    0    0    0  0.00000000000E+00  0.00000000000E+00  0.99999998245E-14  0.12509000000E+03  0.12509000000E+03 0.  0.
        -13    1    3    3    0    0 -0.22406219696E+02  0.49514086170E+02 -0.28940136454E+02  0.61572932952E+02  0.10566000000E+00 0.  1.
         23    2    1    0    0    0 -0.16492548282E+02  0.19849433763E+02 -0.17482889353E+02  0.93918609436E+02  0.88594862203E+02 0.  0.
         13    1    3    3    0    0  0.59136714146E+01 -0.29664652407E+02  0.11457247101E+02  0.32345676484E+02  0.10566000000E+00 0. -1.
         22    1    1    0    0    0  0.16492548282E+02 -0.19849433763E+02  0.17482889353E+02  0.31171390564E+02  0.00000000000E+00 0.  1.
</event>
<event>
 5    1  0.1254921E-009  0.9118800E+02  0.7561462E-02  0.1125453E+00
         25   -1    0    0    0    0  0.00000000000E+00  0.00000000000E+00  0.99999998245E-14  0.12509000000E+03  0.12509000000E+03 0.  0.
        -13    1    3    3    0    0  0.10973777636E+02  0.26521073749E+02 -0.44823066989E+01  0.29049843128E+02  0.10566000000E+00 0. -1.
         23    2    1    0    0    0 -0.12338021587E+02 -0.30061246122E+02  0.82667830789E+01  0.91560237138E+02  0.85199953211E+02 0.  0.
         13    1    3    3    0    0 -0.23311799223E+02 -0.56582319871E+02  0.12749089778E+02  0.62510394010E+02  0.10566000000E+00 0.  1.
         22    1    1    0    0    0  0.12338021587E+02  0.30061246122E+02 -0.82667830789E+01  0.33529762862E+02  0.00000000000E+00 0.  1.
</event>
<event>
 5    1  0.1254921E-009  0.9118800E+02  0.7561462E-02  0.1125453E+00
         25   -1    0    0    0    0  0.00000000000E+00  0.00000000000E+00  0.99999998245E-14  0.12509000000E+03  0.12509000000E+03 0.  0.
        -13    1    3    3    0    0 -0.90454739468E+01  0.48352959828E+02 -0.99532273121E+01  0.50188716073E+02  0.10566000000E+00 0. -1.
         23    2    1    0    0    0  0.22740914318E+02  0.17906510492E+02  0.27882085341E+01  0.96011375397E+02  0.91502009796E+02 0.  0.
         13    1    3    3    0    0  0.31786388264E+02 -0.30446449336E+02  0.12741435846E+02  0.45822659324E+02  0.10566000000E+00 0.  1.
         22    1    1    0    0    0 -0.22740914318E+02 -0.17906510492E+02 -0.27882085341E+01  0.29078624603E+02  0.00000000000E+00 0. -1.
</event>
<event>
 5    1  0.1254921E-009  0.9118800E+02  0.7561462E-02  0.1125453E+00
         25   -1    0    0    0    0  0.00000000000E+00  0.00000000000E+00  0.99999998245E-14  0.12509000000E+03  0.12509000000E+03 0.  0.
        -13    1    3    3    0    0  0.10304050476E+01 -0.21679672601E+02 -0.41461989316E+02  0.46799333977E+02  0.10566000000E+00 0.  1.
         23    2    1    0    0    0 -0.19520103762E+02 -0.31419180627E+02 -0.80200402137E+01  0.87241348674E+02  0.78603641845E+02 0.  0.
         13    1    3    3    0    0 -0.20550508809E+02 -0.97395080267E+01  0.33441949103E+02  0.40442014697E+02  0.10566000000E+00 0. -1.
         22    1    1    0    0    0  0.19520103762E+02  0.31419180627E+02  0.80200402137E+01  0.37848651326E+02  0.00000000000E+00 0.  1.
</event>
<event>
 5    1  0.1254921E-009  0.9118800E+02  0.7561462E-02  0.1125453E+00
         25   -1    0    0    0    0  0.00000000000E+00  0.00000000000E+00  0.99999998245E-14  0.12509000000E+03  0.12509000000E+03 0.  0.
        -13    1    3    3    0    0 -0.14023406351E+02  0.30418813657E+02 -0.16428952223E+02  0.37307931933E+02  0.10566000000E+00 0.  1.
         23    2    1    0    0    0 -0.13136219956E+02 -0.26334704821E+02 -0.43248309639E+01  0.95344729526E+02  0.90586071406E+02 0.  0.
         13    1    3    3    0    0  0.88718639530E+00 -0.56753518478E+02  0.12104121259E+02  0.58036797592E+02  0.10566000000E+00 0. -1.
         22    1    1    0    0    0  0.13136219956E+02  0.26334704821E+02  0.43248309639E+01  0.29745270474E+02  0.00000000000E+00 0. -1.
</event>
<event>
 5    1  0.1254921E-009  0.9118800E+02  0.7561462E-02  0.1125453E+00
         25   -1    0    0    0    0  0.00000000000E+00  0.00000000000E+00  0.99999998245E-14  0.12509000000E+03  0.12509000000E+03 0.  0.
        -13    1    3    3    0    0 -0.12124754842E+02 -0.35640776808E+02 -0.21864534651E+00  0.37647491567E+02  0.10566000000E+00 0. -1.
         23    2    1    0    0    0  0.15975702507E+01  0.14381637104E+02  0.25672135205E+02  0.95620655886E+02  0.90966299197E+02 0.  0.
         13    1    3    3    0    0  0.13722325093E+02  0.50022413912E+02  0.25890780552E+02  0.57973164319E+02  0.10566000000E+00 0.  1.
         22    1    1    0    0    0 -0.15975702507E+01 -0.14381637104E+02 -0.25672135205E+02  0.29469344114E+02  0.00000000000E+00 0.  1.
</event>
<event>
 5    1  0.1254921E-009  0.9118800E+02  0.7561462E-02  0.1125453E+00
         25   -1    0    0    0    0  0.00000000000E+00  0.00000000000E+00  0.99999998245E-14  0.12509000000E+03  0.12509000000E+03 0.  0.
        -13    1    3    3    0    0  0.34557856800E+02  0.50447112855E+02 -0.13133680865E+01  0.61162838078E+02  0.10566000000E+00 0. -1.
         23    2    1    0    0    0  0.95490104521E+01  0.26869501394E+02  0.50853352016E+01  0.96124255751E+02  0.91656195665E+02 0.  0.
         13    1    3    3    0    0 -0.25008846348E+02 -0.23577611461E+02  0.63987032881E+01  0.34961417673E+02  0.10566000000E+00 0.  1.
         22    1    1    0    0    0 -0.95490104521E+01 -0.26869501394E+02 -0.50853352016E+01  0.28965744249E+02  0.00000000000E+00 0. -1.
</event>
<event>
 5    1  0.1254921E-009  0.9118800E+02  0.7561462E-02  0.1125453E+00
         25   -1    0    0    0    0  0.00000000000E+00  0.00000000000E+00  0.99999998245E-14  0.12509000000E+03  0.12509000000E+03 0.  0.
        -13    1    3    3    0    0 -0.39600578951E+02 -0.54250962264E+01  0.18045879674E+02  0.43855472401E+02  0.10566000000E+00 0. -1.
         23    2    1    0    0    0  0.95258066778E+01 -0.10243894724E+02  0.27612615306E+02  0.94136245850E+02  0.88901619145E+02 0.  0.
         13    1    3    3    0    0  0.49126385628E+02 -0.48187984978E+01  0.95667356315E+01  0.50280773448E+02  0.10566000000E+00 0.  1.
         22    1    1    0    0    0 -0.95258066778E+01  0.10243894724E+02 -0.27612615306E+02  0.30953754150E+02  0.00000000000E+00 0. -1.
</event>
<event>
 5    1  0.1254921E-009  0.9118800E+02  0.7561462E-02  0.1125453E+00
         25   -1    0    0    0    0  0.00000000000E+00  0.00000000000E+00  0.99999998245E-14  0.12509000000E+03  0.12509000000E+03 0.  0.
        -13    1    3    3    0    0 -0.48734925533E+02  0.42159041609E+01 -0.47950771429E+01  0.49151508049E+02  0.10566000000E+00 0. -1.
         23    2    1    0    0    0 -0.12246629674E+02 -0.20444667880E+02 -0.18106855129E+02  0.95159704549E+02  0.90330209698E+02 0.  0.
         13    1    3    3    0    0  0.36488295859E+02 -0.24660572041E+02 -0.13311777986E+02  0.46008196501E+02  0.10566000000E+00 0.  1.
         22    1    1    0    0    0  0.12246629674E+02  0.20444667880E+02  0.18106855129E+02  0.29930295451E+02  0.00000000000E+00 0. -1.
</event>
<event>
 5    1  0.1254921E-009  0.9118800E+02  0.7561462E-02  0.1125453E+00
         25   -1    0    0    0    0  0.00000000000E+00  0.00000000000E+00  0.99999998245E-14  0.12509000000E+03  0.12509000000E+03 0.  0.
        -13    1    3    3    0    0  0.19588800912E+02  0.10097546747E+02 -0.25994604542E+02  0.34079498247E+02  0.10566000000E+00 0.  1.
         23    2    1    0    0    0 -0.20264792615E+02  0.60280059975E+00  0.20642965037E+02  0.96156331138E+02  0.91699960873E+02 0.  0.
         13    1    3    3    0    0 -0.39853593527E+02 -0.94947461471E+01  0.46637569579E+02  0.62076832890E+02  0.10566000000E+00 0. -1.
         22    1    1    0    0    0  0.20264792615E+02 -0.60280059975E+00 -0.20642965037E+02  0.28933668862E+02  0.00000000000E+00 0. -1.
</event>
<event>
 5    1  0.1254921E-009  0.9118800E+02  0.7561462E-02  0.1125453E+00
         25   -1    0    0    0    0  0.00000000000E+00  0.00000000000E+00  0.99999998245E-14  0.12509000000E+03  0.12509000000E+03 0.  0.
        -13    1    3    3    0    0 -0.33582722657E+02 -0.83154429328E+01 -0.50749263518E+01  0.34967297490E+02  0.10566000000E+00 0. -1.
         23    2    1    0    0    0  0.27698200448E+02 -0.42728415257E+00 -0.59348084430E+01  0.96759895322E+02  0.92519633115E+02 0.  0.
         13    1    3    3    0    0  0.61280923105E+02  0.78881587802E+01 -0.85988209114E+00  0.61792597832E+02  0.10566000000E+00 0.  1.
         22    1    1    0    0    0 -0.27698200448E+02  0.42728415257E+00  0.59348084430E+01  0.28330104678E+02  0.00000000000E+00 0.  1.
</event>
<event>
 5    1  0.1254921E-009  0.9118800E+02  0.7561462E-02  0.1125453E+00
         25   -1    0    0    0    0  0.00000000000E+00  0.00000000000E+00  0.99999998245E-14  0.12509000000E+03  0.12509000000E+03 0.  0.
        -13    1    3    3    0    0  0.30335505731E+02 -0.72823072732E+01  0.14627367010E+02  0.34456435348E+02  0.10566000000E+00 0. -1.
         23    2    1    0    0    0 -0.10028769951E+02  0.97285665718E+01 -0.26876252520E+02  0.94798843142E+02  0.89829095940E+02 0.  0.
         13    1    3    3    0    0 -0.40364275682E+02  0.17010873845E+02 -0.41503619530E+02  0.60342407794E+02  0.10566000000E+00 0.  1.
         22    1    1    0    0    0  0.10028769951E+02 -0.97285665718E+01  0.26876252520E+02  0.30291156858E+02  0.00000000000E+00 0.  1.
</event>
<event>
 5    1  0.1254921E-009  0.9118800E+02  0.7561462E-02  0.1125453E+00
         25   -1    0    0    0    0  0.00000000000E+00  0.00000000000E+00  0.99999998245E-14  0.12509000000E+03  0.12509000000E+03 0.  0.
        -13    1    3    3    0    0  0.11335409851E+01 -0.39397012988E+02 -0.46576916396E+02  0.61014996948E+02  0.10566000000E+00 0. -1.
         23    2    1    0    0    0 -0.86425435648E+01 -0.13680355660E+02 -0.20991424074E+02  0.98585555563E+02  0.94955917092E+02 0.  0.
         13    1    3    3    0    0 -0.97760845499E+01  0.25716657328E+02  0.25585492322E+02  0.37570558615E+02  0.10566000000E+00 0.  1.
         22    1    1    0    0    0  0.86425435648E+01  0.13680355660E+02  0.20991424074E+02  0.26504444437E+02  0.00000000000E+00 0. -1.
</event>
<event>
 5    1  0.1254921E-009  0.9118800E+02  0.7561462E-02  0.1125453E+00
         25   -1    0    0    0    0  0.00000000000E+00  0.00000000000E+00  0.99999998245E-14  0.12509000000E+03  0.12509000000E+03 0.  0.
        -13    1    3    3    0    0 -0.29004273164E+02 -0.14182868942E+02  0.12842771677E+02  0.34746936291E+02  0.10566000000E+00 0. -1.
         23    2    1    0    0    0  0.12947498047E+02  0.23575890923E+02 -0.11015925602E+02  0.96024368141E+02  0.91519770113E+02 0.  0.
         13    1    3    3    0    0  0.41951771211E+02  0.37758759865E+02 -0.23858697279E+02  0.61277431850E+02  0.10566000000E+00 0.  1.
         22    1    1    0    0    0 -0.12947498047E+02 -0.23575890923E+02  0.11015925602E+02  0.29065631859E+02  0.00000000000E+00 0.  1.
</event>
<event>
 5    1  0.1254921E-009  0.9118800E+02  0.7561462E-02  0.1125453E+00
         25   -1    0    0    0    0  0.00000000000E+00  0.00000000000E+00  0.99999998245E-14  0.12509000000E+03  0.12509000000E+03 0.  0.
        -13    1    3    3    0    0 -0.54627561807E+02 -0.20158216151E+02  0.11871028909E+02  0.59426060603E+02  0.10566000000E+00 0.  1.
         23    2    1    0    0    0 -0.24383660077E+02 -0.18470115452E+02 -0.49939696526E+01  0.94095681546E+02  0.88844524362E+02 0.  0.
         13    1    3    3    0    0  0.30243901730E+02  0.16881006997E+01 -0.16864998562E+02  0.34669620943E+02  0.10566000000E+00 0. -1.
         22    1    1    0    0    0  0.24383660077E+02  0.18470115452E+02  0.49939696526E+01  0.30994318454E+02  0.00000000000E+00 0.  1.
</event>
<event>
 5    1  0.1254921E-009  0.9118800E+02  0.7561462E-02  0.1125453E+00
         25   -1    0    0    0    0  0.00000000000E+00  0.00000000000E+00  0.99999998245E-14  0.12509000000E+03  0.12509000000E+03 0.  0.
        -13    1    3    3    0    0 -0.31905826387E+02 -0.11220476050E+02 -0.28420111620E+02  0.44176857615E+02  0.10566000000E+00 0.  1.
         23    2    1    0    0    0  0.15621757740E+02  0.82028106405E+01 -0.23425858413E+02  0.95762602235E+02  0.91161284146E+02 0.  0.
         13    1    3    3    0    0  0.47527584127E+02  0.19423286691E+02  0.49942532062E+01  0.51585744620E+02  0.10566000000E+00 0. -1.
         22    1    1    0    0    0 -0.15621757740E+02 -0.82028106405E+01  0.23425858413E+02  0.29327397765E+02  0.00000000000E+00 0.  1.
</event>
<event>
 5    1  0.1254921E-009  0.9118800E+02  0.7561462E-02  0.1125453E+00
         25   -1    0    0    0    0  0.00000000000E+00  0.00000000000E+00  0.99999998245E-14  0.12509000000E+03  0.12509000000E+03 0.  0.
        -13    1    3    3    0    0  0.81234258694E+01  0.29558505541E+02 -0.24327845211E+02  0.39135029249E+02  0.10566000000E+00 0. -1.
         23    2    1    0    0    0 -0.19521346120E+02  0.73553784862E+01  0.20197335222E+02  0.96053524713E+02  0.91559612891E+02 0.  0.
         13    1    3    3    0    0 -0.27644771989E+02 -0.22203127055E+02  0.44525180432E+02  0.56918495464E+02  0.10566000000E+00 0.  1.
         22    1    1    0    0    0  0.19521346120E+02 -0.73553784862E+01 -0.20197335222E+02  0.29036475287E+02  0.00000000000E+00 0.  1.
</event>
<event>
 5    1  0.1254921E-009  0.9118800E+02  0.7561462E-02  0.1125453E+00
         25   -1    0    0    0    0  0.00000000000E+00  0.00000000000E+00  0.99999998245E-14  0.12509000000E+03  0.12509000000E+03 0.  0.
        -13    1    3    3    0    0  0.88385700261E+01  0.12067787883E+02  0.32224386948E+02  0.35527089702E+02  0.10566000000E+00 0.  1.
         23    2    1    0    0    0 -0.24606536974E+02 -0.45465918329E+00 -0.16148150469E+02  0.95654457871E+02  0.91012769270E+02 0.  0.
         13    1    3    3    0    0 -0.33445107000E+02 -0.12522447066E+02 -0.48372537417E+02  0.60127368169E+02  0.10566000000E+00 0. -1.
         22    1    1    0    0    0  0.24606536974E+02  0.45465918329E+00  0.16148150469E+02  0.29435542129E+02  0.00000000000E+00 0. -1.
</event>
<event>
 5    1  0.1254921E-009  0.9118800E+02  0.7561462E-02  0.1125453E+00
         25   -1    0    0    0    0  0.00000000000E+00  0.00000000000E+00  0.99999998245E-14  0.12509000000E+03  0.12509000000E+03 0.  0.
        -13    1    3    3    0    0 -0.48100098374E+02  0.17614756649E+02 -0.33570400357E+02  0.61244445132E+02  0.10566000000E+00 0.  1.
         23    2    1    0    0    0 -0.27340117130E+02  0.31421553000E+01 -0.10054371309E+02  0.95790758934E+02  0.91199912117E+02 0.  0.
         13    1    3    3    0    0  0.20759981244E+02 -0.14472601349E+02  0.23516029048E+02  0.34546313802E+02  0.10566000000E+00 0. -1.
         22    1    1    0    0    0  0.27340117130E+02 -0.31421553000E+01  0.10054371309E+02  0.29299241066E+02  0.00000000000E+00 0.  1.
</event>
<event>
 5    1  0.1254921E-009  0.9118800E+02  0.7561462E-02  0.1125453E+00
         25   -1    0    0    0    0  0.00000000000E+00  0.00000000000E+00  0.99999998245E-14  0.12509000000E+03  0.12509000000E+03 0.  0.
        -13    1    3    3    0    0 -0.32978726353E+02  0.30906353852E+02 -0.26480396787E+02  0.52383410336E+02  0.10566000000E+00 0.  1.
         23    2    1    0    0    0 -0.38850969155E+02  0.35047799943E+01 -0.10294656538E+02  0.84745716138E+02  0.74526338723E+02 0.  0.
         13    1    3    3    0    0 -0.58722428016E+01 -0.27401573858E+02  0.16185740249E+02  0.32362305803E+02  0.10566000000E+00 0. -1.
         22    1    1    0    0    0  0.38850969155E+02 -0.35047799943E+01  0.10294656538E+02  0.40344283862E+02  0.00000000000E+00 0.  1.
</event>
<event>
 5    1  0.1254921E-009  0.9118800E+02  0.7561462E-02  0.1125453E+00
         25   -1    0    0    0    0  0.00000000000E+00  0.00000000000E+00  0.99999998245E-14  0.12509000000E+03  0.12509000000E+03 0.  0.
        -13    1    3    3    0    0  0.14744051754E+02  0.59122419284E+00  0.31864077721E+02  0.35115056902E+02  0.10566000000E+00 0.  1.
         23    2    1    0    0    0 -0.56850163285E+01 -0.20371993113E+02 -0.20837061409E+02  0.95399586695E+02  0.90661791838E+02 0.  0.
         13    1    3    3    0    0 -0.20429068083E+02 -0.20963217306E+02 -0.52701139131E+02  0.60284529792E+02  0.10566000000E+00 0. -1.
         22    1    1    0    0    0  0.56850163285E+01  0.20371993113E+02  0.20837061409E+02  0.29690413305E+02  0.00000000000E+00 0. -1.
</event>
<event>
 5    1  0.1254921E-009  0.9118800E+02  0.7561462E-02  0.1125453E+00
         25   -1    0    0    0    0  0.00000000000E+00  0.00000000000E+00  0.99999998245E-14  0.12509000000E+03  0.12509000000E+03 0.  0.
        -13    1    3    3    0    0  0.44633108491E+02  0.14654410243E+02  0.25063288699E+02  0.53245147362E+02  0.10566000000E+00 0.  1.
         23    2    1    0    0    0  0.26899140575E+02  0.74060025636E+01 -0.11805921483E+02  0.94794910964E+02  0.89823620084E+02 0.  0.
         13    1    3    3    0    0 -0.17733967916E+02 -0.72484076790E+01 -0.36869210182E+02  0.41549763602E+02  0.10566000000E+00 0. -1.
         22    1    1    0    0    0 -0.26899140575E+02 -0.74060025636E+01  0.11805921483E+02  0.30295089036E+02  0.00000000000E+00 0. -1.
</event>
<event>
 5    1  0.1254921E-009  0.9118800E+02  0.7561462E-02  0.1125453E+00
         25   -1    0    0    0    0  0.00000000000E+00  0.00000000000E+00  0.99999998245E-14  0.12509000000E+03  0.12509000000E+03 0.  0.
        -13    1    3    3    0    0 -0.36899930100E+02  0.29943001779E+02 -0.25124642021E+02  0.53753576603E+02  0.10566000000E+00 0.  1.
         23    2    1    0    0    0 -0.42924656957E+01  0.42047933151E+01 -0.28998487996E+02  0.95475512758E+02  0.90766489861E+02 0.  0.
         13    1    3    3    0    0  0.32607464404E+02 -0.25738208464E+02 -0.38738459749E+01  0.41721936154E+02  0.10566000000E+00 0. -1.
         22    1    1    0    0    0  0.42924656957E+01 -0.42047933151E+01  0.28998487996E+02  0.29614487242E+02  0.00000000000E+00 0.  1.
</event>
<event>
 5    1  0.1254921E-009  0.9118800E+02  0.7561462E-02  0.1125453E+00
         25   -1    0    0    0    0  0.00000000000E+00  0.00000000000E+00  0.99999998245E-14  0.12509000000E+03  0.12509000000E+03 0.  0.
        -13    1    3    3    0    0 -0.13921850610E+02  0.46119892015E+02  0.36349826368E+02  0.60350504595E+02  0.10566000000E+00 0.  1.
         23    2    1    0    0    0 -0.18404318407E+02  0.24297520146E+02  0.26464606817E+02  0.84723382167E+02  0.74488842457E+02 0.  0.
         13    1    3    3    0    0 -0.44824677971E+01 -0.21822371869E+02 -0.98852195516E+01  0.24372877572E+02  0.10566000000E+00 0. -1.
         22    1    1    0    0    0  0.18404318407E+02 -0.24297520146E+02 -0.26464606817E+02  0.40366617833E+02  0.00000000000E+00 0.  1.
</event>
<event>
 5    1  0.1254921E-009  0.9118800E+02  0.7561462E-02  0.1125453E+00
         25   -1    0    0    0    0  0.00000000000E+00  0.00000000000E+00  0.99999998245E-14  0.12509000000E+03  0.12509000000E+03 0.  0.
        -13    1    3    3    0    0  0.32172635810E+02 -0.38892638901E+01 -0.38286763744E+02  0.50160664974E+02  0.10566000000E+00 0. -1.
         23    2    1    0    0    0  0.40292345177E+01  0.24198268486E+02 -0.16810708751E+02  0.95351290256E+02  0.90595130643E+02 0.  0.
         13    1    3    3    0    0 -0.28143401293E+02  0.28087532376E+02  0.21476054993E+02  0.45190625282E+02  0.10566000000E+00 0.  1.
         22    1    1    0    0    0 -0.40292345177E+01 -0.24198268486E+02  0.16810708751E+02  0.29738709744E+02  0.00000000000E+00 0.  1.
</event>
<event>
 5    1  0.1254921E-009  0.9118800E+02  0.7561462E-02  0.1125453E+00
         25   -1    0    0    0    0  0.00000000000E+00  0.00000000000E+00  0.99999998245E-14  0.12509000000E+03  0.12509000000E+03 0.  0.
        -13    1    3    3    0    0 -0.10635761544E+02  0.39335112548E+02  0.27210281247E+02  0.48997765993E+02  0.10566000000E+00 0. -1.
         23    2    1    0    0    0  0.23822240520E+02  0.10750659918E+02  0.12461552113E+02  0.96135447454E+02  0.91671468539E+02 0.  0.
         13    1    3    3    0    0  0.34458002064E+02 -0.28584452630E+02 -0.14748729134E+02  0.47137681461E+02  0.10566000000E+00 0.  1.
         22    1    1    0    0    0 -0.23822240520E+02 -0.10750659918E+02 -0.12461552113E+02  0.28954552546E+02  0.00000000000E+00 0.  1.
</event>
<event>
 5    1  0.1254921E-009  0.9118800E+02  0.7561462E-02  0.1125453E+00
         25   -1    0    0    0    0  0.00000000000E+00  0.00000000000E+00  0.99999998245E-14  0.12509000000E+03  0.12509000000E+03 0.  0.
        -13    1    3    3    0    0  0.46159460427E+02  0.91388116394E+01 -0.20398789163E+02  0.51286795849E+02  0.10566000000E+00 0. -1.
         23    2    1    0    0    0  0.62194471592E+01  0.26609192206E+02 -0.83949290869E+01  0.96503194176E+02  0.92171910141E+02 0.  0.
         13    1    3    3    0    0 -0.39940013268E+02  0.17470380567E+02  0.12003860076E+02  0.45216398328E+02  0.10566000000E+00 0.  1.
         22    1    1    0    0    0 -0.62194471592E+01 -0.26609192206E+02  0.83949290869E+01  0.28586805824E+02  0.00000000000E+00 0. -1.
</event>
<event>
 5    1  0.1254921E-009  0.9118800E+02  0.7561462E-02  0.1125453E+00
         25   -1    0    0    0    0  0.00000000000E+00  0.00000000000E+00  0.99999998245E-14  0.12509000000E+03  0.12509000000E+03 0.  0.
        -13    1    3    3    0    0  0.16945344135E+02  0.10207273639E+02 -0.28244456544E+02  0.34483236688E+02  0.10566000000E+00 0. -1.
         23    2    1    0    0    0  0.26879010179E+01 -0.84829963003E+01  0.28142486174E+02  0.95574147206E+02  0.90902321466E+02 0.  0.
         13    1    3    3    0    0 -0.14257443117E+02 -0.18690269940E+02  0.56386942718E+02  0.61090910517E+02  0.10566000000E+00 0.  1.
         22    1    1    0    0    0 -0.26879010179E+01  0.84829963003E+01 -0.28142486174E+02  0.29515852794E+02  0.00000000000E+00 0.  1.
</event>
<event>
 5    1  0.1254921E-009  0.9118800E+02  0.7561462E-02  0.1125453E+00
         25   -1    0    0    0    0  0.00000000000E+00  0.00000000000E+00  0.99999998245E-14  0.12509000000E+03  0.12509000000E+03 0.  0.
        -13    1    3    3    0    0  0.19568545352E+02 -0.29579104062E+02  0.48955116680E+02  0.60452179262E+02  0.10566000000E+00 0.  1.
         23    2    1    0    0    0 -0.15088697135E+01 -0.11943431156E+02  0.26649980836E+02  0.95847159609E+02  0.91277238625E+02 0.  0.
         13    1    3    3    0    0 -0.21077415065E+02  0.17635672906E+02 -0.22305135844E+02  0.35394980347E+02  0.10566000000E+00 0. -1.
         22    1    1    0    0    0  0.15088697135E+01  0.11943431156E+02 -0.26649980836E+02  0.29242840391E+02  0.00000000000E+00 0.  1.
</event>
<event>
 5    1  0.1254921E-009  0.9118800E+02  0.7561462E-02  0.1125453E+00
         25   -1    0    0    0    0  0.00000000000E+00  0.00000000000E+00  0.99999998245E-14  0.12509000000E+03  0.12509000000E+03 0.  0.
        -13    1    3    3    0    0 -0.55584959732E+02 -0.10102560673E+02 -0.16225888580E+02  0.58779589185E+02  0.10566000000E+00 0.  1.
         23    2    1    0    0    0 -0.21495003179E+02  0.87474614408E+01 -0.14403425357E+02  0.97776781491E+02  0.93884434777E+02 0.  0.
         13    1    3    3    0    0  0.34089956553E+02  0.18850022114E+02  0.18224632235E+01  0.38997192305E+02  0.10566000000E+00 0. -1.
         22    1    1    0    0    0  0.21495003179E+02 -0.87474614408E+01  0.14403425357E+02  0.27313218509E+02  0.00000000000E+00 0.  1.
</event>
<event>
 5    1  0.1254921E-009  0.9118800E+02  0.7561462E-02  0.1125453E+00
         25   -1    0    0    0    0  0.00000000000E+00  0.00000000000E+00  0.99999998245E-14  0.12509000000E+03  0.12509000000E+03 0.  0.
        -13    1    3    3    0    0 -0.51684402493E+00  0.71018924381E+01  0.31084586163E+02  0.31889914784E+02  0.10566000000E+00 0.  1.
         23    2    1    0    0    0 -0.27580280290E+02 -0.66554220825E+01 -0.19343389141E+02  0.90751490897E+02  0.84004165924E+02 0.  0.
         13    1    3    3    0    0 -0.27063436265E+02 -0.13757314521E+02 -0.50427975304E+02  0.58861576113E+02  0.10566000000E+00 0. -1.
         22    1    1    0    0    0  0.27580280290E+02  0.66554220825E+01  0.19343389141E+02  0.34338509103E+02  0.00000000000E+00 0. -1.
</event>
<event>
 5    1  0.1254921E-009  0.9118800E+02  0.7561462E-02  0.1125453E+00
         25   -1    0    0    0    0  0.00000000000E+00  0.00000000000E+00  0.99999998245E-14  0.12509000000E+03  0.12509000000E+03 0.  0.
        -13    1    3    3    0    0  0.17070410751E+02 -0.93253854026E+01 -0.52848202021E+02  0.56314344150E+02  0.10566000000E+00 0.  1.
         23    2    1    0    0    0 -0.31900015557E+01 -0.20071545704E+02 -0.18550450121E+02  0.97573418516E+02  0.93613085327E+02 0.  0.
         13    1    3    3    0    0 -0.20260412307E+02 -0.10746160302E+02  0.34297751901E+02  0.41259074366E+02  0.10566000000E+00 0. -1.
         22    1    1    0    0    0  0.31900015557E+01  0.20071545704E+02  0.18550450121E+02  0.27516581484E+02  0.00000000000E+00 0. -1.
</event>
<event>
 5    1  0.1254921E-009  0.9118800E+02  0.7561462E-02  0.1125453E+00
         25   -1    0    0    0    0  0.00000000000E+00  0.00000000000E+00  0.99999998245E-14  0.12509000000E+03  0.12509000000E+03 0.  0.
        -13    1    3    3    0    0 -0.22762164627E+02  0.16477457405E+02  0.39554624278E+02  0.48520121670E+02  0.10566000000E+00 0.  1.
         23    2    1    0    0    0  0.36322214500E+01  0.29229671629E+02  0.28438881018E+01  0.95498541169E+02  0.90798220961E+02 0.  0.
         13    1    3    3    0    0  0.26394386077E+02  0.12752214224E+02 -0.36710736176E+02  0.46978419499E+02  0.10566000000E+00 0. -1.
         22    1    1    0    0    0 -0.36322214500E+01 -0.29229671629E+02 -0.28438881018E+01  0.29591458831E+02  0.00000000000E+00 0. -1.
</event>
<event>
 5    1  0.1254921E-009  0.9118800E+02  0.7561462E-02  0.1125453E+00
         25   -1    0    0    0    0  0.00000000000E+00  0.00000000000E+00  0.99999998245E-14  0.12509000000E+03  0.12509000000E+03 0.  0.
        -13    1    3    3    0    0 -0.47151940937E+02 -0.22343046111E+02  0.54868405523E+01  0.52465548953E+02  0.10566000000E+00 0. -1.
         23    2    1    0    0    0 -0.21163536995E+02 -0.81258569261E+00 -0.20922538715E+02  0.95319070893E+02  0.90550632554E+02 0.  0.
         13    1    3    3    0    0  0.25988403943E+02  0.21530460419E+02 -0.26409379267E+02  0.42853521940E+02  0.10566000000E+00 0.  1.
         22    1    1    0    0    0  0.21163536995E+02  0.81258569261E+00  0.20922538715E+02  0.29770929107E+02  0.00000000000E+00 0.  1.
</event>
<event>
 5    1  0.1254921E-009  0.9118800E+02  0.7561462E-02  0.1125453E+00
         25   -1    0    0    0    0  0.00000000000E+00  0.00000000000E+00  0.99999998245E-14  0.12509000000E+03  0.12509000000E+03 0.  0.
        -13    1    3    3    0    0 -0.68867390566E+01 -0.58176964038E+02 -0.21900110040E+02  0.62542883715E+02  0.10566000000E+00 0.  1.
         23    2    1    0    0    0 -0.28102902197E+01 -0.26734233527E+02 -0.10125753147E+02  0.96364613141E+02  0.91983644284E+02 0.  0.
         13    1    3    3    0    0  0.40764488370E+01  0.31442730512E+02  0.11774356893E+02  0.33821729427E+02  0.10566000000E+00 0. -1.
         22    1    1    0    0    0  0.28102902197E+01  0.26734233527E+02  0.10125753147E+02  0.28725386859E+02  0.00000000000E+00 0.  1.
</event>
<event>
 5    1  0.1254921E-009  0.9118800E+02  0.7561462E-02  0.1125453E+00
         25   -1    0    0    0    0  0.00000000000E+00  0.00000000000E+00  0.99999998245E-14  0.12509000000E+03  0.12509000000E+03 0.  0.
        -13    1    3    3    0    0  0.35231895496E+02 -0.10680094388E+02 -0.18031279489E+02  0.40993768800E+02  0.10566000000E+00 0. -1.
         23    2    1    0    0    0  0.54456011639E+01 -0.28185888220E+01  0.28024284974E+02  0.96402728201E+02  0.92035462955E+02 0.  0.
         13    1    3    3    0    0 -0.29786294332E+02  0.78615055658E+01  0.46055564463E+02  0.55408959401E+02  0.10566000000E+00 0.  1.
         22    1    1    0    0    0 -0.54456011639E+01  0.28185888220E+01 -0.28024284974E+02  0.28687271799E+02  0.00000000000E+00 0.  1.
</event>
<event>
 5    1  0.1254921E-009  0.9118800E+02  0.7561462E-02  0.1125453E+00
         25   -1    0    0    0    0  0.00000000000E+00  0.00000000000E+00  0.99999998245E-14  0.12509000000E+03  0.12509000000E+03 0.  0.
        -13    1    3    3    0    0  0.50200015159E+02  0.25447862590E+01  0.36916920156E+02  0.62364955039E+02  0.10566000000E+00 0.  1.
         23    2    1    0    0    0  0.20558707221E+02  0.92037717948E+00  0.11092622097E+02  0.10171150985E+03  0.98988269174E+02 0.  0.
         13    1    3    3    0    0 -0.29641307938E+02 -0.16244090795E+01 -0.25824298060E+02  0.39346554811E+02  0.10566000000E+00 0. -1.
         22    1    1    0    0    0 -0.20558707221E+02 -0.92037717948E+00 -0.11092622097E+02  0.23378490151E+02  0.00000000000E+00 0.  1.
</event>
<event>
 5    1  0.1254921E-009  0.9118800E+02  0.7561462E-02  0.1125453E+00
         25   -1    0    0    0    0  0.00000000000E+00  0.00000000000E+00  0.99999998245E-14  0.12509000000E+03  0.12509000000E+03 0.  0.
        -13    1    3    3    0    0  0.18010155082E+02  0.60424039622E+01 -0.30586045292E+02  0.36005467118E+02  0.10566000000E+00 0.  1.
         23    2    1    0    0    0 -0.88882925128E+01  0.16884779673E+02  0.21944325316E+02  0.96009921906E+02  0.91500022745E+02 0.  0.
         13    1    3    3    0    0 -0.26898447595E+02  0.10842375711E+02  0.52530370609E+02  0.60004454788E+02  0.10566000000E+00 0. -1.
         22    1    1    0    0    0  0.88882925128E+01 -0.16884779673E+02 -0.21944325316E+02  0.29080078094E+02  0.00000000000E+00 0. -1.
</event>
<event>
 5    1  0.1254921E-009  0.9118800E+02  0.7561462E-02  0.1125453E+00
         25   -1    0    0    0    0  0.00000000000E+00  0.00000000000E+00  0.99999998245E-14  0.12509000000E+03  0.12509000000E+03 0.  0.
        -13    1    3    3    0    0 -0.56379022338E+02 -0.50217279684E+01  0.19902976859E+02  0.59999596361E+02  0.10566000000E+00 0. -1.
         23    2    1    0    0    0 -0.28372319828E+02  0.75217239328E+01  0.16809208947E+01  0.95689483705E+02  0.91060896840E+02 0.  0.
         13    1    3    3    0    0  0.28006702510E+02  0.12543451901E+02 -0.18222055964E+02  0.35689887345E+02  0.10566000000E+00 0.  1.
         22    1    1    0    0    0  0.28372319828E+02 -0.75217239328E+01 -0.16809208947E+01  0.29400516295E+02  0.00000000000E+00 0. -1.
</event>
<event>
 5    1  0.1254921E-009  0.9118800E+02  0.7561462E-02  0.1125453E+00
         25   -1    0    0    0    0  0.00000000000E+00  0.00000000000E+00  0.99999998245E-14  0.12509000000E+03  0.12509000000E+03 0.  0.
        -13    1    3    3    0    0 -0.28836641013E+02 -0.10254018312E+02 -0.18673312501E+02  0.35852482763E+02  0.10566000000E+00 0.  1.
         23    2    1    0    0    0  0.23271645340E+02 -0.22752136933E+02 -0.16890023198E+00  0.92543759985E+02  0.86631921213E+02 0.  0.
         13    1    3    3    0    0  0.52108286353E+02 -0.12498118620E+02  0.18504412269E+02  0.56691277222E+02  0.10566000000E+00 0. -1.
         22    1    1    0    0    0 -0.23271645340E+02  0.22752136933E+02  0.16890023198E+00  0.32546240015E+02  0.00000000000E+00 0. -1.
</event>
<event>
 5    1  0.1254921E-009  0.9118800E+02  0.7561462E-02  0.1125453E+00
         25   -1    0    0    0    0  0.00000000000E+00  0.00000000000E+00  0.99999998245E-14  0.12509000000E+03  0.12509000000E+03 0.  0.
        -13    1    3    3    0    0 -0.19615240002E+02  0.17759136255E+02 -0.39676329004E+02  0.47690321955E+02  0.10566000000E+00 0. -1.
         23    2    1    0    0    0 -0.16107037295E+02 -0.21597998947E+02 -0.15911126648E+02  0.93799839244E+02  0.88427007650E+02 0.  0.
         13    1    3    3    0    0  0.35082027075E+01 -0.39357135202E+02  0.23765202356E+02  0.46109517289E+02  0.10566000000E+00 0.  1.
         22    1    1    0    0    0  0.16107037295E+02  0.21597998947E+02  0.15911126648E+02  0.31290160756E+02  0.00000000000E+00 0. -1.
</event>
<event>
 5    1  0.1254921E-009  0.9118800E+02  0.7561462E-02  0.1125453E+00
         25   -1    0    0    0    0  0.00000000000E+00  0.00000000000E+00  0.99999998245E-14  0.12509000000E+03  0.12509000000E+03 0.  0.
        -13    1    3    3    0    0  0.11873285780E+02  0.19317532003E+02  0.16284026705E+02  0.27916350902E+02  0.10566000000E+00 0. -1.
         23    2    1    0    0    0 -0.76913972575E+01 -0.34548047646E+02 -0.55894579845E+01  0.89257511551E+02  0.81749227151E+02 0.  0.
         13    1    3    3    0    0 -0.19564683038E+02 -0.53865579649E+02 -0.21873484690E+02  0.61341160649E+02  0.10566000000E+00 0.  1.
         22    1    1    0    0    0  0.76913972575E+01  0.34548047646E+02  0.55894579845E+01  0.35832488449E+02  0.00000000000E+00 0.  1.
</event>
<event>
 5    1  0.1254921E-009  0.9118800E+02  0.7561462E-02  0.1125453E+00
         25   -1    0    0    0    0  0.00000000000E+00  0.00000000000E+00  0.99999998245E-14  0.12509000000E+03  0.12509000000E+03 0.  0.
        -13    1    3    3    0    0 -0.31232601475E+02  0.12524697939E+02  0.17647000850E+02  0.37996990097E+02  0.10566000000E+00 0.  1.
         23    2    1    0    0    0  0.27399569824E+01 -0.19264808570E+02 -0.19506269977E+02  0.97537599344E+02  0.93565209901E+02 0.  0.
         13    1    3    3    0    0  0.33972558458E+02 -0.31789506509E+02 -0.37153270828E+02  0.59540609247E+02  0.10566000000E+00 0. -1.
         22    1    1    0    0    0 -0.27399569824E+01  0.19264808570E+02  0.19506269977E+02  0.27552400656E+02  0.00000000000E+00 0. -1.
</event>
<event>
 5    1  0.1254921E-009  0.9118800E+02  0.7561462E-02  0.1125453E+00
         25   -1    0    0    0    0  0.00000000000E+00  0.00000000000E+00  0.99999998245E-14  0.12509000000E+03  0.12509000000E+03 0.  0.
        -13    1    3    3    0    0 -0.45698330749E+02  0.39077551214E+02 -0.41178262529E+01  0.60269064198E+02  0.10566000000E+00 0. -1.
         23    2    1    0    0    0 -0.18544946922E+02  0.23552712133E+02  0.83978287035E+01  0.93958523451E+02  0.88651200200E+02 0.  0.
         13    1    3    3    0    0  0.27153383827E+02 -0.15524839081E+02  0.12515654956E+02  0.33689459253E+02  0.10566000000E+00 0.  1.
         22    1    1    0    0    0  0.18544946922E+02 -0.23552712133E+02 -0.83978287035E+01  0.31131476549E+02  0.00000000000E+00 0. -1.
</event>
<event>
 5    1  0.1254921E-009  0.9118800E+02  0.7561462E-02  0.1125453E+00
         25   -1    0    0    0    0  0.00000000000E+00  0.00000000000E+00  0.99999998245E-14  0.12509000000E+03  0.12509000000E+03 0.  0.
        -13    1    3    3    0    0 -0.69303208270E+01  0.19431392037E+02 -0.25930346632E+02  0.33136119021E+02  0.10566000000E+00 0.  1.
         23    2    1    0    0    0  0.85466670845E+01 -0.30984419180E+02  0.21362473700E+01  0.92877528766E+02  0.87112525200E+02 0.  0.
         13    1    3    3    0    0  0.15476987912E+02 -0.50415811217E+02  0.28066594002E+02  0.59741409745E+02  0.10566000000E+00 0. -1.
         22    1    1    0    0    0 -0.85466670845E+01  0.30984419180E+02 -0.21362473700E+01  0.32212471234E+02  0.00000000000E+00 0. -1.
</event>
<event>
 5    1  0.1254921E-009  0.9118800E+02  0.7561462E-02  0.1125453E+00
         25   -1    0    0    0    0  0.00000000000E+00  0.00000000000E+00  0.99999998245E-14  0.12509000000E+03  0.12509000000E+03 0.  0.
        -13    1    3    3    0    0 -0.25021639513E+02 -0.36996836383E+01  0.25495134149E+02  0.35913550817E+02  0.10566000000E+00 0.  1.
         23    2    1    0    0    0  0.24022387754E+02  0.16022856212E+02 -0.31599180465E+01  0.96041899947E+02  0.91543729598E+02 0.  0.
         13    1    3    3    0    0  0.49044027267E+02  0.19722539851E+02 -0.28655052196E+02  0.60128349130E+02  0.10566000000E+00 0. -1.
         22    1    1    0    0    0 -0.24022387754E+02 -0.16022856212E+02  0.31599180465E+01  0.29048100053E+02  0.00000000000E+00 0. -1.
</event>
<event>
 5    1  0.1254921E-009  0.9118800E+02  0.7561462E-02  0.1125453E+00
         25   -1    0    0    0    0  0.00000000000E+00  0.00000000000E+00  0.99999998245E-14  0.12509000000E+03  0.12509000000E+03 0.  0.
        -13    1    3    3    0    0  0.29469175322E+01  0.33447422429E+02 -0.20109689208E+01  0.33637323766E+02  0.10566000000E+00 0.  1.
         23    2    1    0    0    0 -0.33777030720E+01 -0.28120913237E+02 -0.75523849961E+01  0.95777320859E+02  0.91181478560E+02 0.  0.
         13    1    3    3    0    0 -0.63246206042E+01 -0.61568335666E+02 -0.55414160753E+01  0.62139997092E+02  0.10566000000E+00 0. -1.
         22    1    1    0    0    0  0.33777030720E+01  0.28120913237E+02  0.75523849961E+01  0.29312679141E+02  0.00000000000E+00 0. -1.
</event>
<event>
 5    1  0.1254921E-009  0.9118800E+02  0.7561462E-02  0.1125453E+00
         25   -1    0    0    0    0  0.00000000000E+00  0.00000000000E+00  0.99999998245E-14  0.12509000000E+03  0.12509000000E+03 0.  0.
        -13    1    3    3    0    0 -0.38985830441E+02 -0.19819165837E+02  0.17480793546E+02  0.47098658332E+02  0.10566000000E+00 0.  1.
         23    2    1    0    0    0  0.94243065315E+01 -0.23923625133E+02  0.14013810104E+02  0.95806143241E+02  0.91221010825E+02 0.  0.
         13    1    3    3    0    0  0.48410136973E+02 -0.41044592957E+01 -0.34669834425E+01  0.48707484908E+02  0.10566000000E+00 0. -1.
         22    1    1    0    0    0 -0.94243065315E+01  0.23923625133E+02 -0.14013810104E+02  0.29283856759E+02  0.00000000000E+00 0.  1.
</event>
<event>
 5    1  0.1254921E-009  0.9118800E+02  0.7561462E-02  0.1125453E+00
         25   -1    0    0    0    0  0.00000000000E+00  0.00000000000E+00  0.99999998245E-14  0.12509000000E+03  0.12509000000E+03 0.  0.
        -13    1    3    3    0    0 -0.34569825621E+01 -0.62248969994E+01 -0.47737347705E+02  0.48265573663E+02  0.10566000000E+00 0. -1.
         23    2    1    0    0    0  0.25828214952E+02  0.52301034390E+01 -0.11242116299E+02  0.96439767044E+02  0.92085790538E+02 0.  0.
         13    1    3    3    0    0  0.29285197514E+02  0.11455000438E+02  0.36495231406E+02  0.48174193381E+02  0.10566000000E+00 0.  1.
         22    1    1    0    0    0 -0.25828214952E+02 -0.52301034390E+01  0.11242116299E+02  0.28650232956E+02  0.00000000000E+00 0.  1.
</event>
<event>
 5    1  0.1254921E-009  0.9118800E+02  0.7561462E-02  0.1125453E+00
         25   -1    0    0    0    0  0.00000000000E+00  0.00000000000E+00  0.99999998245E-14  0.12509000000E+03  0.12509000000E+03 0.  0.
        -13    1    3    3    0    0 -0.72612654474E+01 -0.48988868718E+02 -0.27702409868E+01  0.49601619262E+02  0.10566000000E+00 0.  1.
         23    2    1    0    0    0 -0.28516667516E+02 -0.91916167390E+01  0.24908866972E+01  0.95025225578E+02  0.90143789775E+02 0.  0.
         13    1    3    3    0    0 -0.21255402069E+02  0.39797251980E+02  0.52611276840E+01  0.45423606316E+02  0.10566000000E+00 0. -1.
         22    1    1    0    0    0  0.28516667516E+02  0.91916167390E+01 -0.24908866972E+01  0.30064774422E+02  0.00000000000E+00 0.  1.
</event>
<event>
 5    1  0.1254921E-009  0.9118800E+02  0.7561462E-02  0.1125453E+00
         25   -1    0    0    0    0  0.00000000000E+00  0.00000000000E+00  0.99999998245E-14  0.12509000000E+03  0.12509000000E+03 0.  0.
        -13    1    3    3    0    0 -0.41111580682E+02 -0.17640230309E+02  0.36682888271E+02  0.57853135157E+02  0.10566000000E+00 0.  1.
         23    2    1    0    0    0 -0.10194529368E+02 -0.22825884858E+02  0.16136398521E+02  0.95335457392E+02  0.90573266643E+02 0.  0.
         13    1    3    3    0    0  0.30917051314E+02 -0.51856545489E+01 -0.20546489750E+02  0.37482322235E+02  0.10566000000E+00 0. -1.
         22    1    1    0    0    0  0.10194529368E+02  0.22825884858E+02 -0.16136398521E+02  0.29754542608E+02  0.00000000000E+00 0.  1.
</event>
<event>
 5    1  0.1254921E-009  0.9118800E+02  0.7561462E-02  0.1125453E+00
         25   -1    0    0    0    0  0.00000000000E+00  0.00000000000E+00  0.99999998245E-14  0.12509000000E+03  0.12509000000E+03 0.  0.
        -13    1    3    3    0    0 -0.27977343407E+02  0.17784911527E+02 -0.33640396634E+02  0.47230522672E+02  0.10566000000E+00 0.  1.
         23    2    1    0    0    0  0.14435899826E+02 -0.15569998566E+01 -0.27157597620E+02  0.94294634101E+02  0.89124202434E+02 0.  0.
         13    1    3    3    0    0  0.42413243233E+02 -0.19341911384E+02  0.64827990144E+01  0.47064111429E+02  0.10566000000E+00 0. -1.
         22    1    1    0    0    0 -0.14435899826E+02  0.15569998566E+01  0.27157597620E+02  0.30795365899E+02  0.00000000000E+00 0.  1.
</event>
<event>
 5    1  0.1254921E-009  0.9118800E+02  0.7561462E-02  0.1125453E+00
         25   -1    0    0    0    0  0.00000000000E+00  0.00000000000E+00  0.99999998245E-14  0.12509000000E+03  0.12509000000E+03 0.  0.
        -13    1    3    3    0    0  0.63104032838E+01  0.21465329719E+02 -0.51320799511E+02  0.55985866038E+02  0.10566000000E+00 0. -1.
         23    2    1    0    0    0  0.21042849403E+02  0.10554283350E+02 -0.13658474877E+02  0.97873307622E+02  0.94012956558E+02 0.  0.
         13    1    3    3    0    0  0.14732446120E+02 -0.10911046369E+02  0.37662324634E+02  0.41887441584E+02  0.10566000000E+00 0.  1.
         22    1    1    0    0    0 -0.21042849403E+02 -0.10554283350E+02  0.13658474877E+02  0.27216692378E+02  0.00000000000E+00 0.  1.
</event>
<event>
 5    1  0.1254921E-009  0.9118800E+02  0.7561462E-02  0.1125453E+00
         25   -1    0    0    0    0  0.00000000000E+00  0.00000000000E+00  0.99999998245E-14  0.12509000000E+03  0.12509000000E+03 0.  0.
        -13    1    3    3    0    0 -0.34431873171E+02 -0.27182650382E+02 -0.18252324606E+02  0.47514301946E+02  0.10566000000E+00 0.  1.
         23    2    1    0    0    0 -0.98173768699E+01 -0.22513040408E+02  0.20119355306E+02  0.93340884502E+02  0.87775363199E+02 0.  0.
         13    1    3    3    0    0  0.24614496301E+02  0.46696099741E+01  0.38371679912E+02  0.45826582556E+02  0.10566000000E+00 0. -1.
         22    1    1    0    0    0  0.98173768699E+01  0.22513040408E+02 -0.20119355306E+02  0.31749115498E+02  0.00000000000E+00 0.  1.
</event>
<event>
 5    1  0.1254921E-009  0.9118800E+02  0.7561462E-02  0.1125453E+00
         25   -1    0    0    0    0  0.00000000000E+00  0.00000000000E+00  0.99999998245E-14  0.12509000000E+03  0.12509000000E+03 0.  0.
        -13    1    3    3    0    0 -0.15550882661E+02 -0.21884906806E+02 -0.26779785622E+02  0.37920273990E+02  0.10566000000E+00 0. -1.
         23    2    1    0    0    0  0.92983802785E+01  0.26503214087E+02 -0.47671677729E+01  0.96601298357E+02  0.92304955029E+02 0.  0.
         13    1    3    3    0    0  0.24849262940E+02  0.48388120893E+02  0.22012617849E+02  0.58681024367E+02  0.10566000000E+00 0.  1.
         22    1    1    0    0    0 -0.92983802785E+01 -0.26503214087E+02  0.47671677729E+01  0.28488701643E+02  0.00000000000E+00 0.  1.
</event>
<event>
 5    1  0.1254921E-009  0.9118800E+02  0.7561462E-02  0.1125453E+00
         25   -1    0    0    0    0  0.00000000000E+00  0.00000000000E+00  0.99999998245E-14  0.12509000000E+03  0.12509000000E+03 0.  0.
        -13    1    3    3    0    0 -0.18518826233E+02  0.17006933477E+02  0.24609467818E+02  0.35182663084E+02  0.10566000000E+00 0.  1.
         23    2    1    0    0    0  0.26251159888E+02  0.32633158776E+00 -0.12818846077E+02  0.95874375712E+02  0.91314529050E+02 0.  0.
         13    1    3    3    0    0  0.44769986121E+02 -0.16680601889E+02 -0.37428313895E+02  0.60691712628E+02  0.10566000000E+00 0. -1.
         22    1    1    0    0    0 -0.26251159888E+02 -0.32633158776E+00  0.12818846077E+02  0.29215624288E+02  0.00000000000E+00 0. -1.
</event>
<event>
 5    1  0.1254921E-009  0.9118800E+02  0.7561462E-02  0.1125453E+00
         25   -1    0    0    0    0  0.00000000000E+00  0.00000000000E+00  0.99999998245E-14  0.12509000000E+03  0.12509000000E+03 0.  0.
        -13    1    3    3    0    0 -0.51716444497E+02  0.11786883501E+02 -0.28058454881E+02  0.60006743858E+02  0.10566000000E+00 0. -1.
         23    2    1    0    0    0 -0.31081699819E+02  0.10473989376E+02 -0.35085852222E+01  0.92103840973E+02  0.85994365132E+02 0.  0.
         13    1    3    3    0    0  0.20634744677E+02 -0.13128941248E+01  0.24549869659E+02  0.32097097115E+02  0.10566000000E+00 0.  1.
         22    1    1    0    0    0  0.31081699819E+02 -0.10473989376E+02  0.35085852222E+01  0.32986159027E+02  0.00000000000E+00 0. -1.
</event>
<event>
 5    1  0.1254921E-009  0.9118800E+02  0.7561462E-02  0.1125453E+00
         25   -1    0    0    0    0  0.00000000000E+00  0.00000000000E+00  0.99999998245E-14  0.12509000000E+03  0.12509000000E+03 0.  0.
        -13    1    3    3    0    0 -0.49419117499E+01 -0.28796030684E+02 -0.14075148124E+02  0.32430769859E+02  0.10566000000E+00 0. -1.
         23    2    1    0    0    0  0.22055692812E+02  0.17209023806E+02  0.15173130201E+02  0.93265041777E+02  0.87667211954E+02 0.  0.
         13    1    3    3    0    0  0.26997604562E+02  0.46005054490E+02  0.29248278325E+02  0.60834271918E+02  0.10566000000E+00 0.  1.
         22    1    1    0    0    0 -0.22055692812E+02 -0.17209023806E+02 -0.15173130201E+02  0.31824958223E+02  0.00000000000E+00 0.  1.
</event>
<event>
 5    1  0.1254921E-009  0.9118800E+02  0.7561462E-02  0.1125453E+00
         25   -1    0    0    0    0  0.00000000000E+00  0.00000000000E+00  0.99999998245E-14  0.12509000000E+03  0.12509000000E+03 0.  0.
        -13    1    3    3    0    0 -0.69667356362E+01  0.26494352963E+02  0.29458930127E+02  0.40228421205E+02  0.10566000000E+00 0.  1.
         23    2    1    0    0    0 -0.42390222619E+01 -0.26293359428E+02  0.11819227689E+02  0.95952323310E+02  0.91421245593E+02 0.  0.
         13    1    3    3    0    0  0.27277133743E+01 -0.52787712391E+02 -0.17639702439E+02  0.55723902105E+02  0.10566000000E+00 0. -1.
         22    1    1    0    0    0  0.42390222619E+01  0.26293359428E+02 -0.11819227689E+02  0.29137676690E+02  0.00000000000E+00 0.  1.
</event>
<event>
 5    1  0.1254921E-009  0.9118800E+02  0.7561462E-02  0.1125453E+00
         25   -1    0    0    0    0  0.00000000000E+00  0.00000000000E+00  0.99999998245E-14  0.12509000000E+03  0.12509000000E+03 0.  0.
        -13    1    3    3    0    0 -0.25987224372E+02  0.62525495414E+00 -0.27750155383E+02  0.38023795999E+02  0.10566000000E+00 0.  1.
         23    2    1    0    0    0  0.13323559472E+02 -0.27097437815E+02  0.24070460843E+01  0.94798379971E+02  0.89828450956E+02 0.  0.
         13    1    3    3    0    0  0.39310783844E+02 -0.27722692769E+02  0.30157201468E+02  0.56774583972E+02  0.10566000000E+00 0. -1.
         22    1    1    0    0    0 -0.13323559472E+02  0.27097437815E+02 -0.24070460843E+01  0.30291620029E+02  0.00000000000E+00 0. -1.
</event>
<event>
 5    1  0.1254921E-009  0.9118800E+02  0.7561462E-02  0.1125453E+00
         25   -1    0    0    0    0  0.00000000000E+00  0.00000000000E+00  0.99999998245E-14  0.12509000000E+03  0.12509000000E+03 0.  0.
        -13    1    3    3    0    0  0.41063485663E+01 -0.15371094082E+02  0.47711794222E+02  0.50294722424E+02  0.10566000000E+00 0.  1.
         23    2    1    0    0    0 -0.23446744532E+02  0.39459965811E+01  0.16911467073E+02  0.95912638284E+02  0.91366929169E+02 0.  0.
         13    1    3    3    0    0 -0.27553093098E+02  0.19317090663E+02 -0.30800327148E+02  0.45617915860E+02  0.10566000000E+00 0. -1.
         22    1    1    0    0    0  0.23446744532E+02 -0.39459965811E+01 -0.16911467073E+02  0.29177361716E+02  0.00000000000E+00 0.  1.
</event>
<event>
 5    1  0.1254921E-009  0.9118800E+02  0.7561462E-02  0.1125453E+00
         25   -1    0    0    0    0  0.00000000000E+00  0.00000000000E+00  0.99999998245E-14  0.12509000000E+03  0.12509000000E+03 0.  0.
        -13    1    3    3    0    0 -0.10722696745E+02  0.26640606973E+02 -0.47062012443E+02  0.55132044626E+02  0.10566000000E+00 0.  1.
         23    2    1    0    0    0 -0.56987912854E+01 -0.78553274644E+01 -0.29235865377E+02  0.94285483837E+02  0.89111358683E+02 0.  0.
         13    1    3    3    0    0  0.50239054599E+01 -0.34495934438E+02  0.17826147065E+02  0.39153439211E+02  0.10566000000E+00 0. -1.
         22    1    1    0    0    0  0.56987912854E+01  0.78553274644E+01  0.29235865377E+02  0.30804516163E+02  0.00000000000E+00 0.  1.
</event>
<event>
 5    1  0.1254921E-009  0.9118800E+02  0.7561462E-02  0.1125453E+00
         25   -1    0    0    0    0  0.00000000000E+00  0.00000000000E+00  0.99999998245E-14  0.12509000000E+03  0.12509000000E+03 0.  0.
        -13    1    3    3    0    0 -0.31190587864E+02 -0.18528020346E+02  0.72020127564E+01  0.36986760618E+02  0.10566000000E+00 0. -1.
         23    2    1    0    0    0  0.23422777199E+01  0.28232634490E+02 -0.62486387847E+01  0.96079426034E+02  0.91594992796E+02 0.  0.
         13    1    3    3    0    0  0.33532865584E+02  0.46760654836E+02 -0.13450651541E+02  0.59092665416E+02  0.10566000000E+00 0.  1.
         22    1    1    0    0    0 -0.23422777199E+01 -0.28232634490E+02  0.62486387847E+01  0.29010573966E+02  0.00000000000E+00 0.  1.
</event>
<event>
 5    1  0.1254921E-009  0.9118800E+02  0.7561462E-02  0.1125453E+00
         25   -1    0    0    0    0  0.00000000000E+00  0.00000000000E+00  0.99999998245E-14  0.12509000000E+03  0.12509000000E+03 0.  0.
        -13    1    3    3    0    0  0.47234261524E+02 -0.40358569749E+02 -0.24341984245E+01  0.62175767787E+02  0.10566000000E+00 0.  1.
         23    2    1    0    0    0  0.24045628764E+02 -0.14415109465E+02 -0.21340168704E+01  0.96973427102E+02  0.92807887016E+02 0.  0.
         13    1    3    3    0    0 -0.23188632760E+02  0.25943460284E+02  0.30018155404E+00  0.34797659315E+02  0.10566000000E+00 0. -1.
         22    1    1    0    0    0 -0.24045628764E+02  0.14415109465E+02  0.21340168704E+01  0.28116572898E+02  0.00000000000E+00 0.  1.
</event>
<event>
 5    1  0.1254921E-009  0.9118800E+02  0.7561462E-02  0.1125453E+00
         25   -1    0    0    0    0  0.00000000000E+00  0.00000000000E+00  0.99999998245E-14  0.12509000000E+03  0.12509000000E+03 0.  0.
        -13    1    3    3    0    0 -0.22742262511E+02  0.44197650931E+02 -0.34726206490E+02  0.60634671874E+02  0.10566000000E+00 0. -1.
         23    2    1    0    0    0 -0.14022531556E+02  0.12747491448E+02 -0.22940833743E+02  0.95334130289E+02  0.90571433773E+02 0.  0.
         13    1    3    3    0    0  0.87197309551E+01 -0.31450159483E+02  0.11785372748E+02  0.34699458415E+02  0.10566000000E+00 0.  1.
         22    1    1    0    0    0  0.14022531556E+02 -0.12747491448E+02  0.22940833743E+02  0.29755869711E+02  0.00000000000E+00 0. -1.
</event>
<event>
 5    1  0.1254921E-009  0.9118800E+02  0.7561462E-02  0.1125453E+00
         25   -1    0    0    0    0  0.00000000000E+00  0.00000000000E+00  0.99999998245E-14  0.12509000000E+03  0.12509000000E+03 0.  0.
        -13    1    3    3    0    0  0.36764047522E+02 -0.14757718547E+02 -0.47496640458E+02  0.61849231732E+02  0.10566000000E+00 0.  1.
         23    2    1    0    0    0  0.21861104213E+02 -0.56627853297E+01 -0.17646614227E+02  0.96430306897E+02  0.92072938910E+02 0.  0.
         13    1    3    3    0    0 -0.14902943310E+02  0.90949332176E+01  0.29850026231E+02  0.34581075165E+02  0.10566000000E+00 0. -1.
         22    1    1    0    0    0 -0.21861104213E+02  0.56627853297E+01  0.17646614227E+02  0.28659693103E+02  0.00000000000E+00 0.  1.
</event>
<event>
 5    1  0.1254921E-009  0.9118800E+02  0.7561462E-02  0.1125453E+00
         25   -1    0    0    0    0  0.00000000000E+00  0.00000000000E+00  0.99999998245E-14  0.12509000000E+03  0.12509000000E+03 0.  0.
        -13    1    3    3    0    0 -0.27424441962E+02  0.15871166967E+02 -0.37123094091E+02  0.48807061341E+02  0.10566000000E+00 0. -1.
         23    2    1    0    0    0 -0.14235108485E+02  0.30321964132E+02  0.91323850059E+00  0.91580392020E+02  0.85229539337E+02 0.  0.
         13    1    3    3    0    0  0.13189333477E+02  0.14450797165E+02  0.38036332592E+02  0.42773330679E+02  0.10566000000E+00 0.  1.
         22    1    1    0    0    0  0.14235108485E+02 -0.30321964132E+02 -0.91323850059E+00  0.33509607980E+02  0.00000000000E+00 0. -1.
</event>
<event>
 5    1  0.1254921E-009  0.9118800E+02  0.7561462E-02  0.1125453E+00
         25   -1    0    0    0    0  0.00000000000E+00  0.00000000000E+00  0.99999998245E-14  0.12509000000E+03  0.12509000000E+03 0.  0.
        -13    1    3    3    0    0 -0.24891736769E+01  0.25109796169E+02 -0.46812549601E+02  0.53180107309E+02  0.10566000000E+00 0.  1.
         23    2    1    0    0    0  0.21877924320E+02  0.12685541718E+02 -0.13049592534E+02  0.96631988711E+02  0.92346536674E+02 0.  0.
         13    1    3    3    0    0  0.24367097997E+02 -0.12424254451E+02  0.33762957067E+02  0.43451881402E+02  0.10566000000E+00 0. -1.
         22    1    1    0    0    0 -0.21877924320E+02 -0.12685541718E+02  0.13049592534E+02  0.28458011289E+02  0.00000000000E+00 0.  1.
</event>
<event>
 5    1  0.1254921E-009  0.9118800E+02  0.7561462E-02  0.1125453E+00
         25   -1    0    0    0    0  0.00000000000E+00  0.00000000000E+00  0.99999998245E-14  0.12509000000E+03  0.12509000000E+03 0.  0.
        -13    1    3    3    0    0  0.18770525777E+02  0.12541125870E+02 -0.55244319243E+02  0.59678793962E+02  0.10566000000E+00 0.  1.
         23    2    1    0    0    0  0.63015531588E+01  0.18824759644E+02 -0.23706297079E+02  0.94169623723E+02  0.88948571450E+02 0.  0.
         13    1    3    3    0    0 -0.12468972618E+02  0.62836337742E+01  0.31538022164E+02  0.34490829761E+02  0.10566000000E+00 0. -1.
         22    1    1    0    0    0 -0.63015531588E+01 -0.18824759644E+02  0.23706297079E+02  0.30920376277E+02  0.00000000000E+00 0.  1.
</event>
<event>
 5    1  0.1254921E-009  0.9118800E+02  0.7561462E-02  0.1125453E+00
         25   -1    0    0    0    0  0.00000000000E+00  0.00000000000E+00  0.99999998245E-14  0.12509000000E+03  0.12509000000E+03 0.  0.
        -13    1    3    3    0    0  0.16646648967E+02 -0.76498293490E+01 -0.33332847296E+02  0.38035781624E+02  0.10566000000E+00 0.  1.
         23    2    1    0    0    0  0.98728042195E+01  0.15467161419E+02  0.20839876037E+02  0.97323009188E+02  0.93277877006E+02 0.  0.
         13    1    3    3    0    0 -0.67738447474E+01  0.23116990768E+02  0.54172723333E+02  0.59287227564E+02  0.10566000000E+00 0. -1.
         22    1    1    0    0    0 -0.98728042195E+01 -0.15467161419E+02 -0.20839876037E+02  0.27766990812E+02  0.00000000000E+00 0. -1.
</event>
<event>
 5    1  0.1254921E-009  0.9118800E+02  0.7561462E-02  0.1125453E+00
         25   -1    0    0    0    0  0.00000000000E+00  0.00000000000E+00  0.99999998245E-14  0.12509000000E+03  0.12509000000E+03 0.  0.
        -13    1    3    3    0    0 -0.12670017564E+02  0.35487621286E+02  0.44639292050E+02  0.58417276284E+02  0.10566000000E+00 0.  1.
         23    2    1    0    0    0  0.10045266257E+02  0.17985820858E+02  0.21977751298E+02  0.94966609118E+02  0.90062412632E+02 0.  0.
         13    1    3    3    0    0  0.22715283821E+02 -0.17501800428E+02 -0.22661540752E+02  0.36549332834E+02  0.10566000000E+00 0. -1.
         22    1    1    0    0    0 -0.10045266257E+02 -0.17985820858E+02 -0.21977751298E+02  0.30123390882E+02  0.00000000000E+00 0.  1.
</event>
<event>
 5    1  0.1254921E-009  0.9118800E+02  0.7561462E-02  0.1125453E+00
         25   -1    0    0    0    0  0.00000000000E+00  0.00000000000E+00  0.99999998245E-14  0.12509000000E+03  0.12509000000E+03 0.  0.
        -13    1    3    3    0    0  0.24080196042E+02  0.43794225774E+02  0.35835735914E+02  0.61497977081E+02  0.10566000000E+00 0.  1.
         23    2    1    0    0    0  0.24541022592E+02  0.32621064060E+02  0.24210263540E+02  0.77629148017E+02  0.61430872946E+02 0.  0.
         13    1    3    3    0    0  0.46082655009E+00 -0.11173161714E+02 -0.11625472374E+02  0.16131170936E+02  0.10566000000E+00 0. -1.
         22    1    1    0    0    0 -0.24541022592E+02 -0.32621064060E+02 -0.24210263540E+02  0.47460851983E+02  0.00000000000E+00 0.  1.
</event>
<event>
 5    1  0.1254921E-009  0.9118800E+02  0.7561462E-02  0.1125453E+00
         25   -1    0    0    0    0  0.00000000000E+00  0.00000000000E+00  0.99999998245E-14  0.12509000000E+03  0.12509000000E+03 0.  0.
        -13    1    3    3    0    0 -0.44224365408E+02 -0.32370144973E+01  0.14817714896E+02  0.46753059765E+02  0.10566000000E+00 0. -1.
         23    2    1    0    0    0 -0.19532024644E+02  0.11960772020E+02 -0.21806943497E+02  0.93465597418E+02  0.87952913891E+02 0.  0.
         13    1    3    3    0    0  0.24692340764E+02  0.15197786518E+02 -0.36624658393E+02  0.46712537652E+02  0.10566000000E+00 0.  1.
         22    1    1    0    0    0  0.19532024644E+02 -0.11960772020E+02  0.21806943497E+02  0.31624402582E+02  0.00000000000E+00 0. -1.
</event>
<event>
 5    1  0.1254921E-009  0.9118800E+02  0.7561462E-02  0.1125453E+00
         25   -1    0    0    0    0  0.00000000000E+00  0.00000000000E+00  0.99999998245E-14  0.12509000000E+03  0.12509000000E+03 0.  0.
        -13    1    3    3    0    0 -0.52508441547E+02  0.22074408426E+02 -0.74022167359E+00  0.56964682332E+02  0.10566000000E+00 0. -1.
         23    2    1    0    0    0 -0.28891683399E+02 -0.77765677822E+01 -0.24748023423E+01  0.95067857792E+02  0.90202929900E+02 0.  0.
         13    1    3    3    0    0  0.23616758148E+02 -0.29850976208E+02 -0.17345806687E+01  0.38103175460E+02  0.10566000000E+00 0.  1.
         22    1    1    0    0    0  0.28891683399E+02  0.77765677822E+01  0.24748023423E+01  0.30022142208E+02  0.00000000000E+00 0. -1.
</event>
<event>
 5    1  0.1254921E-009  0.9118800E+02  0.7561462E-02  0.1125453E+00
         25   -1    0    0    0    0  0.00000000000E+00  0.00000000000E+00  0.99999998245E-14  0.12509000000E+03  0.12509000000E+03 0.  0.
        -13    1    3    3    0    0 -0.90886899686E+01  0.60593971234E+02  0.48224034891E+00  0.61273790114E+02  0.10566000000E+00 0.  1.
         23    2    1    0    0    0  0.37416000283E+00  0.28973898610E+02 -0.73496552537E+01  0.95196117202E+02  0.90380620166E+02 0.  0.
         13    1    3    3    0    0  0.94628499714E+01 -0.31620072623E+02 -0.78318956026E+01  0.33922327088E+02  0.10566000000E+00 0. -1.
         22    1    1    0    0    0 -0.37416000283E+00 -0.28973898610E+02  0.73496552537E+01  0.29893882798E+02  0.00000000000E+00 0.  1.
</event>
<event>
 5    1  0.1254921E-009  0.9118800E+02  0.7561462E-02  0.1125453E+00
         25   -1    0    0    0    0  0.00000000000E+00  0.00000000000E+00  0.99999998245E-14  0.12509000000E+03  0.12509000000E+03 0.  0.
        -13    1    3    3    0    0 -0.12358055057E+02  0.46057141048E+02 -0.16738301078E+02  0.50538734188E+02  0.10566000000E+00 0. -1.
         23    2    1    0    0    0 -0.30158308530E+02  0.11520070203E+02 -0.15156855348E+02  0.89425369693E+02  0.82005675961E+02 0.  0.
         13    1    3    3    0    0 -0.17800253473E+02 -0.34537070845E+02  0.15814457304E+01  0.38886635505E+02  0.10566000000E+00 0.  1.
         22    1    1    0    0    0  0.30158308530E+02 -0.11520070203E+02  0.15156855348E+02  0.35664630307E+02  0.00000000000E+00 0. -1.
</event>
<event>
 5    1  0.1254921E-009  0.9118800E+02  0.7561462E-02  0.1125453E+00
         25   -1    0    0    0    0  0.00000000000E+00  0.00000000000E+00  0.99999998245E-14  0.12509000000E+03  0.12509000000E+03 0.  0.
        -13    1    3    3    0    0  0.25413903924E+02  0.24391549326E+02 -0.39414964110E+02  0.52861751304E+02  0.10566000000E+00 0. -1.
         23    2    1    0    0    0  0.28290714081E+02  0.64782952801E+01 -0.20448139478E+00  0.96066309235E+02  0.91577077615E+02 0.  0.
         13    1    3    3    0    0  0.28768101578E+01 -0.17913254046E+02  0.39210482715E+02  0.43204557931E+02  0.10566000000E+00 0.  1.
         22    1    1    0    0    0 -0.28290714081E+02 -0.64782952801E+01  0.20448139478E+00  0.29023690765E+02  0.00000000000E+00 0. -1.
</event>
<event>
 5    1  0.1254921E-009  0.9118800E+02  0.7561462E-02  0.1125453E+00
         25   -1    0    0    0    0  0.00000000000E+00  0.00000000000E+00  0.99999998245E-14  0.12509000000E+03  0.12509000000E+03 0.  0.
        -13    1    3    3    0    0  0.39881675732E+02 -0.76517130836E+01 -0.11607636399E+02  0.42235591142E+02  0.10566000000E+00 0. -1.
         23    2    1    0    0    0  0.54459075876E+01  0.28379771427E+02  0.68627113238E+01  0.95388718169E+02  0.90646794822E+02 0.  0.
         13    1    3    3    0    0 -0.34435768144E+02  0.36031484510E+02  0.18470347723E+02  0.53153127027E+02  0.10566000000E+00 0.  1.
         22    1    1    0    0    0 -0.54459075876E+01 -0.28379771427E+02 -0.68627113238E+01  0.29701281831E+02  0.00000000000E+00 0.  1.
</event>
<event>
 5    1  0.1254921E-009  0.9118800E+02  0.7561462E-02  0.1125453E+00
         25   -1    0    0    0    0  0.00000000000E+00  0.00000000000E+00  0.99999998245E-14  0.12509000000E+03  0.12509000000E+03 0.  0.
        -13    1    3    3    0    0  0.19667755489E+02 -0.38668374653E+02 -0.23959945969E+01  0.43449001812E+02  0.10566000000E+00 0. -1.
         23    2    1    0    0    0  0.21674128661E+02  0.10664256757E+02 -0.17704123789E+02  0.95141206626E+02  0.90304589992E+02 0.  0.
         13    1    3    3    0    0  0.20063731722E+01  0.49332631410E+02 -0.15308129192E+02  0.51692204814E+02  0.10566000000E+00 0.  1.
         22    1    1    0    0    0 -0.21674128661E+02 -0.10664256757E+02  0.17704123789E+02  0.29948793374E+02  0.00000000000E+00 0.  1.
</event>
<event>
 5    1  0.1254921E-009  0.9118800E+02  0.7561462E-02  0.1125453E+00
         25   -1    0    0    0    0  0.00000000000E+00  0.00000000000E+00  0.99999998245E-14  0.12509000000E+03  0.12509000000E+03 0.  0.
        -13    1    3    3    0    0 -0.68272821032E+01  0.16468047804E+02 -0.49393482103E+02  0.52512242550E+02  0.10566000000E+00 0.  1.
         23    2    1    0    0    0 -0.13474762104E+02 -0.15466057104E+02 -0.20544658529E+02  0.96058101506E+02  0.91565865554E+02 0.  0.
         13    1    3    3    0    0 -0.66474800007E+01 -0.31934104907E+02  0.28848823573E+02  0.43545858956E+02  0.10566000000E+00 0. -1.
         22    1    1    0    0    0  0.13474762104E+02  0.15466057104E+02  0.20544658529E+02  0.29031898494E+02  0.00000000000E+00 0. -1.
</event>
<event>
 5    1  0.1254921E-009  0.9118800E+02  0.7561462E-02  0.1125453E+00
         25   -1    0    0    0    0  0.00000000000E+00  0.00000000000E+00  0.99999998245E-14  0.12509000000E+03  0.12509000000E+03 0.  0.
        -13    1    3    3    0    0  0.50079822689E+02 -0.10651494919E+02  0.15163389390E+02  0.53398338236E+02  0.10566000000E+00 0.  1.
         23    2    1    0    0    0  0.85445316499E+01  0.30164928234E+01  0.25241602896E+02  0.98271223614E+02  0.94540925655E+02 0.  0.
         13    1    3    3    0    0 -0.41535291039E+02  0.13667987742E+02  0.10078213506E+02  0.44872885378E+02  0.10566000000E+00 0. -1.
         22    1    1    0    0    0 -0.85445316499E+01 -0.30164928234E+01 -0.25241602896E+02  0.26818776386E+02  0.00000000000E+00 0.  1.
</event>
<event>
 5    1  0.1254921E-009  0.9118800E+02  0.7561462E-02  0.1125453E+00
         25   -1    0    0    0    0  0.00000000000E+00  0.00000000000E+00  0.99999998245E-14  0.12509000000E+03  0.12509000000E+03 0.  0.
        -13    1    3    3    0    0  0.45560822891E+02  0.32435682390E+02  0.88546939902E+01  0.56624012966E+02  0.10566000000E+00 0.  1.
         23    2    1    0    0    0  0.28676886495E+02  0.10757424278E+01 -0.69090513192E+01  0.95572953553E+02  0.90900678875E+02 0.  0.
         13    1    3    3    0    0 -0.16883936396E+02 -0.31359939963E+02 -0.15763745309E+02  0.38948940588E+02  0.10566000000E+00 0. -1.
         22    1    1    0    0    0 -0.28676886495E+02 -0.10757424278E+01  0.69090513192E+01  0.29517046447E+02  0.00000000000E+00 0.  1.
</event>
<event>
 5    1  0.1254921E-009  0.9118800E+02  0.7561462E-02  0.1125453E+00
         25   -1    0    0    0    0  0.00000000000E+00  0.00000000000E+00  0.99999998245E-14  0.12509000000E+03  0.12509000000E+03 0.  0.
        -13    1    3    3    0    0 -0.29380026278E+02 -0.51721035134E+02  0.60900964140E+01  0.59794246026E+02  0.10566000000E+00 0.  1.
         23    2    1    0    0    0 -0.24874515452E+02 -0.17306663064E+02  0.27893889020E+01  0.94659048720E+02  0.89634216171E+02 0.  0.
         13    1    3    3    0    0  0.45055108257E+01  0.34414372070E+02 -0.33007075120E+01  0.34864802694E+02  0.10566000000E+00 0. -1.
         22    1    1    0    0    0  0.24874515452E+02  0.17306663064E+02 -0.27893889020E+01  0.30430951280E+02  0.00000000000E+00 0.  1.
</event>
<event>
 5    1  0.1254921E-009  0.9118800E+02  0.7561462E-02  0.1125453E+00
         25   -1    0    0    0    0  0.00000000000E+00  0.00000000000E+00  0.99999998245E-14  0.12509000000E+03  0.12509000000E+03 0.  0.
        -13    1    3    3    0    0  0.33129901789E+02  0.17360197304E+02 -0.12234821529E+02  0.39353130306E+02  0.10566000000E+00 0. -1.
         23    2    1    0    0    0 -0.17840826060E+01 -0.26647220940E+02  0.45851498673E+01  0.97992381398E+02  0.94171258238E+02 0.  0.
         13    1    3    3    0    0 -0.34913984395E+02 -0.44007418245E+02  0.16819971396E+02  0.58639251092E+02  0.10566000000E+00 0.  1.
         22    1    1    0    0    0  0.17840826060E+01  0.26647220940E+02 -0.45851498673E+01  0.27097618602E+02  0.00000000000E+00 0.  1.
</event>
<event>
 5    1  0.1254921E-009  0.9118800E+02  0.7561462E-02  0.1125453E+00
         25   -1    0    0    0    0  0.00000000000E+00  0.00000000000E+00  0.99999998245E-14  0.12509000000E+03  0.12509000000E+03 0.  0.
        -13    1    3    3    0    0  0.44523233932E+02  0.18875941159E+02  0.26643025644E+02  0.55213055466E+02  0.10566000000E+00 0.  1.
         23    2    1    0    0    0  0.10776195118E+02 -0.25104562279E+01  0.27785419211E+02  0.95182504411E+02  0.90361777614E+02 0.  0.
         13    1    3    3    0    0 -0.33747038814E+02 -0.21386397387E+02  0.11423935672E+01  0.39969448945E+02  0.10566000000E+00 0. -1.
         22    1    1    0    0    0 -0.10776195118E+02  0.25104562279E+01 -0.27785419211E+02  0.29907495589E+02  0.00000000000E+00 0.  1.
</event>
<event>
 5    1  0.1254921E-009  0.9118800E+02  0.7561462E-02  0.1125453E+00
         25   -1    0    0    0    0  0.00000000000E+00  0.00000000000E+00  0.99999998245E-14  0.12509000000E+03  0.12509000000E+03 0.  0.
        -13    1    3    3    0    0 -0.28076526298E+02  0.44861259313E+02 -0.39253156337E+01  0.53068287922E+02  0.10566000000E+00 0.  1.
         23    2    1    0    0    0 -0.29577995063E+02  0.33850508790E+01  0.30843796112E+01  0.95159584717E+02  0.90330043754E+02 0.  0.
         13    1    3    3    0    0 -0.15014687649E+01 -0.41476208434E+02  0.70096952450E+01  0.42091296796E+02  0.10566000000E+00 0. -1.
         22    1    1    0    0    0  0.29577995063E+02 -0.33850508790E+01 -0.30843796112E+01  0.29930415283E+02  0.00000000000E+00 0.  1.
</event>
<event>
 5    1  0.1254921E-009  0.9118800E+02  0.7561462E-02  0.1125453E+00
         25   -1    0    0    0    0  0.00000000000E+00  0.00000000000E+00  0.99999998245E-14  0.12509000000E+03  0.12509000000E+03 0.  0.
        -13    1    3    3    0    0 -0.19772761025E+02  0.39901584534E+02  0.33950072706E+01  0.44661345314E+02  0.10566000000E+00 0.  1.
         23    2    1    0    0    0 -0.21636168271E+02 -0.83363951430E+01  0.18698658370E+02  0.95303105461E+02  0.90528574629E+02 0.  0.
         13    1    3    3    0    0 -0.18634072464E+01 -0.48237979676E+02  0.15303651099E+02  0.50641760147E+02  0.10566000000E+00 0. -1.
         22    1    1    0    0    0  0.21636168271E+02  0.83363951430E+01 -0.18698658370E+02  0.29786894539E+02  0.00000000000E+00 0. -1.
</event>
<event>
 5    1  0.1254921E-009  0.9118800E+02  0.7561462E-02  0.1125453E+00
         25   -1    0    0    0    0  0.00000000000E+00  0.00000000000E+00  0.99999998245E-14  0.12509000000E+03  0.12509000000E+03 0.  0.
        -13    1    3    3    0    0 -0.20491803948E+02 -0.29065462858E+02 -0.97892227051E+01  0.36885704621E+02  0.10566000000E+00 0. -1.
         23    2    1    0    0    0  0.20324679895E+02  0.19534436645E+01  0.20273947343E+02  0.96316027458E+02  0.91917548104E+02 0.  0.
         13    1    3    3    0    0  0.40816483843E+02  0.31018906523E+02  0.30063170048E+02  0.59430322837E+02  0.10566000000E+00 0.  1.
         22    1    1    0    0    0 -0.20324679895E+02 -0.19534436645E+01 -0.20273947343E+02  0.28773972542E+02  0.00000000000E+00 0.  1.
</event>
<event>
 5    1  0.1254921E-009  0.9118800E+02  0.7561462E-02  0.1125453E+00
         25   -1    0    0    0    0  0.00000000000E+00  0.00000000000E+00  0.99999998245E-14  0.12509000000E+03  0.12509000000E+03 0.  0.
        -13    1    3    3    0    0 -0.13992361629E+02 -0.24436104366E+02 -0.23068433665E+02  0.36401554587E+02  0.10566000000E+00 0.  1.
         23    2    1    0    0    0 -0.50625513396E+01  0.17575831217E+02  0.20524167310E+02  0.97598533818E+02  0.93646639505E+02 0.  0.
         13    1    3    3    0    0  0.89298102893E+01  0.42011935583E+02  0.43592600975E+02  0.61196979232E+02  0.10566000000E+00 0. -1.
         22    1    1    0    0    0  0.50625513396E+01 -0.17575831217E+02 -0.20524167310E+02  0.27491466182E+02  0.00000000000E+00 0. -1.
</event>
<event>
 5    1  0.1254921E-009  0.9118800E+02  0.7561462E-02  0.1125453E+00
         25   -1    0    0    0    0  0.00000000000E+00  0.00000000000E+00  0.99999998245E-14  0.12509000000E+03  0.12509000000E+03 0.  0.
        -13    1    3    3    0    0  0.26042728104E+02 -0.20622281892E+02  0.27463773217E+01  0.33332505906E+02  0.10566000000E+00 0. -1.
         23    2    1    0    0    0 -0.22192250753E+02  0.15911854464E+02 -0.11441313926E+02  0.95482791919E+02  0.90776521097E+02 0.  0.
         13    1    3    3    0    0 -0.48234978857E+02  0.36534136356E+02 -0.14187691248E+02  0.62150286014E+02  0.10566000000E+00 0.  1.
         22    1    1    0    0    0  0.22192250753E+02 -0.15911854464E+02  0.11441313926E+02  0.29607208081E+02  0.00000000000E+00 0.  1.
</event>
<event>
 5    1  0.1254921E-009  0.9118800E+02  0.7561462E-02  0.1125453E+00
         25   -1    0    0    0    0  0.00000000000E+00  0.00000000000E+00  0.99999998245E-14  0.12509000000E+03  0.12509000000E+03 0.  0.
        -13    1    3    3    0    0  0.10626116661E+02 -0.33806976682E+02 -0.23605250512E+02  0.42579866644E+02  0.10566000000E+00 0.  1.
         23    2    1    0    0    0  0.31659265069E+01 -0.82938411775E+01  0.25319397842E+02  0.98259368266E+02  0.94525238180E+02 0.  0.
         13    1    3    3    0    0 -0.74601901537E+01  0.25513135504E+02  0.48924648354E+02  0.55679501623E+02  0.10566000000E+00 0. -1.
         22    1    1    0    0    0 -0.31659265069E+01  0.82938411775E+01 -0.25319397842E+02  0.26830631734E+02  0.00000000000E+00 0. -1.
</event>
<event>
 5    1  0.1254921E-009  0.9118800E+02  0.7561462E-02  0.1125453E+00
         25   -1    0    0    0    0  0.00000000000E+00  0.00000000000E+00  0.99999998245E-14  0.12509000000E+03  0.12509000000E+03 0.  0.
        -13    1    3    3    0    0  0.24237884116E+02 -0.84097434853E+01  0.44189818281E+02  0.51097456058E+02  0.10566000000E+00 0. -1.
         23    2    1    0    0    0 -0.25794138767E+01 -0.17068244279E+02 -0.44072895258E+01  0.10727420533E+03  0.10578446289E+03 0.  0.
         13    1    3    3    0    0 -0.26817297993E+02 -0.86585007942E+01 -0.48597107806E+02  0.56176749273E+02  0.10566000000E+00 0.  1.
         22    1    1    0    0    0  0.25794138767E+01  0.17068244279E+02  0.44072895258E+01  0.17815794669E+02  0.00000000000E+00 0.  1.
</event>
<event>
 5    1  0.1254921E-009  0.9118800E+02  0.7561462E-02  0.1125453E+00
         25   -1    0    0    0    0  0.00000000000E+00  0.00000000000E+00  0.99999998245E-14  0.12509000000E+03  0.12509000000E+03 0.  0.
        -13    1    3    3    0    0 -0.93391981257E+01 -0.34356670513E+02 -0.22873221441E+02  0.42317807758E+02  0.10566000000E+00 0.  1.
         23    2    1    0    0    0 -0.22202853001E+02 -0.44508736692E+01  0.19120506594E+02  0.95452680111E+02  0.90735017552E+02 0.  0.
         13    1    3    3    0    0 -0.12863654875E+02  0.29905796843E+02  0.41993728035E+02  0.53134872353E+02  0.10566000000E+00 0. -1.
         22    1    1    0    0    0  0.22202853001E+02  0.44508736692E+01 -0.19120506594E+02  0.29637319889E+02  0.00000000000E+00 0.  1.
</event>
<event>
 5    1  0.1254921E-009  0.9118800E+02  0.7561462E-02  0.1125453E+00
         25   -1    0    0    0    0  0.00000000000E+00  0.00000000000E+00  0.99999998245E-14  0.12509000000E+03  0.12509000000E+03 0.  0.
        -13    1    3    3    0    0 -0.68059878414E+01 -0.60521892862E+00 -0.34318014887E+02  0.34991785754E+02  0.10566000000E+00 0.  1.
         23    2    1    0    0    0  0.10876156660E+02 -0.56706226322E+01  0.25079312775E+02  0.97171929258E+02  0.93075051231E+02 0.  0.
         13    1    3    3    0    0  0.17682144502E+02 -0.50654037036E+01  0.59397327661E+02  0.62180143504E+02  0.10566000000E+00 0. -1.
         22    1    1    0    0    0 -0.10876156660E+02  0.56706226322E+01 -0.25079312775E+02  0.27918070742E+02  0.00000000000E+00 0. -1.
</event>
<event>
 5    1  0.1254921E-009  0.9118800E+02  0.7561462E-02  0.1125453E+00
         25   -1    0    0    0    0  0.00000000000E+00  0.00000000000E+00  0.99999998245E-14  0.12509000000E+03  0.12509000000E+03 0.  0.
        -13    1    3    3    0    0 -0.57359345862E+02 -0.28045234147E+01  0.41925033073E+01  0.57580796776E+02  0.10566000000E+00 0.  1.
         23    2    1    0    0    0 -0.36752439487E+02  0.15303307844E+02  0.38092097758E+00  0.85276960176E+02  0.75412742935E+02 0.  0.
         13    1    3    3    0    0  0.20606906375E+02  0.18107831258E+02 -0.38115823298E+01  0.27696163401E+02  0.10566000000E+00 0. -1.
         22    1    1    0    0    0  0.36752439487E+02 -0.15303307844E+02 -0.38092097758E+00  0.39813039824E+02  0.00000000000E+00 0.  1.
</event>
<event>
 5    1  0.1254921E-009  0.9118800E+02  0.7561462E-02  0.1125453E+00
         25   -1    0    0    0    0  0.00000000000E+00  0.00000000000E+00  0.99999998245E-14  0.12509000000E+03  0.12509000000E+03 0.  0.
        -13    1    3    3    0    0 -0.87296372759E+01 -0.37770219165E+02 -0.46901676243E+02  0.60848783235E+02  0.10566000000E+00 0. -1.
         23    2    1    0    0    0  0.37379582643E+01 -0.12389686221E+02 -0.26114445416E+02  0.95944830314E+02  0.91410992490E+02 0.  0.
         13    1    3    3    0    0  0.12467595540E+02  0.25380532944E+02  0.20787230827E+02  0.35096047079E+02  0.10566000000E+00 0.  1.
         22    1    1    0    0    0 -0.37379582643E+01  0.12389686221E+02  0.26114445416E+02  0.29145169686E+02  0.00000000000E+00 0. -1.
</event>
<event>
 5    1  0.1254921E-009  0.9118800E+02  0.7561462E-02  0.1125453E+00
         25   -1    0    0    0    0  0.00000000000E+00  0.00000000000E+00  0.99999998245E-14  0.12509000000E+03  0.12509000000E+03 0.  0.
        -13    1    3    3    0    0 -0.21418856484E+02  0.17703940836E+02 -0.20404075507E+02  0.34475127201E+02  0.10566000000E+00 0. -1.
         23    2    1    0    0    0  0.80324211406E+01 -0.23948183149E+02  0.14195975481E+02  0.96114821219E+02  0.91643318756E+02 0.  0.
         13    1    3    3    0    0  0.29451277624E+02 -0.41652123985E+02  0.34600050989E+02  0.61639694018E+02  0.10566000000E+00 0.  1.
         22    1    1    0    0    0 -0.80324211406E+01  0.23948183149E+02 -0.14195975481E+02  0.28975178781E+02  0.00000000000E+00 0.  1.
</event>
<event>
 5    1  0.1254921E-009  0.9118800E+02  0.7561462E-02  0.1125453E+00
         25   -1    0    0    0    0  0.00000000000E+00  0.00000000000E+00  0.99999998245E-14  0.12509000000E+03  0.12509000000E+03 0.  0.
        -13    1    3    3    0    0 -0.21979590160E+02  0.38756545220E+02 -0.35485582569E+02  0.56959721868E+02  0.10566000000E+00 0.  1.
         23    2    1    0    0    0 -0.25439728985E+02  0.87034599993E+01 -0.10392612255E+02  0.96264032257E+02  0.91846760913E+02 0.  0.
         13    1    3    3    0    0 -0.34601388253E+01 -0.30053085220E+02  0.25092970314E+02  0.39304310389E+02  0.10566000000E+00 0. -1.
         22    1    1    0    0    0  0.25439728985E+02 -0.87034599993E+01  0.10392612255E+02  0.28825967743E+02  0.00000000000E+00 0.  1.
</event>
<event>
 5    1  0.1254921E-009  0.9118800E+02  0.7561462E-02  0.1125453E+00
         25   -1    0    0    0    0  0.00000000000E+00  0.00000000000E+00  0.99999998245E-14  0.12509000000E+03  0.12509000000E+03 0.  0.
        -13    1    3    3    0    0 -0.18549583173E+02 -0.27542651175E+02  0.16907584106E+02  0.37263416832E+02  0.10566000000E+00 0.  1.
         23    2    1    0    0    0  0.30480071924E+01  0.35601956660E+00 -0.29427968494E+02  0.95502461619E+02  0.90803621887E+02 0.  0.
         13    1    3    3    0    0  0.21597590366E+02  0.27898670742E+02 -0.46335552600E+02  0.58239044786E+02  0.10566000000E+00 0. -1.
         22    1    1    0    0    0 -0.30480071924E+01 -0.35601956660E+00  0.29427968494E+02  0.29587538381E+02  0.00000000000E+00 0. -1.
</event>
<event>
 5    1  0.1254921E-009  0.9118800E+02  0.7561462E-02  0.1125453E+00
         25   -1    0    0    0    0  0.00000000000E+00  0.00000000000E+00  0.99999998245E-14  0.12509000000E+03  0.12509000000E+03 0.  0.
        -13    1    3    3    0    0  0.28413943249E+02 -0.43803232095E+02  0.34296243602E+02  0.62468542501E+02  0.10566000000E+00 0. -1.
         23    2    1    0    0    0  0.12636848297E+02 -0.21489556182E+02  0.18624943009E+02  0.93971204043E+02  0.88669091162E+02 0.  0.
         13    1    3    3    0    0 -0.15777094953E+02  0.22313675913E+02 -0.15671300593E+02  0.31502661542E+02  0.10566000000E+00 0.  1.
         22    1    1    0    0    0 -0.12636848297E+02  0.21489556182E+02 -0.18624943009E+02  0.31118795957E+02  0.00000000000E+00 0. -1.
</event>
<event>
 5    1  0.1254921E-009  0.9118800E+02  0.7561462E-02  0.1125453E+00
         25   -1    0    0    0    0  0.00000000000E+00  0.00000000000E+00  0.99999998245E-14  0.12509000000E+03  0.12509000000E+03 0.  0.
        -13    1    3    3    0    0  0.32209080811E+02  0.33810154496E+02 -0.12457811612E+02  0.48329697578E+02  0.10566000000E+00 0. -1.
         23    2    1    0    0    0 -0.85798760652E+00  0.76165158331E+01 -0.30081204826E+02  0.94047668580E+02  0.88776898039E+02 0.  0.
         13    1    3    3    0    0 -0.33067068418E+02 -0.26193638663E+02 -0.17623393214E+02  0.45717971002E+02  0.10566000000E+00 0.  1.
         22    1    1    0    0    0  0.85798760652E+00 -0.76165158331E+01  0.30081204826E+02  0.31042331420E+02  0.00000000000E+00 0.  1.
</event>
<event>
 5    1  0.1254921E-009  0.9118800E+02  0.7561462E-02  0.1125453E+00
         25   -1    0    0    0    0  0.00000000000E+00  0.00000000000E+00  0.99999998245E-14  0.12509000000E+03  0.12509000000E+03 0.  0.
        -13    1    3    3    0    0  0.97930972114E+01  0.11136775383E+02  0.31504269349E+02  0.34820434664E+02  0.10566000000E+00 0.  1.
         23    2    1    0    0    0 -0.19928593748E+02 -0.32952575244E+01 -0.20421220941E+02  0.96366597771E+02  0.91986343173E+02 0.  0.
         13    1    3    3    0    0 -0.29721690959E+02 -0.14432032907E+02 -0.51925490290E+02  0.61546163107E+02  0.10566000000E+00 0. -1.
         22    1    1    0    0    0  0.19928593748E+02  0.32952575244E+01  0.20421220941E+02  0.28723402229E+02  0.00000000000E+00 0. -1.
</event>
<event>
 5    1  0.1254921E-009  0.9118800E+02  0.7561462E-02  0.1125453E+00
         25   -1    0    0    0    0  0.00000000000E+00  0.00000000000E+00  0.99999998245E-14  0.12509000000E+03  0.12509000000E+03 0.  0.
        -13    1    3    3    0    0 -0.18595605428E+02 -0.14235878364E+02 -0.41986389062E+02  0.48076239500E+02  0.10566000000E+00 0.  1.
         23    2    1    0    0    0 -0.55395937177E+00 -0.28583540465E+02  0.59298711144E+00  0.96494942906E+02  0.92160711349E+02 0.  0.
         13    1    3    3    0    0  0.18041646056E+02 -0.14347662101E+02  0.42579376173E+02  0.48418703406E+02  0.10566000000E+00 0. -1.
         22    1    1    0    0    0  0.55395937177E+00  0.28583540465E+02 -0.59298711144E+00  0.28595057094E+02  0.00000000000E+00 0. -1.
</event>
<event>
 5    1  0.1254921E-009  0.9118800E+02  0.7561462E-02  0.1125453E+00
         25   -1    0    0    0    0  0.00000000000E+00  0.00000000000E+00  0.99999998245E-14  0.12509000000E+03  0.12509000000E+03 0.  0.
        -13    1    3    3    0    0  0.25659344205E+02  0.25880652562E+02  0.18222835229E+02  0.40746693238E+02  0.10566000000E+00 0. -1.
         23    2    1    0    0    0 -0.21410423821E+02  0.25102954377E+02 -0.21161830211E+01  0.92028802242E+02  0.85885142166E+02 0.  0.
         13    1    3    3    0    0 -0.47069768025E+02 -0.77769818547E+00 -0.20339018250E+02  0.51282109003E+02  0.10566000000E+00 0.  1.
         22    1    1    0    0    0  0.21410423821E+02 -0.25102954377E+02  0.21161830211E+01  0.33061197758E+02  0.00000000000E+00 0. -1.
</event>
<event>
 5    1  0.1254921E-009  0.9118800E+02  0.7561462E-02  0.1125453E+00
         25   -1    0    0    0    0  0.00000000000E+00  0.00000000000E+00  0.99999998245E-14  0.12509000000E+03  0.12509000000E+03 0.  0.
        -13    1    3    3    0    0 -0.42091517620E+02  0.13945117485E+02 -0.34584838180E+02  0.56234192030E+02  0.10566000000E+00 0. -1.
         23    2    1    0    0    0 -0.27664776679E+02  0.10898775035E+02  0.16048427971E+01  0.95312513767E+02  0.90541573844E+02 0.  0.
         13    1    3    3    0    0  0.14426740941E+02 -0.30463424503E+01  0.36189680977E+02  0.39078321737E+02  0.10566000000E+00 0.  1.
         22    1    1    0    0    0  0.27664776679E+02 -0.10898775035E+02 -0.16048427971E+01  0.29777486233E+02  0.00000000000E+00 0. -1.
</event>
<event>
 5    1  0.1254921E-009  0.9118800E+02  0.7561462E-02  0.1125453E+00
         25   -1    0    0    0    0  0.00000000000E+00  0.00000000000E+00  0.99999998245E-14  0.12509000000E+03  0.12509000000E+03 0.  0.
        -13    1    3    3    0    0 -0.42853571363E+02  0.32268352173E+02 -0.23891423557E+02  0.58723814711E+02  0.10566000000E+00 0. -1.
         23    2    1    0    0    0 -0.18363500705E+02  0.38151853937E+01 -0.21812405245E+02  0.96322747432E+02  0.91926692819E+02 0.  0.
         13    1    3    3    0    0  0.24490070658E+02 -0.28453166779E+02  0.20790183122E+01  0.37598932721E+02  0.10566000000E+00 0.  1.
         22    1    1    0    0    0  0.18363500705E+02 -0.38151853937E+01  0.21812405245E+02  0.28767252568E+02  0.00000000000E+00 0. -1.
</event>
<event>
 5    1  0.1254921E-009  0.9118800E+02  0.7561462E-02  0.1125453E+00
         25   -1    0    0    0    0  0.00000000000E+00  0.00000000000E+00  0.99999998245E-14  0.12509000000E+03  0.12509000000E+03 0.  0.
        -13    1    3    3    0    0 -0.15874701356E+02 -0.17809626531E+02  0.28816125046E+02  0.37410816177E+02  0.10566000000E+00 0.  1.
         23    2    1    0    0    0  0.13206596216E+01 -0.11945284827E+02 -0.26692329091E+02  0.95816899656E+02  0.91235759744E+02 0.  0.
         13    1    3    3    0    0  0.17195360978E+02  0.58643417046E+01 -0.55508454136E+02  0.58406083480E+02  0.10566000000E+00 0. -1.
         22    1    1    0    0    0 -0.13206596216E+01  0.11945284827E+02  0.26692329091E+02  0.29273100344E+02  0.00000000000E+00 0. -1.
</event>
<event>
 5    1  0.1254921E-009  0.9118800E+02  0.7561462E-02  0.1125453E+00
         25   -1    0    0    0    0  0.00000000000E+00  0.00000000000E+00  0.99999998245E-14  0.12509000000E+03  0.12509000000E+03 0.  0.
        -13    1    3    3    0    0 -0.52695189613E+02 -0.15872746708E+02  0.27883367857E+02  0.61694574020E+02  0.10566000000E+00 0. -1.
         23    2    1    0    0    0 -0.20408345018E+02 -0.11914574286E+02  0.16936589543E+02  0.96015858703E+02  0.91508138602E+02 0.  0.
         13    1    3    3    0    0  0.32286844595E+02  0.39581724223E+01 -0.10946778313E+02  0.34321284684E+02  0.10566000000E+00 0.  1.
         22    1    1    0    0    0  0.20408345018E+02  0.11914574286E+02 -0.16936589543E+02  0.29074141297E+02  0.00000000000E+00 0. -1.
</event>
<event>
 5    1  0.1254921E-009  0.9118800E+02  0.7561462E-02  0.1125453E+00
         25   -1    0    0    0    0  0.00000000000E+00  0.00000000000E+00  0.99999998245E-14  0.12509000000E+03  0.12509000000E+03 0.  0.
        -13    1    3    3    0    0  0.57418717721E+02  0.12731681748E+01 -0.15240728371E+02  0.59420712443E+02  0.10566000000E+00 0.  1.
         23    2    1    0    0    0  0.21270388680E+02 -0.94596056416E+01 -0.15487605296E+02  0.97129680058E+02  0.93018252278E+02 0.  0.
         13    1    3    3    0    0 -0.36148329042E+02 -0.10732773816E+02 -0.24687692438E+00  0.37708967614E+02  0.10566000000E+00 0. -1.
         22    1    1    0    0    0 -0.21270388680E+02  0.94596056416E+01  0.15487605296E+02  0.27960319942E+02  0.00000000000E+00 0.  1.
</event>
<event>
 5    1  0.1254921E-009  0.9118800E+02  0.7561462E-02  0.1125453E+00
         25   -1    0    0    0    0  0.00000000000E+00  0.00000000000E+00  0.99999998245E-14  0.12509000000E+03  0.12509000000E+03 0.  0.
        -13    1    3    3    0    0 -0.18701699217E+02  0.22960492151E+01  0.30402169197E+02  0.35767701233E+02  0.10566000000E+00 0. -1.
         23    2    1    0    0    0  0.56269802564E+01 -0.68197879519E+01 -0.25871561779E+02  0.97749368636E+02  0.93847903255E+02 0.  0.
         13    1    3    3    0    0  0.24328679473E+02 -0.91158371671E+01 -0.56273730975E+02  0.61981667403E+02  0.10566000000E+00 0.  1.
         22    1    1    0    0    0 -0.56269802564E+01  0.68197879519E+01  0.25871561779E+02  0.27340631364E+02  0.00000000000E+00 0.  1.
</event>
<event>
 5    1  0.1254921E-009  0.9118800E+02  0.7561462E-02  0.1125453E+00
         25   -1    0    0    0    0  0.00000000000E+00  0.00000000000E+00  0.99999998245E-14  0.12509000000E+03  0.12509000000E+03 0.  0.
        -13    1    3    3    0    0  0.19280337066E+02 -0.18295708406E+02  0.34586995185E+02  0.43620359276E+02  0.10566000000E+00 0. -1.
         23    2    1    0    0    0 -0.18636934819E+02  0.13746821844E+02  0.17284544348E+02  0.96192492779E+02  0.91749276528E+02 0.  0.
         13    1    3    3    0    0 -0.37917271885E+02  0.32042530250E+02 -0.17302450837E+02  0.52572133503E+02  0.10566000000E+00 0.  1.
         22    1    1    0    0    0  0.18636934819E+02 -0.13746821844E+02 -0.17284544348E+02  0.28897507221E+02  0.00000000000E+00 0.  1.
</event>
<event>
 5    1  0.1254921E-009  0.9118800E+02  0.7561462E-02  0.1125453E+00
         25   -1    0    0    0    0  0.00000000000E+00  0.00000000000E+00  0.99999998245E-14  0.12509000000E+03  0.12509000000E+03 0.  0.
        -13    1    3    3    0    0 -0.33262270850E+01  0.94455343853E+00  0.50905862556E+02  0.51023268951E+02  0.10566000000E+00 0. -1.
         23    2    1    0    0    0  0.25082359317E+02  0.11684855679E+01  0.20126266204E+02  0.92909933208E+02  0.87159044223E+02 0.  0.
         13    1    3    3    0    0  0.28408586402E+02  0.22393212935E+00 -0.30779596352E+02  0.41886664257E+02  0.10566000000E+00 0.  1.
         22    1    1    0    0    0 -0.25082359317E+02 -0.11684855679E+01 -0.20126266204E+02  0.32180066792E+02  0.00000000000E+00 0. -1.
</event>
<event>
 5    1  0.1254921E-009  0.9118800E+02  0.7561462E-02  0.1125453E+00
         25   -1    0    0    0    0  0.00000000000E+00  0.00000000000E+00  0.99999998245E-14  0.12509000000E+03  0.12509000000E+03 0.  0.
        -13    1    3    3    0    0  0.21584246669E+02  0.43150086446E+00  0.51493868612E+02  0.55836328371E+02  0.10566000000E+00 0. -1.
         23    2    1    0    0    0 -0.90809202587E+01  0.73662787314E+01  0.26919504151E+02  0.95740640913E+02  0.91131144202E+02 0.  0.
         13    1    3    3    0    0 -0.30665166928E+02  0.69347778669E+01 -0.24574364461E+02  0.39904312542E+02  0.10566000000E+00 0.  1.
         22    1    1    0    0    0  0.90809202587E+01 -0.73662787314E+01 -0.26919504151E+02  0.29349359087E+02  0.00000000000E+00 0. -1.
</event>
<event>
 5    1  0.1254921E-009  0.9118800E+02  0.7561462E-02  0.1125453E+00
         25   -1    0    0    0    0  0.00000000000E+00  0.00000000000E+00  0.99999998245E-14  0.12509000000E+03  0.12509000000E+03 0.  0.
        -13    1    3    3    0    0 -0.11257108229E+02 -0.67652740199E+01  0.17920465057E+02  0.22218137864E+02  0.10566000000E+00 0.  1.
         23    2    1    0    0    0  0.19950737326E+02  0.39632270090E+02  0.74505167930E+00  0.80713160834E+02  0.67418917801E+02 0.  0.
         13    1    3    3    0    0  0.31207845555E+02  0.46397544110E+02 -0.17175413377E+02  0.58495022971E+02  0.10566000000E+00 0. -1.
         22    1    1    0    0    0 -0.19950737326E+02 -0.39632270090E+02 -0.74505167930E+00  0.44376839166E+02  0.00000000000E+00 0. -1.
</event>
<event>
 5    1  0.1254921E-009  0.9118800E+02  0.7561462E-02  0.1125453E+00
         25   -1    0    0    0    0  0.00000000000E+00  0.00000000000E+00  0.99999998245E-14  0.12509000000E+03  0.12509000000E+03 0.  0.
        -13    1    3    3    0    0  0.58897013364E+02 -0.97303098357E+01 -0.67703928538E+01  0.60078169880E+02  0.10566000000E+00 0.  1.
         23    2    1    0    0    0  0.22183713352E+02 -0.15948416146E+02 -0.10772088701E+01  0.97747185686E+02  0.93844993553E+02 0.  0.
         13    1    3    3    0    0 -0.36713300012E+02 -0.62181063102E+01  0.56931839837E+01  0.37669015806E+02  0.10566000000E+00 0. -1.
         22    1    1    0    0    0 -0.22183713352E+02  0.15948416146E+02  0.10772088701E+01  0.27342814314E+02  0.00000000000E+00 0.  1.
</event>
<event>
 5    1  0.1254921E-009  0.9118800E+02  0.7561462E-02  0.1125453E+00
         25   -1    0    0    0    0  0.00000000000E+00  0.00000000000E+00  0.99999998245E-14  0.12509000000E+03  0.12509000000E+03 0.  0.
        -13    1    3    3    0    0  0.14750856961E+02 -0.19680929570E+02 -0.37975998742E+02  0.45245048506E+02  0.10566000000E+00 0.  1.
         23    2    1    0    0    0 -0.38981604472E+01  0.23166996776E+02 -0.13415059440E+02  0.98036918580E+02  0.94230399503E+02 0.  0.
         13    1    3    3    0    0 -0.18649017409E+02  0.42847926347E+02  0.24560939302E+02  0.52791870074E+02  0.10566000000E+00 0. -1.
         22    1    1    0    0    0  0.38981604472E+01 -0.23166996776E+02  0.13415059440E+02  0.27053081420E+02  0.00000000000E+00 0. -1.
</event>
<event>
 5    1  0.1254921E-009  0.9118800E+02  0.7561462E-02  0.1125453E+00
         25   -1    0    0    0    0  0.00000000000E+00  0.00000000000E+00  0.99999998245E-14  0.12509000000E+03  0.12509000000E+03 0.  0.
        -13    1    3    3    0    0  0.81035504857E+01  0.75037531573E+01  0.37707061734E+02  0.39291315969E+02  0.10566000000E+00 0.  1.
         23    2    1    0    0    0  0.78635174974E+01 -0.73267873799E+01 -0.21888537783E+02  0.10070507008E+03  0.97708169226E+02 0.  0.
         13    1    3    3    0    0 -0.24003298835E+00 -0.14830540537E+02 -0.59595599518E+02  0.61413754114E+02  0.10566000000E+00 0. -1.
         22    1    1    0    0    0 -0.78635174974E+01  0.73267873799E+01  0.21888537783E+02  0.24384929917E+02  0.00000000000E+00 0. -1.
</event>
<event>
 5    1  0.1254921E-009  0.9118800E+02  0.7561462E-02  0.1125453E+00
         25   -1    0    0    0    0  0.00000000000E+00  0.00000000000E+00  0.99999998245E-14  0.12509000000E+03  0.12509000000E+03 0.  0.
        -13    1    3    3    0    0  0.14785865296E+01 -0.57092864715E+02 -0.10270586882E+02  0.58028247763E+02  0.10566000000E+00 0. -1.
         23    2    1    0    0    0 -0.12538316645E+02 -0.26467136083E+02  0.56184524780E+01  0.95269106570E+02  0.90481583660E+02 0.  0.
         13    1    3    3    0    0 -0.14016903175E+02  0.30625728632E+02  0.15889039360E+02  0.37240858807E+02  0.10566000000E+00 0.  1.
         22    1    1    0    0    0  0.12538316645E+02  0.26467136083E+02 -0.56184524780E+01  0.29820893430E+02  0.00000000000E+00 0. -1.
</event>
<event>
 5    1  0.1254921E-009  0.9118800E+02  0.7561462E-02  0.1125453E+00
         25   -1    0    0    0    0  0.00000000000E+00  0.00000000000E+00  0.99999998245E-14  0.12509000000E+03  0.12509000000E+03 0.  0.
        -13    1    3    3    0    0 -0.43050003775E+02  0.28875901189E+02 -0.32035313931E+02  0.60937615618E+02  0.10566000000E+00 0.  1.
         23    2    1    0    0    0 -0.26346125895E+02  0.11040760921E+02 -0.75217294440E+01  0.95550312033E+02  0.90869516144E+02 0.  0.
         13    1    3    3    0    0  0.16703877880E+02 -0.17835140268E+02  0.24513584487E+02  0.34612696414E+02  0.10566000000E+00 0. -1.
         22    1    1    0    0    0  0.26346125895E+02 -0.11040760921E+02  0.75217294440E+01  0.29539687967E+02  0.00000000000E+00 0.  1.
</event>
<event>
 5    1  0.1254921E-009  0.9118800E+02  0.7561462E-02  0.1125453E+00
         25   -1    0    0    0    0  0.00000000000E+00  0.00000000000E+00  0.99999998245E-14  0.12509000000E+03  0.12509000000E+03 0.  0.
        -13    1    3    3    0    0  0.99941874549E+01 -0.48011763011E+02 -0.25433889400E+02  0.55244068137E+02  0.10566000000E+00 0. -1.
         23    2    1    0    0    0  0.72160542664E+01 -0.29013511405E+02  0.83020756552E+01  0.94061307739E+02  0.88796114049E+02 0.  0.
         13    1    3    3    0    0 -0.27781331885E+01  0.18998251606E+02  0.33735965055E+02  0.38817239602E+02  0.10566000000E+00 0.  1.
         22    1    1    0    0    0 -0.72160542664E+01  0.29013511405E+02 -0.83020756552E+01  0.31028692261E+02  0.00000000000E+00 0. -1.
</event>
<event>
 5    1  0.1254921E-009  0.9118800E+02  0.7561462E-02  0.1125453E+00
         25   -1    0    0    0    0  0.00000000000E+00  0.00000000000E+00  0.99999998245E-14  0.12509000000E+03  0.12509000000E+03 0.  0.
        -13    1    3    3    0    0 -0.32607481527E+02 -0.69638710319E+01 -0.15277039945E+02  0.36676183891E+02  0.10566000000E+00 0. -1.
         23    2    1    0    0    0  0.91484858778E+00 -0.29980938262E+01  0.30986296876E+02  0.93945560551E+02  0.88632907200E+02 0.  0.
         13    1    3    3    0    0  0.33522330115E+02  0.39657772058E+01  0.46263336821E+02  0.57269376660E+02  0.10566000000E+00 0.  1.
         22    1    1    0    0    0 -0.91484858778E+00  0.29980938262E+01 -0.30986296876E+02  0.31144439449E+02  0.00000000000E+00 0.  1.
</event>
<event>
 5    1  0.1254921E-009  0.9118800E+02  0.7561462E-02  0.1125453E+00
         25   -1    0    0    0    0  0.00000000000E+00  0.00000000000E+00  0.99999998245E-14  0.12509000000E+03  0.12509000000E+03 0.  0.
        -13    1    3    3    0    0 -0.37764774857E+02  0.24863452048E+02 -0.30714313381E+02  0.54660311728E+02  0.10566000000E+00 0.  1.
         23    2    1    0    0    0 -0.27722939336E+02  0.97416013578E+01  0.55236349989E+01  0.95190657097E+02  0.90373062870E+02 0.  0.
         13    1    3    3    0    0  0.10041835521E+02 -0.15121850690E+02  0.36237948380E+02  0.40530345369E+02  0.10566000000E+00 0. -1.
         22    1    1    0    0    0  0.27722939336E+02 -0.97416013578E+01 -0.55236349989E+01  0.29899342903E+02  0.00000000000E+00 0.  1.
</event>
<event>
 5    1  0.1254921E-009  0.9118800E+02  0.7561462E-02  0.1125453E+00
         25   -1    0    0    0    0  0.00000000000E+00  0.00000000000E+00  0.99999998245E-14  0.12509000000E+03  0.12509000000E+03 0.  0.
        -13    1    3    3    0    0  0.69549274596E+01 -0.28844171696E+02 -0.34524037009E+02  0.45522275341E+02  0.10566000000E+00 0.  1.
         23    2    1    0    0    0 -0.24362663318E+02  0.56125115523E+01 -0.14312662914E+02  0.96282154374E+02  0.91871438877E+02 0.  0.
         13    1    3    3    0    0 -0.31317590778E+02  0.34456683249E+02  0.20211374094E+02  0.50759879033E+02  0.10566000000E+00 0. -1.
         22    1    1    0    0    0  0.24362663318E+02 -0.56125115523E+01  0.14312662914E+02  0.28807845626E+02  0.00000000000E+00 0. -1.
</event>
<event>
 5    1  0.1254921E-009  0.9118800E+02  0.7561462E-02  0.1125453E+00
         25   -1    0    0    0    0  0.00000000000E+00  0.00000000000E+00  0.99999998245E-14  0.12509000000E+03  0.12509000000E+03 0.  0.
        -13    1    3    3    0    0  0.20267548386E+02 -0.95687542711E+01 -0.53721142361E+02  0.58209164884E+02  0.10566000000E+00 0.  1.
         23    2    1    0    0    0 -0.45064653159E+01 -0.12838329426E+02 -0.27367579642E+02  0.94526699335E+02  0.89449323864E+02 0.  0.
         13    1    3    3    0    0 -0.24774013702E+02 -0.32695751544E+01  0.26353562719E+02  0.36317534451E+02  0.10566000000E+00 0. -1.
         22    1    1    0    0    0  0.45064653159E+01  0.12838329426E+02  0.27367579642E+02  0.30563300665E+02  0.00000000000E+00 0.  1.
</event>
<event>
 5    1  0.1254921E-009  0.9118800E+02  0.7561462E-02  0.1125453E+00
         25   -1    0    0    0    0  0.00000000000E+00  0.00000000000E+00  0.99999998245E-14  0.12509000000E+03  0.12509000000E+03 0.  0.
        -13    1    3    3    0    0  0.64996872527E+01  0.48499460246E+02 -0.21070077605E+02  0.53276663868E+02  0.10566000000E+00 0.  1.
         23    2    1    0    0    0  0.49252201635E+01  0.24076434281E+02  0.14577264521E+02  0.96516776131E+02  0.92190340885E+02 0.  0.
         13    1    3    3    0    0 -0.15744670892E+01 -0.24423025965E+02  0.35647342125E+02  0.43240112263E+02  0.10566000000E+00 0. -1.
         22    1    1    0    0    0 -0.49252201635E+01 -0.24076434281E+02 -0.14577264521E+02  0.28573223869E+02  0.00000000000E+00 0.  1.
</event>
<event>
 5    1  0.1254921E-009  0.9118800E+02  0.7561462E-02  0.1125453E+00
         25   -1    0    0    0    0  0.00000000000E+00  0.00000000000E+00  0.99999998245E-14  0.12509000000E+03  0.12509000000E+03 0.  0.
        -13    1    3    3    0    0  0.58069354601E+02  0.80494991054E+01  0.12903141865E+02  0.60027881968E+02  0.10566000000E+00 0.  1.
         23    2    1    0    0    0  0.26150724477E+02 -0.82092922622E+01  0.97938553312E+01  0.95983772619E+02  0.91464266978E+02 0.  0.
         13    1    3    3    0    0 -0.31918630123E+02 -0.16258791368E+02 -0.31092865334E+01  0.35955890651E+02  0.10566000000E+00 0. -1.
         22    1    1    0    0    0 -0.26150724477E+02  0.82092922622E+01 -0.97938553312E+01  0.29106227381E+02  0.00000000000E+00 0.  1.
</event>
<event>
 5    1  0.1254921E-009  0.9118800E+02  0.7561462E-02  0.1125453E+00
         25   -1    0    0    0    0  0.00000000000E+00  0.00000000000E+00  0.99999998245E-14  0.12509000000E+03  0.12509000000E+03 0.  0.
        -13    1    3    3    0    0 -0.17910331613E+02  0.75279871768E+01  0.33261037655E+02  0.38519584101E+02  0.10566000000E+00 0.  1.
         23    2    1    0    0    0  0.23853334097E+02  0.16149470806E+02 -0.50488041267E+01  0.95844874287E+02  0.91274106674E+02 0.  0.
         13    1    3    3    0    0  0.41763665710E+02  0.86214836293E+01 -0.38309841781E+02  0.57325290186E+02  0.10566000000E+00 0. -1.
         22    1    1    0    0    0 -0.23853334097E+02 -0.16149470806E+02  0.50488041267E+01  0.29245125713E+02  0.00000000000E+00 0. -1.
</event>
<event>
 5    1  0.1254921E-009  0.9118800E+02  0.7561462E-02  0.1125453E+00
         25   -1    0    0    0    0  0.00000000000E+00  0.00000000000E+00  0.99999998245E-14  0.12509000000E+03  0.12509000000E+03 0.  0.
        -13    1    3    3    0    0 -0.26940039002E+01 -0.36556350130E+02  0.45866823297E+02  0.58714572597E+02  0.10566000000E+00 0. -1.
         23    2    1    0    0    0 -0.12772064375E+02 -0.57112537103E+01  0.22086032163E+02  0.98945462061E+02  0.95428861454E+02 0.  0.
         13    1    3    3    0    0 -0.10078060475E+02  0.30845096420E+02 -0.23780791133E+02  0.40230889464E+02  0.10566000000E+00 0.  1.
         22    1    1    0    0    0  0.12772064375E+02  0.57112537103E+01 -0.22086032163E+02  0.26144537939E+02  0.00000000000E+00 0. -1.
</event>
<event>
 5    1  0.1254921E-009  0.9118800E+02  0.7561462E-02  0.1125453E+00
         25   -1    0    0    0    0  0.00000000000E+00  0.00000000000E+00  0.99999998245E-14  0.12509000000E+03  0.12509000000E+03 0.  0.
        -13    1    3    3    0    0 -0.34600517608E+01  0.60763879877E+01 -0.40791901142E+02  0.41387012600E+02  0.10566000000E+00 0.  1.
         23    2    1    0    0    0 -0.14081334373E+01 -0.21525903716E+02  0.11567673586E+02  0.10061228681E+03  0.97589311993E+02 0.  0.
         13    1    3    3    0    0  0.20519183236E+01 -0.27602291704E+02  0.52359574728E+02  0.59225274215E+02  0.10566000000E+00 0. -1.
         22    1    1    0    0    0  0.14081334373E+01  0.21525903716E+02 -0.11567673586E+02  0.24477713185E+02  0.00000000000E+00 0. -1.
</event>
<event>
 5    1  0.1254921E-009  0.9118800E+02  0.7561462E-02  0.1125453E+00
         25   -1    0    0    0    0  0.00000000000E+00  0.00000000000E+00  0.99999998245E-14  0.12509000000E+03  0.12509000000E+03 0.  0.
        -13    1    3    3    0    0  0.32969111341E+01  0.16061735718E+02  0.35017639837E+02  0.38666461450E+02  0.10566000000E+00 0.  1.
         23    2    1    0    0    0  0.20620096253E+02 -0.17854586951E+02 -0.85235926768E+01  0.96513326352E+02  0.92185659875E+02 0.  0.
         13    1    3    3    0    0  0.17323185119E+02 -0.33916322669E+02 -0.43541232514E+02  0.57846864901E+02  0.10566000000E+00 0. -1.
         22    1    1    0    0    0 -0.20620096253E+02  0.17854586951E+02  0.85235926768E+01  0.28576673648E+02  0.00000000000E+00 0. -1.
</event>
<event>
 5    1  0.1254921E-009  0.9118800E+02  0.7561462E-02  0.1125453E+00
         25   -1    0    0    0    0  0.00000000000E+00  0.00000000000E+00  0.99999998245E-14  0.12509000000E+03  0.12509000000E+03 0.  0.
        -13    1    3    3    0    0  0.94764856245E+00  0.33733467155E+02 -0.61514860813E+01  0.34303014286E+02  0.10566000000E+00 0. -1.
         23    2    1    0    0    0  0.99464448753E+01 -0.23069326517E+02  0.15289347149E+02  0.95680992403E+02  0.91049231624E+02 0.  0.
         13    1    3    3    0    0  0.89987963128E+01 -0.56802793672E+02  0.21440833230E+02  0.61377978116E+02  0.10566000000E+00 0.  1.
         22    1    1    0    0    0 -0.99464448753E+01  0.23069326517E+02 -0.15289347149E+02  0.29409007597E+02  0.00000000000E+00 0.  1.
</event>
<event>
 5    1  0.1254921E-009  0.9118800E+02  0.7561462E-02  0.1125453E+00
         25   -1    0    0    0    0  0.00000000000E+00  0.00000000000E+00  0.99999998245E-14  0.12509000000E+03  0.12509000000E+03 0.  0.
        -13    1    3    3    0    0 -0.46042194477E+01 -0.26917032311E+02  0.21519044184E+02  0.34767885926E+02  0.10566000000E+00 0.  1.
         23    2    1    0    0    0  0.23438983290E+02  0.19390891497E+02 -0.36158982293E+01  0.94455585843E+02  0.89349820180E+02 0.  0.
         13    1    3    3    0    0  0.28043202738E+02  0.46307923808E+02 -0.25134942413E+02  0.59687699917E+02  0.10566000000E+00 0. -1.
         22    1    1    0    0    0 -0.23438983290E+02 -0.19390891497E+02  0.36158982293E+01  0.30634414157E+02  0.00000000000E+00 0. -1.
</event>
<event>
 5    1  0.1254921E-009  0.9118800E+02  0.7561462E-02  0.1125453E+00
         25   -1    0    0    0    0  0.00000000000E+00  0.00000000000E+00  0.99999998245E-14  0.12509000000E+03  0.12509000000E+03 0.  0.
        -13    1    3    3    0    0 -0.35223646858E+02 -0.32075740839E+02 -0.10238703367E+02  0.48727822227E+02  0.10566000000E+00 0.  1.
         23    2    1    0    0    0  0.64843114866E+01 -0.26374273859E+02  0.10889631047E+02  0.95828546151E+02  0.91251726428E+02 0.  0.
         13    1    3    3    0    0  0.41707958345E+02  0.57014669801E+01  0.21128334413E+02  0.47100723924E+02  0.10566000000E+00 0. -1.
         22    1    1    0    0    0 -0.64843114866E+01  0.26374273859E+02 -0.10889631047E+02  0.29261453849E+02  0.00000000000E+00 0.  1.
</event>
<event>
 5    1  0.1254921E-009  0.9118800E+02  0.7561462E-02  0.1125453E+00
         25   -1    0    0    0    0  0.00000000000E+00  0.00000000000E+00  0.99999998245E-14  0.12509000000E+03  0.12509000000E+03 0.  0.
        -13    1    3    3    0    0  0.62247441616E+01  0.57920981812E+02  0.12999452672E+02  0.59687389855E+02  0.10566000000E+00 0. -1.
         23    2    1    0    0    0  0.37000259292E+01  0.31157828877E+02 -0.66887770996E+01  0.93008225871E+02  0.87299999131E+02 0.  0.
         13    1    3    3    0    0 -0.25247182324E+01 -0.26763152935E+02 -0.19688229772E+02  0.33320836015E+02  0.10566000000E+00 0.  1.
         22    1    1    0    0    0 -0.37000259292E+01 -0.31157828877E+02  0.66887770996E+01  0.32081774129E+02  0.00000000000E+00 0. -1.
</event>
<event>
 5    1  0.1254921E-009  0.9118800E+02  0.7561462E-02  0.1125453E+00
         25   -1    0    0    0    0  0.00000000000E+00  0.00000000000E+00  0.99999998245E-14  0.12509000000E+03  0.12509000000E+03 0.  0.
        -13    1    3    3    0    0  0.31375621116E+02  0.27660712376E+02  0.11512835779E+01  0.41843532684E+02  0.10566000000E+00 0.  1.
         23    2    1    0    0    0 -0.50994645275E+01  0.61919410196E+00  0.29350508804E+02  0.95293350744E+02  0.90515094814E+02 0.  0.
         13    1    3    3    0    0 -0.36475085643E+02 -0.27041518274E+02  0.28199225226E+02  0.53449818060E+02  0.10566000000E+00 0. -1.
         22    1    1    0    0    0  0.50994645275E+01 -0.61919410196E+00 -0.29350508804E+02  0.29796649256E+02  0.00000000000E+00 0. -1.
</event>
<event>
 5    1  0.1254921E-009  0.9118800E+02  0.7561462E-02  0.1125453E+00
         25   -1    0    0    0    0  0.00000000000E+00  0.00000000000E+00  0.99999998245E-14  0.12509000000E+03  0.12509000000E+03 0.  0.
        -13    1    3    3    0    0 -0.39687606442E+02 -0.14609472645E+01  0.23242906835E+02  0.46016131456E+02  0.10566000000E+00 0.  1.
         23    2    1    0    0    0 -0.25028215705E+02 -0.99313071423E+01 -0.19403570526E+02  0.91900528897E+02  0.85698110945E+02 0.  0.
         13    1    3    3    0    0  0.14659390737E+02 -0.84703598778E+01 -0.42646477361E+02  0.45884397441E+02  0.10566000000E+00 0. -1.
         22    1    1    0    0    0  0.25028215705E+02  0.99313071423E+01  0.19403570526E+02  0.33189471103E+02  0.00000000000E+00 0. -1.
</event>
<event>
 5    1  0.1254921E-009  0.9118800E+02  0.7561462E-02  0.1125453E+00
         25   -1    0    0    0    0  0.00000000000E+00  0.00000000000E+00  0.99999998245E-14  0.12509000000E+03  0.12509000000E+03 0.  0.
        -13    1    3    3    0    0 -0.66655310531E+01  0.15238007146E+02 -0.46041601212E+02  0.48953716633E+02  0.10566000000E+00 0. -1.
         23    2    1    0    0    0 -0.23206093328E+02 -0.12475120836E+02 -0.11156062391E+02  0.96478653728E+02  0.92138599347E+02 0.  0.
         13    1    3    3    0    0 -0.16540562275E+02 -0.27713127982E+02  0.34885538821E+02  0.47524937094E+02  0.10566000000E+00 0.  1.
         22    1    1    0    0    0  0.23206093328E+02  0.12475120836E+02  0.11156062391E+02  0.28611346272E+02  0.00000000000E+00 0.  1.
</event>
<event>
 5    1  0.1254921E-009  0.9118800E+02  0.7561462E-02  0.1125453E+00
         25   -1    0    0    0    0  0.00000000000E+00  0.00000000000E+00  0.99999998245E-14  0.12509000000E+03  0.12509000000E+03 0.  0.
        -13    1    3    3    0    0  0.22557864549E+02  0.91888117078E+01 -0.41965105494E+02  0.48521879155E+02  0.10566000000E+00 0. -1.
         23    2    1    0    0    0  0.23998032550E+02 -0.16983973829E+02 -0.29260334412E+01  0.95544736335E+02  0.90861840375E+02 0.  0.
         13    1    3    3    0    0  0.14401680010E+01 -0.26172785537E+02  0.39039072052E+02  0.47022857180E+02  0.10566000000E+00 0.  1.
         22    1    1    0    0    0 -0.23998032550E+02  0.16983973829E+02  0.29260334412E+01  0.29545263665E+02  0.00000000000E+00 0.  1.
</event>
<event>
 5    1  0.1254921E-009  0.9118800E+02  0.7561462E-02  0.1125453E+00
         25   -1    0    0    0    0  0.00000000000E+00  0.00000000000E+00  0.99999998245E-14  0.12509000000E+03  0.12509000000E+03 0.  0.
        -13    1    3    3    0    0  0.36667662733E+02  0.16282757689E+02  0.39590393033E+02  0.56365380091E+02  0.10566000000E+00 0.  1.
         23    2    1    0    0    0  0.11492373041E+02 -0.88937943900E+01  0.27535648701E+02  0.93955033063E+02  0.88646275003E+02 0.  0.
         13    1    3    3    0    0 -0.25175289692E+02 -0.25176552079E+02 -0.12054744332E+02  0.37589652973E+02  0.10566000000E+00 0. -1.
         22    1    1    0    0    0 -0.11492373041E+02  0.88937943900E+01 -0.27535648701E+02  0.31134966937E+02  0.00000000000E+00 0.  1.
</event>
<event>
 5    1  0.1254921E-009  0.9118800E+02  0.7561462E-02  0.1125453E+00
         25   -1    0    0    0    0  0.00000000000E+00  0.00000000000E+00  0.99999998245E-14  0.12509000000E+03  0.12509000000E+03 0.  0.
        -13    1    3    3    0    0  0.11237159342E+02  0.48883466107E+02  0.15808890870E+02  0.52590866158E+02  0.10566000000E+00 0.  1.
         23    2    1    0    0    0  0.17387477965E+02  0.13648969727E+02 -0.13806594441E+02  0.99027751159E+02  0.95536666704E+02 0.  0.
         13    1    3    3    0    0  0.61503186224E+01 -0.35234496380E+02 -0.29615485311E+02  0.46436885000E+02  0.10566000000E+00 0. -1.
         22    1    1    0    0    0 -0.17387477965E+02 -0.13648969727E+02  0.13806594441E+02  0.26062248841E+02  0.00000000000E+00 0.  1.
</event>
<event>
 5    1  0.1254921E-009  0.9118800E+02  0.7561462E-02  0.1125453E+00
         25   -1    0    0    0    0  0.00000000000E+00  0.00000000000E+00  0.99999998245E-14  0.12509000000E+03  0.12509000000E+03 0.  0.
        -13    1    3    3    0    0  0.50670913591E+02 -0.59001846525E+01  0.35800885838E+02  0.62322293394E+02  0.10566000000E+00 0.  1.
         23    2    1    0    0    0  0.23762661157E+02 -0.48761943954E+01  0.13227664488E+02  0.97460080622E+02  0.93461515449E+02 0.  0.
         13    1    3    3    0    0 -0.26908252434E+02  0.10239902571E+01 -0.22573221350E+02  0.35137787228E+02  0.10566000000E+00 0. -1.
         22    1    1    0    0    0 -0.23762661157E+02  0.48761943954E+01 -0.13227664488E+02  0.27629919378E+02  0.00000000000E+00 0.  1.
</event>
<event>
 5    1  0.1254921E-009  0.9118800E+02  0.7561462E-02  0.1125453E+00
         25   -1    0    0    0    0  0.00000000000E+00  0.00000000000E+00  0.99999998245E-14  0.12509000000E+03  0.12509000000E+03 0.  0.
        -13    1    3    3    0    0  0.30891215796E+02 -0.29588486657E+02 -0.11558503636E+02  0.44309772358E+02  0.10566000000E+00 0.  1.
         23    2    1    0    0    0 -0.24527471126E+01  0.72590591759E+01 -0.27534360958E+02  0.96509395705E+02  0.92180326087E+02 0.  0.
         13    1    3    3    0    0 -0.33343962909E+02  0.36847545833E+02 -0.15975857322E+02  0.52199623347E+02  0.10566000000E+00 0. -1.
         22    1    1    0    0    0  0.24527471126E+01 -0.72590591759E+01  0.27534360958E+02  0.28580604295E+02  0.00000000000E+00 0. -1.
</event>
<event>
 5    1  0.1254921E-009  0.9118800E+02  0.7561462E-02  0.1125453E+00
         25   -1    0    0    0    0  0.00000000000E+00  0.00000000000E+00  0.99999998245E-14  0.12509000000E+03  0.12509000000E+03 0.  0.
        -13    1    3    3    0    0 -0.30581574289E+02 -0.46290235432E+01  0.27970289364E+02  0.41701424389E+02  0.10566000000E+00 0.  1.
         23    2    1    0    0    0 -0.76659556295E+01  0.26111461374E+02 -0.10410973730E+02  0.95953018948E+02  0.91422197416E+02 0.  0.
         13    1    3    3    0    0  0.22915618659E+02  0.30740484917E+02 -0.38381263094E+02  0.54251594559E+02  0.10566000000E+00 0. -1.
         22    1    1    0    0    0  0.76659556295E+01 -0.26111461374E+02  0.10410973730E+02  0.29136981052E+02  0.00000000000E+00 0. -1.
</event>
<event>
 5    1  0.1254921E-009  0.9118800E+02  0.7561462E-02  0.1125453E+00
         25   -1    0    0    0    0  0.00000000000E+00  0.00000000000E+00  0.99999998245E-14  0.12509000000E+03  0.12509000000E+03 0.  0.
        -13    1    3    3    0    0  0.24083042055E+02 -0.38727792168E+02 -0.33979177272E+02  0.56872053356E+02  0.10566000000E+00 0. -1.
         23    2    1    0    0    0  0.61390292986E+01 -0.28434659868E+02 -0.77907329930E+00  0.95989750555E+02  0.91472442265E+02 0.  0.
         13    1    3    3    0    0 -0.17944012756E+02  0.10293132299E+02  0.33200103973E+02  0.39117697199E+02  0.10566000000E+00 0.  1.
         22    1    1    0    0    0 -0.61390292986E+01  0.28434659868E+02  0.77907329930E+00  0.29100249445E+02  0.00000000000E+00 0.  1.
</event>
<event>
 5    1  0.1254921E-009  0.9118800E+02  0.7561462E-02  0.1125453E+00
         25   -1    0    0    0    0  0.00000000000E+00  0.00000000000E+00  0.99999998245E-14  0.12509000000E+03  0.12509000000E+03 0.  0.
        -13    1    3    3    0    0 -0.20752644381E+02  0.39158912117E+02  0.11394161531E+02  0.45759487846E+02  0.10566000000E+00 0.  1.
         23    2    1    0    0    0 -0.88811277538E+01 -0.12351357590E+01  0.31444158662E+02  0.92392368519E+02  0.86413046793E+02 0.  0.
         13    1    3    3    0    0  0.11871516627E+02 -0.40394047876E+02  0.20049997131E+02  0.46632880672E+02  0.10566000000E+00 0. -1.
         22    1    1    0    0    0  0.88811277538E+01  0.12351357590E+01 -0.31444158662E+02  0.32697631481E+02  0.00000000000E+00 0. -1.
</event>
<event>
 5    1  0.1254921E-009  0.9118800E+02  0.7561462E-02  0.1125453E+00
         25   -1    0    0    0    0  0.00000000000E+00  0.00000000000E+00  0.99999998245E-14  0.12509000000E+03  0.12509000000E+03 0.  0.
        -13    1    3    3    0    0 -0.79802004536E+01 -0.44182078878E+02 -0.37741279956E+02  0.58652835141E+02  0.10566000000E+00 0. -1.
         23    2    1    0    0    0 -0.10626911080E+02 -0.28305046298E+02 -0.59656620712E+01  0.94272861765E+02  0.89093638697E+02 0.  0.
         13    1    3    3    0    0 -0.26467106267E+01  0.15877032580E+02  0.31775617885E+02  0.35620026624E+02  0.10566000000E+00 0.  1.
         22    1    1    0    0    0  0.10626911080E+02  0.28305046298E+02  0.59656620712E+01  0.30817138235E+02  0.00000000000E+00 0. -1.
</event>
<event>
 5    1  0.1254921E-009  0.9118800E+02  0.7561462E-02  0.1125453E+00
         25   -1    0    0    0    0  0.00000000000E+00  0.00000000000E+00  0.99999998245E-14  0.12509000000E+03  0.12509000000E+03 0.  0.
        -13    1    3    3    0    0  0.42357595750E+02  0.11313552165E+02  0.20776978407E+02  0.48516557752E+02  0.10566000000E+00 0.  1.
         23    2    1    0    0    0  0.18549616480E+02 -0.24188221387E+02  0.44011964729E+01  0.94291804341E+02  0.89120230644E+02 0.  0.
         13    1    3    3    0    0 -0.23807979270E+02 -0.35501773552E+02 -0.16375781934E+02  0.45775246589E+02  0.10566000000E+00 0. -1.
         22    1    1    0    0    0 -0.18549616480E+02  0.24188221387E+02 -0.44011964729E+01  0.30798195659E+02  0.00000000000E+00 0. -1.
</event>
<event>
 5    1  0.1254921E-009  0.9118800E+02  0.7561462E-02  0.1125453E+00
         25   -1    0    0    0    0  0.00000000000E+00  0.00000000000E+00  0.99999998245E-14  0.12509000000E+03  0.12509000000E+03 0.  0.
        -13    1    3    3    0    0 -0.28472632915E+02 -0.29464077141E+02 -0.44283375956E+02  0.60331179476E+02  0.10566000000E+00 0. -1.
         23    2    1    0    0    0 -0.50649258290E+01 -0.22038524401E+02 -0.23122939315E+02  0.92747762075E+02  0.86925985849E+02 0.  0.
         13    1    3    3    0    0  0.23407707086E+02  0.74255527393E+01  0.21160436641E+02  0.32416582599E+02  0.10566000000E+00 0.  1.
         22    1    1    0    0    0  0.50649258290E+01  0.22038524401E+02  0.23122939315E+02  0.32342237925E+02  0.00000000000E+00 0. -1.
</event>
<event>
 5    1  0.1254921E-009  0.9118800E+02  0.7561462E-02  0.1125453E+00
         25   -1    0    0    0    0  0.00000000000E+00  0.00000000000E+00  0.99999998245E-14  0.12509000000E+03  0.12509000000E+03 0.  0.
        -13    1    3    3    0    0 -0.32447031195E+02 -0.12881403706E+02  0.13507383732E+02  0.37432619119E+02  0.10566000000E+00 0.  1.
         23    2    1    0    0    0  0.18927780249E+02 -0.13746562690E+02 -0.16060117870E+02  0.96714724901E+02  0.92458540848E+02 0.  0.
         13    1    3    3    0    0  0.51374811444E+02 -0.86515898383E+00 -0.29567501601E+02  0.59282105782E+02  0.10566000000E+00 0. -1.
         22    1    1    0    0    0 -0.18927780249E+02  0.13746562690E+02  0.16060117870E+02  0.28375275099E+02  0.00000000000E+00 0. -1.
</event>
<event>
 5    1  0.1254921E-009  0.9118800E+02  0.7561462E-02  0.1125453E+00
         25   -1    0    0    0    0  0.00000000000E+00  0.00000000000E+00  0.99999998245E-14  0.12509000000E+03  0.12509000000E+03 0.  0.
        -13    1    3    3    0    0 -0.44592520066E+01  0.72680797692E+01 -0.49006502904E+02  0.49742923144E+02  0.10566000000E+00 0.  1.
         23    2    1    0    0    0 -0.24841036605E+02 -0.10022423623E+02 -0.11170188343E+02  0.96067608946E+02  0.91578852941E+02 0.  0.
         13    1    3    3    0    0 -0.20381784598E+02 -0.17290503393E+02  0.37836314561E+02  0.46324685801E+02  0.10566000000E+00 0. -1.
         22    1    1    0    0    0  0.24841036605E+02  0.10022423623E+02  0.11170188343E+02  0.29022391054E+02  0.00000000000E+00 0.  1.
</event>
<event>
 5    1  0.1254921E-009  0.9118800E+02  0.7561462E-02  0.1125453E+00
         25   -1    0    0    0    0  0.00000000000E+00  0.00000000000E+00  0.99999998245E-14  0.12509000000E+03  0.12509000000E+03 0.  0.
        -13    1    3    3    0    0  0.20897299338E+02  0.95446351915E+01 -0.55223503780E+02  0.59811735590E+02  0.10566000000E+00 0. -1.
         23    2    1    0    0    0  0.20290102117E+02  0.11656464464E+02 -0.22439584419E+02  0.92669383772E+02  0.86813123040E+02 0.  0.
         13    1    3    3    0    0 -0.60719722064E+00  0.21118292721E+01  0.32783919361E+02  0.32857648181E+02  0.10566000000E+00 0.  1.
         22    1    1    0    0    0 -0.20290102117E+02 -0.11656464464E+02  0.22439584419E+02  0.32420616228E+02  0.00000000000E+00 0. -1.
</event>
<event>
 5    1  0.1254921E-009  0.9118800E+02  0.7561462E-02  0.1125453E+00
         25   -1    0    0    0    0  0.00000000000E+00  0.00000000000E+00  0.99999998245E-14  0.12509000000E+03  0.12509000000E+03 0.  0.
        -13    1    3    3    0    0 -0.35295449317E+01  0.53096200532E+02  0.31135371454E+02  0.61652953846E+02  0.10566000000E+00 0.  1.
         23    2    1    0    0    0  0.56821147184E+01  0.25940142488E+02  0.13773851046E+02  0.95175181053E+02  0.90351639143E+02 0.  0.
         13    1    3    3    0    0  0.92116596501E+01 -0.27156058044E+02 -0.17361520408E+02  0.33522227207E+02  0.10566000000E+00 0. -1.
         22    1    1    0    0    0 -0.56821147184E+01 -0.25940142488E+02 -0.13773851046E+02  0.29914818947E+02  0.00000000000E+00 0.  1.
</event>
<event>
 5    1  0.1254921E-009  0.9118800E+02  0.7561462E-02  0.1125453E+00
         25   -1    0    0    0    0  0.00000000000E+00  0.00000000000E+00  0.99999998245E-14  0.12509000000E+03  0.12509000000E+03 0.  0.
        -13    1    3    3    0    0 -0.53515201370E+02  0.18998016382E+02 -0.77744468118E+01  0.57317140468E+02  0.10566000000E+00 0. -1.
         23    2    1    0    0    0 -0.15955624789E+02  0.24629297006E+02 -0.33814818422E+01  0.95549880622E+02  0.90868922267E+02 0.  0.
         13    1    3    3    0    0  0.37559576581E+02  0.56312806249E+01  0.43929649696E+01  0.38232740154E+02  0.10566000000E+00 0.  1.
         22    1    1    0    0    0  0.15955624789E+02 -0.24629297006E+02  0.33814818422E+01  0.29540119378E+02  0.00000000000E+00 0. -1.
</event>
<event>
 5    1  0.1254921E-009  0.9118800E+02  0.7561462E-02  0.1125453E+00
         25   -1    0    0    0    0  0.00000000000E+00  0.00000000000E+00  0.99999998245E-14  0.12509000000E+03  0.12509000000E+03 0.  0.
        -13    1    3    3    0    0  0.28782617728E+02 -0.21941358607E+02  0.56661035763E+01  0.36633020550E+02  0.10566000000E+00 0. -1.
         23    2    1    0    0    0 -0.34453444025E+01  0.20690250688E+02 -0.20167681026E+02  0.95992023617E+02  0.91475550660E+02 0.  0.
         13    1    3    3    0    0 -0.32227962131E+02  0.42631609295E+02 -0.25833784603E+02  0.59359003067E+02  0.10566000000E+00 0.  1.
         22    1    1    0    0    0  0.34453444025E+01 -0.20690250688E+02  0.20167681026E+02  0.29097976383E+02  0.00000000000E+00 0.  1.
</event>
<event>
 5    1  0.1254921E-009  0.9118800E+02  0.7561462E-02  0.1125453E+00
         25   -1    0    0    0    0  0.00000000000E+00  0.00000000000E+00  0.99999998245E-14  0.12509000000E+03  0.12509000000E+03 0.  0.
        -13    1    3    3    0    0 -0.14690115416E+02  0.37541737817E+02 -0.62304584905E+01  0.40792295183E+02  0.10566000000E+00 0.  1.
         23    2    1    0    0    0 -0.69908239669E+01 -0.18131308242E+02 -0.18434226564E+02  0.98304991743E+02  0.94585594750E+02 0.  0.
         13    1    3    3    0    0  0.76992914487E+01 -0.55673046059E+02 -0.12203768074E+02  0.57512696560E+02  0.10566000000E+00 0. -1.
         22    1    1    0    0    0  0.69908239669E+01  0.18131308242E+02  0.18434226564E+02  0.26785008257E+02  0.00000000000E+00 0.  1.
</event>
<event>
 5    1  0.1254921E-009  0.9118800E+02  0.7561462E-02  0.1125453E+00
         25   -1    0    0    0    0  0.00000000000E+00  0.00000000000E+00  0.99999998245E-14  0.12509000000E+03  0.12509000000E+03 0.  0.
        -13    1    3    3    0    0  0.31605174692E+01  0.25507618272E+02  0.23792091947E+02  0.35024309613E+02  0.10566000000E+00 0. -1.
         23    2    1    0    0    0 -0.13858996985E+02 -0.24560729563E+02 -0.67496830069E+01  0.96092423294E+02  0.91612741253E+02 0.  0.
         13    1    3    3    0    0 -0.17019514454E+02 -0.50068347835E+02 -0.30541774954E+02  0.61068113681E+02  0.10566000000E+00 0.  1.
         22    1    1    0    0    0  0.13858996985E+02  0.24560729563E+02  0.67496830069E+01  0.28997576706E+02  0.00000000000E+00 0.  1.
</event>
<event>
 5    1  0.1254921E-009  0.9118800E+02  0.7561462E-02  0.1125453E+00
         25   -1    0    0    0    0  0.00000000000E+00  0.00000000000E+00  0.99999998245E-14  0.12509000000E+03  0.12509000000E+03 0.  0.
        -13    1    3    3    0    0  0.25544428091E+02 -0.49076258882E+02 -0.10285990624E+02  0.56274414786E+02  0.10566000000E+00 0. -1.
         23    2    1    0    0    0  0.13150685898E+01 -0.21092248306E+02 -0.21490989043E+02  0.94949081732E+02  0.90038065104E+02 0.  0.
         13    1    3    3    0    0 -0.24229359501E+02  0.27984010576E+02 -0.11204998419E+02  0.38674666946E+02  0.10566000000E+00 0.  1.
         22    1    1    0    0    0 -0.13150685898E+01  0.21092248306E+02  0.21490989043E+02  0.30140918268E+02  0.00000000000E+00 0. -1.
</event>
<event>
 5    1  0.1254921E-009  0.9118800E+02  0.7561462E-02  0.1125453E+00
         25   -1    0    0    0    0  0.00000000000E+00  0.00000000000E+00  0.99999998245E-14  0.12509000000E+03  0.12509000000E+03 0.  0.
        -13    1    3    3    0    0  0.47770542886E+02  0.27882863365E+02  0.17117541474E+02  0.57900779159E+02  0.10566000000E+00 0.  1.
         23    2    1    0    0    0  0.10362449626E+02  0.22799722999E+02  0.15395861407E+02  0.95692036133E+02  0.91064403033E+02 0.  0.
         13    1    3    3    0    0 -0.37408093260E+02 -0.50831403666E+01 -0.17216800664E+01  0.37791256974E+02  0.10566000000E+00 0. -1.
         22    1    1    0    0    0 -0.10362449626E+02 -0.22799722999E+02 -0.15395861407E+02  0.29397963867E+02  0.00000000000E+00 0.  1.
</event>
<event>
 5    1  0.1254921E-009  0.9118800E+02  0.7561462E-02  0.1125453E+00
         25   -1    0    0    0    0  0.00000000000E+00  0.00000000000E+00  0.99999998245E-14  0.12509000000E+03  0.12509000000E+03 0.  0.
        -13    1    3    3    0    0 -0.18027602362E+02  0.39466469292E+02 -0.40077458975E+02  0.59066153822E+02  0.10566000000E+00 0. -1.
         23    2    1    0    0    0  0.61309927380E+01  0.19061067864E+02 -0.21355842039E+02  0.95815687552E+02  0.91234097857E+02 0.  0.
         13    1    3    3    0    0  0.24158595100E+02 -0.20405401428E+02  0.18721616936E+02  0.36749533730E+02  0.10566000000E+00 0.  1.
         22    1    1    0    0    0 -0.61309927380E+01 -0.19061067864E+02  0.21355842039E+02  0.29274312448E+02  0.00000000000E+00 0. -1.
</event>
<event>
 5    1  0.1254921E-009  0.9118800E+02  0.7561462E-02  0.1125453E+00
         25   -1    0    0    0    0  0.00000000000E+00  0.00000000000E+00  0.99999998245E-14  0.12509000000E+03  0.12509000000E+03 0.  0.
        -13    1    3    3    0    0  0.38329944772E+02  0.95940016239E+01 -0.20890612194E+02  0.44695171722E+02  0.10566000000E+00 0.  1.
         23    2    1    0    0    0  0.10421948569E+02 -0.28081565724E+02 -0.25946057954E+01  0.95024682361E+02  0.90143035966E+02 0.  0.
         13    1    3    3    0    0 -0.27907996202E+02 -0.37675567348E+02  0.18296006399E+02  0.50329510639E+02  0.10566000000E+00 0. -1.
         22    1    1    0    0    0 -0.10421948569E+02  0.28081565724E+02  0.25946057954E+01  0.30065317639E+02  0.00000000000E+00 0. -1.
</event>
<event>
 5    1  0.1254921E-009  0.9118800E+02  0.7561462E-02  0.1125453E+00
         25   -1    0    0    0    0  0.00000000000E+00  0.00000000000E+00  0.99999998245E-14  0.12509000000E+03  0.12509000000E+03 0.  0.
        -13    1    3    3    0    0  0.70083836664E+01 -0.31986836105E+02  0.42174629270E+02  0.53394621861E+02  0.10566000000E+00 0.  1.
         23    2    1    0    0    0  0.24687564505E+02 -0.46113635562E+01  0.21847121471E+02  0.91802806793E+02  0.85555351109E+02 0.  0.
         13    1    3    3    0    0  0.17679180839E+02  0.27375472549E+02 -0.20327507799E+02  0.38408184932E+02  0.10566000000E+00 0. -1.
         22    1    1    0    0    0 -0.24687564505E+02  0.46113635562E+01 -0.21847121471E+02  0.33287193207E+02  0.00000000000E+00 0. -1.
</event>
<event>
 5    1  0.1254921E-009  0.9118800E+02  0.7561462E-02  0.1125453E+00
         25   -1    0    0    0    0  0.00000000000E+00  0.00000000000E+00  0.99999998245E-14  0.12509000000E+03  0.12509000000E+03 0.  0.
        -13    1    3    3    0    0 -0.19181536671E+02 -0.36979657505E+02  0.38817240314E+02  0.56940457742E+02  0.10566000000E+00 0. -1.
         23    2    1    0    0    0  0.69048005431E+01 -0.25916368501E+02  0.12952164094E+02  0.95305893810E+02  0.90532427413E+02 0.  0.
         13    1    3    3    0    0  0.26086337214E+02  0.11063289003E+02 -0.25865076220E+02  0.38365436068E+02  0.10566000000E+00 0.  1.
         22    1    1    0    0    0 -0.69048005431E+01  0.25916368501E+02 -0.12952164094E+02  0.29784106190E+02  0.00000000000E+00 0. -1.
</event>
<event>
 5    1  0.1254921E-009  0.9118800E+02  0.7561462E-02  0.1125453E+00
         25   -1    0    0    0    0  0.00000000000E+00  0.00000000000E+00  0.99999998245E-14  0.12509000000E+03  0.12509000000E+03 0.  0.
        -13    1    3    3    0    0 -0.33346191693E+02 -0.40963358691E+02  0.22741869741E+02  0.57507991263E+02  0.10566000000E+00 0.  1.
         23    2    1    0    0    0 -0.32582173042E+01 -0.17864183919E+02  0.23430365463E+02  0.95446668999E+02  0.90726730075E+02 0.  0.
         13    1    3    3    0    0  0.30087974389E+02  0.23099174772E+02  0.68849572253E+00  0.37938677736E+02  0.10566000000E+00 0. -1.
         22    1    1    0    0    0  0.32582173042E+01  0.17864183919E+02 -0.23430365463E+02  0.29643331001E+02  0.00000000000E+00 0.  1.
</event>
<event>
 5    1  0.1254921E-009  0.9118800E+02  0.7561462E-02  0.1125453E+00
         25   -1    0    0    0    0  0.00000000000E+00  0.00000000000E+00  0.99999998245E-14  0.12509000000E+03  0.12509000000E+03 0.  0.
        -13    1    3    3    0    0  0.18084928419E+02 -0.11714837214E+01 -0.59544333458E+02  0.62241271043E+02  0.10566000000E+00 0. -1.
         23    2    1    0    0    0  0.10091717144E+02  0.34339671837E+01 -0.27196774250E+02  0.95878710827E+02  0.91320467447E+02 0.  0.
         13    1    3    3    0    0 -0.79932112752E+01  0.46054509052E+01  0.32347559208E+02  0.33637439784E+02  0.10566000000E+00 0.  1.
         22    1    1    0    0    0 -0.10091717144E+02 -0.34339671837E+01  0.27196774250E+02  0.29211289173E+02  0.00000000000E+00 0. -1.
</event>
<event>
 5    1  0.1254921E-009  0.9118800E+02  0.7561462E-02  0.1125453E+00
         25   -1    0    0    0    0  0.00000000000E+00  0.00000000000E+00  0.99999998245E-14  0.12509000000E+03  0.12509000000E+03 0.  0.
        -13    1    3    3    0    0 -0.70282023801E+01  0.11114385013E+02  0.39477981230E+02  0.41610663885E+02  0.10566000000E+00 0.  1.
         23    2    1    0    0    0 -0.23044356217E+01 -0.25187568057E+02 -0.50941245928E+01  0.99289338893E+02  0.95878562277E+02 0.  0.
         13    1    3    3    0    0  0.47237667584E+01 -0.36301953070E+02 -0.44572105823E+02  0.57678675008E+02  0.10566000000E+00 0. -1.
         22    1    1    0    0    0  0.23044356217E+01  0.25187568057E+02  0.50941245928E+01  0.25800661107E+02  0.00000000000E+00 0. -1.
</event>
<event>
 5    1  0.1254921E-009  0.9118800E+02  0.7561462E-02  0.1125453E+00
         25   -1    0    0    0    0  0.00000000000E+00  0.00000000000E+00  0.99999998245E-14  0.12509000000E+03  0.12509000000E+03 0.  0.
        -13    1    3    3    0    0 -0.25628625286E+02  0.27508506736E+02 -0.40040607985E+02  0.54925457019E+02  0.10566000000E+00 0.  1.
         23    2    1    0    0    0  0.42310442682E+01  0.26062241840E+02 -0.11383665301E+02  0.96337086738E+02  0.91946203077E+02 0.  0.
         13    1    3    3    0    0  0.29859669554E+02 -0.14462648959E+01  0.28656942684E+02  0.41411629720E+02  0.10566000000E+00 0. -1.
         22    1    1    0    0    0 -0.42310442682E+01 -0.26062241840E+02  0.11383665301E+02  0.28752913262E+02  0.00000000000E+00 0.  1.
</event>
<event>
 5    1  0.1254921E-009  0.9118800E+02  0.7561462E-02  0.1125453E+00
         25   -1    0    0    0    0  0.00000000000E+00  0.00000000000E+00  0.99999998245E-14  0.12509000000E+03  0.12509000000E+03 0.  0.
        -13    1    3    3    0    0 -0.48554078739E+02 -0.17451862900E+02  0.28655344936E+02  0.59018692278E+02  0.10566000000E+00 0. -1.
         23    2    1    0    0    0 -0.27604281563E+02 -0.68984757099E+01 -0.74052403430E+00  0.96627152223E+02  0.92339985072E+02 0.  0.
         13    1    3    3    0    0  0.20949797176E+02  0.10553387190E+02 -0.29395868970E+02  0.37608459945E+02  0.10566000000E+00 0.  1.
         22    1    1    0    0    0  0.27604281563E+02  0.68984757099E+01  0.74052403430E+00  0.28462847777E+02  0.00000000000E+00 0. -1.
</event>
<event>
 5    1  0.1254921E-009  0.9118800E+02  0.7561462E-02  0.1125453E+00
         25   -1    0    0    0    0  0.00000000000E+00  0.00000000000E+00  0.99999998245E-14  0.12509000000E+03  0.12509000000E+03 0.  0.
        -13    1    3    3    0    0 -0.77958551522E+01  0.61077486090E+02  0.15554796715E+01  0.61592737768E+02  0.10566000000E+00 0.  1.
         23    2    1    0    0    0  0.88299205773E+00  0.29810965445E+02  0.68984222051E+01  0.94478538672E+02  0.89381948429E+02 0.  0.
         13    1    3    3    0    0  0.86788472100E+01 -0.31266520646E+02  0.53429425337E+01  0.32885800904E+02  0.10566000000E+00 0. -1.
         22    1    1    0    0    0 -0.88299205773E+00 -0.29810965445E+02 -0.68984222051E+01  0.30611461328E+02  0.00000000000E+00 0.  1.
</event>
<event>
 5    1  0.1254921E-009  0.9118800E+02  0.7561462E-02  0.1125453E+00
         25   -1    0    0    0    0  0.00000000000E+00  0.00000000000E+00  0.99999998245E-14  0.12509000000E+03  0.12509000000E+03 0.  0.
        -13    1    3    3    0    0  0.29704289078E+02 -0.39126632478E+02  0.37684091695E+02  0.61913973299E+02  0.10566000000E+00 0. -1.
         23    2    1    0    0    0  0.85152800802E+01 -0.19372210981E+02  0.20663602091E+02  0.95513370636E+02  0.90818648778E+02 0.  0.
         13    1    3    3    0    0 -0.21189008998E+02  0.19754421497E+02 -0.17020489605E+02  0.33599397337E+02  0.10566000000E+00 0.  1.
         22    1    1    0    0    0 -0.85152800802E+01  0.19372210981E+02 -0.20663602091E+02  0.29576629364E+02  0.00000000000E+00 0. -1.
</event>
<event>
 5    1  0.1254921E-009  0.9118800E+02  0.7561462E-02  0.1125453E+00
         25   -1    0    0    0    0  0.00000000000E+00  0.00000000000E+00  0.99999998245E-14  0.12509000000E+03  0.12509000000E+03 0.  0.
        -13    1    3    3    0    0 -0.48643388904E+02 -0.27120862494E+02 -0.24652313202E+02  0.60905403510E+02  0.10566000000E+00 0.  1.
         23    2    1    0    0    0 -0.29457013413E+02 -0.91275634940E+01 -0.47555323588E+01  0.93886744680E+02  0.88549859876E+02 0.  0.
         13    1    3    3    0    0  0.19186375491E+02  0.17993299000E+02  0.19896780843E+02  0.32981341170E+02  0.10566000000E+00 0. -1.
         22    1    1    0    0    0  0.29457013413E+02  0.91275634940E+01  0.47555323588E+01  0.31203255320E+02  0.00000000000E+00 0.  1.
</event>
<event>
 5    1  0.1254921E-009  0.9118800E+02  0.7561462E-02  0.1125453E+00
         25   -1    0    0    0    0  0.00000000000E+00  0.00000000000E+00  0.99999998245E-14  0.12509000000E+03  0.12509000000E+03 0.  0.
        -13    1    3    3    0    0 -0.28618263966E+02  0.15301738147E+02  0.66154479582E+01  0.33119836028E+02  0.10566000000E+00 0.  1.
         23    2    1    0    0    0  0.20261073638E+02 -0.21233764260E+02 -0.52149905055E+01  0.95280941383E+02  0.90497943708E+02 0.  0.
         13    1    3    3    0    0  0.48879337604E+02 -0.36535502408E+02 -0.11830438464E+02  0.62161105356E+02  0.10566000000E+00 0. -1.
         22    1    1    0    0    0 -0.20261073638E+02  0.21233764260E+02  0.52149905055E+01  0.29809058617E+02  0.00000000000E+00 0. -1.
</event>
<event>
 5    1  0.1254921E-009  0.9118800E+02  0.7561462E-02  0.1125453E+00
         25   -1    0    0    0    0  0.00000000000E+00  0.00000000000E+00  0.99999998245E-14  0.12509000000E+03  0.12509000000E+03 0.  0.
        -13    1    3    3    0    0  0.32041943638E+02  0.94442469054E+01  0.16355638777E+02  0.37194059143E+02  0.10566000000E+00 0.  1.
         23    2    1    0    0    0  0.80835395774E+01 -0.31864437893E+02 -0.86480109259E+01  0.91097734596E+02  0.84518182312E+02 0.  0.
         13    1    3    3    0    0 -0.23958404060E+02 -0.41308684798E+02 -0.25003649703E+02  0.53903675453E+02  0.10566000000E+00 0. -1.
         22    1    1    0    0    0 -0.80835395774E+01  0.31864437893E+02  0.86480109259E+01  0.33992265404E+02  0.00000000000E+00 0. -1.
</event>
<event>
 5    1  0.1254921E-009  0.9118800E+02  0.7561462E-02  0.1125453E+00
         25   -1    0    0    0    0  0.00000000000E+00  0.00000000000E+00  0.99999998245E-14  0.12509000000E+03  0.12509000000E+03 0.  0.
        -13    1    3    3    0    0  0.23612800244E+02  0.12126064936E+02  0.23718650996E+02  0.35597631315E+02  0.10566000000E+00 0.  1.
         23    2    1    0    0    0 -0.11571824342E+01  0.39782474870E+01 -0.29732559394E+02  0.95070163019E+02  0.90206126644E+02 0.  0.
         13    1    3    3    0    0 -0.24769982678E+02 -0.81478174485E+01 -0.53451210390E+02  0.59472531703E+02  0.10566000000E+00 0. -1.
         22    1    1    0    0    0  0.11571824342E+01 -0.39782474870E+01  0.29732559394E+02  0.30019836981E+02  0.00000000000E+00 0. -1.
</event>
<event>
 5    1  0.1254921E-009  0.9118800E+02  0.7561462E-02  0.1125453E+00
         25   -1    0    0    0    0  0.00000000000E+00  0.00000000000E+00  0.99999998245E-14  0.12509000000E+03  0.12509000000E+03 0.  0.
        -13    1    3    3    0    0  0.31482467963E+01  0.61379758147E+01 -0.38538039464E+02  0.39150706951E+02  0.10566000000E+00 0.  1.
         23    2    1    0    0    0 -0.23406113373E+02  0.13895121973E+02  0.10872849740E+02  0.95778919854E+02  0.91183672162E+02 0.  0.
         13    1    3    3    0    0 -0.26554360169E+02  0.77571461579E+01  0.49410889205E+02  0.56628212903E+02  0.10566000000E+00 0. -1.
         22    1    1    0    0    0  0.23406113373E+02 -0.13895121973E+02 -0.10872849740E+02  0.29311080146E+02  0.00000000000E+00 0. -1.
</event>
<event>
 5    1  0.1254921E-009  0.9118800E+02  0.7561462E-02  0.1125453E+00
         25   -1    0    0    0    0  0.00000000000E+00  0.00000000000E+00  0.99999998245E-14  0.12509000000E+03  0.12509000000E+03 0.  0.
        -13    1    3    3    0    0  0.25925375444E+02  0.25689989862E+02  0.19817648853E+02  0.41531326022E+02  0.10566000000E+00 0.  1.
         23    2    1    0    0    0 -0.23237814827E+02  0.92385843570E+01  0.19506096514E+02  0.93375093724E+02  0.87824101749E+02 0.  0.
         13    1    3    3    0    0 -0.49163190271E+02 -0.16451405505E+02 -0.31155233905E+00  0.51843767703E+02  0.10566000000E+00 0. -1.
         22    1    1    0    0    0  0.23237814827E+02 -0.92385843570E+01 -0.19506096514E+02  0.31714906276E+02  0.00000000000E+00 0. -1.
</event>
<event>
 5    1  0.1254921E-009  0.9118800E+02  0.7561462E-02  0.1125453E+00
         25   -1    0    0    0    0  0.00000000000E+00  0.00000000000E+00  0.99999998245E-14  0.12509000000E+03  0.12509000000E+03 0.  0.
        -13    1    3    3    0    0  0.32803902075E+02  0.37766017900E+02 -0.37016434184E+02  0.62230182894E+02  0.10566000000E+00 0. -1.
         23    2    1    0    0    0  0.18543162981E+02  0.15083786157E+02 -0.19508502881E+02  0.94236293856E+02  0.89042281512E+02 0.  0.
         13    1    3    3    0    0 -0.14260739094E+02 -0.22682231742E+02  0.17507931303E+02  0.32006110961E+02  0.10566000000E+00 0.  1.
         22    1    1    0    0    0 -0.18543162981E+02 -0.15083786157E+02  0.19508502881E+02  0.30853706144E+02  0.00000000000E+00 0. -1.
</event>
<event>
 5    1  0.1254921E-009  0.9118800E+02  0.7561462E-02  0.1125453E+00
         25   -1    0    0    0    0  0.00000000000E+00  0.00000000000E+00  0.99999998245E-14  0.12509000000E+03  0.12509000000E+03 0.  0.
        -13    1    3    3    0    0  0.14814786278E+02 -0.44370036425E+02 -0.37357158322E+02  0.59864400663E+02  0.10566000000E+00 0.  1.
         23    2    1    0    0    0  0.16256365251E+02 -0.27751484638E+02 -0.10920005733E+02  0.91124416890E+02  0.84557663861E+02 0.  0.
         13    1    3    3    0    0  0.14415789730E+01  0.16618551787E+02  0.26437152590E+02  0.31260016227E+02  0.10566000000E+00 0. -1.
         22    1    1    0    0    0 -0.16256365251E+02  0.27751484638E+02  0.10920005733E+02  0.33965583110E+02  0.00000000000E+00 0.  1.
</event>
<event>
 5    1  0.1254921E-009  0.9118800E+02  0.7561462E-02  0.1125453E+00
         25   -1    0    0    0    0  0.00000000000E+00  0.00000000000E+00  0.99999998245E-14  0.12509000000E+03  0.12509000000E+03 0.  0.
        -13    1    3    3    0    0  0.48394612183E+02  0.32446546899E+01 -0.31157279472E+02  0.57648534244E+02  0.10566000000E+00 0. -1.
         23    2    1    0    0    0  0.29852436609E+02 -0.20304930417E-01  0.13417422464E+01  0.95207418852E+02  0.90396260700E+02 0.  0.
         13    1    3    3    0    0 -0.18542175574E+02 -0.32649596203E+01  0.32499021718E+02  0.37558884608E+02  0.10566000000E+00 0.  1.
         22    1    1    0    0    0 -0.29852436609E+02  0.20304930417E-01 -0.13417422464E+01  0.29882581148E+02  0.00000000000E+00 0. -1.
</event>
<event>
 5    1  0.1254921E-009  0.9118800E+02  0.7561462E-02  0.1125453E+00
         25   -1    0    0    0    0  0.00000000000E+00  0.00000000000E+00  0.99999998245E-14  0.12509000000E+03  0.12509000000E+03 0.  0.
        -13    1    3    3    0    0 -0.40317598173E+02  0.16751214959E+02 -0.18204362644E+02  0.47302451399E+02  0.10566000000E+00 0. -1.
         23    2    1    0    0    0 -0.94900489382E+01 -0.19755807427E+02 -0.20418397152E+02  0.95135636408E+02  0.90296873792E+02 0.  0.
         13    1    3    3    0    0  0.30827549235E+02 -0.36507022385E+02 -0.22140345081E+01  0.47833185009E+02  0.10566000000E+00 0.  1.
         22    1    1    0    0    0  0.94900489382E+01  0.19755807427E+02  0.20418397152E+02  0.29954363592E+02  0.00000000000E+00 0. -1.
</event>
<event>
 5    1  0.1254921E-009  0.9118800E+02  0.7561462E-02  0.1125453E+00
         25   -1    0    0    0    0  0.00000000000E+00  0.00000000000E+00  0.99999998245E-14  0.12509000000E+03  0.12509000000E+03 0.  0.
        -13    1    3    3    0    0  0.88717389489E+01 -0.34266863058E+02  0.74596740873E+01  0.36174349439E+02  0.10566000000E+00 0.  1.
         23    2    1    0    0    0  0.61851103316E+01  0.17872519989E+02 -0.21965661350E+02  0.96104264903E+02  0.91628908612E+02 0.  0.
         13    1    3    3    0    0 -0.26866286172E+01  0.52139383048E+02 -0.29425335437E+02  0.59929915464E+02  0.10566000000E+00 0. -1.
         22    1    1    0    0    0 -0.61851103316E+01 -0.17872519989E+02  0.21965661350E+02  0.28985735097E+02  0.00000000000E+00 0. -1.
</event>
<event>
 5    1  0.1254921E-009  0.9118800E+02  0.7561462E-02  0.1125453E+00
         25   -1    0    0    0    0  0.00000000000E+00  0.00000000000E+00  0.99999998245E-14  0.12509000000E+03  0.12509000000E+03 0.  0.
        -13    1    3    3    0    0 -0.43108477607E+02 -0.38475721154E+02 -0.19046717460E+01  0.57813155064E+02  0.10566000000E+00 0. -1.
         23    2    1    0    0    0 -0.30089701774E+02 -0.68170256536E+01 -0.93647421447E+01  0.92847785637E+02  0.87069804815E+02 0.  0.
         13    1    3    3    0    0  0.13018775833E+02  0.31658695501E+02 -0.74600703986E+01  0.35034630573E+02  0.10566000000E+00 0.  1.
         22    1    1    0    0    0  0.30089701774E+02  0.68170256536E+01  0.93647421447E+01  0.32242214363E+02  0.00000000000E+00 0.  1.
</event>
<event>
 5    1  0.1254921E-009  0.9118800E+02  0.7561462E-02  0.1125453E+00
         25   -1    0    0    0    0  0.00000000000E+00  0.00000000000E+00  0.99999998245E-14  0.12509000000E+03  0.12509000000E+03 0.  0.
        -13    1    3    3    0    0  0.37672869858E+01 -0.66423540124E+01  0.22889428058E+02  0.24129865290E+02  0.10566000000E+00 0. -1.
         23    2    1    0    0    0 -0.39737762893E+01 -0.19323394113E+02 -0.35552537852E+02  0.84430838600E+02  0.73995939760E+02 0.  0.
         13    1    3    3    0    0 -0.77410632752E+01 -0.12681040101E+02 -0.58441965910E+02  0.60300973310E+02  0.10566000000E+00 0.  1.
         22    1    1    0    0    0  0.39737762893E+01  0.19323394113E+02  0.35552537852E+02  0.40659161400E+02  0.00000000000E+00 0.  1.
</event>
<event>
 5    1  0.1254921E-009  0.9118800E+02  0.7561462E-02  0.1125453E+00
         25   -1    0    0    0    0  0.00000000000E+00  0.00000000000E+00  0.99999998245E-14  0.12509000000E+03  0.12509000000E+03 0.  0.
        -13    1    3    3    0    0 -0.17130251667E+02  0.37508093471E+02  0.29005692533E+02  0.50414719689E+02  0.10566000000E+00 0. -1.
         23    2    1    0    0    0  0.19627000546E+02  0.11631561709E+02  0.16045345776E+02  0.97197967100E+02  0.93110038713E+02 0.  0.
         13    1    3    3    0    0  0.36757252212E+02 -0.25876531762E+02 -0.12960346756E+02  0.46783247411E+02  0.10566000000E+00 0.  1.
         22    1    1    0    0    0 -0.19627000546E+02 -0.11631561709E+02 -0.16045345776E+02  0.27892032900E+02  0.00000000000E+00 0.  1.
</event>
<event>
 5    1  0.1254921E-009  0.9118800E+02  0.7561462E-02  0.1125453E+00
         25   -1    0    0    0    0  0.00000000000E+00  0.00000000000E+00  0.99999998245E-14  0.12509000000E+03  0.12509000000E+03 0.  0.
        -13    1    3    3    0    0  0.25385444345E+01  0.38805033356E+02 -0.30690207165E+01  0.39009035797E+02  0.10566000000E+00 0.  1.
         23    2    1    0    0    0 -0.15548169256E+02 -0.66634852846E+01  0.24608668976E+02  0.95228081238E+02  0.90424848710E+02 0.  0.
         13    1    3    3    0    0 -0.18086713690E+02 -0.45468518641E+02  0.27677689693E+02  0.56219045441E+02  0.10566000000E+00 0. -1.
         22    1    1    0    0    0  0.15548169256E+02  0.66634852846E+01 -0.24608668976E+02  0.29861918762E+02  0.00000000000E+00 0. -1.
</event>
<event>
 5    1  0.1254921E-009  0.9118800E+02  0.7561462E-02  0.1125453E+00
         25   -1    0    0    0    0  0.00000000000E+00  0.00000000000E+00  0.99999998245E-14  0.12509000000E+03  0.12509000000E+03 0.  0.
        -13    1    3    3    0    0  0.41951215194E+02 -0.32914967042E+02  0.13907702291E+02  0.55106577272E+02  0.10566000000E+00 0.  1.
         23    2    1    0    0    0  0.80408644625E+01 -0.13292251194E+02  0.24849082466E+02  0.95784431545E+02  0.91191233042E+02 0.  0.
         13    1    3    3    0    0 -0.33910350732E+02  0.19622715848E+02  0.10941380175E+02  0.40677854272E+02  0.10566000000E+00 0. -1.
         22    1    1    0    0    0 -0.80408644625E+01  0.13292251194E+02 -0.24849082466E+02  0.29305568455E+02  0.00000000000E+00 0.  1.
</event>
<event>
 5    1  0.1254921E-009  0.9118800E+02  0.7561462E-02  0.1125453E+00
         25   -1    0    0    0    0  0.00000000000E+00  0.00000000000E+00  0.99999998245E-14  0.12509000000E+03  0.12509000000E+03 0.  0.
        -13    1    3    3    0    0  0.47131602900E+02 -0.15232075050E+02 -0.49633161576E+01  0.49780013797E+02  0.10566000000E+00 0.  1.
         23    2    1    0    0    0 -0.47525984529E+01  0.12767218078E+02 -0.88164309854E+01  0.10886290831E+03  0.10764671059E+03 0.  0.
         13    1    3    3    0    0 -0.51884201353E+02  0.27999293129E+02 -0.38531148279E+01  0.59082894510E+02  0.10566000000E+00 0. -1.
         22    1    1    0    0    0  0.47525984529E+01 -0.12767218078E+02  0.88164309854E+01  0.16227091694E+02  0.00000000000E+00 0. -1.
</event>
<event>
 5    1  0.1254921E-009  0.9118800E+02  0.7561462E-02  0.1125453E+00
         25   -1    0    0    0    0  0.00000000000E+00  0.00000000000E+00  0.99999998245E-14  0.12509000000E+03  0.12509000000E+03 0.  0.
        -13    1    3    3    0    0  0.37193281314E+02  0.12496510685E+02  0.73814621157E+00  0.39243585184E+02  0.10566000000E+00 0.  1.
         23    2    1    0    0    0 -0.12882399592E+02 -0.20230608990E+02  0.86658665670E+01  0.99588411761E+02  0.96267963281E+02 0.  0.
         13    1    3    3    0    0 -0.50075680907E+02 -0.32727119675E+02  0.79277203554E+01  0.60344826577E+02  0.10566000000E+00 0. -1.
         22    1    1    0    0    0  0.12882399592E+02  0.20230608990E+02 -0.86658665670E+01  0.25501588239E+02  0.00000000000E+00 0. -1.
</event>
<event>
 5    1  0.1254921E-009  0.9118800E+02  0.7561462E-02  0.1125453E+00
         25   -1    0    0    0    0  0.00000000000E+00  0.00000000000E+00  0.99999998245E-14  0.12509000000E+03  0.12509000000E+03 0.  0.
        -13    1    3    3    0    0  0.76188700375E+01  0.21074693599E+02 -0.39013552491E+02  0.44991758500E+02  0.10566000000E+00 0. -1.
         23    2    1    0    0    0 -0.17882211678E+02 -0.16635987222E+02 -0.13080717730E+02  0.97383777925E+02  0.93359335159E+02 0.  0.
         13    1    3    3    0    0 -0.25501081716E+02 -0.37710680820E+02  0.25932834762E+02  0.52392019425E+02  0.10566000000E+00 0.  1.
         22    1    1    0    0    0  0.17882211678E+02  0.16635987222E+02  0.13080717730E+02  0.27706222075E+02  0.00000000000E+00 0.  1.
</event>
<event>
 5    1  0.1254921E-009  0.9118800E+02  0.7561462E-02  0.1125453E+00
         25   -1    0    0    0    0  0.00000000000E+00  0.00000000000E+00  0.99999998245E-14  0.12509000000E+03  0.12509000000E+03 0.  0.
        -13    1    3    3    0    0  0.10965754404E+02  0.91281454322E+01 -0.22335522082E+01  0.14441977987E+02  0.10566000000E+00 0. -1.
         23    2    1    0    0    0 -0.32561762420E+02 -0.94107114804E+01  0.36275104477E+02  0.75444123361E+02  0.56807593528E+02 0.  0.
         13    1    3    3    0    0 -0.43527516824E+02 -0.18538856913E+02  0.38508656685E+02  0.61002145374E+02  0.10566000000E+00 0.  1.
         22    1    1    0    0    0  0.32561762420E+02  0.94107114804E+01 -0.36275104477E+02  0.49645876639E+02  0.00000000000E+00 0.  1.
</event>
<event>
 5    1  0.1254921E-009  0.9118800E+02  0.7561462E-02  0.1125453E+00
         25   -1    0    0    0    0  0.00000000000E+00  0.00000000000E+00  0.99999998245E-14  0.12509000000E+03  0.12509000000E+03 0.  0.
        -13    1    3    3    0    0  0.18612475699E+02  0.41965129030E+02 -0.14852362510E+02  0.48250390074E+02  0.10566000000E+00 0. -1.
         23    2    1    0    0    0 -0.21768790637E+02  0.18200376814E+02 -0.31817652425E+01  0.96537283982E+02  0.92218163106E+02 0.  0.
         13    1    3    3    0    0 -0.40381266335E+02 -0.23764752215E+02  0.11670597267E+02  0.48286893908E+02  0.10566000000E+00 0.  1.
         22    1    1    0    0    0  0.21768790637E+02 -0.18200376814E+02  0.31817652425E+01  0.28552716018E+02  0.00000000000E+00 0.  1.
</event>
<event>
 5    1  0.1254921E-009  0.9118800E+02  0.7561462E-02  0.1125453E+00
         25   -1    0    0    0    0  0.00000000000E+00  0.00000000000E+00  0.99999998245E-14  0.12509000000E+03  0.12509000000E+03 0.  0.
        -13    1    3    3    0    0 -0.22544159996E+01  0.40322799638E+02 -0.34961692809E+02  0.53416679888E+02  0.10566000000E+00 0. -1.
         23    2    1    0    0    0 -0.34286731481E+01 -0.15146296356E+01 -0.29182419258E+02  0.95667840048E+02  0.91031160177E+02 0.  0.
         13    1    3    3    0    0 -0.11742571485E+01 -0.41837429273E+02  0.57792735513E+01  0.42251160160E+02  0.10566000000E+00 0.  1.
         22    1    1    0    0    0  0.34286731481E+01  0.15146296356E+01  0.29182419258E+02  0.29422159952E+02  0.00000000000E+00 0. -1.
</event>
<event>
 5    1  0.1254921E-009  0.9118800E+02  0.7561462E-02  0.1125453E+00
         25   -1    0    0    0    0  0.00000000000E+00  0.00000000000E+00  0.99999998245E-14  0.12509000000E+03  0.12509000000E+03 0.  0.
        -13    1    3    3    0    0 -0.22222219421E+02  0.35228808266E+02  0.30657230346E+01  0.41764887042E+02  0.10566000000E+00 0.  1.
         23    2    1    0    0    0  0.25489606914E+02  0.19470040018E+02 -0.49112983064E+01  0.92641219283E+02  0.86772531024E+02 0.  0.
         13    1    3    3    0    0  0.47711826335E+02 -0.15758768248E+02 -0.79770213410E+01  0.50876332242E+02  0.10566000000E+00 0. -1.
         22    1    1    0    0    0 -0.25489606914E+02 -0.19470040018E+02  0.49112983064E+01  0.32448780717E+02  0.00000000000E+00 0.  1.
</event>
<event>
 5    1  0.1254921E-009  0.9118800E+02  0.7561462E-02  0.1125453E+00
         25   -1    0    0    0    0  0.00000000000E+00  0.00000000000E+00  0.99999998245E-14  0.12509000000E+03  0.12509000000E+03 0.  0.
        -13    1    3    3    0    0  0.81967407078E+01 -0.33605715309E+01 -0.59387505796E+02  0.60044708409E+02  0.10566000000E+00 0.  1.
         23    2    1    0    0    0 -0.78150264006E+01 -0.59258594878E+01 -0.28813175065E+02  0.94653352589E+02  0.89626266522E+02 0.  0.
         13    1    3    3    0    0 -0.16011767108E+02 -0.25652879569E+01  0.30574330731E+02  0.34608644179E+02  0.10566000000E+00 0. -1.
         22    1    1    0    0    0  0.78150264006E+01  0.59258594878E+01  0.28813175065E+02  0.30436647411E+02  0.00000000000E+00 0.  1.
</event>
<event>
 5    1  0.1254921E-009  0.9118800E+02  0.7561462E-02  0.1125453E+00
         25   -1    0    0    0    0  0.00000000000E+00  0.00000000000E+00  0.99999998245E-14  0.12509000000E+03  0.12509000000E+03 0.  0.
        -13    1    3    3    0    0  0.15985421045E+01 -0.37524653669E+02  0.21051553924E+02  0.43056173268E+02  0.10566000000E+00 0.  1.
         23    2    1    0    0    0  0.85724067790E+01  0.96247012730E+01  0.30797006824E+02  0.91704723875E+02  0.85411824235E+02 0.  0.
         13    1    3    3    0    0  0.69738646745E+01  0.47149354942E+02  0.97454529007E+01  0.48648550608E+02  0.10566000000E+00 0. -1.
         22    1    1    0    0    0 -0.85724067790E+01 -0.96247012730E+01 -0.30797006824E+02  0.33385276125E+02  0.00000000000E+00 0.  1.
</event>
<event>
 5    1  0.1254921E-009  0.9118800E+02  0.7561462E-02  0.1125453E+00
         25   -1    0    0    0    0  0.00000000000E+00  0.00000000000E+00  0.99999998245E-14  0.12509000000E+03  0.12509000000E+03 0.  0.
        -13    1    3    3    0    0 -0.24846290532E+02 -0.48495711490E+02 -0.26207670428E+02  0.60465075369E+02  0.10566000000E+00 0.  1.
         23    2    1    0    0    0 -0.22135601015E+02 -0.18230479913E+02 -0.12149346227E+02  0.93946110649E+02  0.88633683565E+02 0.  0.
         13    1    3    3    0    0  0.27106895178E+01  0.30265231577E+02  0.14058324201E+02  0.33481035280E+02  0.10566000000E+00 0. -1.
         22    1    1    0    0    0  0.22135601015E+02  0.18230479913E+02  0.12149346227E+02  0.31143889351E+02  0.00000000000E+00 0.  1.
</event>
<event>
 5    1  0.1254921E-009  0.9118800E+02  0.7561462E-02  0.1125453E+00
         25   -1    0    0    0    0  0.00000000000E+00  0.00000000000E+00  0.99999998245E-14  0.12509000000E+03  0.12509000000E+03 0.  0.
        -13    1    3    3    0    0 -0.32512838303E+02 -0.39455522511E+02  0.32888293844E+02  0.60790409993E+02  0.10566000000E+00 0.  1.
         23    2    1    0    0    0 -0.95537914222E+01 -0.16703776310E+02  0.24029140998E+02  0.94305414723E+02  0.89139332258E+02 0.  0.
         13    1    3    3    0    0  0.22959046881E+02  0.22751746200E+02 -0.88591528457E+01  0.33515004730E+02  0.10566000000E+00 0. -1.
         22    1    1    0    0    0  0.95537914222E+01  0.16703776310E+02 -0.24029140998E+02  0.30784585277E+02  0.00000000000E+00 0.  1.
</event>
<event>
 5    1  0.1254921E-009  0.9118800E+02  0.7561462E-02  0.1125453E+00
         25   -1    0    0    0    0  0.00000000000E+00  0.00000000000E+00  0.99999998245E-14  0.12509000000E+03  0.12509000000E+03 0.  0.
        -13    1    3    3    0    0 -0.24316993727E+02  0.47827111515E+02  0.26683782685E+02  0.59923152472E+02  0.10566000000E+00 0.  1.
         23    2    1    0    0    0 -0.93488312712E+01  0.15744692041E+02  0.23254761698E+02  0.95491352815E+02  0.90788317239E+02 0.  0.
         13    1    3    3    0    0  0.14968162455E+02 -0.32082419475E+02 -0.34290209874E+01  0.35568200343E+02  0.10566000000E+00 0. -1.
         22    1    1    0    0    0  0.93488312712E+01 -0.15744692041E+02 -0.23254761698E+02  0.29598647185E+02  0.00000000000E+00 0.  1.
</event>
<event>
 5    1  0.1254921E-009  0.9118800E+02  0.7561462E-02  0.1125453E+00
         25   -1    0    0    0    0  0.00000000000E+00  0.00000000000E+00  0.99999998245E-14  0.12509000000E+03  0.12509000000E+03 0.  0.
        -13    1    3    3    0    0  0.12555433261E+02  0.29582527597E+02 -0.16402762095E+02  0.36080834411E+02  0.10566000000E+00 0.  1.
         23    2    1    0    0    0 -0.16619253770E+02 -0.13619977946E+02  0.16736860284E+02  0.97853519183E+02  0.93986623140E+02 0.  0.
         13    1    3    3    0    0 -0.29174687031E+02 -0.43202505543E+02  0.33139622379E+02  0.61772684772E+02  0.10566000000E+00 0. -1.
         22    1    1    0    0    0  0.16619253770E+02  0.13619977946E+02 -0.16736860284E+02  0.27236480817E+02  0.00000000000E+00 0. -1.
</event>
<event>
 5    1  0.1254921E-009  0.9118800E+02  0.7561462E-02  0.1125453E+00
         25   -1    0    0    0    0  0.00000000000E+00  0.00000000000E+00  0.99999998245E-14  0.12509000000E+03  0.12509000000E+03 0.  0.
        -13    1    3    3    0    0  0.14766069517E+02  0.81807511809E+01 -0.49667932607E+02  0.52458328150E+02  0.10566000000E+00 0.  1.
         23    2    1    0    0    0 -0.95039650838E+01  0.22473853450E+02 -0.18490266369E+02  0.94474817629E+02  0.89376740679E+02 0.  0.
         13    1    3    3    0    0 -0.24270034601E+02  0.14293102270E+02  0.31177666238E+02  0.42016489478E+02  0.10566000000E+00 0. -1.
         22    1    1    0    0    0  0.95039650838E+01 -0.22473853450E+02  0.18490266369E+02  0.30615182371E+02  0.00000000000E+00 0.  1.
</event>
<event>
 5    1  0.1254921E-009  0.9118800E+02  0.7561462E-02  0.1125453E+00
         25   -1    0    0    0    0  0.00000000000E+00  0.00000000000E+00  0.99999998245E-14  0.12509000000E+03  0.12509000000E+03 0.  0.
        -13    1    3    3    0    0  0.34594499936E+02 -0.57367968515E+01 -0.24227133026E+02  0.42622240704E+02  0.10566000000E+00 0.  1.
         23    2    1    0    0    0 -0.12626808388E+02  0.10156201254E+02 -0.28158987188E+02  0.92601336232E+02  0.86715017146E+02 0.  0.
         13    1    3    3    0    0 -0.47221308324E+02  0.15892998105E+02 -0.39318541620E+01  0.49979095528E+02  0.10566000000E+00 0. -1.
         22    1    1    0    0    0  0.12626808388E+02 -0.10156201254E+02  0.28158987188E+02  0.32488663768E+02  0.00000000000E+00 0. -1.
</event>
<event>
 5    1  0.1254921E-009  0.9118800E+02  0.7561462E-02  0.1125453E+00
         25   -1    0    0    0    0  0.00000000000E+00  0.00000000000E+00  0.99999998245E-14  0.12509000000E+03  0.12509000000E+03 0.  0.
        -13    1    3    3    0    0  0.28172576298E+02  0.41996201179E+02 -0.29408399063E+01  0.50656042800E+02  0.10566000000E+00 0.  1.
         23    2    1    0    0    0 -0.68475650482E+01  0.20715956511E+02 -0.20419609909E+02  0.95206886539E+02  0.90395524084E+02 0.  0.
         13    1    3    3    0    0 -0.35020141346E+02 -0.21280244669E+02 -0.17478770003E+02  0.44550843740E+02  0.10566000000E+00 0. -1.
         22    1    1    0    0    0  0.68475650482E+01 -0.20715956511E+02  0.20419609909E+02  0.29883113461E+02  0.00000000000E+00 0.  1.
</event>
<event>
 5    1  0.1254921E-009  0.9118800E+02  0.7561462E-02  0.1125453E+00
         25   -1    0    0    0    0  0.00000000000E+00  0.00000000000E+00  0.99999998245E-14  0.12509000000E+03  0.12509000000E+03 0.  0.
        -13    1    3    3    0    0  0.10314089467E+02  0.39263421191E+02  0.11066219906E+02  0.42076942287E+02  0.10566000000E+00 0. -1.
         23    2    1    0    0    0 -0.25338886672E+02  0.20937135519E+02 -0.14007471659E+02  0.89360011421E+02  0.81905918940E+02 0.  0.
         13    1    3    3    0    0 -0.35652976139E+02 -0.18326285672E+02 -0.25073691564E+02  0.47283069135E+02  0.10566000000E+00 0.  1.
         22    1    1    0    0    0  0.25338886672E+02 -0.20937135519E+02  0.14007471659E+02  0.35729988579E+02  0.00000000000E+00 0. -1.
</event>
<event>
 5    1  0.1254921E-009  0.9118800E+02  0.7561462E-02  0.1125453E+00
         25   -1    0    0    0    0  0.00000000000E+00  0.00000000000E+00  0.99999998245E-14  0.12509000000E+03  0.12509000000E+03 0.  0.
        -13    1    3    3    0    0 -0.25696903758E+02 -0.30591258417E+02 -0.33223120849E+02  0.51960974560E+02  0.10566000000E+00 0.  1.
         23    2    1    0    0    0  0.10527027653E+02 -0.26608270240E+02 -0.12719596116E+02  0.93775363139E+02  0.88392376652E+02 0.  0.
         13    1    3    3    0    0  0.36223931411E+02  0.39829881771E+01  0.20503524733E+02  0.41814388579E+02  0.10566000000E+00 0. -1.
         22    1    1    0    0    0 -0.10527027653E+02  0.26608270240E+02  0.12719596116E+02  0.31314636861E+02  0.00000000000E+00 0. -1.
</event>
<event>
 5    1  0.1254921E-009  0.9118800E+02  0.7561462E-02  0.1125453E+00
         25   -1    0    0    0    0  0.00000000000E+00  0.00000000000E+00  0.99999998245E-14  0.12509000000E+03  0.12509000000E+03 0.  0.
        -13    1    3    3    0    0 -0.64032090774E+01  0.89221153696E+01 -0.35190652381E+02  0.36864595593E+02  0.10566000000E+00 0.  1.
         23    2    1    0    0    0  0.40001492814E+01 -0.99968578086E+01  0.23413376654E+02  0.99319385598E+02  0.95917755336E+02 0.  0.
         13    1    3    3    0    0  0.10403358359E+02 -0.18918973178E+02  0.58604029036E+02  0.62454790005E+02  0.10566000000E+00 0. -1.
         22    1    1    0    0    0 -0.40001492814E+01  0.99968578086E+01 -0.23413376654E+02  0.25770614402E+02  0.00000000000E+00 0. -1.
</event>
<event>
 5    1  0.1254921E-009  0.9118800E+02  0.7561462E-02  0.1125453E+00
         25   -1    0    0    0    0  0.00000000000E+00  0.00000000000E+00  0.99999998245E-14  0.12509000000E+03  0.12509000000E+03 0.  0.
        -13    1    3    3    0    0 -0.39339309029E+02  0.60390501206E+01 -0.41045434888E+02  0.57173335135E+02  0.10566000000E+00 0.  1.
         23    2    1    0    0    0 -0.17253530975E+02  0.20275849379E+02 -0.13509065786E+02  0.95235532034E+02  0.90435155246E+02 0.  0.
         13    1    3    3    0    0  0.22085778054E+02  0.14236799258E+02  0.27536369103E+02  0.38062196899E+02  0.10566000000E+00 0. -1.
         22    1    1    0    0    0  0.17253530975E+02 -0.20275849379E+02  0.13509065786E+02  0.29854467966E+02  0.00000000000E+00 0.  1.
</event>
<event>
 5    1  0.1254921E-009  0.9118800E+02  0.7561462E-02  0.1125453E+00
         25   -1    0    0    0    0  0.00000000000E+00  0.00000000000E+00  0.99999998245E-14  0.12509000000E+03  0.12509000000E+03 0.  0.
        -13    1    3    3    0    0 -0.44597514780E+02  0.19395908961E+02 -0.22578341022E+02  0.53618394757E+02  0.10566000000E+00 0. -1.
         23    2    1    0    0    0 -0.26647845224E+02 -0.10625037045E+02 -0.22556267331E+02  0.88596380514E+02  0.80731247835E+02 0.  0.
         13    1    3    3    0    0  0.17949669557E+02 -0.30020946007E+02  0.22073690422E-01  0.34977985757E+02  0.10566000000E+00 0.  1.
         22    1    1    0    0    0  0.26647845224E+02  0.10625037045E+02  0.22556267331E+02  0.36493619486E+02  0.00000000000E+00 0. -1.
</event>
<event>
 5    1  0.1254921E-009  0.9118800E+02  0.7561462E-02  0.1125453E+00
         25   -1    0    0    0    0  0.00000000000E+00  0.00000000000E+00  0.99999998245E-14  0.12509000000E+03  0.12509000000E+03 0.  0.
        -13    1    3    3    0    0  0.15606844801E+02 -0.30951866121E+02 -0.68501568360E+00  0.34670910451E+02  0.10566000000E+00 0.  1.
         23    2    1    0    0    0 -0.23344910989E+02  0.15389521044E+02  0.84188070943E+01  0.95888997621E+02  0.91334557122E+02 0.  0.
         13    1    3    3    0    0 -0.38951755790E+02  0.46341387165E+02  0.91038227779E+01  0.61218087170E+02  0.10566000000E+00 0. -1.
         22    1    1    0    0    0  0.23344910989E+02 -0.15389521044E+02 -0.84188070943E+01  0.29201002379E+02  0.00000000000E+00 0. -1.
</event>
<event>
 5    1  0.1254921E-009  0.9118800E+02  0.7561462E-02  0.1125453E+00
         25   -1    0    0    0    0  0.00000000000E+00  0.00000000000E+00  0.99999998245E-14  0.12509000000E+03  0.12509000000E+03 0.  0.
        -13    1    3    3    0    0  0.26561990489E+01 -0.10308551640E+02 -0.60428066197E+02  0.61358650398E+02  0.10566000000E+00 0.  1.
         23    2    1    0    0    0 -0.29133447856E+01 -0.11889796361E+02 -0.25034320970E+02  0.97222957427E+02  0.93143606271E+02 0.  0.
         13    1    3    3    0    0 -0.55695438346E+01 -0.15812447212E+01  0.35393745228E+02  0.35864307029E+02  0.10566000000E+00 0. -1.
         22    1    1    0    0    0  0.29133447856E+01  0.11889796361E+02  0.25034320970E+02  0.27867042573E+02  0.00000000000E+00 0.  1.
</event>
<event>
 5    1  0.1254921E-009  0.9118800E+02  0.7561462E-02  0.1125453E+00
         25   -1    0    0    0    0  0.00000000000E+00  0.00000000000E+00  0.99999998245E-14  0.12509000000E+03  0.12509000000E+03 0.  0.
        -13    1    3    3    0    0 -0.36148650763E+02  0.13849102190E+02  0.47566074986E+01  0.39002039208E+02  0.10566000000E+00 0. -1.
         23    2    1    0    0    0  0.11941609639E+02  0.54678567056E+01 -0.25480731507E+02  0.96423518252E+02  0.92063715416E+02 0.  0.
         13    1    3    3    0    0  0.48090260402E+02 -0.83812454848E+01 -0.30237339005E+02  0.57421479043E+02  0.10566000000E+00 0.  1.
         22    1    1    0    0    0 -0.11941609639E+02 -0.54678567056E+01  0.25480731507E+02  0.28666481748E+02  0.00000000000E+00 0.  1.
</event>
<event>
 5    1  0.1254921E-009  0.9118800E+02  0.7561462E-02  0.1125453E+00
         25   -1    0    0    0    0  0.00000000000E+00  0.00000000000E+00  0.99999998245E-14  0.12509000000E+03  0.12509000000E+03 0.  0.
        -13    1    3    3    0    0 -0.29527461056E+02 -0.22707691806E+02  0.35520876771E+02  0.51470905123E+02  0.10566000000E+00 0.  1.
         23    2    1    0    0    0 -0.19058311965E+01  0.11169205227E+02  0.26731398840E+02  0.96056381178E+02  0.91563515349E+02 0.  0.
         13    1    3    3    0    0  0.27621629860E+02  0.33876897033E+02 -0.87894779308E+01  0.44585476055E+02  0.10566000000E+00 0. -1.
         22    1    1    0    0    0  0.19058311965E+01 -0.11169205227E+02 -0.26731398840E+02  0.29033618822E+02  0.00000000000E+00 0.  1.
</event>
<event>
 5    1  0.1254921E-009  0.9118800E+02  0.7561462E-02  0.1125453E+00
         25   -1    0    0    0    0  0.00000000000E+00  0.00000000000E+00  0.99999998245E-14  0.12509000000E+03  0.12509000000E+03 0.  0.
        -13    1    3    3    0    0  0.14510191065E+02  0.33971278343E+02  0.30158721929E+02  0.47688081000E+02  0.10566000000E+00 0.  1.
         23    2    1    0    0    0  0.25309251044E+02 -0.90424467825E+01  0.98489550410E+01  0.96466129758E+02  0.92121594878E+02 0.  0.
         13    1    3    3    0    0  0.10799059979E+02 -0.43013725125E+02 -0.20309766888E+02  0.48778048759E+02  0.10566000000E+00 0. -1.
         22    1    1    0    0    0 -0.25309251044E+02  0.90424467825E+01 -0.98489550410E+01  0.28623870242E+02  0.00000000000E+00 0. -1.
</event>
<event>
 5    1  0.1254921E-009  0.9118800E+02  0.7561462E-02  0.1125453E+00
         25   -1    0    0    0    0  0.00000000000E+00  0.00000000000E+00  0.99999998245E-14  0.12509000000E+03  0.12509000000E+03 0.  0.
        -13    1    3    3    0    0 -0.35387763537E+02 -0.40268758291E+01  0.40470164543E+01  0.35845488465E+02  0.10566000000E+00 0.  1.
         23    2    1    0    0    0  0.10411135357E+02  0.30115972284E+02  0.40359485062E+01  0.92970653705E+02  0.87246146299E+02 0.  0.
         13    1    3    3    0    0  0.45798898894E+02  0.34142848113E+02 -0.11067948138E-01  0.57125165240E+02  0.10566000000E+00 0. -1.
         22    1    1    0    0    0 -0.10411135357E+02 -0.30115972284E+02 -0.40359485062E+01  0.32119346295E+02  0.00000000000E+00 0. -1.
</event>
<event>
 5    1  0.1254921E-009  0.9118800E+02  0.7561462E-02  0.1125453E+00
         25   -1    0    0    0    0  0.00000000000E+00  0.00000000000E+00  0.99999998245E-14  0.12509000000E+03  0.12509000000E+03 0.  0.
        -13    1    3    3    0    0 -0.12303668325E+02 -0.17889720215E+02  0.53790109795E+02  0.58006977333E+02  0.10566000000E+00 0.  1.
         23    2    1    0    0    0 -0.62927596094E+01 -0.22377598584E+02  0.15208245104E+02  0.97311474823E+02  0.93262407599E+02 0.  0.
         13    1    3    3    0    0  0.60109087154E+01 -0.44878783691E+01 -0.38581864690E+02  0.39304497489E+02  0.10566000000E+00 0. -1.
         22    1    1    0    0    0  0.62927596094E+01  0.22377598584E+02 -0.15208245104E+02  0.27778525177E+02  0.00000000000E+00 0.  1.
</event>
<event>
 5    1  0.1254921E-009  0.9118800E+02  0.7561462E-02  0.1125453E+00
         25   -1    0    0    0    0  0.00000000000E+00  0.00000000000E+00  0.99999998245E-14  0.12509000000E+03  0.12509000000E+03 0.  0.
        -13    1    3    3    0    0  0.14848487319E+02  0.24412616260E+02  0.16768796838E+02  0.33130908828E+02  0.10566000000E+00 0. -1.
         23    2    1    0    0    0 -0.10269126135E+02 -0.15954755246E+02 -0.23112470839E+02  0.95186898575E+02  0.90367860357E+02 0.  0.
         13    1    3    3    0    0 -0.25117613454E+02 -0.40367371506E+02 -0.39881267677E+02  0.62055989747E+02  0.10566000000E+00 0.  1.
         22    1    1    0    0    0  0.10269126135E+02  0.15954755246E+02  0.23112470839E+02  0.29903101425E+02  0.00000000000E+00 0.  1.
</event>
<event>
 5    1  0.1254921E-009  0.9118800E+02  0.7561462E-02  0.1125453E+00
         25   -1    0    0    0    0  0.00000000000E+00  0.00000000000E+00  0.99999998245E-14  0.12509000000E+03  0.12509000000E+03 0.  0.
        -13    1    3    3    0    0  0.68366003295E+01 -0.23559041833E+02 -0.52211179185E+02  0.57686965184E+02  0.10566000000E+00 0.  1.
         23    2    1    0    0    0  0.18276611631E+02 -0.24046418128E+01 -0.25424131143E+02  0.93686126364E+02  0.88266001347E+02 0.  0.
         13    1    3    3    0    0  0.11440011302E+02  0.21154400020E+02  0.26787048043E+02  0.35999161180E+02  0.10566000000E+00 0. -1.
         22    1    1    0    0    0 -0.18276611631E+02  0.24046418128E+01  0.25424131143E+02  0.31403873636E+02  0.00000000000E+00 0.  1.
</event>
<event>
 5    1  0.1254921E-009  0.9118800E+02  0.7561462E-02  0.1125453E+00
         25   -1    0    0    0    0  0.00000000000E+00  0.00000000000E+00  0.99999998245E-14  0.12509000000E+03  0.12509000000E+03 0.  0.
        -13    1    3    3    0    0  0.49720040511E+02 -0.26889937407E+02  0.88286888956E+01  0.57211083487E+02  0.10566000000E+00 0.  1.
         23    2    1    0    0    0  0.25900313721E+02  0.33055296145E+01  0.13046679222E+02  0.95901498572E+02  0.91351676573E+02 0.  0.
         13    1    3    3    0    0 -0.23819726789E+02  0.30195467022E+02  0.42179903265E+01  0.38690415084E+02  0.10566000000E+00 0. -1.
         22    1    1    0    0    0 -0.25900313721E+02 -0.33055296145E+01 -0.13046679222E+02  0.29188501428E+02  0.00000000000E+00 0.  1.
</event>
<event>
 5    1  0.1254921E-009  0.9118800E+02  0.7561462E-02  0.1125453E+00
         25   -1    0    0    0    0  0.00000000000E+00  0.00000000000E+00  0.99999998245E-14  0.12509000000E+03  0.12509000000E+03 0.  0.
        -13    1    3    3    0    0  0.22915984139E+02 -0.38241226790E+02 -0.17058637228E+02  0.47734076126E+02  0.10566000000E+00 0.  1.
         23    2    1    0    0    0 -0.19132812115E+02 -0.24619501158E+02 -0.87163840444E+01  0.92714705599E+02  0.86878403225E+02 0.  0.
         13    1    3    3    0    0 -0.42048796254E+02  0.13621725632E+02  0.83422531836E+01  0.44980629474E+02  0.10566000000E+00 0. -1.
         22    1    1    0    0    0  0.19132812115E+02  0.24619501158E+02  0.87163840444E+01  0.32375294401E+02  0.00000000000E+00 0.  1.
</event>
<event>
 5    1  0.1254921E-009  0.9118800E+02  0.7561462E-02  0.1125453E+00
         25   -1    0    0    0    0  0.00000000000E+00  0.00000000000E+00  0.99999998245E-14  0.12509000000E+03  0.12509000000E+03 0.  0.
        -13    1    3    3    0    0  0.85794202924E+01 -0.86355650610E+01 -0.59227899355E+02  0.60465979381E+02  0.10566000000E+00 0.  1.
         23    2    1    0    0    0 -0.57923512435E+01  0.74205185417E+00 -0.31337106432E+02  0.93213422181E+02  0.87593526367E+02 0.  0.
         13    1    3    3    0    0 -0.14371771536E+02  0.93776169151E+01  0.27890792923E+02  0.32747442801E+02  0.10566000000E+00 0. -1.
         22    1    1    0    0    0  0.57923512435E+01 -0.74205185417E+00  0.31337106432E+02  0.31876577819E+02  0.00000000000E+00 0.  1.
</event>
<event>
 5    1  0.1254921E-009  0.9118800E+02  0.7561462E-02  0.1125453E+00
         25   -1    0    0    0    0  0.00000000000E+00  0.00000000000E+00  0.99999998245E-14  0.12509000000E+03  0.12509000000E+03 0.  0.
        -13    1    3    3    0    0 -0.27809036929E+02 -0.83947740274E+01 -0.18573602520E+02  0.34479046397E+02  0.10566000000E+00 0. -1.
         23    2    1    0    0    0  0.15016037457E+02  0.84836493780E+01  0.22888839689E+02  0.96430748963E+02  0.92073539497E+02 0.  0.
         13    1    3    3    0    0  0.42825074386E+02  0.16878423405E+02  0.41462442209E+02  0.61951702566E+02  0.10566000000E+00 0.  1.
         22    1    1    0    0    0 -0.15016037457E+02 -0.84836493780E+01 -0.22888839689E+02  0.28659251037E+02  0.00000000000E+00 0.  1.
</event>
<event>
 5    1  0.1254921E-009  0.9118800E+02  0.7561462E-02  0.1125453E+00
         25   -1    0    0    0    0  0.00000000000E+00  0.00000000000E+00  0.99999998245E-14  0.12509000000E+03  0.12509000000E+03 0.  0.
        -13    1    3    3    0    0  0.58877791168E+01 -0.52072660573E+01  0.29830205516E+02  0.30848563790E+02  0.10566000000E+00 0. -1.
         23    2    1    0    0    0 -0.14496062150E+02 -0.15498084356E+02 -0.26212299355E+02  0.91364474444E+02  0.84912049301E+02 0.  0.
         13    1    3    3    0    0 -0.20383841266E+02 -0.10290818299E+02 -0.56042504871E+02  0.60515910654E+02  0.10566000000E+00 0.  1.
         22    1    1    0    0    0  0.14496062150E+02  0.15498084356E+02  0.26212299355E+02  0.33725525556E+02  0.00000000000E+00 0.  1.
</event>
<event>
 5    1  0.1254921E-009  0.9118800E+02  0.7561462E-02  0.1125453E+00
         25   -1    0    0    0    0  0.00000000000E+00  0.00000000000E+00  0.99999998245E-14  0.12509000000E+03  0.12509000000E+03 0.  0.
        -13    1    3    3    0    0  0.27702886522E+02  0.14522737494E+02 -0.36538227128E+02  0.48097952469E+02  0.10566000000E+00 0.  1.
         23    2    1    0    0    0 -0.18597966646E+02  0.55725242488E+01 -0.17493617556E+02  0.98956419207E+02  0.95443223213E+02 0.  0.
         13    1    3    3    0    0 -0.46300853168E+02 -0.89502132449E+01  0.19044609573E+02  0.50858466739E+02  0.10566000000E+00 0. -1.
         22    1    1    0    0    0  0.18597966646E+02 -0.55725242488E+01  0.17493617556E+02  0.26133580793E+02  0.00000000000E+00 0. -1.
</event>
<event>
 5    1  0.1254921E-009  0.9118800E+02  0.7561462E-02  0.1125453E+00
         25   -1    0    0    0    0  0.00000000000E+00  0.00000000000E+00  0.99999998245E-14  0.12509000000E+03  0.12509000000E+03 0.  0.
        -13    1    3    3    0    0  0.31907790098E+02  0.75714859788E+01 -0.14570053500E+02  0.35884984212E+02  0.10566000000E+00 0.  1.
         23    2    1    0    0    0 -0.11098382695E+02  0.10374233570E+02  0.25937356046E+02  0.95030970421E+02  0.90151761379E+02 0.  0.
         13    1    3    3    0    0 -0.43006172794E+02  0.28027475912E+01  0.40507409546E+02  0.59145986208E+02  0.10566000000E+00 0. -1.
         22    1    1    0    0    0  0.11098382695E+02 -0.10374233570E+02 -0.25937356046E+02  0.30059029579E+02  0.00000000000E+00 0. -1.
</event>
<event>
 5    1  0.1254921E-009  0.9118800E+02  0.7561462E-02  0.1125453E+00
         25   -1    0    0    0    0  0.00000000000E+00  0.00000000000E+00  0.99999998245E-14  0.12509000000E+03  0.12509000000E+03 0.  0.
        -13    1    3    3    0    0  0.39681068812E+02 -0.15100464086E+02  0.34119689790E+02  0.54468115747E+02  0.10566000000E+00 0.  1.
         23    2    1    0    0    0  0.17977930386E+02 -0.27010331677E+02  0.57200498065E+01  0.92143331457E+02  0.86051790010E+02 0.  0.
         13    1    3    3    0    0 -0.21703138425E+02 -0.11909867591E+02 -0.28399639984E+02  0.37675215710E+02  0.10566000000E+00 0. -1.
         22    1    1    0    0    0 -0.17977930386E+02  0.27010331677E+02 -0.57200498065E+01  0.32946668543E+02  0.00000000000E+00 0.  1.
</event>
<event>
 5    1  0.1254921E-009  0.9118800E+02  0.7561462E-02  0.1125453E+00
         25   -1    0    0    0    0  0.00000000000E+00  0.00000000000E+00  0.99999998245E-14  0.12509000000E+03  0.12509000000E+03 0.  0.
        -13    1    3    3    0    0  0.42477629371E+02  0.24119697229E+02  0.30832271602E+02  0.57764599259E+02  0.10566000000E+00 0.  1.
         23    2    1    0    0    0  0.12465577084E+02  0.25905735127E+02  0.88473648123E+01  0.95010545407E+02  0.90123416213E+02 0.  0.
         13    1    3    3    0    0 -0.30012052287E+02  0.17860378976E+01 -0.21984906790E+02  0.37245946148E+02  0.10566000000E+00 0. -1.
         22    1    1    0    0    0 -0.12465577084E+02 -0.25905735127E+02 -0.88473648123E+01  0.30079454593E+02  0.00000000000E+00 0.  1.
</event>
<event>
 5    1  0.1254921E-009  0.9118800E+02  0.7561462E-02  0.1125453E+00
         25   -1    0    0    0    0  0.00000000000E+00  0.00000000000E+00  0.99999998245E-14  0.12509000000E+03  0.12509000000E+03 0.  0.
        -13    1    3    3    0    0 -0.30436834532E+02 -0.21574663623E+02  0.13286778941E+02  0.39603240593E+02  0.10566000000E+00 0.  1.
         23    2    1    0    0    0 -0.90789551967E+01  0.16080695229E+02 -0.22649726623E+02  0.95866271583E+02  0.91303426686E+02 0.  0.
         13    1    3    3    0    0  0.21357879336E+02  0.37655358852E+02 -0.35936505564E+02  0.56263030990E+02  0.10566000000E+00 0. -1.
         22    1    1    0    0    0  0.90789551967E+01 -0.16080695229E+02  0.22649726623E+02  0.29223728417E+02  0.00000000000E+00 0. -1.
</event>
<event>
 5    1  0.1254921E-009  0.9118800E+02  0.7561462E-02  0.1125453E+00
         25   -1    0    0    0    0  0.00000000000E+00  0.00000000000E+00  0.99999998245E-14  0.12509000000E+03  0.12509000000E+03 0.  0.
        -13    1    3    3    0    0  0.59342851750E+01  0.31258101316E+02  0.21000901122E+02  0.38122613373E+02  0.10566000000E+00 0.  1.
         23    2    1    0    0    0 -0.23346827662E+02 -0.16085588438E+02  0.32432686680E+01  0.96553368998E+02  0.92239979163E+02 0.  0.
         13    1    3    3    0    0 -0.29281112837E+02 -0.47343689754E+02 -0.17757632454E+02  0.58430755625E+02  0.10566000000E+00 0. -1.
         22    1    1    0    0    0  0.23346827662E+02  0.16085588438E+02 -0.32432686680E+01  0.28536631002E+02  0.00000000000E+00 0. -1.
</event>
<event>
 5    1  0.1254921E-009  0.9118800E+02  0.7561462E-02  0.1125453E+00
         25   -1    0    0    0    0  0.00000000000E+00  0.00000000000E+00  0.99999998245E-14  0.12509000000E+03  0.12509000000E+03 0.  0.
        -13    1    3    3    0    0 -0.50095344921E+02 -0.24286066857E+02 -0.19858153072E+02  0.59107647844E+02  0.10566000000E+00 0.  1.
         23    2    1    0    0    0 -0.23695179369E+02 -0.17658099488E+02  0.39572397389E+01  0.95275075059E+02  0.90489834669E+02 0.  0.
         13    1    3    3    0    0  0.26400165552E+02  0.66279673686E+01  0.23815392811E+02  0.36167427216E+02  0.10566000000E+00 0. -1.
         22    1    1    0    0    0  0.23695179369E+02  0.17658099488E+02 -0.39572397389E+01  0.29814924941E+02  0.00000000000E+00 0.  1.
</event>
<event>
 5    1  0.1254921E-009  0.9118800E+02  0.7561462E-02  0.1125453E+00
         25   -1    0    0    0    0  0.00000000000E+00  0.00000000000E+00  0.99999998245E-14  0.12509000000E+03  0.12509000000E+03 0.  0.
        -13    1    3    3    0    0  0.46018826120E+02  0.54763300023E+01 -0.19084168631E+02  0.50119249836E+02  0.10566000000E+00 0.  1.
         23    2    1    0    0    0  0.15746276626E+02  0.24035354588E+02  0.85466160335E+01  0.95111872250E+02  0.90263946842E+02 0.  0.
         13    1    3    3    0    0 -0.30272549494E+02  0.18559024586E+02  0.27630784665E+02  0.44992622414E+02  0.10566000000E+00 0. -1.
         22    1    1    0    0    0 -0.15746276626E+02 -0.24035354588E+02 -0.85466160335E+01  0.29978127750E+02  0.00000000000E+00 0.  1.
</event>
<event>
 5    1  0.1254921E-009  0.9118800E+02  0.7561462E-02  0.1125453E+00
         25   -1    0    0    0    0  0.00000000000E+00  0.00000000000E+00  0.99999998245E-14  0.12509000000E+03  0.12509000000E+03 0.  0.
        -13    1    3    3    0    0 -0.36893267935E-01  0.11388835426E+02 -0.38305349363E+02  0.39962706207E+02  0.10566000000E+00 0.  1.
         23    2    1    0    0    0 -0.18256730865E+02  0.21741058395E+02  0.11854927284E+02  0.94324416259E+02  0.89165993292E+02 0.  0.
         13    1    3    3    0    0 -0.18219837597E+02  0.10352222969E+02  0.50160276647E+02  0.54361710052E+02  0.10566000000E+00 0. -1.
         22    1    1    0    0    0  0.18256730865E+02 -0.21741058395E+02 -0.11854927284E+02  0.30765583741E+02  0.00000000000E+00 0. -1.
</event>
<event>
 5    1  0.1254921E-009  0.9118800E+02  0.7561462E-02  0.1125453E+00
         25   -1    0    0    0    0  0.00000000000E+00  0.00000000000E+00  0.99999998245E-14  0.12509000000E+03  0.12509000000E+03 0.  0.
        -13    1    3    3    0    0 -0.34981206108E+02 -0.84570674815E+01 -0.79413970471E+00  0.35997897065E+02  0.10566000000E+00 0.  1.
         23    2    1    0    0    0  0.12683538037E+02  0.26555996719E+02 -0.47807310932E+01  0.95274760798E+02  0.90489400244E+02 0.  0.
         13    1    3    3    0    0  0.47664744145E+02  0.35013064201E+02 -0.39865913885E+01  0.59276863733E+02  0.10566000000E+00 0. -1.
         22    1    1    0    0    0 -0.12683538037E+02 -0.26555996719E+02  0.47807310932E+01  0.29815239202E+02  0.00000000000E+00 0. -1.
</event>
<event>
 5    1  0.1254921E-009  0.9118800E+02  0.7561462E-02  0.1125453E+00
         25   -1    0    0    0    0  0.00000000000E+00  0.00000000000E+00  0.99999998245E-14  0.12509000000E+03  0.12509000000E+03 0.  0.
        -13    1    3    3    0    0  0.27039641242E+02 -0.43620214115E+02 -0.25219948972E+02  0.57183234152E+02  0.10566000000E+00 0.  1.
         23    2    1    0    0    0  0.27800047136E+00 -0.16065500848E+02 -0.24730493060E+02  0.95598053832E+02  0.90935213244E+02 0.  0.
         13    1    3    3    0    0 -0.26761640770E+02  0.27554713267E+02  0.48945591105E+00  0.38414819680E+02  0.10566000000E+00 0. -1.
         22    1    1    0    0    0 -0.27800047136E+00  0.16065500848E+02  0.24730493060E+02  0.29491946168E+02  0.00000000000E+00 0.  1.
</event>
<event>
 5    1  0.1254921E-009  0.9118800E+02  0.7561462E-02  0.1125453E+00
         25   -1    0    0    0    0  0.00000000000E+00  0.00000000000E+00  0.99999998245E-14  0.12509000000E+03  0.12509000000E+03 0.  0.
        -13    1    3    3    0    0  0.18123818325E+02  0.31879261732E+02 -0.16128764235E+02  0.40061307006E+02  0.10566000000E+00 0.  1.
         23    2    1    0    0    0  0.24285488383E+02 -0.15987219965E+02  0.92367324045E+01  0.94582732444E+02  0.89527648818E+02 0.  0.
         13    1    3    3    0    0  0.61616700576E+01 -0.47866481697E+02  0.25365496640E+02  0.54521425438E+02  0.10566000000E+00 0. -1.
         22    1    1    0    0    0 -0.24285488383E+02  0.15987219965E+02 -0.92367324045E+01  0.30507267556E+02  0.00000000000E+00 0. -1.
</event>
<event>
 5    1  0.1254921E-009  0.9118800E+02  0.7561462E-02  0.1125453E+00
         25   -1    0    0    0    0  0.00000000000E+00  0.00000000000E+00  0.99999998245E-14  0.12509000000E+03  0.12509000000E+03 0.  0.
        -13    1    3    3    0    0  0.60728447544E+01 -0.13231435241E+02  0.56657008363E+02  0.58497675873E+02  0.10566000000E+00 0. -1.
         23    2    1    0    0    0  0.53672240675E+01  0.95887779561E+01  0.27107214312E+02  0.95840165392E+02  0.91267652965E+02 0.  0.
         13    1    3    3    0    0 -0.70562068697E+00  0.22820213198E+02 -0.29549794051E+02  0.37342489518E+02  0.10566000000E+00 0.  1.
         22    1    1    0    0    0 -0.53672240675E+01 -0.95887779561E+01 -0.27107214312E+02  0.29249834608E+02  0.00000000000E+00 0. -1.
</event>
<event>
 5    1  0.1254921E-009  0.9118800E+02  0.7561462E-02  0.1125453E+00
         25   -1    0    0    0    0  0.00000000000E+00  0.00000000000E+00  0.99999998245E-14  0.12509000000E+03  0.12509000000E+03 0.  0.
        -13    1    3    3    0    0 -0.17388120449E+02  0.29492917068E+02  0.13719919914E+02  0.36883956626E+02  0.10566000000E+00 0.  1.
         23    2    1    0    0    0 -0.10987579260E+02 -0.15547155510E+02 -0.22918347421E+02  0.95295846363E+02  0.90518543642E+02 0.  0.
         13    1    3    3    0    0  0.64005411892E+01 -0.45040072578E+02 -0.36638267335E+02  0.58411889737E+02  0.10566000000E+00 0. -1.
         22    1    1    0    0    0  0.10987579260E+02  0.15547155510E+02  0.22918347421E+02  0.29794153637E+02  0.00000000000E+00 0. -1.
</event>
<event>
 5    1  0.1254921E-009  0.9118800E+02  0.7561462E-02  0.1125453E+00
         25   -1    0    0    0    0  0.00000000000E+00  0.00000000000E+00  0.99999998245E-14  0.12509000000E+03  0.12509000000E+03 0.  0.
        -13    1    3    3    0    0  0.14759366355E+01 -0.94032206822E+00  0.37588174459E+02  0.37629039553E+02  0.10566000000E+00 0.  1.
         23    2    1    0    0    0  0.21851504985E+02  0.97704967790E+01 -0.16234366060E+02  0.96167594865E+02  0.91715324691E+02 0.  0.
         13    1    3    3    0    0  0.20375568350E+02  0.10710818847E+02 -0.53822540519E+02  0.58538555311E+02  0.10566000000E+00 0. -1.
         22    1    1    0    0    0 -0.21851504985E+02 -0.97704967790E+01  0.16234366060E+02  0.28922405135E+02  0.00000000000E+00 0. -1.
</event>
<event>
 5    1  0.1254921E-009  0.9118800E+02  0.7561462E-02  0.1125453E+00
         25   -1    0    0    0    0  0.00000000000E+00  0.00000000000E+00  0.99999998245E-14  0.12509000000E+03  0.12509000000E+03 0.  0.
        -13    1    3    3    0    0 -0.30884226874E+02  0.35040565244E+02 -0.15319829449E+02  0.49156739320E+02  0.10566000000E+00 0. -1.
         23    2    1    0    0    0 -0.26696306808E+02 -0.10454359393E+02 -0.51882164692E+01  0.95954042531E+02  0.91423597941E+02 0.  0.
         13    1    3    3    0    0  0.41879200658E+01 -0.45494924637E+02  0.10131612979E+02  0.46797303211E+02  0.10566000000E+00 0.  1.
         22    1    1    0    0    0  0.26696306808E+02  0.10454359393E+02  0.51882164692E+01  0.29135957469E+02  0.00000000000E+00 0. -1.
</event>
<event>
 5    1  0.1254921E-009  0.9118800E+02  0.7561462E-02  0.1125453E+00
         25   -1    0    0    0    0  0.00000000000E+00  0.00000000000E+00  0.99999998245E-14  0.12509000000E+03  0.12509000000E+03 0.  0.
        -13    1    3    3    0    0  0.15289867687E+02 -0.18404047858E+02 -0.46907681866E+02  0.52657675733E+02  0.10566000000E+00 0.  1.
         23    2    1    0    0    0  0.46955478404E+01  0.15747442844E+02 -0.26723804939E+02  0.93718167474E+02  0.88311398124E+02 0.  0.
         13    1    3    3    0    0 -0.10594319846E+02  0.34151490702E+02  0.20183876928E+02  0.41060491742E+02  0.10566000000E+00 0. -1.
         22    1    1    0    0    0 -0.46955478404E+01 -0.15747442844E+02  0.26723804939E+02  0.31371832526E+02  0.00000000000E+00 0.  1.
</event>
<event>
 5    1  0.1254921E-009  0.9118800E+02  0.7561462E-02  0.1125453E+00
         25   -1    0    0    0    0  0.00000000000E+00  0.00000000000E+00  0.99999998245E-14  0.12509000000E+03  0.12509000000E+03 0.  0.
        -13    1    3    3    0    0  0.63234084567E+00  0.22574667986E+01  0.27223602108E+02  0.27324561974E+02  0.10566000000E+00 0.  1.
         23    2    1    0    0    0 -0.51055041576E+01  0.91129532283E+01 -0.34166567410E+02  0.89362329801E+02  0.81909459586E+02 0.  0.
         13    1    3    3    0    0 -0.57378450032E+01  0.68554864297E+01 -0.61390169518E+02  0.62037767827E+02  0.10566000000E+00 0. -1.
         22    1    1    0    0    0  0.51055041576E+01 -0.91129532283E+01  0.34166567410E+02  0.35727670199E+02  0.00000000000E+00 0. -1.
</event>
<event>
 5    1  0.1254921E-009  0.9118800E+02  0.7561462E-02  0.1125453E+00
         25   -1    0    0    0    0  0.00000000000E+00  0.00000000000E+00  0.99999998245E-14  0.12509000000E+03  0.12509000000E+03 0.  0.
        -13    1    3    3    0    0  0.23555356350E+02 -0.40045021614E+02  0.10050998477E+02  0.47534117256E+02  0.10566000000E+00 0. -1.
         23    2    1    0    0    0  0.10818978696E+02  0.33535313268E+01  0.26981024950E+02  0.95827871237E+02  0.91250801235E+02 0.  0.
         13    1    3    3    0    0 -0.12736377654E+02  0.43398552941E+02  0.16930026474E+02  0.48293753981E+02  0.10566000000E+00 0.  1.
         22    1    1    0    0    0 -0.10818978696E+02 -0.33535313268E+01 -0.26981024950E+02  0.29262128763E+02  0.00000000000E+00 0. -1.
</event>
<event>
 5    1  0.1254921E-009  0.9118800E+02  0.7561462E-02  0.1125453E+00
         25   -1    0    0    0    0  0.00000000000E+00  0.00000000000E+00  0.99999998245E-14  0.12509000000E+03  0.12509000000E+03 0.  0.
        -13    1    3    3    0    0  0.67136973331E+01  0.22108883313E+02 -0.28129648318E+02  0.36402812141E+02  0.10566000000E+00 0.  1.
         23    2    1    0    0    0  0.14017280353E+02 -0.24933349799E+02  0.70904093587E+01  0.95620863848E+02  0.90966585169E+02 0.  0.
         13    1    3    3    0    0  0.73035830202E+01 -0.47042233112E+02  0.35220057677E+02  0.59218051706E+02  0.10566000000E+00 0. -1.
         22    1    1    0    0    0 -0.14017280353E+02  0.24933349799E+02 -0.70904093587E+01  0.29469136152E+02  0.00000000000E+00 0. -1.
</event>
<event>
 5    1  0.1254921E-009  0.9118800E+02  0.7561462E-02  0.1125453E+00
         25   -1    0    0    0    0  0.00000000000E+00  0.00000000000E+00  0.99999998245E-14  0.12509000000E+03  0.12509000000E+03 0.  0.
        -13    1    3    3    0    0  0.18281366619E+02 -0.94349910592E+01 -0.88769545875E+00  0.20591905910E+02  0.10566000000E+00 0. -1.
         23    2    1    0    0    0 -0.16632805233E+02  0.27313714987E+02  0.31059971679E+02  0.80509611071E+02  0.67040184947E+02 0.  0.
         13    1    3    3    0    0 -0.34914171852E+02  0.36748706047E+02  0.31947667138E+02  0.59917705161E+02  0.10566000000E+00 0.  1.
         22    1    1    0    0    0  0.16632805233E+02 -0.27313714987E+02 -0.31059971679E+02  0.44580388929E+02  0.00000000000E+00 0.  1.
</event>
<event>
 5    1  0.1254921E-009  0.9118800E+02  0.7561462E-02  0.1125453E+00
         25   -1    0    0    0    0  0.00000000000E+00  0.00000000000E+00  0.99999998245E-14  0.12509000000E+03  0.12509000000E+03 0.  0.
        -13    1    3    3    0    0  0.24575971675E+02  0.16148709313E+02  0.37310497322E+02  0.47506247702E+02  0.10566000000E+00 0. -1.
         23    2    1    0    0    0  0.45100366861E+01 -0.23145238578E+02  0.16640839270E+02  0.96228953045E+02  0.91798972613E+02 0.  0.
         13    1    3    3    0    0 -0.20065934989E+02 -0.39293947891E+02 -0.20669658052E+02  0.48722705343E+02  0.10566000000E+00 0.  1.
         22    1    1    0    0    0 -0.45100366861E+01  0.23145238578E+02 -0.16640839270E+02  0.28861046955E+02  0.00000000000E+00 0.  1.
</event>
<event>
 5    1  0.1254921E-009  0.9118800E+02  0.7561462E-02  0.1125453E+00
         25   -1    0    0    0    0  0.00000000000E+00  0.00000000000E+00  0.99999998245E-14  0.12509000000E+03  0.12509000000E+03 0.  0.
        -13    1    3    3    0    0  0.51126222335E+01  0.34118253176E+02  0.14949035147E+02  0.37598921817E+02  0.10566000000E+00 0.  1.
         23    2    1    0    0    0  0.19487901233E+02 -0.20826507853E+02  0.10964630694E+02  0.94532761085E+02  0.89457800489E+02 0.  0.
         13    1    3    3    0    0  0.14375279000E+02 -0.54944761030E+02 -0.39844044533E+01  0.56933839268E+02  0.10566000000E+00 0. -1.
         22    1    1    0    0    0 -0.19487901233E+02  0.20826507853E+02 -0.10964630694E+02  0.30557238915E+02  0.00000000000E+00 0. -1.
</event>
<event>
 5    1  0.1254921E-009  0.9118800E+02  0.7561462E-02  0.1125453E+00
         25   -1    0    0    0    0  0.00000000000E+00  0.00000000000E+00  0.99999998245E-14  0.12509000000E+03  0.12509000000E+03 0.  0.
        -13    1    3    3    0    0  0.18098616808E+02 -0.31948027724E+02  0.53008739594E+01  0.37099148704E+02  0.10566000000E+00 0.  1.
         23    2    1    0    0    0 -0.15112747807E+02  0.56677860273E+01 -0.24715578255E+02  0.95570874789E+02  0.90897818207E+02 0.  0.
         13    1    3    3    0    0 -0.33211364616E+02  0.37615813751E+02 -0.30016452214E+02  0.58471726085E+02  0.10566000000E+00 0. -1.
         22    1    1    0    0    0  0.15112747807E+02 -0.56677860273E+01  0.24715578255E+02  0.29519125211E+02  0.00000000000E+00 0. -1.
</event>
<event>
 5    1  0.1254921E-009  0.9118800E+02  0.7561462E-02  0.1125453E+00
         25   -1    0    0    0    0  0.00000000000E+00  0.00000000000E+00  0.99999998245E-14  0.12509000000E+03  0.12509000000E+03 0.  0.
        -13    1    3    3    0    0  0.37500741040E+02  0.34437162296E+02 -0.10253711406E+02  0.51936244446E+02  0.10566000000E+00 0.  1.
         23    2    1    0    0    0  0.25257103821E+02  0.10237810322E+01  0.15113762881E+02  0.95638425348E+02  0.90990731141E+02 0.  0.
         13    1    3    3    0    0 -0.12243637218E+02 -0.33413381264E+02  0.25367474287E+02  0.43702180902E+02  0.10566000000E+00 0. -1.
         22    1    1    0    0    0 -0.25257103821E+02 -0.10237810322E+01 -0.15113762881E+02  0.29451574652E+02  0.00000000000E+00 0.  1.
</event>
<event>
 5    1  0.1254921E-009  0.9118800E+02  0.7561462E-02  0.1125453E+00
         25   -1    0    0    0    0  0.00000000000E+00  0.00000000000E+00  0.99999998245E-14  0.12509000000E+03  0.12509000000E+03 0.  0.
        -13    1    3    3    0    0  0.98072715898E+01  0.14494276945E+02 -0.37356397747E+02  0.41252615152E+02  0.10566000000E+00 0. -1.
         23    2    1    0    0    0  0.26434218014E+02  0.96496860784E+00  0.12730730232E+02  0.95734071490E+02  0.91122126322E+02 0.  0.
         13    1    3    3    0    0  0.16626946424E+02 -0.13529308337E+02  0.50087127980E+02  0.54481456338E+02  0.10566000000E+00 0.  1.
         22    1    1    0    0    0 -0.26434218014E+02 -0.96496860784E+00 -0.12730730232E+02  0.29355928510E+02  0.00000000000E+00 0.  1.
</event>
<event>
 5    1  0.1254921E-009  0.9118800E+02  0.7561462E-02  0.1125453E+00
         25   -1    0    0    0    0  0.00000000000E+00  0.00000000000E+00  0.99999998245E-14  0.12509000000E+03  0.12509000000E+03 0.  0.
        -13    1    3    3    0    0  0.25303798260E+02  0.40685702834E+02  0.16589037722E+02  0.50703214474E+02  0.10566000000E+00 0. -1.
         23    2    1    0    0    0 -0.13879358642E+02  0.18791369058E+02  0.17980859435E+02  0.95610117819E+02  0.90951806887E+02 0.  0.
         13    1    3    3    0    0 -0.39183156902E+02 -0.21894333776E+02  0.13918217134E+01  0.44906903345E+02  0.10566000000E+00 0.  1.
         22    1    1    0    0    0  0.13879358642E+02 -0.18791369058E+02 -0.17980859435E+02  0.29479882181E+02  0.00000000000E+00 0. -1.
</event>
<event>
 5    1  0.1254921E-009  0.9118800E+02  0.7561462E-02  0.1125453E+00
         25   -1    0    0    0    0  0.00000000000E+00  0.00000000000E+00  0.99999998245E-14  0.12509000000E+03  0.12509000000E+03 0.  0.
        -13    1    3    3    0    0  0.17342139615E+02  0.78417237040E+01 -0.34863874581E+02  0.39720817614E+02  0.10566000000E+00 0. -1.
         23    2    1    0    0    0 -0.10289412215E+02 -0.25640389177E+02  0.29669239521E+01  0.97303236989E+02  0.93251357792E+02 0.  0.
         13    1    3    3    0    0 -0.27631551830E+02 -0.33482112881E+02  0.37830798533E+02  0.57582419376E+02  0.10566000000E+00 0.  1.
         22    1    1    0    0    0  0.10289412215E+02  0.25640389177E+02 -0.29669239521E+01  0.27786763011E+02  0.00000000000E+00 0.  1.
</event>
<event>
 5    1  0.1254921E-009  0.9118800E+02  0.7561462E-02  0.1125453E+00
         25   -1    0    0    0    0  0.00000000000E+00  0.00000000000E+00  0.99999998245E-14  0.12509000000E+03  0.12509000000E+03 0.  0.
        -13    1    3    3    0    0 -0.20531132218E+02  0.24223161723E+02  0.24103162282E+02  0.39865555935E+02  0.10566000000E+00 0.  1.
         23    2    1    0    0    0 -0.69199484388E+01 -0.12099737746E+02 -0.21332789887E+02  0.99607118211E+02  0.96292267260E+02 0.  0.
         13    1    3    3    0    0  0.13611183779E+02 -0.36322899469E+02 -0.45435952168E+02  0.59741562276E+02  0.10566000000E+00 0. -1.
         22    1    1    0    0    0  0.69199484388E+01  0.12099737746E+02  0.21332789887E+02  0.25482881789E+02  0.00000000000E+00 0. -1.
</event>
<event>
 5    1  0.1254921E-009  0.9118800E+02  0.7561462E-02  0.1125453E+00
         25   -1    0    0    0    0  0.00000000000E+00  0.00000000000E+00  0.99999998245E-14  0.12509000000E+03  0.12509000000E+03 0.  0.
        -13    1    3    3    0    0  0.32063662689E+02 -0.33114728716E+02  0.73481761484E+01  0.46676231422E+02  0.10566000000E+00 0.  1.
         23    2    1    0    0    0 -0.15867909549E+02 -0.23438193608E+02  0.83316615504E+01  0.95584813045E+02  0.90916997463E+02 0.  0.
         13    1    3    3    0    0 -0.47931572238E+02  0.96765351080E+01  0.98348540201E+00  0.48908581624E+02  0.10566000000E+00 0. -1.
         22    1    1    0    0    0  0.15867909549E+02  0.23438193608E+02 -0.83316615504E+01  0.29505186955E+02  0.00000000000E+00 0. -1.
</event>
<event>
 5    1  0.1254921E-009  0.9118800E+02  0.7561462E-02  0.1125453E+00
         25   -1    0    0    0    0  0.00000000000E+00  0.00000000000E+00  0.99999998245E-14  0.12509000000E+03  0.12509000000E+03 0.  0.
        -13    1    3    3    0    0 -0.47531648741E+02  0.38033595353E+02 -0.13690421411E+02  0.62395919818E+02  0.10566000000E+00 0.  1.
         23    2    1    0    0    0 -0.21771898608E+02  0.19878598067E+02 -0.41869874852E+01  0.95312406170E+02  0.90541425191E+02 0.  0.
         13    1    3    3    0    0  0.25759750133E+02 -0.18154997286E+02  0.95034339254E+01  0.32916486352E+02  0.10566000000E+00 0. -1.
         22    1    1    0    0    0  0.21771898608E+02 -0.19878598067E+02  0.41869874852E+01  0.29777593830E+02  0.00000000000E+00 0.  1.
</event>
<event>
 5    1  0.1254921E-009  0.9118800E+02  0.7561462E-02  0.1125453E+00
         25   -1    0    0    0    0  0.00000000000E+00  0.00000000000E+00  0.99999998245E-14  0.12509000000E+03  0.12509000000E+03 0.  0.
        -13    1    3    3    0    0  0.13290781606E+02 -0.53999115604E+02 -0.72003171061E+01  0.56074995249E+02  0.10566000000E+00 0.  1.
         23    2    1    0    0    0  0.22663935924E+02 -0.16812890658E+02 -0.11402663870E+02  0.94654033987E+02  0.89627217534E+02 0.  0.
         13    1    3    3    0    0  0.93731543180E+01  0.37186224946E+02 -0.42023467634E+01  0.38579038738E+02  0.10566000000E+00 0. -1.
         22    1    1    0    0    0 -0.22663935924E+02  0.16812890658E+02  0.11402663870E+02  0.30435966013E+02  0.00000000000E+00 0.  1.
</event>
<event>
 5    1  0.1254921E-009  0.9118800E+02  0.7561462E-02  0.1125453E+00
         25   -1    0    0    0    0  0.00000000000E+00  0.00000000000E+00  0.99999998245E-14  0.12509000000E+03  0.12509000000E+03 0.  0.
        -13    1    3    3    0    0  0.26341174270E+02 -0.23111535515E+02 -0.10570674229E+02  0.36602607195E+02  0.10566000000E+00 0.  1.
         23    2    1    0    0    0  0.11394538416E+02  0.23166764240E+02  0.18561476013E+02  0.93292785298E+02  0.87706789508E+02 0.  0.
         13    1    3    3    0    0 -0.14946635854E+02  0.46278299755E+02  0.29132150242E+02  0.56690178103E+02  0.10566000000E+00 0. -1.
         22    1    1    0    0    0 -0.11394538416E+02 -0.23166764240E+02 -0.18561476013E+02  0.31797214702E+02  0.00000000000E+00 0. -1.
</event>
<event>
 5    1  0.1254921E-009  0.9118800E+02  0.7561462E-02  0.1125453E+00
         25   -1    0    0    0    0  0.00000000000E+00  0.00000000000E+00  0.99999998245E-14  0.12509000000E+03  0.12509000000E+03 0.  0.
        -13    1    3    3    0    0  0.16317820507E+02 -0.16309579115E+02  0.53044999550E+02  0.57845110237E+02  0.10566000000E+00 0. -1.
         23    2    1    0    0    0  0.13390235576E+02 -0.20615041793E+02  0.14898248009E+02  0.96345676201E+02  0.91957888036E+02 0.  0.
         13    1    3    3    0    0 -0.29275849312E+01 -0.43054626784E+01 -0.38146751541E+02  0.38500565964E+02  0.10566000000E+00 0.  1.
         22    1    1    0    0    0 -0.13390235576E+02  0.20615041793E+02 -0.14898248009E+02  0.28744323799E+02  0.00000000000E+00 0. -1.
</event>
<event>
 5    1  0.1254921E-009  0.9118800E+02  0.7561462E-02  0.1125453E+00
         25   -1    0    0    0    0  0.00000000000E+00  0.00000000000E+00  0.99999998245E-14  0.12509000000E+03  0.12509000000E+03 0.  0.
        -13    1    3    3    0    0  0.52516018510E+02  0.51635126812E+01 -0.22182863702E+02  0.57242332844E+02  0.10566000000E+00 0.  1.
         23    2    1    0    0    0  0.24415611699E+02 -0.78648525127E+01  0.55817038295E+01  0.98838649229E+02  0.95288746261E+02 0.  0.
         13    1    3    3    0    0 -0.28100406811E+02 -0.13028365194E+02  0.27764567531E+02  0.41596316385E+02  0.10566000000E+00 0. -1.
         22    1    1    0    0    0 -0.24415611699E+02  0.78648525127E+01 -0.55817038295E+01  0.26251350771E+02  0.00000000000E+00 0.  1.
</event>
<event>
 5    1  0.1254921E-009  0.9118800E+02  0.7561462E-02  0.1125453E+00
         25   -1    0    0    0    0  0.00000000000E+00  0.00000000000E+00  0.99999998245E-14  0.12509000000E+03  0.12509000000E+03 0.  0.
        -13    1    3    3    0    0 -0.11138537003E+02 -0.35181266919E+02  0.21869916201E+02  0.42896304588E+02  0.10566000000E+00 0. -1.
         23    2    1    0    0    0  0.56352011987E+01 -0.18277659582E+02 -0.23892906752E+02  0.94484455969E+02  0.89390229300E+02 0.  0.
         13    1    3    3    0    0  0.16773738202E+02  0.16903607337E+02 -0.45762822953E+02  0.51588151381E+02  0.10566000000E+00 0.  1.
         22    1    1    0    0    0 -0.56352011987E+01  0.18277659582E+02  0.23892906752E+02  0.30605544031E+02  0.00000000000E+00 0. -1.
</event>
<event>
 5    1  0.1254921E-009  0.9118800E+02  0.7561462E-02  0.1125453E+00
         25   -1    0    0    0    0  0.00000000000E+00  0.00000000000E+00  0.99999998245E-14  0.12509000000E+03  0.12509000000E+03 0.  0.
        -13    1    3    3    0    0  0.59402978552E+01  0.32556197862E+02 -0.47412212853E+02  0.57819739272E+02  0.10566000000E+00 0. -1.
         23    2    1    0    0    0  0.96568244468E+01  0.23793786237E+02 -0.82554270360E+01  0.98116854143E+02  0.94336453555E+02 0.  0.
         13    1    3    3    0    0  0.37165265916E+01 -0.87624116251E+01  0.39156785817E+02  0.40297114871E+02  0.10566000000E+00 0.  1.
         22    1    1    0    0    0 -0.96568244468E+01 -0.23793786237E+02  0.82554270360E+01  0.26973145857E+02  0.00000000000E+00 0. -1.
</event>
<event>
 5    1  0.1254921E-009  0.9118800E+02  0.7561462E-02  0.1125453E+00
         25   -1    0    0    0    0  0.00000000000E+00  0.00000000000E+00  0.99999998245E-14  0.12509000000E+03  0.12509000000E+03 0.  0.
        -13    1    3    3    0    0  0.21736353349E+02  0.54101291787E+01 -0.40782438856E+02  0.46529098828E+02  0.10566000000E+00 0. -1.
         23    2    1    0    0    0  0.37000526445E+01  0.28627612342E+02 -0.72840483604E+00  0.96215077462E+02  0.91780063083E+02 0.  0.
         13    1    3    3    0    0 -0.18036300705E+02  0.23217483163E+02  0.40054034020E+02  0.49685978634E+02  0.10566000000E+00 0.  1.
         22    1    1    0    0    0 -0.37000526445E+01 -0.28627612342E+02  0.72840483604E+00  0.28874922538E+02  0.00000000000E+00 0.  1.
</event>
<event>
 5    1  0.1254921E-009  0.9118800E+02  0.7561462E-02  0.1125453E+00
         25   -1    0    0    0    0  0.00000000000E+00  0.00000000000E+00  0.99999998245E-14  0.12509000000E+03  0.12509000000E+03 0.  0.
        -13    1    3    3    0    0  0.37194209531E+02  0.10198270465E+01  0.81193626941E+01  0.38083913723E+02  0.10566000000E+00 0.  1.
         23    2    1    0    0    0 -0.62035166283E+01  0.11566864502E+02 -0.27111615135E+02  0.94968319300E+02  0.90064787916E+02 0.  0.
         13    1    3    3    0    0 -0.43397726160E+02  0.10547037455E+02 -0.35230977830E+02  0.56884405576E+02  0.10566000000E+00 0. -1.
         22    1    1    0    0    0  0.62035166283E+01 -0.11566864502E+02  0.27111615135E+02  0.30121680700E+02  0.00000000000E+00 0. -1.
</event>
<event>
 4    1  0.1254921E-009  0.9118800E+02  0.7561462E-02  0.1125453E+00
         25   -1    0    0    0    0  0.00000000000E+00  0.00000000000E+00  0.99999998245E-14  0.12509000000E+03  0.12509000000E+03 0.  0.
        -13    1    1    0    0    0 -0.33642587040E+01  0.44789240070E+01 -0.95869423769E+01  0.11104036431E+02  0.10566000000E+00 0. -1.
         13    1    1    0    0    0  0.25165467509E+02  0.31146737367E+00  0.56599860503E+02  0.61943144414E+02  0.10566000000E+00 0.  1.
         22    1    1    0    0    0 -0.21801208805E+02 -0.47903913806E+01 -0.47012918126E+02  0.52042819155E+02  0.00000000000E+00 0.  1.
</event>
<event>
 5    1  0.1254921E-009  0.9118800E+02  0.7561462E-02  0.1125453E+00
         25   -1    0    0    0    0  0.00000000000E+00  0.00000000000E+00  0.99999998245E-14  0.12509000000E+03  0.12509000000E+03 0.  0.
        -13    1    3    3    0    0  0.25341902196E+02 -0.17763083429E+01 -0.24438660950E+02  0.35250909085E+02  0.10566000000E+00 0. -1.
         23    2    1    0    0    0 -0.29160490863E+01 -0.13431469633E+02  0.26832263716E+02  0.94942394873E+02  0.90028774563E+02 0.  0.
         13    1    3    3    0    0 -0.28257951282E+02 -0.11655161290E+02  0.51270924666E+02  0.59691485788E+02  0.10566000000E+00 0.  1.
         22    1    1    0    0    0  0.29160490863E+01  0.13431469633E+02 -0.26832263716E+02  0.30147605127E+02  0.00000000000E+00 0.  1.
</event>
<event>
 5    1  0.1254921E-009  0.9118800E+02  0.7561462E-02  0.1125453E+00
         25   -1    0    0    0    0  0.00000000000E+00  0.00000000000E+00  0.99999998245E-14  0.12509000000E+03  0.12509000000E+03 0.  0.
        -13    1    3    3    0    0 -0.22429306740E+01  0.62180853210E+00  0.55367634773E+02  0.55416635844E+02  0.10566000000E+00 0. -1.
         23    2    1    0    0    0  0.12701662082E+02 -0.14989940913E+02  0.18779685771E+02  0.97910832502E+02  0.94062872460E+02 0.  0.
         13    1    3    3    0    0  0.14944592756E+02 -0.15611749445E+02 -0.36587949002E+02  0.42494196658E+02  0.10566000000E+00 0.  1.
         22    1    1    0    0    0 -0.12701662082E+02  0.14989940913E+02 -0.18779685771E+02  0.27179167498E+02  0.00000000000E+00 0. -1.
</event>
<event>
 5    1  0.1254921E-009  0.9118800E+02  0.7561462E-02  0.1125453E+00
         25   -1    0    0    0    0  0.00000000000E+00  0.00000000000E+00  0.99999998245E-14  0.12509000000E+03  0.12509000000E+03 0.  0.
        -13    1    3    3    0    0 -0.28016644836E+02  0.30906243426E+02 -0.41107173442E+02  0.58565682298E+02  0.10566000000E+00 0.  1.
         23    2    1    0    0    0 -0.23546370415E+02  0.16747977623E+02 -0.76045194586E+01  0.95210993484E+02  0.90401207126E+02 0.  0.
         13    1    3    3    0    0  0.44702744214E+01 -0.14158265803E+02  0.33502653983E+02  0.36645311186E+02  0.10566000000E+00 0. -1.
         22    1    1    0    0    0  0.23546370415E+02 -0.16747977623E+02  0.76045194586E+01  0.29879006516E+02  0.00000000000E+00 0.  1.
</event>
<event>
 5    1  0.1254921E-009  0.9118800E+02  0.7561462E-02  0.1125453E+00
         25   -1    0    0    0    0  0.00000000000E+00  0.00000000000E+00  0.99999998245E-14  0.12509000000E+03  0.12509000000E+03 0.  0.
        -13    1    3    3    0    0 -0.11061966108E+02 -0.31316278405E+02  0.12136625760E+02  0.35360786702E+02  0.10566000000E+00 0. -1.
         23    2    1    0    0    0  0.42512922616E+00  0.23855565895E+02 -0.13940266871E+02  0.97456690400E+02  0.93456977825E+02 0.  0.
         13    1    3    3    0    0  0.11487095335E+02  0.55171844300E+02 -0.26076892631E+02  0.62095903698E+02  0.10566000000E+00 0.  1.
         22    1    1    0    0    0 -0.42512922616E+00 -0.23855565895E+02  0.13940266871E+02  0.27633309600E+02  0.00000000000E+00 0.  1.
</event>
<event>
 5    1  0.1254921E-009  0.9118800E+02  0.7561462E-02  0.1125453E+00
         25   -1    0    0    0    0  0.00000000000E+00  0.00000000000E+00  0.99999998245E-14  0.12509000000E+03  0.12509000000E+03 0.  0.
        -13    1    3    3    0    0  0.14360783500E+02 -0.51419554172E+02 -0.25125916394E+02  0.59004453160E+02  0.10566000000E+00 0.  1.
         23    2    1    0    0    0  0.16610825685E+02 -0.15674232467E+02 -0.19085876405E+02  0.95326401906E+02  0.90560759321E+02 0.  0.
         13    1    3    3    0    0  0.22500421845E+01  0.35745321705E+02  0.60400399888E+01  0.36321948746E+02  0.10566000000E+00 0. -1.
         22    1    1    0    0    0 -0.16610825685E+02  0.15674232467E+02  0.19085876405E+02  0.29763598094E+02  0.00000000000E+00 0.  1.
</event>
<event>
 5    1  0.1254921E-009  0.9118800E+02  0.7561462E-02  0.1125453E+00
         25   -1    0    0    0    0  0.00000000000E+00  0.00000000000E+00  0.99999998245E-14  0.12509000000E+03  0.12509000000E+03 0.  0.
        -13    1    3    3    0    0  0.33190512523E+02 -0.35883093457E+02  0.59743518733E+01  0.49243380895E+02  0.10566000000E+00 0.  1.
         23    2    1    0    0    0  0.14133735525E+02 -0.36588661124E+00  0.26931435904E+02  0.94672922679E+02  0.89653576035E+02 0.  0.
         13    1    3    3    0    0 -0.19056776998E+02  0.35517206846E+02  0.20957084030E+02  0.45429541785E+02  0.10566000000E+00 0. -1.
         22    1    1    0    0    0 -0.14133735525E+02  0.36588661124E+00 -0.26931435904E+02  0.30417077321E+02  0.00000000000E+00 0.  1.
</event>
<event>
 5    1  0.1254921E-009  0.9118800E+02  0.7561462E-02  0.1125453E+00
         25   -1    0    0    0    0  0.00000000000E+00  0.00000000000E+00  0.99999998245E-14  0.12509000000E+03  0.12509000000E+03 0.  0.
        -13    1    3    3    0    0 -0.56787235273E+02 -0.17640894019E+01  0.79252103557E+01  0.57364816958E+02  0.10566000000E+00 0.  1.
         23    2    1    0    0    0 -0.32079525115E+02  0.16330983698E+02 -0.35962066579E+00  0.89091023804E+02  0.81494074848E+02 0.  0.
         13    1    3    3    0    0  0.24707710158E+02  0.18095073100E+02 -0.82848310215E+01  0.31726206846E+02  0.10566000000E+00 0. -1.
         22    1    1    0    0    0  0.32079525115E+02 -0.16330983698E+02  0.35962066579E+00  0.35998976196E+02  0.00000000000E+00 0.  1.
</event>
<event>
 5    1  0.1254921E-009  0.9118800E+02  0.7561462E-02  0.1125453E+00
         25   -1    0    0    0    0  0.00000000000E+00  0.00000000000E+00  0.99999998245E-14  0.12509000000E+03  0.12509000000E+03 0.  0.
        -13    1    3    3    0    0  0.21751339822E+02 -0.41995471026E+02 -0.30802919813E+02  0.56440866434E+02  0.10566000000E+00 0.  1.
         23    2    1    0    0    0  0.19910706058E+02 -0.37252882132E+01 -0.20835887687E+02  0.96030609028E+02  0.91528299812E+02 0.  0.
         13    1    3    3    0    0 -0.18406337647E+01  0.38270182813E+02  0.99670321263E+01  0.39589742594E+02  0.10566000000E+00 0. -1.
         22    1    1    0    0    0 -0.19910706058E+02  0.37252882132E+01  0.20835887687E+02  0.29059390972E+02  0.00000000000E+00 0.  1.
</event>
<event>
 5    1  0.1254921E-009  0.9118800E+02  0.7561462E-02  0.1125453E+00
         25   -1    0    0    0    0  0.00000000000E+00  0.00000000000E+00  0.99999998245E-14  0.12509000000E+03  0.12509000000E+03 0.  0.
        -13    1    3    3    0    0 -0.19483830298E+02 -0.30271941404E+01  0.32400022767E+02  0.37928303242E+02  0.10566000000E+00 0. -1.
         23    2    1    0    0    0  0.10741198986E+01  0.20403040260E+02 -0.18443003957E+02  0.97565789196E+02  0.93602890131E+02 0.  0.
         13    1    3    3    0    0  0.20557950197E+02  0.23430234401E+02 -0.50843026724E+02  0.59637485954E+02  0.10566000000E+00 0.  1.
         22    1    1    0    0    0 -0.10741198986E+01 -0.20403040260E+02  0.18443003957E+02  0.27524210804E+02  0.00000000000E+00 0.  1.
</event>
<event>
 5    1  0.1254921E-009  0.9118800E+02  0.7561462E-02  0.1125453E+00
         25   -1    0    0    0    0  0.00000000000E+00  0.00000000000E+00  0.99999998245E-14  0.12509000000E+03  0.12509000000E+03 0.  0.
        -13    1    3    3    0    0  0.21316774134E+02 -0.33447665966E+02  0.13072169085E+02  0.41761752677E+02  0.10566000000E+00 0.  1.
         23    2    1    0    0    0 -0.19895917473E+02  0.10097361565E+01  0.21092484907E+02  0.96076899188E+02  0.91591541852E+02 0.  0.
         13    1    3    3    0    0 -0.41212691607E+02  0.34457402122E+02  0.80203158224E+01  0.54315146510E+02  0.10566000000E+00 0. -1.
         22    1    1    0    0    0  0.19895917473E+02 -0.10097361565E+01 -0.21092484907E+02  0.29013100812E+02  0.00000000000E+00 0. -1.
</event>
<event>
 5    1  0.1254921E-009  0.9118800E+02  0.7561462E-02  0.1125453E+00
         25   -1    0    0    0    0  0.00000000000E+00  0.00000000000E+00  0.99999998245E-14  0.12509000000E+03  0.12509000000E+03 0.  0.
        -13    1    3    3    0    0  0.35433374671E+02 -0.36883111580E+02 -0.18372151250E+02  0.54345515602E+02  0.10566000000E+00 0.  1.
         23    2    1    0    0    0  0.29483565697E+02 -0.22048484727E+02  0.10026383923E+02  0.86933156583E+02  0.78111644547E+02 0.  0.
         13    1    3    3    0    0 -0.59498089740E+01  0.14834626853E+02  0.28398535173E+02  0.32587640981E+02  0.10566000000E+00 0. -1.
         22    1    1    0    0    0 -0.29483565697E+02  0.22048484727E+02 -0.10026383923E+02  0.38156843417E+02  0.00000000000E+00 0.  1.
</event>
<event>
 5    1  0.1254921E-009  0.9118800E+02  0.7561462E-02  0.1125453E+00
         25   -1    0    0    0    0  0.00000000000E+00  0.00000000000E+00  0.99999998245E-14  0.12509000000E+03  0.12509000000E+03 0.  0.
        -13    1    3    3    0    0 -0.38074800035E+02  0.25065724384E+02 -0.50855670476E+01  0.45867800174E+02  0.10566000000E+00 0. -1.
         23    2    1    0    0    0 -0.22090238667E+02 -0.20690810683E+02  0.15239666424E+01  0.94784707304E+02  0.89809409158E+02 0.  0.
         13    1    3    3    0    0  0.15984561368E+02 -0.45756535067E+02  0.66095336901E+01  0.48916907130E+02  0.10566000000E+00 0.  1.
         22    1    1    0    0    0  0.22090238667E+02  0.20690810683E+02 -0.15239666424E+01  0.30305292696E+02  0.00000000000E+00 0.  1.
</event>
<event>
 5    1  0.1254921E-009  0.9118800E+02  0.7561462E-02  0.1125453E+00
         25   -1    0    0    0    0  0.00000000000E+00  0.00000000000E+00  0.99999998245E-14  0.12509000000E+03  0.12509000000E+03 0.  0.
        -13    1    3    3    0    0 -0.25017958436E+02 -0.32919224208E+02 -0.27351405091E+02  0.49575034960E+02  0.10566000000E+00 0. -1.
         23    2    1    0    0    0  0.13742387384E+02 -0.59280410549E+01 -0.23844758915E+02  0.96937426237E+02  0.92759350990E+02 0.  0.
         13    1    3    3    0    0  0.38760345820E+02  0.26991183153E+02  0.35066461767E+01  0.47362391278E+02  0.10566000000E+00 0.  1.
         22    1    1    0    0    0 -0.13742387384E+02  0.59280410549E+01  0.23844758915E+02  0.28152573763E+02  0.00000000000E+00 0.  1.
</event>
<event>
 5    1  0.1254921E-009  0.9118800E+02  0.7561462E-02  0.1125453E+00
         25   -1    0    0    0    0  0.00000000000E+00  0.00000000000E+00  0.99999998245E-14  0.12509000000E+03  0.12509000000E+03 0.  0.
        -13    1    3    3    0    0 -0.34566852088E+01  0.37621483679E+02 -0.80794763169E+01  0.38634360464E+02  0.10566000000E+00 0.  1.
         23    2    1    0    0    0 -0.22290933393E+02 -0.85373368972E+01  0.18277169228E+02  0.95026288522E+02  0.90145264781E+02 0.  0.
         13    1    3    3    0    0 -0.18834248184E+02 -0.46158820576E+02  0.26356645545E+02  0.56391928058E+02  0.10566000000E+00 0. -1.
         22    1    1    0    0    0  0.22290933393E+02  0.85373368972E+01 -0.18277169228E+02  0.30063711478E+02  0.00000000000E+00 0. -1.
</event>
<event>
 5    1  0.1254921E-009  0.9118800E+02  0.7561462E-02  0.1125453E+00
         25   -1    0    0    0    0  0.00000000000E+00  0.00000000000E+00  0.99999998245E-14  0.12509000000E+03  0.12509000000E+03 0.  0.
        -13    1    3    3    0    0 -0.11874325307E+02  0.33106248747E+02  0.13597925263E+02  0.37708593757E+02  0.10566000000E+00 0.  1.
         23    2    1    0    0    0 -0.15110853741E+02 -0.23846590300E+02  0.10933473250E+02  0.94815611368E+02  0.89852443217E+02 0.  0.
         13    1    3    3    0    0 -0.32365284338E+01 -0.56952839048E+02 -0.26644520132E+01  0.57107017611E+02  0.10566000000E+00 0. -1.
         22    1    1    0    0    0  0.15110853741E+02  0.23846590300E+02 -0.10933473250E+02  0.30274388632E+02  0.00000000000E+00 0. -1.
</event>
<event>
 5    1  0.1254921E-009  0.9118800E+02  0.7561462E-02  0.1125453E+00
         25   -1    0    0    0    0  0.00000000000E+00  0.00000000000E+00  0.99999998245E-14  0.12509000000E+03  0.12509000000E+03 0.  0.
        -13    1    3    3    0    0  0.24731693538E+02  0.43818644997E+02 -0.10791090597E+02  0.51460558829E+02  0.10566000000E+00 0. -1.
         23    2    1    0    0    0 -0.44062786742E+01  0.23303517637E+02  0.16374613947E+02  0.96269916587E+02  0.91854774681E+02 0.  0.
         13    1    3    3    0    0 -0.29137972213E+02 -0.20515127360E+02  0.27165704544E+02  0.44809357758E+02  0.10566000000E+00 0.  1.
         22    1    1    0    0    0  0.44062786742E+01 -0.23303517637E+02 -0.16374613947E+02  0.28820083413E+02  0.00000000000E+00 0. -1.
</event>
<event>
 5    1  0.1254921E-009  0.9118800E+02  0.7561462E-02  0.1125453E+00
         25   -1    0    0    0    0  0.00000000000E+00  0.00000000000E+00  0.99999998245E-14  0.12509000000E+03  0.12509000000E+03 0.  0.
        -13    1    3    3    0    0  0.17837181589E+02 -0.37255440511E+02 -0.14537811252E+02  0.43789176913E+02  0.10566000000E+00 0.  1.
         23    2    1    0    0    0 -0.93037542098E+01 -0.14844718764E+02  0.23607257352E+02  0.95692242989E+02  0.91064687179E+02 0.  0.
         13    1    3    3    0    0 -0.27140935799E+02  0.22410721747E+02  0.38145068605E+02  0.51903066076E+02  0.10566000000E+00 0. -1.
         22    1    1    0    0    0  0.93037542098E+01  0.14844718764E+02 -0.23607257352E+02  0.29397757011E+02  0.00000000000E+00 0. -1.
</event>
<event>
 5    1  0.1254921E-009  0.9118800E+02  0.7561462E-02  0.1125453E+00
         25   -1    0    0    0    0  0.00000000000E+00  0.00000000000E+00  0.99999998245E-14  0.12509000000E+03  0.12509000000E+03 0.  0.
        -13    1    3    3    0    0  0.37387374707E+02 -0.22657884212E+02  0.32780915782E+02  0.54642429558E+02  0.10566000000E+00 0.  1.
         23    2    1    0    0    0  0.17642102268E+02 -0.32854303844E+02  0.99699407617E+01  0.86488850117E+02  0.77396850209E+02 0.  0.
         13    1    3    3    0    0 -0.19745272439E+02 -0.10196419631E+02 -0.22810975020E+02  0.31846420559E+02  0.10566000000E+00 0. -1.
         22    1    1    0    0    0 -0.17642102268E+02  0.32854303844E+02 -0.99699407617E+01  0.38601149883E+02  0.00000000000E+00 0.  1.
</event>
<event>
 5    1  0.1254921E-009  0.9118800E+02  0.7561462E-02  0.1125453E+00
         25   -1    0    0    0    0  0.00000000000E+00  0.00000000000E+00  0.99999998245E-14  0.12509000000E+03  0.12509000000E+03 0.  0.
        -13    1    3    3    0    0 -0.47619941016E+01  0.12774839919E+02  0.52934350796E+02  0.54661959177E+02  0.10566000000E+00 0. -1.
         23    2    1    0    0    0  0.19893612715E+02  0.49390556247E+01  0.21279379766E+02  0.95544067953E+02  0.90860920205E+02 0.  0.
         13    1    3    3    0    0  0.24655606816E+02 -0.78357842942E+01 -0.31654971031E+02  0.40882108776E+02  0.10566000000E+00 0.  1.
         22    1    1    0    0    0 -0.19893612715E+02 -0.49390556247E+01 -0.21279379766E+02  0.29545932047E+02  0.00000000000E+00 0. -1.
</event>
<event>
 5    1  0.1254921E-009  0.9118800E+02  0.7561462E-02  0.1125453E+00
         25   -1    0    0    0    0  0.00000000000E+00  0.00000000000E+00  0.99999998245E-14  0.12509000000E+03  0.12509000000E+03 0.  0.
        -13    1    3    3    0    0 -0.47372807100E+02  0.85053228560E+01  0.20727962191E+01  0.48175004075E+02  0.10566000000E+00 0.  1.
         23    2    1    0    0    0 -0.29155586488E+02 -0.24315783216E+02  0.83072208979E+01  0.86227222745E+02  0.76972842525E+02 0.  0.
         13    1    3    3    0    0  0.18217220612E+02 -0.32821106072E+02  0.62344246788E+01  0.38052218671E+02  0.10566000000E+00 0. -1.
         22    1    1    0    0    0  0.29155586488E+02  0.24315783216E+02 -0.83072208979E+01  0.38862777255E+02  0.00000000000E+00 0. -1.
</event>
<event>
 5    1  0.1254921E-009  0.9118800E+02  0.7561462E-02  0.1125453E+00
         25   -1    0    0    0    0  0.00000000000E+00  0.00000000000E+00  0.99999998245E-14  0.12509000000E+03  0.12509000000E+03 0.  0.
        -13    1    3    3    0    0  0.28898603807E+02 -0.28412318210E+02 -0.35979365789E+02  0.54193311900E+02  0.10566000000E+00 0. -1.
         23    2    1    0    0    0  0.48587211580E+01 -0.28157115466E+02 -0.11766007080E+01  0.96492540115E+02  0.92157449975E+02 0.  0.
         13    1    3    3    0    0 -0.24039882649E+02  0.25520274414E+00  0.34802765081E+02  0.42299228215E+02  0.10566000000E+00 0.  1.
         22    1    1    0    0    0 -0.48587211580E+01  0.28157115466E+02  0.11766007080E+01  0.28597459885E+02  0.00000000000E+00 0.  1.
</event>
<event>
 5    1  0.1254921E-009  0.9118800E+02  0.7561462E-02  0.1125453E+00
         25   -1    0    0    0    0  0.00000000000E+00  0.00000000000E+00  0.99999998245E-14  0.12509000000E+03  0.12509000000E+03 0.  0.
        -13    1    3    3    0    0 -0.26533246129E+02 -0.20960508286E+02 -0.55066698996E+01  0.34259168629E+02  0.10566000000E+00 0.  1.
         23    2    1    0    0    0  0.20612709043E+02  0.36267094573E+01  0.22503770110E+02  0.94357989575E+02  0.89213080498E+02 0.  0.
         13    1    3    3    0    0  0.47145955172E+02  0.24587217744E+02  0.28010440010E+02  0.60098820946E+02  0.10566000000E+00 0. -1.
         22    1    1    0    0    0 -0.20612709043E+02 -0.36267094573E+01 -0.22503770110E+02  0.30732010425E+02  0.00000000000E+00 0. -1.
</event>
<event>
 5    1  0.1254921E-009  0.9118800E+02  0.7561462E-02  0.1125453E+00
         25   -1    0    0    0    0  0.00000000000E+00  0.00000000000E+00  0.99999998245E-14  0.12509000000E+03  0.12509000000E+03 0.  0.
        -13    1    3    3    0    0  0.48656298406E+02 -0.31863237077E+02 -0.32431127859E+01  0.58251439435E+02  0.10566000000E+00 0. -1.
         23    2    1    0    0    0  0.16443423089E+02 -0.22565858739E+02  0.11519649334E+02  0.94885588662E+02  0.89949810847E+02 0.  0.
         13    1    3    3    0    0 -0.32212875317E+02  0.92973783375E+01  0.14762762119E+02  0.36634149227E+02  0.10566000000E+00 0.  1.
         22    1    1    0    0    0 -0.16443423089E+02  0.22565858739E+02 -0.11519649334E+02  0.30204411338E+02  0.00000000000E+00 0. -1.
</event>
<event>
 5    1  0.1254921E-009  0.9118800E+02  0.7561462E-02  0.1125453E+00
         25   -1    0    0    0    0  0.00000000000E+00  0.00000000000E+00  0.99999998245E-14  0.12509000000E+03  0.12509000000E+03 0.  0.
        -13    1    3    3    0    0  0.21835968377E+01 -0.65177298061E+01 -0.58803557459E+02  0.59204040663E+02  0.10566000000E+00 0. -1.
         23    2    1    0    0    0  0.15155860993E+02 -0.54576087496E+00 -0.25839762336E+02  0.95128503125E+02  0.90286991377E+02 0.  0.
         13    1    3    3    0    0  0.12972264156E+02  0.59719689311E+01  0.32963795123E+02  0.35924462462E+02  0.10566000000E+00 0.  1.
         22    1    1    0    0    0 -0.15155860993E+02  0.54576087496E+00  0.25839762336E+02  0.29961496875E+02  0.00000000000E+00 0. -1.
</event>
<event>
 5    1  0.1254921E-009  0.9118800E+02  0.7561462E-02  0.1125453E+00
         25   -1    0    0    0    0  0.00000000000E+00  0.00000000000E+00  0.99999998245E-14  0.12509000000E+03  0.12509000000E+03 0.  0.
        -13    1    3    3    0    0  0.38728681344E+02  0.20924301448E+02 -0.15546672740E+02  0.46684551482E+02  0.10566000000E+00 0.  1.
         23    2    1    0    0    0  0.20979304112E+02 -0.17698355632E+02  0.95285648753E+01  0.96035627839E+02  0.91535158670E+02 0.  0.
         13    1    3    3    0    0 -0.17749377232E+02 -0.38622657080E+02  0.25075237615E+02  0.49351076357E+02  0.10566000000E+00 0. -1.
         22    1    1    0    0    0 -0.20979304112E+02  0.17698355632E+02 -0.95285648753E+01  0.29054372161E+02  0.00000000000E+00 0. -1.
</event>
<event>
 5    1  0.1254921E-009  0.9118800E+02  0.7561462E-02  0.1125453E+00
         25   -1    0    0    0    0  0.00000000000E+00  0.00000000000E+00  0.99999998245E-14  0.12509000000E+03  0.12509000000E+03 0.  0.
        -13    1    3    3    0    0  0.55906377716E+02  0.21987729936E+02 -0.37935869998E+01  0.60194566229E+02  0.10566000000E+00 0. -1.
         23    2    1    0    0    0  0.26741094445E+02  0.53473520402E+01  0.93604064214E+01  0.96257769522E+02  0.91838231032E+02 0.  0.
         13    1    3    3    0    0 -0.29165283271E+02 -0.16640377896E+02  0.13153993421E+02  0.36063203293E+02  0.10566000000E+00 0.  1.
         22    1    1    0    0    0 -0.26741094445E+02 -0.53473520402E+01 -0.93604064214E+01  0.28832230478E+02  0.00000000000E+00 0. -1.
</event>
<event>
 5    1  0.1254921E-009  0.9118800E+02  0.7561462E-02  0.1125453E+00
         25   -1    0    0    0    0  0.00000000000E+00  0.00000000000E+00  0.99999998245E-14  0.12509000000E+03  0.12509000000E+03 0.  0.
        -13    1    3    3    0    0  0.43860428300E+02 -0.15738237412E+02 -0.11772136488E+02  0.48062705386E+02  0.10566000000E+00 0.  1.
         23    2    1    0    0    0  0.24929535669E+00  0.44195979415E+01 -0.26428717840E+02  0.98293132258E+02  0.94569909211E+02 0.  0.
         13    1    3    3    0    0 -0.43611132943E+02  0.20157835354E+02 -0.14656581352E+02  0.50230426872E+02  0.10566000000E+00 0. -1.
         22    1    1    0    0    0 -0.24929535669E+00 -0.44195979415E+01  0.26428717840E+02  0.26796867742E+02  0.00000000000E+00 0. -1.
</event>
<event>
 5    1  0.1254921E-009  0.9118800E+02  0.7561462E-02  0.1125453E+00
         25   -1    0    0    0    0  0.00000000000E+00  0.00000000000E+00  0.99999998245E-14  0.12509000000E+03  0.12509000000E+03 0.  0.
        -13    1    3    3    0    0 -0.59696442712E+01 -0.33943355444E+02 -0.11528148863E+02  0.36341400795E+02  0.10566000000E+00 0.  1.
         23    2    1    0    0    0  0.16077475580E-02  0.25329763911E+02 -0.14343311157E+02  0.95981109308E+02  0.91460624461E+02 0.  0.
         13    1    3    3    0    0  0.59712520188E+01  0.59273119355E+02 -0.28151622941E+01  0.59639708513E+02  0.10566000000E+00 0. -1.
         22    1    1    0    0    0 -0.16077475580E-02 -0.25329763911E+02  0.14343311157E+02  0.29108890692E+02  0.00000000000E+00 0. -1.
</event>
<event>
 5    1  0.1254921E-009  0.9118800E+02  0.7561462E-02  0.1125453E+00
         25   -1    0    0    0    0  0.00000000000E+00  0.00000000000E+00  0.99999998245E-14  0.12509000000E+03  0.12509000000E+03 0.  0.
        -13    1    3    3    0    0  0.20691413595E+02 -0.52016112861E+02 -0.20408202224E+02  0.59584532185E+02  0.10566000000E+00 0. -1.
         23    2    1    0    0    0  0.52726573255E+01 -0.28951588434E+02  0.24894687271E+01  0.95557088822E+02  0.90878844521E+02 0.  0.
         13    1    3    3    0    0 -0.15418756269E+02  0.23064524427E+02  0.22897670951E+02  0.35972556636E+02  0.10566000000E+00 0.  1.
         22    1    1    0    0    0 -0.52726573255E+01  0.28951588434E+02 -0.24894687271E+01  0.29532911178E+02  0.00000000000E+00 0. -1.
</event>
<event>
 5    1  0.1254921E-009  0.9118800E+02  0.7561462E-02  0.1125453E+00
         25   -1    0    0    0    0  0.00000000000E+00  0.00000000000E+00  0.99999998245E-14  0.12509000000E+03  0.12509000000E+03 0.  0.
        -13    1    3    3    0    0  0.23391828612E+02 -0.26900399372E+02  0.28851669281E+02  0.45861084991E+02  0.10566000000E+00 0.  1.
         23    2    1    0    0    0 -0.15238497732E+02 -0.14026115388E+02 -0.99550570403E+01  0.10211072920E+03  0.99491477677E+02 0.  0.
         13    1    3    3    0    0 -0.38630326343E+02  0.12874283984E+02 -0.38806726321E+02  0.56249644206E+02  0.10566000000E+00 0. -1.
         22    1    1    0    0    0  0.15238497732E+02  0.14026115388E+02  0.99550570403E+01  0.22979270804E+02  0.00000000000E+00 0. -1.
</event>
<event>
 5    1  0.1254921E-009  0.9118800E+02  0.7561462E-02  0.1125453E+00
         25   -1    0    0    0    0  0.00000000000E+00  0.00000000000E+00  0.99999998245E-14  0.12509000000E+03  0.12509000000E+03 0.  0.
        -13    1    3    3    0    0  0.67360953147E+01  0.24288630484E+02  0.33531277600E+02  0.41948424195E+02  0.10566000000E+00 0.  1.
         23    2    1    0    0    0  0.25693315527E+02  0.11370736897E+02 -0.13230248987E+02  0.94033927991E+02  0.88757534919E+02 0.  0.
         13    1    3    3    0    0  0.18957220212E+02 -0.12917893587E+02 -0.46761526588E+02  0.52085503797E+02  0.10566000000E+00 0. -1.
         22    1    1    0    0    0 -0.25693315527E+02 -0.11370736897E+02  0.13230248987E+02  0.31056072009E+02  0.00000000000E+00 0.  1.
</event>
<event>
 5    1  0.1254921E-009  0.9118800E+02  0.7561462E-02  0.1125453E+00
         25   -1    0    0    0    0  0.00000000000E+00  0.00000000000E+00  0.99999998245E-14  0.12509000000E+03  0.12509000000E+03 0.  0.
        -13    1    3    3    0    0 -0.12535645882E+02  0.34395670996E+02 -0.78954211072E+01  0.37450680094E+02  0.10566000000E+00 0.  1.
         23    2    1    0    0    0 -0.12463223728E+02 -0.22901437478E+02 -0.14712928953E+02  0.95152096556E+02  0.90319673473E+02 0.  0.
         13    1    3    3    0    0  0.72422154061E-01 -0.57297108474E+02 -0.68175078461E+01  0.57701416462E+02  0.10566000000E+00 0. -1.
         22    1    1    0    0    0  0.12463223728E+02  0.22901437478E+02  0.14712928953E+02  0.29937903444E+02  0.00000000000E+00 0. -1.
</event>
<event>
 5    1  0.1254921E-009  0.9118800E+02  0.7561462E-02  0.1125453E+00
         25   -1    0    0    0    0  0.00000000000E+00  0.00000000000E+00  0.99999998245E-14  0.12509000000E+03  0.12509000000E+03 0.  0.
        -13    1    3    3    0    0  0.26683818387E+02  0.55416215716E-01  0.32535493876E+02  0.42078483344E+02  0.10566000000E+00 0. -1.
         23    2    1    0    0    0  0.19690288587E+02  0.18005515681E+02 -0.15778848446E+02  0.94091965903E+02  0.88839292713E+02 0.  0.
         13    1    3    3    0    0 -0.69935298006E+01  0.17950099465E+02 -0.48314342323E+02  0.52013482560E+02  0.10566000000E+00 0.  1.
         22    1    1    0    0    0 -0.19690288587E+02 -0.18005515681E+02  0.15778848446E+02  0.30998034097E+02  0.00000000000E+00 0.  1.
</event>
<event>
 5    1  0.1254921E-009  0.9118800E+02  0.7561462E-02  0.1125453E+00
         25   -1    0    0    0    0  0.00000000000E+00  0.00000000000E+00  0.99999998245E-14  0.12509000000E+03  0.12509000000E+03 0.  0.
        -13    1    3    3    0    0 -0.32084443310E+02  0.48104644482E+02  0.18545738562E+02  0.60724162457E+02  0.10566000000E+00 0. -1.
         23    2    1    0    0    0 -0.14647345934E+02  0.16184497285E+02  0.17501574219E+02  0.97111654884E+02  0.92994009048E+02 0.  0.
         13    1    3    3    0    0  0.17437097375E+02 -0.31920147197E+02 -0.10441643435E+01  0.36387492427E+02  0.10566000000E+00 0.  1.
         22    1    1    0    0    0  0.14647345934E+02 -0.16184497285E+02 -0.17501574219E+02  0.27978345116E+02  0.00000000000E+00 0. -1.
</event>
<event>
 5    1  0.1254921E-009  0.9118800E+02  0.7561462E-02  0.1125453E+00
         25   -1    0    0    0    0  0.00000000000E+00  0.00000000000E+00  0.99999998245E-14  0.12509000000E+03  0.12509000000E+03 0.  0.
        -13    1    3    3    0    0  0.31788875585E+02  0.13739682038E+02  0.17949834917E+02  0.39006655984E+02  0.10566000000E+00 0.  1.
         23    2    1    0    0    0 -0.12049233657E+02  0.23108673754E+02 -0.15344863590E+02  0.94846659031E+02  0.89895656493E+02 0.  0.
         13    1    3    3    0    0 -0.43838109241E+02  0.93689917158E+01 -0.33294698507E+02  0.55840003047E+02  0.10566000000E+00 0. -1.
         22    1    1    0    0    0  0.12049233657E+02 -0.23108673754E+02  0.15344863590E+02  0.30243340969E+02  0.00000000000E+00 0. -1.
</event>
<event>
 5    1  0.1254921E-009  0.9118800E+02  0.7561462E-02  0.1125453E+00
         25   -1    0    0    0    0  0.00000000000E+00  0.00000000000E+00  0.99999998245E-14  0.12509000000E+03  0.12509000000E+03 0.  0.
        -13    1    3    3    0    0  0.26891450037E+02 -0.11665976238E+02  0.35144824126E+02  0.45764778089E+02  0.10566000000E+00 0.  1.
         23    2    1    0    0    0 -0.17213135802E+02 -0.19668217073E+02  0.10452666740E+02  0.96940594163E+02  0.92763622977E+02 0.  0.
         13    1    3    3    0    0 -0.44104585840E+02 -0.80022408348E+01 -0.24692157385E+02  0.51175816074E+02  0.10566000000E+00 0. -1.
         22    1    1    0    0    0  0.17213135802E+02  0.19668217073E+02 -0.10452666740E+02  0.28149405837E+02  0.00000000000E+00 0.  1.
</event>
<event>
 5    1  0.1254921E-009  0.9118800E+02  0.7561462E-02  0.1125453E+00
         25   -1    0    0    0    0  0.00000000000E+00  0.00000000000E+00  0.99999998245E-14  0.12509000000E+03  0.12509000000E+03 0.  0.
        -13    1    3    3    0    0 -0.22336454179E+02  0.79978790760E+01 -0.25016932343E+02  0.34478128181E+02  0.10566000000E+00 0. -1.
         23    2    1    0    0    0  0.10983697687E+02  0.64900552303E+01  0.26401641204E+02  0.95767498571E+02  0.91168002569E+02 0.  0.
         13    1    3    3    0    0  0.33320151866E+02 -0.15078238457E+01  0.51418573547E+02  0.61289370390E+02  0.10566000000E+00 0.  1.
         22    1    1    0    0    0 -0.10983697687E+02 -0.64900552303E+01 -0.26401641204E+02  0.29322501429E+02  0.00000000000E+00 0.  1.
</event>
<event>
 5    1  0.1254921E-009  0.9118800E+02  0.7561462E-02  0.1125453E+00
         25   -1    0    0    0    0  0.00000000000E+00  0.00000000000E+00  0.99999998245E-14  0.12509000000E+03  0.12509000000E+03 0.  0.
        -13    1    3    3    0    0 -0.47277623761E+01  0.46499538814E+01 -0.36514884333E+02  0.37112285703E+02  0.10566000000E+00 0. -1.
         23    2    1    0    0    0  0.17607917498E+02  0.19535275451E+02  0.14719157456E+02  0.94951663255E+02  0.90041651546E+02 0.  0.
         13    1    3    3    0    0  0.22335679874E+02  0.14885321569E+02  0.51234041788E+02  0.57839377553E+02  0.10566000000E+00 0.  1.
         22    1    1    0    0    0 -0.17607917498E+02 -0.19535275451E+02 -0.14719157456E+02  0.30138336745E+02  0.00000000000E+00 0.  1.
</event>
<event>
 5    1  0.1254921E-009  0.9118800E+02  0.7561462E-02  0.1125453E+00
         25   -1    0    0    0    0  0.00000000000E+00  0.00000000000E+00  0.99999998245E-14  0.12509000000E+03  0.12509000000E+03 0.  0.
        -13    1    3    3    0    0  0.30498251505E+02 -0.45183110282E+01  0.44226701055E+02  0.53912621246E+02  0.10566000000E+00 0. -1.
         23    2    1    0    0    0 -0.44645704262E+01  0.10797240883E+02  0.26761928704E+02  0.95888739278E+02  0.91334203300E+02 0.  0.
         13    1    3    3    0    0 -0.34962821931E+02  0.15315551912E+02 -0.17464772351E+02  0.41976118032E+02  0.10566000000E+00 0.  1.
         22    1    1    0    0    0  0.44645704262E+01 -0.10797240883E+02 -0.26761928704E+02  0.29201260722E+02  0.00000000000E+00 0. -1.
</event>
<event>
 5    1  0.1254921E-009  0.9118800E+02  0.7561462E-02  0.1125453E+00
         25   -1    0    0    0    0  0.00000000000E+00  0.00000000000E+00  0.99999998245E-14  0.12509000000E+03  0.12509000000E+03 0.  0.
        -13    1    3    3    0    0 -0.12983498708E+02  0.57501354715E+02 -0.19233105488E+02  0.62007262022E+02  0.10566000000E+00 0. -1.
         23    2    1    0    0    0 -0.31570325078E+01  0.29697530327E+02 -0.47906396298E+01  0.94843340848E+02  0.89891039117E+02 0.  0.
         13    1    3    3    0    0  0.98264662003E+01 -0.27803824388E+02  0.14442465858E+02  0.32836078826E+02  0.10566000000E+00 0.  1.
         22    1    1    0    0    0  0.31570325078E+01 -0.29697530327E+02  0.47906396298E+01  0.30246659152E+02  0.00000000000E+00 0. -1.
</event>
<event>
 5    1  0.1254921E-009  0.9118800E+02  0.7561462E-02  0.1125453E+00
         25   -1    0    0    0    0  0.00000000000E+00  0.00000000000E+00  0.99999998245E-14  0.12509000000E+03  0.12509000000E+03 0.  0.
        -13    1    3    3    0    0  0.33760582192E+02  0.13775483232E+02  0.48085657922E+02  0.60347183116E+02  0.10566000000E+00 0.  1.
         23    2    1    0    0    0  0.66614027644E+01  0.13631257869E+02  0.24497386433E+02  0.96274944561E+02  0.91861621640E+02 0.  0.
         13    1    3    3    0    0 -0.27099179427E+02 -0.14422536219E+00 -0.23588271489E+02  0.35927761445E+02  0.10566000000E+00 0. -1.
         22    1    1    0    0    0 -0.66614027644E+01 -0.13631257869E+02 -0.24497386433E+02  0.28815055439E+02  0.00000000000E+00 0.  1.
</event>
<event>
 5    1  0.1254921E-009  0.9118800E+02  0.7561462E-02  0.1125453E+00
         25   -1    0    0    0    0  0.00000000000E+00  0.00000000000E+00  0.99999998245E-14  0.12509000000E+03  0.12509000000E+03 0.  0.
        -13    1    3    3    0    0  0.83549920479E+01 -0.37716704521E+02 -0.49925652612E+01  0.38952439769E+02  0.10566000000E+00 0. -1.
         23    2    1    0    0    0 -0.25713583754E+02 -0.77946300220E+01  0.20793335266E+02  0.91114899733E+02  0.84543583525E+02 0.  0.
         13    1    3    3    0    0 -0.34068575802E+02  0.29922074499E+02  0.25785900527E+02  0.52162459964E+02  0.10566000000E+00 0.  1.
         22    1    1    0    0    0  0.25713583754E+02  0.77946300220E+01 -0.20793335266E+02  0.33975100267E+02  0.00000000000E+00 0.  1.
</event>
<event>
 5    1  0.1254921E-009  0.9118800E+02  0.7561462E-02  0.1125453E+00
         25   -1    0    0    0    0  0.00000000000E+00  0.00000000000E+00  0.99999998245E-14  0.12509000000E+03  0.12509000000E+03 0.  0.
        -13    1    3    3    0    0 -0.16866109851E+02 -0.27771508886E+00 -0.22406382619E+02  0.28046388953E+02  0.10566000000E+00 0.  1.
         23    2    1    0    0    0  0.15641273858E+02 -0.28280276469E+02  0.18939755099E+02  0.87631518874E+02  0.79222126277E+02 0.  0.
         13    1    3    3    0    0  0.32507383709E+02 -0.28002561380E+02  0.41346137719E+02  0.59585129921E+02  0.10566000000E+00 0. -1.
         22    1    1    0    0    0 -0.15641273858E+02  0.28280276469E+02 -0.18939755099E+02  0.37458481126E+02  0.00000000000E+00 0. -1.
</event>
<event>
 5    1  0.1254921E-009  0.9118800E+02  0.7561462E-02  0.1125453E+00
         25   -1    0    0    0    0  0.00000000000E+00  0.00000000000E+00  0.99999998245E-14  0.12509000000E+03  0.12509000000E+03 0.  0.
        -13    1    3    3    0    0  0.22136616191E+02  0.44726510707E+02  0.31645639322E+02  0.59092708421E+02  0.10566000000E+00 0. -1.
         23    2    1    0    0    0  0.22438172833E+02  0.12514493183E+02  0.14641990532E+02  0.95518526813E+02  0.90825750413E+02 0.  0.
         13    1    3    3    0    0  0.30155664238E+00 -0.32212017524E+02 -0.17003648789E+02  0.36425818392E+02  0.10566000000E+00 0.  1.
         22    1    1    0    0    0 -0.22438172833E+02 -0.12514493183E+02 -0.14641990532E+02  0.29571473187E+02  0.00000000000E+00 0. -1.
</event>
<event>
 5    1  0.1254921E-009  0.9118800E+02  0.7561462E-02  0.1125453E+00
         25   -1    0    0    0    0  0.00000000000E+00  0.00000000000E+00  0.99999998245E-14  0.12509000000E+03  0.12509000000E+03 0.  0.
        -13    1    3    3    0    0 -0.24457874341E+02  0.28009488753E+02 -0.19720346496E+02  0.42090643942E+02  0.10566000000E+00 0. -1.
         23    2    1    0    0    0 -0.16055935203E+02 -0.23281523437E+02 -0.10754791102E+02  0.94832969074E+02  0.89876604870E+02 0.  0.
         13    1    3    3    0    0  0.84019391379E+01 -0.51291012190E+02  0.89655553940E+01  0.52742325132E+02  0.10566000000E+00 0.  1.
         22    1    1    0    0    0  0.16055935203E+02  0.23281523437E+02  0.10754791102E+02  0.30257030926E+02  0.00000000000E+00 0.  1.
</event>
<event>
 5    1  0.1254921E-009  0.9118800E+02  0.7561462E-02  0.1125453E+00
         25   -1    0    0    0    0  0.00000000000E+00  0.00000000000E+00  0.99999998245E-14  0.12509000000E+03  0.12509000000E+03 0.  0.
        -13    1    3    3    0    0  0.19182232279E+02  0.53341645305E+02  0.16246605023E+02  0.58968232955E+02  0.10566000000E+00 0.  1.
         23    2    1    0    0    0 -0.18756177082E+01  0.29209641078E+02 -0.18617788227E+01  0.95761050239E+02  0.91159154498E+02 0.  0.
         13    1    3    3    0    0 -0.21057849988E+02 -0.24132004227E+02 -0.18108383846E+02  0.36792817283E+02  0.10566000000E+00 0. -1.
         22    1    1    0    0    0  0.18756177082E+01 -0.29209641078E+02  0.18617788227E+01  0.29328949761E+02  0.00000000000E+00 0.  1.
</event>
<event>
 5    1  0.1254921E-009  0.9118800E+02  0.7561462E-02  0.1125453E+00
         25   -1    0    0    0    0  0.00000000000E+00  0.00000000000E+00  0.99999998245E-14  0.12509000000E+03  0.12509000000E+03 0.  0.
        -13    1    3    3    0    0  0.11325590974E+02  0.46004704199E+01 -0.41513039526E+02  0.43275593049E+02  0.10566000000E+00 0. -1.
         23    2    1    0    0    0  0.25676617021E+02  0.86864151429E+01  0.94543384363E+01  0.96382388031E+02  0.92007813459E+02 0.  0.
         13    1    3    3    0    0  0.14351026048E+02  0.40859447230E+01  0.50967377962E+02  0.53106794982E+02  0.10566000000E+00 0.  1.
         22    1    1    0    0    0 -0.25676617021E+02 -0.86864151429E+01 -0.94543384363E+01  0.28707611969E+02  0.00000000000E+00 0. -1.
</event>
<event>
 5    1  0.1254921E-009  0.9118800E+02  0.7561462E-02  0.1125453E+00
         25   -1    0    0    0    0  0.00000000000E+00  0.00000000000E+00  0.99999998245E-14  0.12509000000E+03  0.12509000000E+03 0.  0.
        -13    1    3    3    0    0 -0.32358380577E+02 -0.35482389599E+02  0.29226606848E+02  0.56216283025E+02  0.10566000000E+00 0.  1.
         23    2    1    0    0    0 -0.46375576661E+01 -0.28616655234E+02  0.14366612665E+01  0.96064426905E+02  0.91574506404E+02 0.  0.
         13    1    3    3    0    0  0.27720822911E+02  0.68657343647E+01 -0.27789945582E+02  0.39848143880E+02  0.10566000000E+00 0. -1.
         22    1    1    0    0    0  0.46375576661E+01  0.28616655234E+02 -0.14366612665E+01  0.29025573095E+02  0.00000000000E+00 0.  1.
</event>
<event>
 5    1  0.1254921E-009  0.9118800E+02  0.7561462E-02  0.1125453E+00
         25   -1    0    0    0    0  0.00000000000E+00  0.00000000000E+00  0.99999998245E-14  0.12509000000E+03  0.12509000000E+03 0.  0.
        -13    1    3    3    0    0 -0.11467147785E+02  0.40498370238E+02  0.12643680329E+02  0.43948689247E+02  0.10566000000E+00 0.  1.
         23    2    1    0    0    0 -0.28350419037E+02 -0.66763747433E+01  0.10599308478E+02  0.94095394348E+02  0.88844119997E+02 0.  0.
         13    1    3    3    0    0 -0.16883271252E+02 -0.47174744981E+02 -0.20443718508E+01  0.50146705101E+02  0.10566000000E+00 0. -1.
         22    1    1    0    0    0  0.28350419037E+02  0.66763747433E+01 -0.10599308478E+02  0.30994605652E+02  0.00000000000E+00 0. -1.
</event>
<event>
 5    1  0.1254921E-009  0.9118800E+02  0.7561462E-02  0.1125453E+00
         25   -1    0    0    0    0  0.00000000000E+00  0.00000000000E+00  0.99999998245E-14  0.12509000000E+03  0.12509000000E+03 0.  0.
        -13    1    3    3    0    0  0.42902772083E+02 -0.77626740323E+01  0.13195644831E+02  0.45552641714E+02  0.10566000000E+00 0.  1.
         23    2    1    0    0    0  0.43632968113E+01 -0.90526844769E+01 -0.23963779239E+02  0.99104385312E+02  0.95636954246E+02 0.  0.
         13    1    3    3    0    0 -0.38539475272E+02 -0.12900104446E+01 -0.37159424070E+02  0.53551743598E+02  0.10566000000E+00 0. -1.
         22    1    1    0    0    0 -0.43632968113E+01  0.90526844769E+01  0.23963779239E+02  0.25985614688E+02  0.00000000000E+00 0. -1.
</event>
<event>
 5    1  0.1254921E-009  0.9118800E+02  0.7561462E-02  0.1125453E+00
         25   -1    0    0    0    0  0.00000000000E+00  0.00000000000E+00  0.99999998245E-14  0.12509000000E+03  0.12509000000E+03 0.  0.
        -13    1    3    3    0    0 -0.75130353534E+00 -0.28193138622E+01 -0.60446180447E+02  0.60516649629E+02  0.10566000000E+00 0.  1.
         23    2    1    0    0    0 -0.11312801724E+02  0.11179992963E+01 -0.27725694544E+02  0.95124293881E+02  0.90281159404E+02 0.  0.
         13    1    3    3    0    0 -0.10561498188E+02  0.39373131585E+01  0.32720485904E+02  0.34607644252E+02  0.10566000000E+00 0. -1.
         22    1    1    0    0    0  0.11312801724E+02 -0.11179992963E+01  0.27725694544E+02  0.29965706119E+02  0.00000000000E+00 0.  1.
</event>
<event>
 5    1  0.1254921E-009  0.9118800E+02  0.7561462E-02  0.1125453E+00
         25   -1    0    0    0    0  0.00000000000E+00  0.00000000000E+00  0.99999998245E-14  0.12509000000E+03  0.12509000000E+03 0.  0.
        -13    1    3    3    0    0 -0.37869254336E+02 -0.34187976423E+02 -0.14680756483E+02  0.53088924748E+02  0.10566000000E+00 0.  1.
         23    2    1    0    0    0  0.17423888553E+01 -0.28946104914E+02  0.11522305234E+01  0.96068619196E+02  0.91580232858E+02 0.  0.
         13    1    3    3    0    0  0.39611643192E+02  0.52418715096E+01  0.15832987007E+02  0.42979694448E+02  0.10566000000E+00 0. -1.
         22    1    1    0    0    0 -0.17423888553E+01  0.28946104914E+02 -0.11522305234E+01  0.29021380804E+02  0.00000000000E+00 0.  1.
</event>
<event>
 5    1  0.1254921E-009  0.9118800E+02  0.7561462E-02  0.1125453E+00
         25   -1    0    0    0    0  0.00000000000E+00  0.00000000000E+00  0.99999998245E-14  0.12509000000E+03  0.12509000000E+03 0.  0.
        -13    1    3    3    0    0  0.22337171586E+02  0.57641069244E+02  0.79352235529E+01  0.62325123625E+02  0.10566000000E+00 0. -1.
         23    2    1    0    0    0  0.75864186132E+01  0.29768876242E+02  0.43481010901E+01  0.94063467433E+02  0.88799156428E+02 0.  0.
         13    1    3    3    0    0 -0.14750752973E+02 -0.27872193002E+02 -0.35871224628E+01  0.31738343807E+02  0.10566000000E+00 0.  1.
         22    1    1    0    0    0 -0.75864186132E+01 -0.29768876242E+02 -0.43481010901E+01  0.31026532567E+02  0.00000000000E+00 0. -1.
</event>
<event>
 5    1  0.1254921E-009  0.9118800E+02  0.7561462E-02  0.1125453E+00
         25   -1    0    0    0    0  0.00000000000E+00  0.00000000000E+00  0.99999998245E-14  0.12509000000E+03  0.12509000000E+03 0.  0.
        -13    1    3    3    0    0  0.41689166704E+02  0.18018857472E+02 -0.38001756171E+01  0.45575413809E+02  0.10566000000E+00 0. -1.
         23    2    1    0    0    0 -0.58025166827E+01  0.29867865595E+02 -0.88170168712E-01  0.94663590928E+02  0.89640554875E+02 0.  0.
         13    1    3    3    0    0 -0.47491683387E+02  0.11849008123E+02  0.37120054484E+01  0.49088177119E+02  0.10566000000E+00 0.  1.
         22    1    1    0    0    0  0.58025166827E+01 -0.29867865595E+02  0.88170168712E-01  0.30426409072E+02  0.00000000000E+00 0.  1.
</event>
<event>
 5    1  0.1254921E-009  0.9118800E+02  0.7561462E-02  0.1125453E+00
         25   -1    0    0    0    0  0.00000000000E+00  0.00000000000E+00  0.99999998245E-14  0.12509000000E+03  0.12509000000E+03 0.  0.
        -13    1    3    3    0    0  0.19508938347E+02  0.13789850884E+02  0.22099923775E+02  0.32544991285E+02  0.10566000000E+00 0.  1.
         23    2    1    0    0    0 -0.15246586396E+01  0.11409772569E+02 -0.32236930348E+02  0.90859499386E+02  0.84164846916E+02 0.  0.
         13    1    3    3    0    0 -0.21033596987E+02 -0.23800783146E+01 -0.54336854123E+02  0.58314508101E+02  0.10566000000E+00 0. -1.
         22    1    1    0    0    0  0.15246586396E+01 -0.11409772569E+02  0.32236930348E+02  0.34230500614E+02  0.00000000000E+00 0. -1.
</event>
<event>
 5    1  0.1254921E-009  0.9118800E+02  0.7561462E-02  0.1125453E+00
         25   -1    0    0    0    0  0.00000000000E+00  0.00000000000E+00  0.99999998245E-14  0.12509000000E+03  0.12509000000E+03 0.  0.
        -13    1    3    3    0    0 -0.28399541007E+01  0.41373015009E+02 -0.36337352534E+02  0.55138063654E+02  0.10566000000E+00 0.  1.
         23    2    1    0    0    0 -0.19988658422E+02  0.10728139432E+02 -0.23227381246E+02  0.92622313283E+02  0.86745272132E+02 0.  0.
         13    1    3    3    0    0 -0.17148704321E+02 -0.30644875577E+02  0.13109971288E+02  0.37484249629E+02  0.10566000000E+00 0. -1.
         22    1    1    0    0    0  0.19988658422E+02 -0.10728139432E+02  0.23227381246E+02  0.32467686717E+02  0.00000000000E+00 0.  1.
</event>
<event>
 5    1  0.1254921E-009  0.9118800E+02  0.7561462E-02  0.1125453E+00
         25   -1    0    0    0    0  0.00000000000E+00  0.00000000000E+00  0.99999998245E-14  0.12509000000E+03  0.12509000000E+03 0.  0.
        -13    1    3    3    0    0 -0.33463459595E+02  0.22806442489E+02  0.45777406124E+02  0.61118892518E+02  0.10566000000E+00 0. -1.
         23    2    1    0    0    0 -0.16008707212E+02  0.15047767068E+02  0.11666888737E+02  0.10021370017E+03  0.97077059128E+02 0.  0.
         13    1    3    3    0    0  0.17454752383E+02 -0.77586754210E+01 -0.34110517387E+02  0.39094807654E+02  0.10566000000E+00 0.  1.
         22    1    1    0    0    0  0.16008707212E+02 -0.15047767068E+02 -0.11666888737E+02  0.24876299828E+02  0.00000000000E+00 0. -1.
</event>
<event>
 5    1  0.1254921E-009  0.9118800E+02  0.7561462E-02  0.1125453E+00
         25   -1    0    0    0    0  0.00000000000E+00  0.00000000000E+00  0.99999998245E-14  0.12509000000E+03  0.12509000000E+03 0.  0.
        -13    1    3    3    0    0  0.39945875935E+02 -0.10945722680E+02  0.11046678467E+02  0.42866328492E+02  0.10566000000E+00 0.  1.
         23    2    1    0    0    0  0.31494711980E+01  0.26566703853E+02  0.12779361759E+02  0.95441711527E+02  0.90719894674E+02 0.  0.
         13    1    3    3    0    0 -0.36796404737E+02  0.37512426532E+02  0.17326832922E+01  0.52575383035E+02  0.10566000000E+00 0. -1.
         22    1    1    0    0    0 -0.31494711980E+01 -0.26566703853E+02 -0.12779361759E+02  0.29648288473E+02  0.00000000000E+00 0. -1.
</event>
<event>
 5    1  0.1254921E-009  0.9118800E+02  0.7561462E-02  0.1125453E+00
         25   -1    0    0    0    0  0.00000000000E+00  0.00000000000E+00  0.99999998245E-14  0.12509000000E+03  0.12509000000E+03 0.  0.
        -13    1    3    3    0    0 -0.28555466543E+02 -0.23724606159E+02 -0.22569897543E+02  0.43447474564E+02  0.10566000000E+00 0. -1.
         23    2    1    0    0    0  0.20184083857E+02 -0.53021444277E+01 -0.20863855333E+02  0.95580502612E+02  0.90911066673E+02 0.  0.
         13    1    3    3    0    0  0.48739550400E+02  0.18422461731E+02  0.17060422098E+01  0.52133028048E+02  0.10566000000E+00 0.  1.
         22    1    1    0    0    0 -0.20184083857E+02  0.53021444277E+01  0.20863855333E+02  0.29509497388E+02  0.00000000000E+00 0.  1.
</event>
<event>
 5    1  0.1254921E-009  0.9118800E+02  0.7561462E-02  0.1125453E+00
         25   -1    0    0    0    0  0.00000000000E+00  0.00000000000E+00  0.99999998245E-14  0.12509000000E+03  0.12509000000E+03 0.  0.
        -13    1    3    3    0    0  0.32822969282E+02  0.52979792892E+02  0.18430863819E+00  0.62323758721E+02  0.10566000000E+00 0.  1.
         23    2    1    0    0    0  0.16728763700E+02  0.22775423086E+02  0.30422813142E+01  0.96667704047E+02  0.92394902990E+02 0.  0.
         13    1    3    3    0    0 -0.16094205582E+02 -0.30204369807E+02  0.28579726760E+01  0.34343945326E+02  0.10566000000E+00 0. -1.
         22    1    1    0    0    0 -0.16728763700E+02 -0.22775423086E+02 -0.30422813142E+01  0.28422295953E+02  0.00000000000E+00 0.  1.
</event>
<event>
 5    1  0.1254921E-009  0.9118800E+02  0.7561462E-02  0.1125453E+00
         25   -1    0    0    0    0  0.00000000000E+00  0.00000000000E+00  0.99999998245E-14  0.12509000000E+03  0.12509000000E+03 0.  0.
        -13    1    3    3    0    0  0.12214794844E+02 -0.38620687422E+02  0.89964414155E+00  0.40516406969E+02  0.10566000000E+00 0.  1.
         23    2    1    0    0    0 -0.29516051702E+02 -0.31123285078E+01  0.22368852774E+01  0.95326136800E+02  0.90560393135E+02 0.  0.
         13    1    3    3    0    0 -0.41730846546E+02  0.35508358915E+02  0.13372411359E+01  0.54809729831E+02  0.10566000000E+00 0. -1.
         22    1    1    0    0    0  0.29516051702E+02  0.31123285078E+01 -0.22368852774E+01  0.29763863200E+02  0.00000000000E+00 0. -1.
</event>
<event>
 5    1  0.1254921E-009  0.9118800E+02  0.7561462E-02  0.1125453E+00
         25   -1    0    0    0    0  0.00000000000E+00  0.00000000000E+00  0.99999998245E-14  0.12509000000E+03  0.12509000000E+03 0.  0.
        -13    1    3    3    0    0 -0.28257882900E+01  0.30584372860E+02  0.43874725528E+02  0.53557367811E+02  0.10566000000E+00 0.  1.
         23    2    1    0    0    0 -0.10900355656E+01  0.29400965694E+02  0.18756244517E+01  0.95609109098E+02  0.90950419538E+02 0.  0.
         13    1    3    3    0    0  0.17357527244E+01 -0.11834071659E+01 -0.41999101076E+02  0.42051741287E+02  0.10566000000E+00 0. -1.
         22    1    1    0    0    0  0.10900355656E+01 -0.29400965694E+02 -0.18756244517E+01  0.29480890902E+02  0.00000000000E+00 0.  1.
</event>
<event>
 5    1  0.1254921E-009  0.9118800E+02  0.7561462E-02  0.1125453E+00
         25   -1    0    0    0    0  0.00000000000E+00  0.00000000000E+00  0.99999998245E-14  0.12509000000E+03  0.12509000000E+03 0.  0.
        -13    1    3    3    0    0  0.20972699113E+02  0.11324888769E+02  0.47281330468E+02  0.52949434261E+02  0.10566000000E+00 0.  1.
         23    2    1    0    0    0  0.51990753804E+01  0.26698449557E+02  0.10276734771E+02  0.96013396500E+02  0.91504772751E+02 0.  0.
         13    1    3    3    0    0 -0.15773623733E+02  0.15373560788E+02 -0.37004595697E+02  0.43063962238E+02  0.10566000000E+00 0. -1.
         22    1    1    0    0    0 -0.51990753804E+01 -0.26698449557E+02 -0.10276734771E+02  0.29076603500E+02  0.00000000000E+00 0.  1.
</event>
<event>
 5    1  0.1254921E-009  0.9118800E+02  0.7561462E-02  0.1125453E+00
         25   -1    0    0    0    0  0.00000000000E+00  0.00000000000E+00  0.99999998245E-14  0.12509000000E+03  0.12509000000E+03 0.  0.
        -13    1    3    3    0    0 -0.28651094314E+01  0.24554180856E+02 -0.22661772162E+02  0.33536304673E+02  0.10566000000E+00 0.  1.
         23    2    1    0    0    0  0.24101773796E+02 -0.20724652454E+02  0.47666284821E+01  0.92947699732E+02  0.87213229609E+02 0.  0.
         13    1    3    3    0    0  0.26966883228E+02 -0.45278833310E+02  0.27428400644E+02  0.59411395059E+02  0.10566000000E+00 0. -1.
         22    1    1    0    0    0 -0.24101773796E+02  0.20724652454E+02 -0.47666284821E+01  0.32142300268E+02  0.00000000000E+00 0. -1.
</event>
<event>
 5    1  0.1254921E-009  0.9118800E+02  0.7561462E-02  0.1125453E+00
         25   -1    0    0    0    0  0.00000000000E+00  0.00000000000E+00  0.99999998245E-14  0.12509000000E+03  0.12509000000E+03 0.  0.
        -13    1    3    3    0    0 -0.45812014242E+02 -0.22291174568E+02 -0.32482182819E+01  0.51050947088E+02  0.10566000000E+00 0. -1.
         23    2    1    0    0    0  0.19201656304E+01 -0.25961433235E+02 -0.25953956357E+01  0.98928594644E+02  0.95406748756E+02 0.  0.
         13    1    3    3    0    0  0.47732179873E+02 -0.36702586670E+01  0.65282264616E+00  0.47877647556E+02  0.10566000000E+00 0.  1.
         22    1    1    0    0    0 -0.19201656304E+01  0.25961433235E+02  0.25953956357E+01  0.26161405356E+02  0.00000000000E+00 0. -1.
</event>
<event>
 5    1  0.1254921E-009  0.9118800E+02  0.7561462E-02  0.1125453E+00
         25   -1    0    0    0    0  0.00000000000E+00  0.00000000000E+00  0.99999998245E-14  0.12509000000E+03  0.12509000000E+03 0.  0.
        -13    1    3    3    0    0  0.67707138694E+01  0.38477771405E+02  0.75893327155E+01  0.39799379313E+02  0.10566000000E+00 0.  1.
         23    2    1    0    0    0  0.29473528416E+02 -0.55302271806E+01 -0.11641859061E+02  0.92921612220E+02  0.87175804242E+02 0.  0.
         13    1    3    3    0    0  0.22702814546E+02 -0.44007998586E+02 -0.19231191776E+02  0.53122232907E+02  0.10566000000E+00 0. -1.
         22    1    1    0    0    0 -0.29473528416E+02  0.55302271806E+01  0.11641859061E+02  0.32168387780E+02  0.00000000000E+00 0. -1.
</event>
<event>
 5    1  0.1254921E-009  0.9118800E+02  0.7561462E-02  0.1125453E+00
         25   -1    0    0    0    0  0.00000000000E+00  0.00000000000E+00  0.99999998245E-14  0.12509000000E+03  0.12509000000E+03 0.  0.
        -13    1    3    3    0    0  0.54297517496E+02  0.94033455705E+01 -0.28949398369E+02  0.62247266158E+02  0.10566000000E+00 0.  1.
         23    2    1    0    0    0  0.23361503599E+02  0.73082724424E+01 -0.15981315984E+02  0.95856916737E+02  0.91290609206E+02 0.  0.
         13    1    3    3    0    0 -0.30936013897E+02 -0.20950731281E+01  0.12968082385E+02  0.33609650579E+02  0.10566000000E+00 0. -1.
         22    1    1    0    0    0 -0.23361503599E+02 -0.73082724424E+01  0.15981315984E+02  0.29233083263E+02  0.00000000000E+00 0.  1.
</event>
<event>
 5    1  0.1254921E-009  0.9118800E+02  0.7561462E-02  0.1125453E+00
         25   -1    0    0    0    0  0.00000000000E+00  0.00000000000E+00  0.99999998245E-14  0.12509000000E+03  0.12509000000E+03 0.  0.
        -13    1    3    3    0    0 -0.29595211505E+02 -0.24231839234E+02  0.34171703263E+01  0.38402432133E+02  0.10566000000E+00 0. -1.
         23    2    1    0    0    0  0.28156785457E+01  0.60653809358E+01 -0.30258074459E+02  0.94101809322E+02  0.88853151638E+02 0.  0.
         13    1    3    3    0    0  0.32410890050E+02  0.30297220169E+02 -0.33675244785E+02  0.55699377189E+02  0.10566000000E+00 0.  1.
         22    1    1    0    0    0 -0.28156785457E+01 -0.60653809358E+01  0.30258074459E+02  0.30988190678E+02  0.00000000000E+00 0.  1.
</event>
<event>
 5    1  0.1254921E-009  0.9118800E+02  0.7561462E-02  0.1125453E+00
         25   -1    0    0    0    0  0.00000000000E+00  0.00000000000E+00  0.99999998245E-14  0.12509000000E+03  0.12509000000E+03 0.  0.
        -13    1    3    3    0    0 -0.13423033472E+02  0.91241342151E+01 -0.29563770894E+02  0.33726182207E+02  0.10566000000E+00 0.  1.
         23    2    1    0    0    0  0.75988272876E+01 -0.96170004644E+01  0.26181388398E+02  0.96181627986E+02  0.91734462387E+02 0.  0.
         13    1    3    3    0    0  0.21021860759E+02 -0.18741134680E+02  0.55745159292E+02  0.62455445778E+02  0.10566000000E+00 0. -1.
         22    1    1    0    0    0 -0.75988272876E+01  0.96170004644E+01 -0.26181388398E+02  0.28908372014E+02  0.00000000000E+00 0. -1.
</event>
<event>
 5    1  0.1254921E-009  0.9118800E+02  0.7561462E-02  0.1125453E+00
         25   -1    0    0    0    0  0.00000000000E+00  0.00000000000E+00  0.99999998245E-14  0.12509000000E+03  0.12509000000E+03 0.  0.
        -13    1    3    3    0    0 -0.35253670218E+02  0.30412612412E+02 -0.38027122481E+02  0.60115068542E+02  0.10566000000E+00 0. -1.
         23    2    1    0    0    0 -0.24721274005E+02  0.15137151643E+02 -0.86890683825E+01  0.94828231089E+02  0.89870010314E+02 0.  0.
         13    1    3    3    0    0  0.10532396213E+02 -0.15275460769E+02  0.29338054099E+02  0.34713162547E+02  0.10566000000E+00 0.  1.
         22    1    1    0    0    0  0.24721274005E+02 -0.15137151643E+02  0.86890683825E+01  0.30261768911E+02  0.00000000000E+00 0. -1.
</event>
<event>
 5    1  0.1254921E-009  0.9118800E+02  0.7561462E-02  0.1125453E+00
         25   -1    0    0    0    0  0.00000000000E+00  0.00000000000E+00  0.99999998245E-14  0.12509000000E+03  0.12509000000E+03 0.  0.
        -13    1    3    3    0    0  0.38963009046E+02 -0.32429726630E+02  0.40555020171E+01  0.50855299664E+02  0.10566000000E+00 0. -1.
         23    2    1    0    0    0  0.35869719853E+01 -0.15702888070E+02 -0.21967828853E+02  0.97849725290E+02  0.93981573582E+02 0.  0.
         13    1    3    3    0    0 -0.35376037061E+02  0.16726838560E+02 -0.26023330870E+02  0.46994425626E+02  0.10566000000E+00 0.  1.
         22    1    1    0    0    0 -0.35869719853E+01  0.15702888070E+02  0.21967828853E+02  0.27240274710E+02  0.00000000000E+00 0. -1.
</event>
<event>
 5    1  0.1254921E-009  0.9118800E+02  0.7561462E-02  0.1125453E+00
         25   -1    0    0    0    0  0.00000000000E+00  0.00000000000E+00  0.99999998245E-14  0.12509000000E+03  0.12509000000E+03 0.  0.
        -13    1    3    3    0    0  0.45843661683E+02  0.17575701770E+02  0.18348051393E+02  0.52413822253E+02  0.10566000000E+00 0. -1.
         23    2    1    0    0    0  0.22132249115E+02 -0.16755930785E+02  0.12856275759E+02  0.94497819728E+02  0.89408928188E+02 0.  0.
         13    1    3    3    0    0 -0.23711412568E+02 -0.34331632555E+02 -0.54917756333E+01  0.42083997475E+02  0.10566000000E+00 0.  1.
         22    1    1    0    0    0 -0.22132249115E+02  0.16755930785E+02 -0.12856275759E+02  0.30592180272E+02  0.00000000000E+00 0. -1.
</event>
<event>
 5    1  0.1254921E-009  0.9118800E+02  0.7561462E-02  0.1125453E+00
         25   -1    0    0    0    0  0.00000000000E+00  0.00000000000E+00  0.99999998245E-14  0.12509000000E+03  0.12509000000E+03 0.  0.
        -13    1    3    3    0    0  0.55659228337E+02  0.52569143351E+01 -0.25282009875E+01  0.55964165425E+02  0.10566000000E+00 0. -1.
         23    2    1    0    0    0  0.21336726166E+02  0.15766456038E+02 -0.15773004963E+02  0.94225381016E+02  0.89026949417E+02 0.  0.
         13    1    3    3    0    0 -0.34322502171E+02  0.10509541703E+02 -0.13244803975E+02  0.38261215591E+02  0.10566000000E+00 0.  1.
         22    1    1    0    0    0 -0.21336726166E+02 -0.15766456038E+02  0.15773004963E+02  0.30864618984E+02  0.00000000000E+00 0. -1.
</event>
<event>
 5    1  0.1254921E-009  0.9118800E+02  0.7561462E-02  0.1125453E+00
         25   -1    0    0    0    0  0.00000000000E+00  0.00000000000E+00  0.99999998245E-14  0.12509000000E+03  0.12509000000E+03 0.  0.
        -13    1    3    3    0    0 -0.80174300263E+00  0.38010553954E+01  0.45962756294E+02  0.46126748684E+02  0.10566000000E+00 0. -1.
         23    2    1    0    0    0 -0.29990531046E+02  0.66818236881E+01  0.94862152364E+01  0.92933087839E+02  0.87192269241E+02 0.  0.
         13    1    3    3    0    0 -0.29188788044E+02  0.28807682927E+01 -0.36476541058E+02  0.46806339154E+02  0.10566000000E+00 0.  1.
         22    1    1    0    0    0  0.29990531046E+02 -0.66818236881E+01 -0.94862152364E+01  0.32156912161E+02  0.00000000000E+00 0.  1.
</event>
<event>
 5    1  0.1254921E-009  0.9118800E+02  0.7561462E-02  0.1125453E+00
         25   -1    0    0    0    0  0.00000000000E+00  0.00000000000E+00  0.99999998245E-14  0.12509000000E+03  0.12509000000E+03 0.  0.
        -13    1    3    3    0    0 -0.46760048268E+02  0.34865692562E+02  0.37298595369E+01  0.58446913075E+02  0.10566000000E+00 0. -1.
         23    2    1    0    0    0 -0.30454654074E+02  0.12130816498E+02  0.15535428942E+02  0.88813392991E+02  0.81066803060E+02 0.  0.
         13    1    3    3    0    0  0.16305394194E+02 -0.22734876064E+02  0.11805569405E+02  0.30366479915E+02  0.10566000000E+00 0.  1.
         22    1    1    0    0    0  0.30454654074E+02 -0.12130816498E+02 -0.15535428942E+02  0.36276607009E+02  0.00000000000E+00 0. -1.
</event>
<event>
 5    1  0.1254921E-009  0.9118800E+02  0.7561462E-02  0.1125453E+00
         25   -1    0    0    0    0  0.00000000000E+00  0.00000000000E+00  0.99999998245E-14  0.12509000000E+03  0.12509000000E+03 0.  0.
        -13    1    3    3    0    0 -0.57790225097E+02 -0.13473643123E+02 -0.13409325429E+02  0.60836422875E+02  0.10566000000E+00 0.  1.
         23    2    1    0    0    0 -0.27551504878E+02  0.38928306315E+01 -0.38048863028E+01  0.97005899317E+02  0.92851643987E+02 0.  0.
         13    1    3    3    0    0  0.30238720219E+02  0.17366473754E+02  0.96044391258E+01  0.36169476442E+02  0.10566000000E+00 0. -1.
         22    1    1    0    0    0  0.27551504878E+02 -0.38928306315E+01  0.38048863028E+01  0.28084100683E+02  0.00000000000E+00 0.  1.
</event>
<event>
 5    1  0.1254921E-009  0.9118800E+02  0.7561462E-02  0.1125453E+00
         25   -1    0    0    0    0  0.00000000000E+00  0.00000000000E+00  0.99999998245E-14  0.12509000000E+03  0.12509000000E+03 0.  0.
        -13    1    3    3    0    0 -0.59331338118E+02 -0.93475674367E+01 -0.78370588656E+01  0.60572397638E+02  0.10566000000E+00 0. -1.
         23    2    1    0    0    0 -0.28829790236E+02  0.64032100748E+01 -0.60298379219E+01  0.94948386744E+02  0.90037099551E+02 0.  0.
         13    1    3    3    0    0  0.30501547882E+02  0.15750777512E+02  0.18072209437E+01  0.34375989106E+02  0.10566000000E+00 0.  1.
         22    1    1    0    0    0  0.28829790236E+02 -0.64032100748E+01  0.60298379219E+01  0.30141613256E+02  0.00000000000E+00 0. -1.
</event>
<event>
 5    1  0.1254921E-009  0.9118800E+02  0.7561462E-02  0.1125453E+00
         25   -1    0    0    0    0  0.00000000000E+00  0.00000000000E+00  0.99999998245E-14  0.12509000000E+03  0.12509000000E+03 0.  0.
        -13    1    3    3    0    0 -0.31648974394E+02 -0.31261135485E+02 -0.28319914850E+02  0.52734665194E+02  0.10566000000E+00 0. -1.
         23    2    1    0    0    0 -0.26201836052E+02 -0.10456189280E+02  0.87168968632E+01  0.95562853208E+02  0.90886778552E+02 0.  0.
         13    1    3    3    0    0  0.54471383421E+01  0.20804946204E+02  0.37036811713E+02  0.42828188014E+02  0.10566000000E+00 0.  1.
         22    1    1    0    0    0  0.26201836052E+02  0.10456189280E+02 -0.87168968632E+01  0.29527146792E+02  0.00000000000E+00 0. -1.
</event>
<event>
 5    1  0.1254921E-009  0.9118800E+02  0.7561462E-02  0.1125453E+00
         25   -1    0    0    0    0  0.00000000000E+00  0.00000000000E+00  0.99999998245E-14  0.12509000000E+03  0.12509000000E+03 0.  0.
        -13    1    3    3    0    0  0.37916907773E+02  0.28488152535E+02  0.14537927830E+02  0.49604730012E+02  0.10566000000E+00 0.  1.
         23    2    1    0    0    0 -0.56257159427E+01  0.22482388190E+02  0.20732780777E+02  0.93994105458E+02  0.88701393470E+02 0.  0.
         13    1    3    3    0    0 -0.43542623716E+02 -0.60057643450E+01  0.61948529474E+01  0.44389375446E+02  0.10566000000E+00 0. -1.
         22    1    1    0    0    0  0.56257159427E+01 -0.22482388190E+02 -0.20732780777E+02  0.31095894542E+02  0.00000000000E+00 0.  1.
</event>
<event>
 5    1  0.1254921E-009  0.9118800E+02  0.7561462E-02  0.1125453E+00
         25   -1    0    0    0    0  0.00000000000E+00  0.00000000000E+00  0.99999998245E-14  0.12509000000E+03  0.12509000000E+03 0.  0.
        -13    1    3    3    0    0  0.21916659820E+02 -0.19447809561E+02 -0.18450481944E+02  0.34626416540E+02  0.10566000000E+00 0. -1.
         23    2    1    0    0    0 -0.18366746977E+02  0.92720049317E+01  0.19317625295E+02  0.96868056109E+02  0.92665755149E+02 0.  0.
         13    1    3    3    0    0 -0.40283406797E+02  0.28719814493E+02  0.37768107239E+02  0.62241639568E+02  0.10566000000E+00 0.  1.
         22    1    1    0    0    0  0.18366746977E+02 -0.92720049317E+01 -0.19317625295E+02  0.28221943891E+02  0.00000000000E+00 0.  1.
</event>
<event>
 5    1  0.1254921E-009  0.9118800E+02  0.7561462E-02  0.1125453E+00
         25   -1    0    0    0    0  0.00000000000E+00  0.00000000000E+00  0.99999998245E-14  0.12509000000E+03  0.12509000000E+03 0.  0.
        -13    1    3    3    0    0 -0.21670992876E+02 -0.18718045566E+02 -0.35343294237E+02  0.45487984937E+02  0.10566000000E+00 0. -1.
         23    2    1    0    0    0 -0.15140330570E+02 -0.44212073559E+01  0.18034121967E+02  0.10113157269E+03  0.98252678104E+02 0.  0.
         13    1    3    3    0    0  0.65306623065E+01  0.14296838210E+02  0.53377416204E+02  0.55643587749E+02  0.10566000000E+00 0.  1.
         22    1    1    0    0    0  0.15140330570E+02  0.44212073559E+01 -0.18034121967E+02  0.23958427314E+02  0.00000000000E+00 0.  1.
</event>
<event>
 5    1  0.1254921E-009  0.9118800E+02  0.7561462E-02  0.1125453E+00
         25   -1    0    0    0    0  0.00000000000E+00  0.00000000000E+00  0.99999998245E-14  0.12509000000E+03  0.12509000000E+03 0.  0.
        -13    1    3    3    0    0 -0.15280113985E+02  0.52209361353E+02  0.10469270299E+02  0.55397798520E+02  0.10566000000E+00 0.  1.
         23    2    1    0    0    0  0.75809883125E+01  0.23616391028E+02 -0.11130563094E+02  0.97903703015E+02  0.94053390796E+02 0.  0.
         13    1    3    3    0    0  0.22861102298E+02 -0.28592970325E+02 -0.21599833393E+02  0.42505904494E+02  0.10566000000E+00 0. -1.
         22    1    1    0    0    0 -0.75809883125E+01 -0.23616391028E+02  0.11130563094E+02  0.27186296985E+02  0.00000000000E+00 0. -1.
</event>
<event>
 5    1  0.1254921E-009  0.9118800E+02  0.7561462E-02  0.1125453E+00
         25   -1    0    0    0    0  0.00000000000E+00  0.00000000000E+00  0.99999998245E-14  0.12509000000E+03  0.12509000000E+03 0.  0.
        -13    1    3    3    0    0 -0.17250579567E+02 -0.31334555801E+02 -0.12904866633E+02  0.38026091430E+02  0.10566000000E+00 0.  1.
         23    2    1    0    0    0  0.21889629738E+02  0.10181864629E+02 -0.17506142289E+02  0.95269012839E+02  0.90481454079E+02 0.  0.
         13    1    3    3    0    0  0.39140209305E+02  0.41516420430E+02 -0.46012756558E+01  0.57242921409E+02  0.10566000000E+00 0. -1.
         22    1    1    0    0    0 -0.21889629738E+02 -0.10181864629E+02  0.17506142289E+02  0.29820987161E+02  0.00000000000E+00 0. -1.
</event>
<event>
 5    1  0.1254921E-009  0.9118800E+02  0.7561462E-02  0.1125453E+00
         25   -1    0    0    0    0  0.00000000000E+00  0.00000000000E+00  0.99999998245E-14  0.12509000000E+03  0.12509000000E+03 0.  0.
        -13    1    3    3    0    0 -0.24655913026E+02 -0.23814741495E+02 -0.48074728005E+02  0.59044445941E+02  0.10566000000E+00 0.  1.
         23    2    1    0    0    0 -0.55870075044E+01 -0.22971644051E+02 -0.15433832277E+02  0.96856787961E+02  0.92650542967E+02 0.  0.
         13    1    3    3    0    0  0.19068905522E+02  0.84309744384E+00  0.32640895729E+02  0.37812342021E+02  0.10566000000E+00 0. -1.
         22    1    1    0    0    0  0.55870075044E+01  0.22971644051E+02  0.15433832277E+02  0.28233212039E+02  0.00000000000E+00 0.  1.
</event>
<event>
 5    1  0.1254921E-009  0.9118800E+02  0.7561462E-02  0.1125453E+00
         25   -1    0    0    0    0  0.00000000000E+00  0.00000000000E+00  0.99999998245E-14  0.12509000000E+03  0.12509000000E+03 0.  0.
        -13    1    3    3    0    0  0.54314131876E+02 -0.10669964228E+01  0.19392621018E+02  0.57682305058E+02  0.10566000000E+00 0.  1.
         23    2    1    0    0    0  0.25476905507E+02 -0.13098999528E+02 -0.32336375419E+01  0.96260970974E+02  0.91842591526E+02 0.  0.
         13    1    3    3    0    0 -0.28837226369E+02 -0.12032003105E+02 -0.22626258560E+02  0.38578665916E+02  0.10566000000E+00 0. -1.
         22    1    1    0    0    0 -0.25476905507E+02  0.13098999528E+02  0.32336375419E+01  0.28829029026E+02  0.00000000000E+00 0.  1.
</event>
<event>
 5    1  0.1254921E-009  0.9118800E+02  0.7561462E-02  0.1125453E+00
         25   -1    0    0    0    0  0.00000000000E+00  0.00000000000E+00  0.99999998245E-14  0.12509000000E+03  0.12509000000E+03 0.  0.
        -13    1    3    3    0    0  0.37389784716E+02  0.13274377541E+02  0.40621175842E+02  0.56782886428E+02  0.10566000000E+00 0. -1.
         23    2    1    0    0    0  0.59128587303E+01 -0.59423240221E+01  0.28157004745E+02  0.95711606079E+02  0.91091281190E+02 0.  0.
         13    1    3    3    0    0 -0.31476925986E+02 -0.19216701564E+02 -0.12464171097E+02  0.38928719651E+02  0.10566000000E+00 0.  1.
         22    1    1    0    0    0 -0.59128587303E+01  0.59423240221E+01 -0.28157004745E+02  0.29378393921E+02  0.00000000000E+00 0. -1.
</event>
<event>
 5    1  0.1254921E-009  0.9118800E+02  0.7561462E-02  0.1125453E+00
         25   -1    0    0    0    0  0.00000000000E+00  0.00000000000E+00  0.99999998245E-14  0.12509000000E+03  0.12509000000E+03 0.  0.
        -13    1    3    3    0    0  0.26413117702E+02 -0.32891438732E+02 -0.13000242026E+01  0.42204274138E+02  0.10566000000E+00 0.  1.
         23    2    1    0    0    0 -0.21937274746E+02 -0.12730426672E+02 -0.14016646284E+02  0.96111142887E+02  0.91638297821E+02 0.  0.
         13    1    3    3    0    0 -0.48350392448E+02  0.20161012061E+02 -0.12716622081E+02  0.53906868749E+02  0.10566000000E+00 0. -1.
         22    1    1    0    0    0  0.21937274746E+02  0.12730426672E+02  0.14016646284E+02  0.28978857113E+02  0.00000000000E+00 0. -1.
</event>
<event>
 5    1  0.1254921E-009  0.9118800E+02  0.7561462E-02  0.1125453E+00
         25   -1    0    0    0    0  0.00000000000E+00  0.00000000000E+00  0.99999998245E-14  0.12509000000E+03  0.12509000000E+03 0.  0.
        -13    1    3    3    0    0 -0.97702828306E+01  0.22435032900E+02  0.40505523738E+02  0.47323331932E+02  0.10566000000E+00 0. -1.
         23    2    1    0    0    0 -0.27376578111E+02 -0.67311849539E+01  0.51322967742E+01  0.96434697696E+02  0.92078904042E+02 0.  0.
         13    1    3    3    0    0 -0.17606295280E+02 -0.29166217853E+02 -0.35373226964E+02  0.49111365764E+02  0.10566000000E+00 0.  1.
         22    1    1    0    0    0  0.27376578111E+02  0.67311849539E+01 -0.51322967742E+01  0.28655302304E+02  0.00000000000E+00 0. -1.
</event>
<event>
 5    1  0.1254921E-009  0.9118800E+02  0.7561462E-02  0.1125453E+00
         25   -1    0    0    0    0  0.00000000000E+00  0.00000000000E+00  0.99999998245E-14  0.12509000000E+03  0.12509000000E+03 0.  0.
        -13    1    3    3    0    0  0.40266816247E+02  0.34276647745E+02 -0.26110520259E+02  0.58975210924E+02  0.10566000000E+00 0.  1.
         23    2    1    0    0    0  0.99039427660E+01  0.27973947922E+02 -0.11365499314E+02  0.93312580040E+02  0.87735016809E+02 0.  0.
         13    1    3    3    0    0 -0.30362873481E+02 -0.63026998229E+01  0.14745020946E+02  0.34337369116E+02  0.10566000000E+00 0. -1.
         22    1    1    0    0    0 -0.99039427660E+01 -0.27973947922E+02  0.11365499314E+02  0.31777419960E+02  0.00000000000E+00 0.  1.
</event>
<event>
 5    1  0.1254921E-009  0.9118800E+02  0.7561462E-02  0.1125453E+00
         25   -1    0    0    0    0  0.00000000000E+00  0.00000000000E+00  0.99999998245E-14  0.12509000000E+03  0.12509000000E+03 0.  0.
        -13    1    3    3    0    0  0.15043519705E+02  0.18030368703E+02 -0.27891122498E+02  0.36459944581E+02  0.10566000000E+00 0. -1.
         23    2    1    0    0    0 -0.26846479291E+02  0.67897407252E+01  0.11552291049E+02  0.95085176090E+02  0.90226943061E+02 0.  0.
         13    1    3    3    0    0 -0.41889998995E+02 -0.11240627977E+02  0.39443413546E+02  0.58625231508E+02  0.10566000000E+00 0.  1.
         22    1    1    0    0    0  0.26846479291E+02 -0.67897407252E+01 -0.11552291049E+02  0.30004823910E+02  0.00000000000E+00 0.  1.
</event>
<event>
 5    1  0.1254921E-009  0.9118800E+02  0.7561462E-02  0.1125453E+00
         25   -1    0    0    0    0  0.00000000000E+00  0.00000000000E+00  0.99999998245E-14  0.12509000000E+03  0.12509000000E+03 0.  0.
        -13    1    3    3    0    0 -0.98026114845E+01  0.15570253058E+02 -0.54071325772E+02  0.57116052096E+02  0.10566000000E+00 0. -1.
         23    2    1    0    0    0 -0.17171380992E+02 -0.61602798367E+01 -0.24321620191E+02  0.94686931380E+02  0.89673119677E+02 0.  0.
         13    1    3    3    0    0 -0.73687695073E+01 -0.21730532895E+02  0.29749705582E+02  0.37570879284E+02  0.10566000000E+00 0.  1.
         22    1    1    0    0    0  0.17171380992E+02  0.61602798367E+01  0.24321620191E+02  0.30403068620E+02  0.00000000000E+00 0. -1.
</event>
<event>
 5    1  0.1254921E-009  0.9118800E+02  0.7561462E-02  0.1125453E+00
         25   -1    0    0    0    0  0.00000000000E+00  0.00000000000E+00  0.99999998245E-14  0.12509000000E+03  0.12509000000E+03 0.  0.
        -13    1    3    3    0    0 -0.37827131394E+02  0.13401002724E+02  0.19148669437E+01  0.40176568084E+02  0.10566000000E+00 0.  1.
         23    2    1    0    0    0  0.24871585743E+01 -0.15014957737E+02 -0.24591074142E+02  0.96170182554E+02  0.91718853958E+02 0.  0.
         13    1    3    3    0    0  0.40314289969E+02 -0.28415960461E+02 -0.26505941086E+02  0.55993614471E+02  0.10566000000E+00 0. -1.
         22    1    1    0    0    0 -0.24871585743E+01  0.15014957737E+02  0.24591074142E+02  0.28919817446E+02  0.00000000000E+00 0. -1.
</event>
<event>
 5    1  0.1254921E-009  0.9118800E+02  0.7561462E-02  0.1125453E+00
         25   -1    0    0    0    0  0.00000000000E+00  0.00000000000E+00  0.99999998245E-14  0.12509000000E+03  0.12509000000E+03 0.  0.
        -13    1    3    3    0    0  0.11443895565E+02 -0.35458451393E+02  0.38143900569E+02  0.53321973291E+02  0.10566000000E+00 0.  1.
         23    2    1    0    0    0  0.24397133265E+02 -0.16228835680E+01  0.13259309210E+02  0.97275199203E+02  0.93213739527E+02 0.  0.
         13    1    3    3    0    0  0.12953237700E+02  0.33835567825E+02 -0.24884591359E+02  0.43953225913E+02  0.10566000000E+00 0. -1.
         22    1    1    0    0    0 -0.24397133265E+02  0.16228835680E+01 -0.13259309210E+02  0.27814800797E+02  0.00000000000E+00 0.  1.
</event>
<event>
 5    1  0.1254921E-009  0.9118800E+02  0.7561462E-02  0.1125453E+00
         25   -1    0    0    0    0  0.00000000000E+00  0.00000000000E+00  0.99999998245E-14  0.12509000000E+03  0.12509000000E+03 0.  0.
        -13    1    3    3    0    0 -0.43415434656E+02 -0.23285516402E+01 -0.14911040526E+02  0.45963816342E+02  0.10566000000E+00 0.  1.
         23    2    1    0    0    0  0.67613993746E-02  0.61941255739E+01 -0.31323266613E+02  0.93160166479E+02  0.87517440261E+02 0.  0.
         13    1    3    3    0    0  0.43422196055E+02  0.85226772141E+01 -0.16412226087E+02  0.47196350137E+02  0.10566000000E+00 0. -1.
         22    1    1    0    0    0 -0.67613993746E-02 -0.61941255739E+01  0.31323266613E+02  0.31929833521E+02  0.00000000000E+00 0. -1.
</event>
<event>
 5    1  0.1254921E-009  0.9118800E+02  0.7561462E-02  0.1125453E+00
         25   -1    0    0    0    0  0.00000000000E+00  0.00000000000E+00  0.99999998245E-14  0.12509000000E+03  0.12509000000E+03 0.  0.
        -13    1    3    3    0    0  0.11170505596E+02  0.14805970313E+01 -0.53598720996E+02  0.54770488580E+02  0.10566000000E+00 0.  1.
         23    2    1    0    0    0  0.52039787928E+01 -0.20875537043E+02 -0.19039530586E+02  0.96360691498E+02  0.91978311024E+02 0.  0.
         13    1    3    3    0    0 -0.59665268036E+01 -0.22356134074E+02  0.34559190411E+02  0.41590202917E+02  0.10566000000E+00 0. -1.
         22    1    1    0    0    0 -0.52039787928E+01  0.20875537043E+02  0.19039530586E+02  0.28729308502E+02  0.00000000000E+00 0.  1.
</event>
<event>
 5    1  0.1254921E-009  0.9118800E+02  0.7561462E-02  0.1125453E+00
         25   -1    0    0    0    0  0.00000000000E+00  0.00000000000E+00  0.99999998245E-14  0.12509000000E+03  0.12509000000E+03 0.  0.
        -13    1    3    3    0    0 -0.23881070813E+01 -0.16865478346E+02 -0.53204961943E+02  0.55865253554E+02  0.10566000000E+00 0.  1.
         23    2    1    0    0    0 -0.19254162831E+02  0.15231191343E+01 -0.22186698110E+02  0.95674149659E+02  0.91039830084E+02 0.  0.
         13    1    3    3    0    0 -0.16866055750E+02  0.18388597480E+02  0.31018263833E+02  0.39808896105E+02  0.10566000000E+00 0. -1.
         22    1    1    0    0    0  0.19254162831E+02 -0.15231191343E+01  0.22186698110E+02  0.29415850341E+02  0.00000000000E+00 0.  1.
</event>
<event>
 5    1  0.1254921E-009  0.9118800E+02  0.7561462E-02  0.1125453E+00
         25   -1    0    0    0    0  0.00000000000E+00  0.00000000000E+00  0.99999998245E-14  0.12509000000E+03  0.12509000000E+03 0.  0.
        -13    1    3    3    0    0  0.17729946620E+02 -0.11117831316E+02  0.34567350748E+02  0.40408787189E+02  0.10566000000E+00 0.  1.
         23    2    1    0    0    0  0.27668058042E+02  0.10326794550E+02 -0.12456099102E+02  0.93038189968E+02  0.87342923390E+02 0.  0.
         13    1    3    3    0    0  0.99381114223E+01  0.21444625866E+02 -0.47023449849E+02  0.52629402780E+02  0.10566000000E+00 0. -1.
         22    1    1    0    0    0 -0.27668058042E+02 -0.10326794550E+02  0.12456099102E+02  0.32051810032E+02  0.00000000000E+00 0. -1.
</event>
<event>
 5    1  0.1254921E-009  0.9118800E+02  0.7561462E-02  0.1125453E+00
         25   -1    0    0    0    0  0.00000000000E+00  0.00000000000E+00  0.99999998245E-14  0.12509000000E+03  0.12509000000E+03 0.  0.
        -13    1    3    3    0    0 -0.16145915923E+02  0.17277907033E+01 -0.28804852598E+02  0.33066698640E+02  0.10566000000E+00 0.  1.
         23    2    1    0    0    0  0.16939542042E+02  0.92279180020E+01  0.23050119108E+02  0.95033211313E+02  0.90154870675E+02 0.  0.
         13    1    3    3    0    0  0.33085457965E+02  0.75001272987E+01  0.51854971706E+02  0.61966512674E+02  0.10566000000E+00 0. -1.
         22    1    1    0    0    0 -0.16939542042E+02 -0.92279180020E+01 -0.23050119108E+02  0.30056788687E+02  0.00000000000E+00 0. -1.
</event>
<event>
 5    1  0.1254921E-009  0.9118800E+02  0.7561462E-02  0.1125453E+00
         25   -1    0    0    0    0  0.00000000000E+00  0.00000000000E+00  0.99999998245E-14  0.12509000000E+03  0.12509000000E+03 0.  0.
        -13    1    3    3    0    0 -0.10754060593E+02  0.20142339993E+02  0.24563590895E+02  0.33537215766E+02  0.10566000000E+00 0. -1.
         23    2    1    0    0    0  0.24376779314E+02 -0.10469460575E+02 -0.14954906243E+02  0.94635341979E+02  0.89601125865E+02 0.  0.
         13    1    3    3    0    0  0.35130839907E+02 -0.30611800567E+02 -0.39518497138E+02  0.61098126213E+02  0.10566000000E+00 0.  1.
         22    1    1    0    0    0 -0.24376779314E+02  0.10469460575E+02  0.14954906243E+02  0.30454658021E+02  0.00000000000E+00 0.  1.
</event>
<event>
 5    1  0.1254921E-009  0.9118800E+02  0.7561462E-02  0.1125453E+00
         25   -1    0    0    0    0  0.00000000000E+00  0.00000000000E+00  0.99999998245E-14  0.12509000000E+03  0.12509000000E+03 0.  0.
        -13    1    3    3    0    0 -0.34974303095E+02 -0.27578681073E+02  0.22852647359E+02  0.50060365381E+02  0.10566000000E+00 0. -1.
         23    2    1    0    0    0 -0.22504093695E+02  0.14928675122E+02  0.62312893113E+01  0.97374868025E+02  0.93347396228E+02 0.  0.
         13    1    3    3    0    0  0.12470209401E+02  0.42507356194E+02 -0.16621358048E+02  0.47314502645E+02  0.10566000000E+00 0.  1.
         22    1    1    0    0    0  0.22504093695E+02 -0.14928675122E+02 -0.62312893113E+01  0.27715131975E+02  0.00000000000E+00 0. -1.
</event>
<event>
 5    1  0.1254921E-009  0.9118800E+02  0.7561462E-02  0.1125453E+00
         25   -1    0    0    0    0  0.00000000000E+00  0.00000000000E+00  0.99999998245E-14  0.12509000000E+03  0.12509000000E+03 0.  0.
        -13    1    3    3    0    0 -0.28193868285E+02 -0.12781648200E+02 -0.47566744323E+02  0.56752718606E+02  0.10566000000E+00 0.  1.
         23    2    1    0    0    0  0.21898157498E+01 -0.17757332031E+02 -0.21701257188E+02  0.96964163169E+02  0.92795399895E+02 0.  0.
         13    1    3    3    0    0  0.30383684035E+02 -0.49756838312E+01  0.25865487135E+02  0.40211444564E+02  0.10566000000E+00 0. -1.
         22    1    1    0    0    0 -0.21898157498E+01  0.17757332031E+02  0.21701257188E+02  0.28125836831E+02  0.00000000000E+00 0.  1.
</event>
<event>
 5    1  0.1254921E-009  0.9118800E+02  0.7561462E-02  0.1125453E+00
         25   -1    0    0    0    0  0.00000000000E+00  0.00000000000E+00  0.99999998245E-14  0.12509000000E+03  0.12509000000E+03 0.  0.
        -13    1    3    3    0    0 -0.19225751783E+02  0.35480254629E+02  0.21505379514E+02  0.45727131030E+02  0.10566000000E+00 0.  1.
         23    2    1    0    0    0 -0.12983835554E+02  0.90996987145E+01 -0.22591226517E+02  0.97490217067E+02  0.93501841725E+02 0.  0.
         13    1    3    3    0    0  0.62419162284E+01 -0.26380555915E+02 -0.44096606031E+02  0.51763086037E+02  0.10566000000E+00 0. -1.
         22    1    1    0    0    0  0.12983835554E+02 -0.90996987145E+01  0.22591226517E+02  0.27599782933E+02  0.00000000000E+00 0. -1.
</event>
<event>
 5    1  0.1254921E-009  0.9118800E+02  0.7561462E-02  0.1125453E+00
         25   -1    0    0    0    0  0.00000000000E+00  0.00000000000E+00  0.99999998245E-14  0.12509000000E+03  0.12509000000E+03 0.  0.
        -13    1    3    3    0    0 -0.57865299934E+01  0.25016692418E+02 -0.56950711868E+02  0.62471702196E+02  0.10566000000E+00 0. -1.
         23    2    1    0    0    0 -0.89868284985E+00  0.12833967229E+02 -0.26464454202E+02  0.95664064468E+02  0.91025971836E+02 0.  0.
         13    1    3    3    0    0  0.48878471435E+01 -0.12182725189E+02  0.30486257666E+02  0.33192362272E+02  0.10566000000E+00 0.  1.
         22    1    1    0    0    0  0.89868284985E+00 -0.12833967229E+02  0.26464454202E+02  0.29425935532E+02  0.00000000000E+00 0. -1.
</event>
<event>
 5    1  0.1254921E-009  0.9118800E+02  0.7561462E-02  0.1125453E+00
         25   -1    0    0    0    0  0.00000000000E+00  0.00000000000E+00  0.99999998245E-14  0.12509000000E+03  0.12509000000E+03 0.  0.
        -13    1    3    3    0    0  0.32574262035E+02  0.10147849875E+02  0.19414613160E+02  0.39255569954E+02  0.10566000000E+00 0. -1.
         23    2    1    0    0    0  0.81175667682E+01 -0.10802725486E+02 -0.26503422240E+02  0.95340627593E+02  0.90580406884E+02 0.  0.
         13    1    3    3    0    0 -0.24456695267E+02 -0.20950575361E+02 -0.45918035401E+02  0.56085057639E+02  0.10566000000E+00 0.  1.
         22    1    1    0    0    0 -0.81175667682E+01  0.10802725486E+02  0.26503422240E+02  0.29749372407E+02  0.00000000000E+00 0.  1.
</event>
<event>
 5    1  0.1254921E-009  0.9118800E+02  0.7561462E-02  0.1125453E+00
         25   -1    0    0    0    0  0.00000000000E+00  0.00000000000E+00  0.99999998245E-14  0.12509000000E+03  0.12509000000E+03 0.  0.
        -13    1    3    3    0    0  0.16904984814E+02  0.19140749031E+02 -0.48326182739E+02  0.54658740263E+02  0.10566000000E+00 0.  1.
         23    2    1    0    0    0 -0.24974574760E+01  0.22213677367E+02 -0.45353467602E+02  0.74526952430E+02  0.54750752132E+02 0.  0.
         13    1    3    3    0    0 -0.19402442290E+02  0.30729283364E+01  0.29727151368E+01  0.19868212167E+02  0.10566000000E+00 0. -1.
         22    1    1    0    0    0  0.24974574760E+01 -0.22213677367E+02  0.45353467602E+02  0.50563047570E+02  0.00000000000E+00 0.  1.
</event>
<event>
 5    1  0.1254921E-009  0.9118800E+02  0.7561462E-02  0.1125453E+00
         25   -1    0    0    0    0  0.00000000000E+00  0.00000000000E+00  0.99999998245E-14  0.12509000000E+03  0.12509000000E+03 0.  0.
        -13    1    3    3    0    0  0.20998234264E+02  0.34202634498E+01  0.55371026358E+02  0.59317668264E+02  0.10566000000E+00 0. -1.
         23    2    1    0    0    0  0.21397866483E+02 -0.33116459905E+01  0.19079387492E+02  0.96230708320E+02  0.91801364410E+02 0.  0.
         13    1    3    3    0    0  0.39963221870E+00 -0.67319094403E+01 -0.36291638865E+02  0.36913040056E+02  0.10566000000E+00 0.  1.
         22    1    1    0    0    0 -0.21397866483E+02  0.33116459905E+01 -0.19079387492E+02  0.28859291680E+02  0.00000000000E+00 0. -1.
</event>
<event>
 5    1  0.1254921E-009  0.9118800E+02  0.7561462E-02  0.1125453E+00
         25   -1    0    0    0    0  0.00000000000E+00  0.00000000000E+00  0.99999998245E-14  0.12509000000E+03  0.12509000000E+03 0.  0.
        -13    1    3    3    0    0 -0.42812472355E+02 -0.34714350300E+02 -0.28147505325E+02  0.61889313504E+02  0.10566000000E+00 0.  1.
         23    2    1    0    0    0 -0.23038306456E+02 -0.17790895395E+02 -0.77205719989E+01  0.94975439480E+02  0.90074676514E+02 0.  0.
         13    1    3    3    0    0  0.19774165899E+02  0.16923454905E+02  0.20426933326E+02  0.33086125976E+02  0.10566000000E+00 0. -1.
         22    1    1    0    0    0  0.23038306456E+02  0.17790895395E+02  0.77205719989E+01  0.30114560520E+02  0.00000000000E+00 0.  1.
</event>
<event>
 5    1  0.1254921E-009  0.9118800E+02  0.7561462E-02  0.1125453E+00
         25   -1    0    0    0    0  0.00000000000E+00  0.00000000000E+00  0.99999998245E-14  0.12509000000E+03  0.12509000000E+03 0.  0.
        -13    1    3    3    0    0 -0.49702098422E+02  0.35894652108E+02 -0.11657999321E+01  0.61319612613E+02  0.10566000000E+00 0.  1.
         23    2    1    0    0    0 -0.26474346542E+02  0.13888586606E+02  0.70901425666E+01  0.94364538501E+02  0.89222262592E+02 0.  0.
         13    1    3    3    0    0  0.23227751880E+02 -0.22006065503E+02  0.82559424988E+01  0.33044925887E+02  0.10566000000E+00 0. -1.
         22    1    1    0    0    0  0.26474346542E+02 -0.13888586606E+02 -0.70901425666E+01  0.30725461499E+02  0.00000000000E+00 0.  1.
</event>
<event>
 5    1  0.1254921E-009  0.9118800E+02  0.7561462E-02  0.1125453E+00
         25   -1    0    0    0    0  0.00000000000E+00  0.00000000000E+00  0.99999998245E-14  0.12509000000E+03  0.12509000000E+03 0.  0.
        -13    1    3    3    0    0 -0.30683433481E+02 -0.16412850675E+01 -0.60591005028E+01  0.31319175752E+02  0.10566000000E+00 0.  1.
         23    2    1    0    0    0  0.29228892312E+02 -0.13399809061E+02 -0.60345827076E+01  0.92374572185E+02  0.86387281293E+02 0.  0.
         13    1    3    3    0    0  0.59912325793E+02 -0.11758523993E+02  0.24517795250E-01  0.61055396433E+02  0.10566000000E+00 0. -1.
         22    1    1    0    0    0 -0.29228892312E+02  0.13399809061E+02  0.60345827076E+01  0.32715427815E+02  0.00000000000E+00 0. -1.
</event>
<event>
 5    1  0.1254921E-009  0.9118800E+02  0.7561462E-02  0.1125453E+00
         25   -1    0    0    0    0  0.00000000000E+00  0.00000000000E+00  0.99999998245E-14  0.12509000000E+03  0.12509000000E+03 0.  0.
        -13    1    3    3    0    0  0.45856205572E+02  0.56345667193E+00 -0.34120168800E+01  0.45986542555E+02  0.10566000000E+00 0.  1.
         23    2    1    0    0    0  0.51913511371E+01 -0.24889934723E+02 -0.15305697479E+02  0.95413016452E+02  0.90680319563E+02 0.  0.
         13    1    3    3    0    0 -0.40664854435E+02 -0.25453391395E+02 -0.11893680599E+02  0.49426473898E+02  0.10566000000E+00 0. -1.
         22    1    1    0    0    0 -0.51913511371E+01  0.24889934723E+02  0.15305697479E+02  0.29676983548E+02  0.00000000000E+00 0. -1.
</event>
<event>
 5    1  0.1254921E-009  0.9118800E+02  0.7561462E-02  0.1125453E+00
         25   -1    0    0    0    0  0.00000000000E+00  0.00000000000E+00  0.99999998245E-14  0.12509000000E+03  0.12509000000E+03 0.  0.
        -13    1    3    3    0    0  0.15078508769E+01  0.23453167080E+02 -0.55770573231E+02  0.60520183930E+02  0.10566000000E+00 0. -1.
         23    2    1    0    0    0  0.11957735986E+02  0.12071360021E+02 -0.26703204371E+02  0.93439307964E+02  0.87915516073E+02 0.  0.
         13    1    3    3    0    0  0.10449885109E+02 -0.11381807059E+02  0.29067368859E+02  0.32919124034E+02  0.10566000000E+00 0.  1.
         22    1    1    0    0    0 -0.11957735986E+02 -0.12071360021E+02  0.26703204371E+02  0.31650692036E+02  0.00000000000E+00 0. -1.
</event>
<event>
 5    1  0.1254921E-009  0.9118800E+02  0.7561462E-02  0.1125453E+00
         25   -1    0    0    0    0  0.00000000000E+00  0.00000000000E+00  0.99999998245E-14  0.12509000000E+03  0.12509000000E+03 0.  0.
        -13    1    3    3    0    0  0.30057299353E+02 -0.15254202297E+02  0.44633319233E+02  0.55930995717E+02  0.10566000000E+00 0. -1.
         23    2    1    0    0    0  0.34717607973E+02 -0.16458298029E+02  0.18604355990E+02  0.82401477665E+02  0.70481867045E+02 0.  0.
         13    1    3    3    0    0  0.46603086205E+01 -0.12040957316E+01 -0.26028963243E+02  0.26470481947E+02  0.10566000000E+00 0.  1.
         22    1    1    0    0    0 -0.34717607973E+02  0.16458298029E+02 -0.18604355990E+02  0.42688522335E+02  0.00000000000E+00 0. -1.
</event>
<event>
 5    1  0.1254921E-009  0.9118800E+02  0.7561462E-02  0.1125453E+00
         25   -1    0    0    0    0  0.00000000000E+00  0.00000000000E+00  0.99999998245E-14  0.12509000000E+03  0.12509000000E+03 0.  0.
        -13    1    3    3    0    0  0.45615435285E+02  0.74033514208E+01  0.28065778828E+02  0.54067334443E+02  0.10566000000E+00 0. -1.
         23    2    1    0    0    0  0.19027630856E+02  0.26388915478E+02  0.12792345867E+02  0.90131886365E+02  0.83076393945E+02 0.  0.
         13    1    3    3    0    0 -0.26587804429E+02  0.18985564057E+02 -0.15273432961E+02  0.36064551922E+02  0.10566000000E+00 0.  1.
         22    1    1    0    0    0 -0.19027630856E+02 -0.26388915478E+02 -0.12792345867E+02  0.34958113635E+02  0.00000000000E+00 0. -1.
</event>
<event>
 5    1  0.1254921E-009  0.9118800E+02  0.7561462E-02  0.1125453E+00
         25   -1    0    0    0    0  0.00000000000E+00  0.00000000000E+00  0.99999998245E-14  0.12509000000E+03  0.12509000000E+03 0.  0.
        -13    1    3    3    0    0 -0.41140953773E+02 -0.95542245273E+01 -0.33197908723E+02  0.53721258281E+02  0.10566000000E+00 0.  1.
         23    2    1    0    0    0 -0.38690408852E+00 -0.11728258212E+02 -0.27832888223E+02  0.94884513705E+02  0.89948315930E+02 0.  0.
         13    1    3    3    0    0  0.40754049684E+02 -0.21740336851E+01  0.53650204994E+01  0.41163255424E+02  0.10566000000E+00 0. -1.
         22    1    1    0    0    0  0.38690408852E+00  0.11728258212E+02  0.27832888223E+02  0.30205486295E+02  0.00000000000E+00 0. -1.
</event>
<event>
 5    1  0.1254921E-009  0.9118800E+02  0.7561462E-02  0.1125453E+00
         25   -1    0    0    0    0  0.00000000000E+00  0.00000000000E+00  0.99999998245E-14  0.12509000000E+03  0.12509000000E+03 0.  0.
        -13    1    3    3    0    0 -0.22019220410E+02 -0.56466784630E+02  0.87452844791E+01  0.61235896324E+02  0.10566000000E+00 0. -1.
         23    2    1    0    0    0 -0.18515921472E+02 -0.23541751241E+02  0.16819192807E+01  0.95091962532E+02  0.90236351247E+02 0.  0.
         13    1    3    3    0    0  0.35032989375E+01  0.32925033390E+02 -0.70633651983E+01  0.33856066209E+02  0.10566000000E+00 0.  1.
         22    1    1    0    0    0  0.18515921472E+02  0.23541751241E+02 -0.16819192807E+01  0.29998037468E+02  0.00000000000E+00 0. -1.
</event>
<event>
 5    1  0.1254921E-009  0.9118800E+02  0.7561462E-02  0.1125453E+00
         25   -1    0    0    0    0  0.00000000000E+00  0.00000000000E+00  0.99999998245E-14  0.12509000000E+03  0.12509000000E+03 0.  0.
        -13    1    3    3    0    0  0.95637007402E+01  0.55134562596E+02 -0.27997689624E+01  0.56027977251E+02  0.10566000000E+00 0.  1.
         23    2    1    0    0    0  0.77032529192E+01  0.22050527422E+02  0.18391405396E+02  0.95361063632E+02  0.90608624310E+02 0.  0.
         13    1    3    3    0    0 -0.18604478210E+01 -0.33084035174E+02  0.21191174359E+02  0.39333086381E+02  0.10566000000E+00 0. -1.
         22    1    1    0    0    0 -0.77032529192E+01 -0.22050527422E+02 -0.18391405396E+02  0.29728936368E+02  0.00000000000E+00 0. -1.
</event>
<event>
 5    1  0.1254921E-009  0.9118800E+02  0.7561462E-02  0.1125453E+00
         25   -1    0    0    0    0  0.00000000000E+00  0.00000000000E+00  0.99999998245E-14  0.12509000000E+03  0.12509000000E+03 0.  0.
        -13    1    3    3    0    0  0.31332428878E+02  0.17244027267E+02 -0.26049706232E+02  0.44245631814E+02  0.10566000000E+00 0.  1.
         23    2    1    0    0    0  0.11880163628E+02  0.64837680630E+00  0.22794071719E+02  0.99377583042E+02  0.95993622837E+02 0.  0.
         13    1    3    3    0    0 -0.19452265250E+02 -0.16595650461E+02  0.48843777951E+02  0.55131951228E+02  0.10566000000E+00 0. -1.
         22    1    1    0    0    0 -0.11880163628E+02 -0.64837680630E+00 -0.22794071719E+02  0.25712416958E+02  0.00000000000E+00 0. -1.
</event>
<event>
 5    1  0.1254921E-009  0.9118800E+02  0.7561462E-02  0.1125453E+00
         25   -1    0    0    0    0  0.00000000000E+00  0.00000000000E+00  0.99999998245E-14  0.12509000000E+03  0.12509000000E+03 0.  0.
        -13    1    3    3    0    0  0.45379932453E+02 -0.33532652014E+02 -0.24030696961E+02  0.61329133215E+02  0.10566000000E+00 0.  1.
         23    2    1    0    0    0  0.16005538130E+02 -0.22133553696E+02 -0.14005064347E+02  0.94394507213E+02  0.89264268968E+02 0.  0.
         13    1    3    3    0    0 -0.29374394322E+02  0.11399098317E+02  0.10025632614E+02  0.33065373997E+02  0.10566000000E+00 0. -1.
         22    1    1    0    0    0 -0.16005538130E+02  0.22133553696E+02  0.14005064347E+02  0.30695492787E+02  0.00000000000E+00 0.  1.
</event>
<event>
 5    1  0.1254921E-009  0.9118800E+02  0.7561462E-02  0.1125453E+00
         25   -1    0    0    0    0  0.00000000000E+00  0.00000000000E+00  0.99999998245E-14  0.12509000000E+03  0.12509000000E+03 0.  0.
        -13    1    3    3    0    0 -0.58631866133E+02 -0.16849211933E+02  0.58799417998E+01  0.61287654129E+02  0.10566000000E+00 0.  1.
         23    2    1    0    0    0 -0.27630744770E+02  0.71383968991E+00  0.54332747389E+01  0.96921079217E+02  0.92737303706E+02 0.  0.
         13    1    3    3    0    0  0.31001121362E+02  0.17563051623E+02 -0.44666706086E+00  0.35633425089E+02  0.10566000000E+00 0. -1.
         22    1    1    0    0    0  0.27630744770E+02 -0.71383968991E+00 -0.54332747389E+01  0.28168920783E+02  0.00000000000E+00 0.  1.
</event>
<event>
 5    1  0.1254921E-009  0.9118800E+02  0.7561462E-02  0.1125453E+00
         25   -1    0    0    0    0  0.00000000000E+00  0.00000000000E+00  0.99999998245E-14  0.12509000000E+03  0.12509000000E+03 0.  0.
        -13    1    3    3    0    0 -0.31108588009E+02  0.39671394687E+02 -0.14914953318E+02  0.52574050641E+02  0.10566000000E+00 0.  1.
         23    2    1    0    0    0 -0.11008954600E+02  0.22567557998E+02  0.17581030336E+02  0.94437359281E+02  0.89324299297E+02 0.  0.
         13    1    3    3    0    0  0.20099633408E+02 -0.17103836688E+02  0.32495983654E+02  0.41863308640E+02  0.10566000000E+00 0. -1.
         22    1    1    0    0    0  0.11008954600E+02 -0.22567557998E+02 -0.17581030336E+02  0.30652640719E+02  0.00000000000E+00 0.  1.
</event>
<event>
 5    1  0.1254921E-009  0.9118800E+02  0.7561462E-02  0.1125453E+00
         25   -1    0    0    0    0  0.00000000000E+00  0.00000000000E+00  0.99999998245E-14  0.12509000000E+03  0.12509000000E+03 0.  0.
        -13    1    3    3    0    0  0.26923479372E+02  0.96417964905E+01  0.15426536537E+02  0.32493494343E+02  0.10566000000E+00 0.  1.
         23    2    1    0    0    0 -0.14953656967E+02 -0.85428325458E+01 -0.25841473261E+02  0.94035635011E+02  0.88759940666E+02 0.  0.
         13    1    3    3    0    0 -0.41877136339E+02 -0.18184629036E+02 -0.41268009798E+02  0.61542140667E+02  0.10566000000E+00 0. -1.
         22    1    1    0    0    0  0.14953656967E+02  0.85428325458E+01  0.25841473261E+02  0.31054364989E+02  0.00000000000E+00 0. -1.
</event>
<event>
 5    1  0.1254921E-009  0.9118800E+02  0.7561462E-02  0.1125453E+00
         25   -1    0    0    0    0  0.00000000000E+00  0.00000000000E+00  0.99999998245E-14  0.12509000000E+03  0.12509000000E+03 0.  0.
        -13    1    3    3    0    0 -0.16277107739E+01  0.55387134946E+02 -0.26669163854E+02  0.61495037398E+02  0.10566000000E+00 0. -1.
         23    2    1    0    0    0 -0.24740178470E+01  0.29246673227E+02 -0.53109497834E+01  0.95262247038E+02  0.90472099920E+02 0.  0.
         13    1    3    3    0    0 -0.84630707317E+00 -0.26140461719E+02  0.21358214070E+02  0.33767209639E+02  0.10566000000E+00 0.  1.
         22    1    1    0    0    0  0.24740178470E+01 -0.29246673227E+02  0.53109497834E+01  0.29827752962E+02  0.00000000000E+00 0. -1.
</event>
<event>
 5    1  0.1254921E-009  0.9118800E+02  0.7561462E-02  0.1125453E+00
         25   -1    0    0    0    0  0.00000000000E+00  0.00000000000E+00  0.99999998245E-14  0.12509000000E+03  0.12509000000E+03 0.  0.
        -13    1    3    3    0    0  0.23761989034E+02  0.26765812748E+02 -0.20759499709E+02  0.41376428642E+02  0.10566000000E+00 0.  1.
         23    2    1    0    0    0 -0.15172100288E+02 -0.91679907027E+01 -0.24904769646E+02  0.94520534323E+02  0.89440702014E+02 0.  0.
         13    1    3    3    0    0 -0.38934089322E+02 -0.35933803451E+02 -0.41452699367E+01  0.53144105681E+02  0.10566000000E+00 0. -1.
         22    1    1    0    0    0  0.15172100288E+02  0.91679907027E+01  0.24904769646E+02  0.30569465677E+02  0.00000000000E+00 0.  1.
</event>
<event>
 5    1  0.1254921E-009  0.9118800E+02  0.7561462E-02  0.1125453E+00
         25   -1    0    0    0    0  0.00000000000E+00  0.00000000000E+00  0.99999998245E-14  0.12509000000E+03  0.12509000000E+03 0.  0.
        -13    1    3    3    0    0  0.69261292241E+01  0.25855203626E+01 -0.44029729331E+02  0.44646213844E+02  0.10566000000E+00 0.  1.
         23    2    1    0    0    0  0.26389749610E+02  0.10719709317E+02  0.32526290853E+01  0.96421015918E+02  0.92060315351E+02 0.  0.
         13    1    3    3    0    0  0.19463620385E+02  0.81341889546E+01  0.47282358416E+02  0.51774802075E+02  0.10566000000E+00 0. -1.
         22    1    1    0    0    0 -0.26389749610E+02 -0.10719709317E+02 -0.32526290853E+01  0.28668984082E+02  0.00000000000E+00 0. -1.
</event>
<event>
 5    1  0.1254921E-009  0.9118800E+02  0.7561462E-02  0.1125453E+00
         25   -1    0    0    0    0  0.00000000000E+00  0.00000000000E+00  0.99999998245E-14  0.12509000000E+03  0.12509000000E+03 0.  0.
        -13    1    3    3    0    0 -0.19730329336E+02  0.24062692448E+02 -0.34217364121E+02  0.46250818750E+02  0.10566000000E+00 0.  1.
         23    2    1    0    0    0 -0.17787973632E+01  0.23630361366E+02  0.13905018401E+02  0.97614417475E+02  0.93667853951E+02 0.  0.
         13    1    3    3    0    0  0.17951531973E+02 -0.43233108176E+00  0.48122382522E+02  0.51363598725E+02  0.10566000000E+00 0. -1.
         22    1    1    0    0    0  0.17787973632E+01 -0.23630361366E+02 -0.13905018401E+02  0.27475582525E+02  0.00000000000E+00 0. -1.
</event>
<event>
 5    1  0.1254921E-009  0.9118800E+02  0.7561462E-02  0.1125453E+00
         25   -1    0    0    0    0  0.00000000000E+00  0.00000000000E+00  0.99999998245E-14  0.12509000000E+03  0.12509000000E+03 0.  0.
        -13    1    3    3    0    0 -0.12532940994E+02 -0.43129133227E+02  0.27256338077E+02  0.52536804930E+02  0.10566000000E+00 0.  1.
         23    2    1    0    0    0 -0.31645235335E+01 -0.24452574787E+02 -0.12497286684E+02  0.97447192665E+02  0.93444264462E+02 0.  0.
         13    1    3    3    0    0  0.93684174601E+01  0.18676558440E+02 -0.39753624761E+02  0.44910387735E+02  0.10566000000E+00 0. -1.
         22    1    1    0    0    0  0.31645235335E+01  0.24452574787E+02  0.12497286684E+02  0.27642807335E+02  0.00000000000E+00 0.  1.
</event>
<event>
 5    1  0.1254921E-009  0.9118800E+02  0.7561462E-02  0.1125453E+00
         25   -1    0    0    0    0  0.00000000000E+00  0.00000000000E+00  0.99999998245E-14  0.12509000000E+03  0.12509000000E+03 0.  0.
        -13    1    3    3    0    0 -0.36364899646E+02 -0.87715925547E+01  0.31410560755E+02  0.48846507073E+02  0.10566000000E+00 0.  1.
         23    2    1    0    0    0  0.83625655676E+01 -0.86664470252E+01  0.29056977831E+02  0.93636100916E+02  0.88195077114E+02 0.  0.
         13    1    3    3    0    0  0.44727465214E+02  0.10514552953E+00 -0.23535829236E+01  0.44789593843E+02  0.10566000000E+00 0. -1.
         22    1    1    0    0    0 -0.83625655676E+01  0.86664470252E+01 -0.29056977831E+02  0.31453899084E+02  0.00000000000E+00 0. -1.
</event>
<event>
 5    1  0.1254921E-009  0.9118800E+02  0.7561462E-02  0.1125453E+00
         25   -1    0    0    0    0  0.00000000000E+00  0.00000000000E+00  0.99999998245E-14  0.12509000000E+03  0.12509000000E+03 0.  0.
        -13    1    3    3    0    0  0.33448974761E+02 -0.53240904979E+01 -0.14587494580E+02  0.36877988209E+02  0.10566000000E+00 0.  1.
         23    2    1    0    0    0 -0.16233784064E+02 -0.13985325123E+02  0.18154047413E+02  0.97006294737E+02  0.92852176696E+02 0.  0.
         13    1    3    3    0    0 -0.49682758825E+02 -0.86612346248E+01  0.32741541993E+02  0.60128306527E+02  0.10566000000E+00 0. -1.
         22    1    1    0    0    0  0.16233784064E+02  0.13985325123E+02 -0.18154047413E+02  0.28083705263E+02  0.00000000000E+00 0. -1.
</event>
<event>
 5    1  0.1254921E-009  0.9118800E+02  0.7561462E-02  0.1125453E+00
         25   -1    0    0    0    0  0.00000000000E+00  0.00000000000E+00  0.99999998245E-14  0.12509000000E+03  0.12509000000E+03 0.  0.
        -13    1    3    3    0    0  0.37389901940E+02  0.12923183197E+02  0.47730415578E+02  0.61993686504E+02  0.10566000000E+00 0. -1.
         23    2    1    0    0    0  0.20317492330E+02  0.88690230068E+01  0.17924891756E+02  0.96581022324E+02  0.92277473226E+02 0.  0.
         13    1    3    3    0    0 -0.17072409610E+02 -0.40541601906E+01 -0.29805523822E+02  0.34587335820E+02  0.10566000000E+00 0.  1.
         22    1    1    0    0    0 -0.20317492330E+02 -0.88690230068E+01 -0.17924891756E+02  0.28508977676E+02  0.00000000000E+00 0. -1.
</event>
<event>
 5    1  0.1254921E-009  0.9118800E+02  0.7561462E-02  0.1125453E+00
         25   -1    0    0    0    0  0.00000000000E+00  0.00000000000E+00  0.99999998245E-14  0.12509000000E+03  0.12509000000E+03 0.  0.
        -13    1    3    3    0    0  0.31707352054E+02  0.19415238611E+02  0.19914141933E+02  0.42176911665E+02  0.10566000000E+00 0. -1.
         23    2    1    0    0    0  0.13052626260E+01  0.14939442095E+02 -0.24606832100E+02  0.96273566727E+02  0.91859745393E+02 0.  0.
         13    1    3    3    0    0 -0.30402089428E+02 -0.44757965165E+01 -0.44520974033E+02  0.54096655062E+02  0.10566000000E+00 0.  1.
         22    1    1    0    0    0 -0.13052626260E+01 -0.14939442095E+02  0.24606832100E+02  0.28816433273E+02  0.00000000000E+00 0. -1.
</event>
<event>
 5    1  0.1254921E-009  0.9118800E+02  0.7561462E-02  0.1125453E+00
         25   -1    0    0    0    0  0.00000000000E+00  0.00000000000E+00  0.99999998245E-14  0.12509000000E+03  0.12509000000E+03 0.  0.
        -13    1    3    3    0    0  0.13053383541E+02  0.33707551816E+02 -0.19599789906E+02  0.41118764569E+02  0.10566000000E+00 0.  1.
         23    2    1    0    0    0 -0.26388273247E+02 -0.94817970046E+00 -0.16996749964E+02  0.93687300768E+02  0.88267665689E+02 0.  0.
         13    1    3    3    0    0 -0.39441656788E+02 -0.34655731517E+02  0.26030399419E+01  0.52568536199E+02  0.10566000000E+00 0. -1.
         22    1    1    0    0    0  0.26388273247E+02  0.94817970046E+00  0.16996749964E+02  0.31402699232E+02  0.00000000000E+00 0. -1.
</event>
<event>
 5    1  0.1254921E-009  0.9118800E+02  0.7561462E-02  0.1125453E+00
         25   -1    0    0    0    0  0.00000000000E+00  0.00000000000E+00  0.99999998245E-14  0.12509000000E+03  0.12509000000E+03 0.  0.
        -13    1    3    3    0    0 -0.28049729175E+02  0.35878902793E+02 -0.38546494392E+02  0.59665118507E+02  0.10566000000E+00 0.  1.
         23    2    1    0    0    0 -0.11687417545E+02  0.30301174699E+02 -0.13915209083E+02  0.89757437669E+02  0.82510651774E+02 0.  0.
         13    1    3    3    0    0  0.16362311630E+02 -0.55777280938E+01  0.24631285309E+02  0.30092319163E+02  0.10566000000E+00 0. -1.
         22    1    1    0    0    0  0.11687417545E+02 -0.30301174699E+02  0.13915209083E+02  0.35332562331E+02  0.00000000000E+00 0.  1.
</event>
<event>
 5    1  0.1254921E-009  0.9118800E+02  0.7561462E-02  0.1125453E+00
         25   -1    0    0    0    0  0.00000000000E+00  0.00000000000E+00  0.99999998245E-14  0.12509000000E+03  0.12509000000E+03 0.  0.
        -13    1    3    3    0    0 -0.31552887928E+02  0.10467785434E+02  0.36444473734E+01  0.33443271807E+02  0.10566000000E+00 0.  1.
         23    2    1    0    0    0  0.18932953702E+02 -0.19407256577E+02 -0.13830142913E+02  0.94653653361E+02  0.89626686304E+02 0.  0.
         13    1    3    3    0    0  0.50485841630E+02 -0.29875042011E+02 -0.17474590286E+02  0.61210381554E+02  0.10566000000E+00 0. -1.
         22    1    1    0    0    0 -0.18932953702E+02  0.19407256577E+02  0.13830142913E+02  0.30436346639E+02  0.00000000000E+00 0. -1.
</event>
<event>
 5    1  0.1254921E-009  0.9118800E+02  0.7561462E-02  0.1125453E+00
         25   -1    0    0    0    0  0.00000000000E+00  0.00000000000E+00  0.99999998245E-14  0.12509000000E+03  0.12509000000E+03 0.  0.
        -13    1    3    3    0    0 -0.84604269528E+01 -0.37420980435E+02 -0.97905772274E+01  0.39595140704E+02  0.10566000000E+00 0.  1.
         23    2    1    0    0    0  0.15132614139E+02  0.17257936901E+02 -0.12003142047E+02  0.99188111734E+02  0.95746403032E+02 0.  0.
         13    1    3    3    0    0  0.23593041091E+02  0.54678917336E+02 -0.22125648200E+01  0.59592971029E+02  0.10566000000E+00 0. -1.
         22    1    1    0    0    0 -0.15132614139E+02 -0.17257936901E+02  0.12003142047E+02  0.25901888266E+02  0.00000000000E+00 0. -1.
</event>
<event>
 5    1  0.1254921E-009  0.9118800E+02  0.7561462E-02  0.1125453E+00
         25   -1    0    0    0    0  0.00000000000E+00  0.00000000000E+00  0.99999998245E-14  0.12509000000E+03  0.12509000000E+03 0.  0.
        -13    1    3    3    0    0 -0.22239547161E+02  0.23240333394E+02  0.26422371596E+02  0.41627676359E+02  0.10566000000E+00 0.  1.
         23    2    1    0    0    0  0.14176564683E+02 -0.15767137792E+02  0.20968271267E+02  0.95269771626E+02  0.90482503090E+02 0.  0.
         13    1    3    3    0    0  0.36416111844E+02 -0.39007471186E+02 -0.54541003296E+01  0.53642095267E+02  0.10566000000E+00 0. -1.
         22    1    1    0    0    0 -0.14176564683E+02  0.15767137792E+02 -0.20968271267E+02  0.29820228374E+02  0.00000000000E+00 0. -1.
</event>
<event>
 5    1  0.1254921E-009  0.9118800E+02  0.7561462E-02  0.1125453E+00
         25   -1    0    0    0    0  0.00000000000E+00  0.00000000000E+00  0.99999998245E-14  0.12509000000E+03  0.12509000000E+03 0.  0.
        -13    1    3    3    0    0  0.42587352760E+02 -0.80562461710E+01 -0.25992213979E+02  0.50539015316E+02  0.10566000000E+00 0. -1.
         23    2    1    0    0    0  0.30335690949E+02  0.21785294147E+02 -0.10694731299E+02  0.86241184523E+02  0.76995528726E+02 0.  0.
         13    1    3    3    0    0 -0.12251661811E+02  0.29841540318E+02  0.15297482680E+02  0.35702169207E+02  0.10566000000E+00 0.  1.
         22    1    1    0    0    0 -0.30335690949E+02 -0.21785294147E+02  0.10694731299E+02  0.38848815477E+02  0.00000000000E+00 0. -1.
</event>
<event>
 5    1  0.1254921E-009  0.9118800E+02  0.7561462E-02  0.1125453E+00
         25   -1    0    0    0    0  0.00000000000E+00  0.00000000000E+00  0.99999998245E-14  0.12509000000E+03  0.12509000000E+03 0.  0.
        -13    1    3    3    0    0 -0.27179079794E+01 -0.28905394675E+02  0.18428412907E+02  0.34387882043E+02  0.10566000000E+00 0.  1.
         23    2    1    0    0    0  0.34103467818E+01  0.28655073600E+02 -0.29208674898E+01  0.96085255990E+02  0.91602954339E+02 0.  0.
         13    1    3    3    0    0  0.61282547612E+01  0.57560468275E+02 -0.21349280397E+02  0.61697373947E+02  0.10566000000E+00 0. -1.
         22    1    1    0    0    0 -0.34103467818E+01 -0.28655073600E+02  0.29208674898E+01  0.29004744010E+02  0.00000000000E+00 0. -1.
</event>
<event>
 5    1  0.1254921E-009  0.9118800E+02  0.7561462E-02  0.1125453E+00
         25   -1    0    0    0    0  0.00000000000E+00  0.00000000000E+00  0.99999998245E-14  0.12509000000E+03  0.12509000000E+03 0.  0.
        -13    1    3    3    0    0  0.26812690308E+02 -0.26716389776E+02 -0.47096035661E+02  0.60421300741E+02  0.10566000000E+00 0.  1.
         23    2    1    0    0    0  0.11785748221E+01 -0.12599827290E+02 -0.24927452672E+02  0.97134274592E+02  0.93024430756E+02 0.  0.
         13    1    3    3    0    0 -0.25634115486E+02  0.14116562486E+02  0.22168582989E+02  0.36712973851E+02  0.10566000000E+00 0. -1.
         22    1    1    0    0    0 -0.11785748221E+01  0.12599827290E+02  0.24927452672E+02  0.27955725408E+02  0.00000000000E+00 0.  1.
</event>
<event>
 5    1  0.1254921E-009  0.9118800E+02  0.7561462E-02  0.1125453E+00
         25   -1    0    0    0    0  0.00000000000E+00  0.00000000000E+00  0.99999998245E-14  0.12509000000E+03  0.12509000000E+03 0.  0.
        -13    1    3    3    0    0 -0.45090566646E+02 -0.19621608656E+02  0.15837758213E+02  0.51662486157E+02  0.10566000000E+00 0. -1.
         23    2    1    0    0    0 -0.46782940244E+01 -0.28337602236E+02 -0.11202131333E+01  0.96346983231E+02  0.91959665968E+02 0.  0.
         13    1    3    3    0    0  0.40412272622E+02 -0.87159935805E+01 -0.16957971347E+02  0.44684497074E+02  0.10566000000E+00 0.  1.
         22    1    1    0    0    0  0.46782940244E+01  0.28337602236E+02  0.11202131333E+01  0.28743016769E+02  0.00000000000E+00 0. -1.
</event>
<event>
 5    1  0.1254921E-009  0.9118800E+02  0.7561462E-02  0.1125453E+00
         25   -1    0    0    0    0  0.00000000000E+00  0.00000000000E+00  0.99999998245E-14  0.12509000000E+03  0.12509000000E+03 0.  0.
        -13    1    3    3    0    0 -0.34570112940E+02 -0.12638498118E+02  0.15471322807E+01  0.36840590735E+02  0.10566000000E+00 0.  1.
         23    2    1    0    0    0  0.23328686033E+02 -0.11170746326E+02  0.13401852577E+02  0.95958868577E+02  0.91430200922E+02 0.  0.
         13    1    3    3    0    0  0.57898798972E+02  0.14677517927E+01  0.11854720296E+02  0.59118277843E+02  0.10566000000E+00 0. -1.
         22    1    1    0    0    0 -0.23328686033E+02  0.11170746326E+02 -0.13401852577E+02  0.29131131423E+02  0.00000000000E+00 0. -1.
</event>
<event>
 5    1  0.1254921E-009  0.9118800E+02  0.7561462E-02  0.1125453E+00
         25   -1    0    0    0    0  0.00000000000E+00  0.00000000000E+00  0.99999998245E-14  0.12509000000E+03  0.12509000000E+03 0.  0.
        -13    1    3    3    0    0 -0.56179367771E+02 -0.45681718745E+01  0.23311626144E+02  0.60995349289E+02  0.10566000000E+00 0.  1.
         23    2    1    0    0    0 -0.26235474740E+02  0.77044216288E+01  0.10585815162E+02  0.95769056460E+02  0.91170140096E+02 0.  0.
         13    1    3    3    0    0  0.29943893031E+02  0.12272593503E+02 -0.12725810983E+02  0.34773707170E+02  0.10566000000E+00 0. -1.
         22    1    1    0    0    0  0.26235474740E+02 -0.77044216288E+01 -0.10585815162E+02  0.29320943540E+02  0.00000000000E+00 0.  1.
</event>
<event>
 5    1  0.1254921E-009  0.9118800E+02  0.7561462E-02  0.1125453E+00
         25   -1    0    0    0    0  0.00000000000E+00  0.00000000000E+00  0.99999998245E-14  0.12509000000E+03  0.12509000000E+03 0.  0.
        -13    1    3    3    0    0 -0.51472885141E+02  0.32123650355E+02  0.56660454651E+01  0.60938510420E+02  0.10566000000E+00 0. -1.
         23    2    1    0    0    0 -0.27324065585E+02  0.69278899831E+01  0.76089828079E+01  0.95892451489E+02  0.91339287349E+02 0.  0.
         13    1    3    3    0    0  0.24148819557E+02 -0.25195760372E+02  0.19429373428E+01  0.34953941069E+02  0.10566000000E+00 0.  1.
         22    1    1    0    0    0  0.27324065585E+02 -0.69278899831E+01 -0.76089828079E+01  0.29197548511E+02  0.00000000000E+00 0. -1.
</event>
<event>
 5    1  0.1254921E-009  0.9118800E+02  0.7561462E-02  0.1125453E+00
         25   -1    0    0    0    0  0.00000000000E+00  0.00000000000E+00  0.99999998245E-14  0.12509000000E+03  0.12509000000E+03 0.  0.
        -13    1    3    3    0    0 -0.70104928772E+01 -0.29434269954E+02  0.23196711324E+02  0.38126392938E+02  0.10566000000E+00 0.  1.
         23    2    1    0    0    0 -0.19287549351E+02  0.22047236513E+02  0.29195296932E+00  0.95795368506E+02  0.91206234397E+02 0.  0.
         13    1    3    3    0    0 -0.12277056474E+02  0.51481506467E+02 -0.22904758355E+02  0.57668975569E+02  0.10566000000E+00 0. -1.
         22    1    1    0    0    0  0.19287549351E+02 -0.22047236513E+02 -0.29195296932E+00  0.29294631494E+02  0.00000000000E+00 0.  1.
</event>
<event>
 4    1  0.1254921E-009  0.9118800E+02  0.7561462E-02  0.1125453E+00
         25   -1    0    0    0    0  0.00000000000E+00  0.00000000000E+00  0.99999998245E-14  0.12509000000E+03  0.12509000000E+03 0.  0.
        -13    1    1    0    0    0 -0.18901542513E+02  0.43906050871E+02 -0.37684481538E+02  0.60869868780E+02  0.10566000000E+00 0.  1.
         13    1    1    0    0    0  0.61453991576E+01 -0.15997702804E+01  0.10705026482E+02  0.12447246755E+02  0.10566000000E+00 0. -1.
         22    1    1    0    0    0  0.12756143355E+02 -0.42306280591E+02  0.26979455055E+02  0.51772884465E+02  0.00000000000E+00 0.  1.
</event>
<event>
 5    1  0.1254921E-009  0.9118800E+02  0.7561462E-02  0.1125453E+00
         25   -1    0    0    0    0  0.00000000000E+00  0.00000000000E+00  0.99999998245E-14  0.12509000000E+03  0.12509000000E+03 0.  0.
        -13    1    3    3    0    0 -0.35666656091E+02  0.25237363920E+02  0.13991877484E+02  0.45878303084E+02  0.10566000000E+00 0. -1.
         23    2    1    0    0    0 -0.23635293186E+02 -0.11794907380E+02 -0.15263925928E+02  0.94582060725E+02  0.89526710272E+02 0.  0.
         13    1    3    3    0    0  0.12031362905E+02 -0.37032271300E+02 -0.29255803412E+02  0.48703757640E+02  0.10566000000E+00 0.  1.
         22    1    1    0    0    0  0.23635293186E+02  0.11794907380E+02  0.15263925928E+02  0.30507939275E+02  0.00000000000E+00 0.  1.
</event>
<event>
 5    1  0.1254921E-009  0.9118800E+02  0.7561462E-02  0.1125453E+00
         25   -1    0    0    0    0  0.00000000000E+00  0.00000000000E+00  0.99999998245E-14  0.12509000000E+03  0.12509000000E+03 0.  0.
        -13    1    3    3    0    0  0.53204632043E+02  0.30660010092E+01 -0.26217128444E+01  0.53357452856E+02  0.10566000000E+00 0.  1.
         23    2    1    0    0    0  0.23355752324E+02  0.74139957065E+01 -0.24359360136E+02  0.90538054682E+02  0.83685736063E+02 0.  0.
         13    1    3    3    0    0 -0.29848879719E+02  0.43479946974E+01 -0.21737647292E+02  0.37180601826E+02  0.10566000000E+00 0. -1.
         22    1    1    0    0    0 -0.23355752324E+02 -0.74139957065E+01  0.24359360136E+02  0.34551945318E+02  0.00000000000E+00 0.  1.
</event>
<event>
 5    1  0.1254921E-009  0.9118800E+02  0.7561462E-02  0.1125453E+00
         25   -1    0    0    0    0  0.00000000000E+00  0.00000000000E+00  0.99999998245E-14  0.12509000000E+03  0.12509000000E+03 0.  0.
        -13    1    3    3    0    0  0.33498541276E+02  0.62724831148E+01  0.45961534014E+02  0.57218616594E+02  0.10566000000E+00 0.  1.
         23    2    1    0    0    0  0.13498594212E+01  0.12995406154E+02  0.26878552213E+02  0.95204229629E+02  0.90391847357E+02 0.  0.
         13    1    3    3    0    0 -0.32148681855E+02  0.67229230396E+01 -0.19082981801E+02  0.37985613035E+02  0.10566000000E+00 0. -1.
         22    1    1    0    0    0 -0.13498594212E+01 -0.12995406154E+02 -0.26878552213E+02  0.29885770371E+02  0.00000000000E+00 0.  1.
</event>
<event>
 5    1  0.1254921E-009  0.9118800E+02  0.7561462E-02  0.1125453E+00
         25   -1    0    0    0    0  0.00000000000E+00  0.00000000000E+00  0.99999998245E-14  0.12509000000E+03  0.12509000000E+03 0.  0.
        -13    1    3    3    0    0 -0.24851602066E+02  0.19446526793E+02 -0.27404929734E+02  0.41794866519E+02  0.10566000000E+00 0. -1.
         23    2    1    0    0    0  0.23781982464E+02  0.42233296823E+01 -0.20862091950E+02  0.93173764569E+02  0.87536874059E+02 0.  0.
         13    1    3    3    0    0  0.48633584530E+02 -0.15223197111E+02  0.65428377844E+01  0.51378898050E+02  0.10566000000E+00 0.  1.
         22    1    1    0    0    0 -0.23781982464E+02 -0.42233296823E+01  0.20862091950E+02  0.31916235431E+02  0.00000000000E+00 0.  1.
</event>
<event>
 5    1  0.1254921E-009  0.9118800E+02  0.7561462E-02  0.1125453E+00
         25   -1    0    0    0    0  0.00000000000E+00  0.00000000000E+00  0.99999998245E-14  0.12509000000E+03  0.12509000000E+03 0.  0.
        -13    1    3    3    0    0  0.26666962157E+02  0.24530550540E+02  0.25164143424E+02  0.44114850773E+02  0.10566000000E+00 0. -1.
         23    2    1    0    0    0 -0.20197537456E+02  0.92781628305E+01  0.22487703792E+02  0.93471624858E+02  0.87961485929E+02 0.  0.
         13    1    3    3    0    0 -0.46864499614E+02 -0.15252387709E+02 -0.26764396314E+01  0.49356774084E+02  0.10566000000E+00 0.  1.
         22    1    1    0    0    0  0.20197537456E+02 -0.92781628305E+01 -0.22487703792E+02  0.31618375142E+02  0.00000000000E+00 0.  1.
</event>
<event>
 5    1  0.1254921E-009  0.9118800E+02  0.7561462E-02  0.1125453E+00
         25   -1    0    0    0    0  0.00000000000E+00  0.00000000000E+00  0.99999998245E-14  0.12509000000E+03  0.12509000000E+03 0.  0.
        -13    1    3    3    0    0  0.38566992479E+02 -0.20323591505E+02 -0.32213290288E+02  0.54204875388E+02  0.10566000000E+00 0.  1.
         23    2    1    0    0    0  0.17461639044E+02  0.12815254974E+02 -0.20659415133E+02  0.95157558874E+02  0.90327238301E+02 0.  0.
         13    1    3    3    0    0 -0.21105353435E+02  0.33138846479E+02  0.11553875155E+02  0.40952683486E+02  0.10566000000E+00 0. -1.
         22    1    1    0    0    0 -0.17461639044E+02 -0.12815254974E+02  0.20659415133E+02  0.29932441126E+02  0.00000000000E+00 0. -1.
</event>
<event>
 5    1  0.1254921E-009  0.9118800E+02  0.7561462E-02  0.1125453E+00
         25   -1    0    0    0    0  0.00000000000E+00  0.00000000000E+00  0.99999998245E-14  0.12509000000E+03  0.12509000000E+03 0.  0.
        -13    1    3    3    0    0 -0.13007464592E+02  0.18686604588E+02  0.28671341090E+02  0.36612023845E+02  0.10566000000E+00 0.  1.
         23    2    1    0    0    0  0.30695488519E+02  0.78541946211E+00 -0.41231159859E+01  0.94108876963E+02  0.88863101109E+02 0.  0.
         13    1    3    3    0    0  0.43702953111E+02 -0.17901185126E+02 -0.32794457076E+02  0.57496853118E+02  0.10566000000E+00 0. -1.
         22    1    1    0    0    0 -0.30695488519E+02 -0.78541946211E+00  0.41231159859E+01  0.30981123037E+02  0.00000000000E+00 0. -1.
</event>
<event>
 5    1  0.1254921E-009  0.9118800E+02  0.7561462E-02  0.1125453E+00
         25   -1    0    0    0    0  0.00000000000E+00  0.00000000000E+00  0.99999998245E-14  0.12509000000E+03  0.12509000000E+03 0.  0.
        -13    1    3    3    0    0  0.24950221391E+02  0.13825803719E+02 -0.36525433049E+02  0.46344199415E+02  0.10566000000E+00 0. -1.
         23    2    1    0    0    0 -0.20835452268E+02  0.95886620610E+01 -0.18069464274E+02  0.95891300534E+02  0.91337711093E+02 0.  0.
         13    1    3    3    0    0 -0.45785673660E+02 -0.42371416579E+01  0.18455968775E+02  0.49547101120E+02  0.10566000000E+00 0.  1.
         22    1    1    0    0    0  0.20835452268E+02 -0.95886620610E+01  0.18069464274E+02  0.29198699466E+02  0.00000000000E+00 0. -1.
</event>
<event>
 5    1  0.1254921E-009  0.9118800E+02  0.7561462E-02  0.1125453E+00
         25   -1    0    0    0    0  0.00000000000E+00  0.00000000000E+00  0.99999998245E-14  0.12509000000E+03  0.12509000000E+03 0.  0.
        -13    1    3    3    0    0  0.10434661055E+01  0.42157546560E+01  0.33843946792E+02  0.34121625215E+02  0.10566000000E+00 0. -1.
         23    2    1    0    0    0 -0.12560581645E+02  0.11605739353E+02 -0.24906353924E+02  0.94877620700E+02  0.89938729403E+02 0.  0.
         13    1    3    3    0    0 -0.13604047750E+02  0.73899846971E+01 -0.58750300716E+02  0.60755995484E+02  0.10566000000E+00 0.  1.
         22    1    1    0    0    0  0.12560581645E+02 -0.11605739353E+02  0.24906353924E+02  0.30212379300E+02  0.00000000000E+00 0.  1.
</event>
<event>
 5    1  0.1254921E-009  0.9118800E+02  0.7561462E-02  0.1125453E+00
         25   -1    0    0    0    0  0.00000000000E+00  0.00000000000E+00  0.99999998245E-14  0.12509000000E+03  0.12509000000E+03 0.  0.
        -13    1    3    3    0    0  0.46769154650E+02  0.34908361249E+01  0.33305344172E+02  0.57522142501E+02  0.10566000000E+00 0.  1.
         23    2    1    0    0    0  0.34187174027E+02 -0.61814453297E+01  0.49761011367E+01  0.89993921632E+02  0.82868396955E+02 0.  0.
         13    1    3    3    0    0 -0.12581980623E+02 -0.96722814546E+01 -0.28329243035E+02  0.32471779131E+02  0.10566000000E+00 0. -1.
         22    1    1    0    0    0 -0.34187174027E+02  0.61814453297E+01 -0.49761011367E+01  0.35096078368E+02  0.00000000000E+00 0.  1.
</event>
<event>
 5    1  0.1254921E-009  0.9118800E+02  0.7561462E-02  0.1125453E+00
         25   -1    0    0    0    0  0.00000000000E+00  0.00000000000E+00  0.99999998245E-14  0.12509000000E+03  0.12509000000E+03 0.  0.
        -13    1    3    3    0    0 -0.88764404191E+01 -0.33740698288E+02  0.17573831426E+02  0.39065030789E+02  0.10566000000E+00 0.  1.
         23    2    1    0    0    0 -0.41184745691E+01  0.22346054816E+02 -0.81466099489E+01  0.10095133284E+03  0.98022937875E+02 0.  0.
         13    1    3    3    0    0  0.47579658500E+01  0.56086753105E+02 -0.25720441375E+02  0.61886302050E+02  0.10566000000E+00 0. -1.
         22    1    1    0    0    0  0.41184745691E+01 -0.22346054816E+02  0.81466099489E+01  0.24138667161E+02  0.00000000000E+00 0. -1.
</event>
<event>
 5    1  0.1254921E-009  0.9118800E+02  0.7561462E-02  0.1125453E+00
         25   -1    0    0    0    0  0.00000000000E+00  0.00000000000E+00  0.99999998245E-14  0.12509000000E+03  0.12509000000E+03 0.  0.
        -13    1    3    3    0    0  0.35227796600E+00 -0.36144146348E+02 -0.12198471464E+02  0.38148883143E+02  0.10566000000E+00 0.  1.
         23    2    1    0    0    0 -0.19777919174E+02  0.39339471924E+01  0.22516117608E+02  0.94863892419E+02  0.89919633592E+02 0.  0.
         13    1    3    3    0    0 -0.20130197140E+02  0.40078093540E+02  0.34714589072E+02  0.56715009276E+02  0.10566000000E+00 0. -1.
         22    1    1    0    0    0  0.19777919174E+02 -0.39339471924E+01 -0.22516117608E+02  0.30226107581E+02  0.00000000000E+00 0. -1.
</event>
<event>
 5    1  0.1254921E-009  0.9118800E+02  0.7561462E-02  0.1125453E+00
         25   -1    0    0    0    0  0.00000000000E+00  0.00000000000E+00  0.99999998245E-14  0.12509000000E+03  0.12509000000E+03 0.  0.
        -13    1    3    3    0    0 -0.28685543292E+02 -0.46327601572E+02  0.68156934250E+01  0.54914223133E+02  0.10566000000E+00 0.  1.
         23    2    1    0    0    0 -0.12118365561E+02 -0.20158265825E+02 -0.18698484140E+02  0.95042641146E+02  0.90167953631E+02 0.  0.
         13    1    3    3    0    0  0.16567177731E+02  0.26169335747E+02 -0.25514177565E+02  0.40128418014E+02  0.10566000000E+00 0. -1.
         22    1    1    0    0    0  0.12118365561E+02  0.20158265825E+02  0.18698484140E+02  0.30047358854E+02  0.00000000000E+00 0.  1.
</event>
<event>
 5    1  0.1254921E-009  0.9118800E+02  0.7561462E-02  0.1125453E+00
         25   -1    0    0    0    0  0.00000000000E+00  0.00000000000E+00  0.99999998245E-14  0.12509000000E+03  0.12509000000E+03 0.  0.
        -13    1    3    3    0    0  0.32561591887E+02 -0.11299510311E+02 -0.26434306948E+02  0.43436389668E+02  0.10566000000E+00 0.  1.
         23    2    1    0    0    0 -0.17950441897E+02 -0.17547037956E+02 -0.15790215411E+02  0.95434514705E+02  0.90709970725E+02 0.  0.
         13    1    3    3    0    0 -0.50512033785E+02 -0.62475276442E+01  0.10644091537E+02  0.51998125037E+02  0.10566000000E+00 0. -1.
         22    1    1    0    0    0  0.17950441897E+02  0.17547037956E+02  0.15790215411E+02  0.29655485295E+02  0.00000000000E+00 0. -1.
</event>
<event>
 5    1  0.1254921E-009  0.9118800E+02  0.7561462E-02  0.1125453E+00
         25   -1    0    0    0    0  0.00000000000E+00  0.00000000000E+00  0.99999998245E-14  0.12509000000E+03  0.12509000000E+03 0.  0.
        -13    1    3    3    0    0 -0.38253964815E+02  0.22221051206E+02 -0.15470639639E+01  0.44266754023E+02  0.10566000000E+00 0. -1.
         23    2    1    0    0    0 -0.50356478454E+01 -0.14969235085E+02 -0.21868929249E+02  0.98114347742E+02  0.94333130013E+02 0.  0.
         13    1    3    3    0    0  0.33218316970E+02 -0.37190286291E+02 -0.20321865285E+02  0.53847593719E+02  0.10566000000E+00 0.  1.
         22    1    1    0    0    0  0.50356478454E+01  0.14969235085E+02  0.21868929249E+02  0.26975652258E+02  0.00000000000E+00 0.  1.
</event>
<event>
 5    1  0.1254921E-009  0.9118800E+02  0.7561462E-02  0.1125453E+00
         25   -1    0    0    0    0  0.00000000000E+00  0.00000000000E+00  0.99999998245E-14  0.12509000000E+03  0.12509000000E+03 0.  0.
        -13    1    3    3    0    0  0.60715227237E+01 -0.32358619083E+02  0.28116510349E+01  0.33043307382E+02  0.10566000000E+00 0. -1.
         23    2    1    0    0    0 -0.80849631282E+01  0.26748315739E+02 -0.10457914356E+02  0.95253663155E+02  0.90460230754E+02 0.  0.
         13    1    3    3    0    0 -0.14156485852E+02  0.59106934822E+02 -0.13269565391E+02  0.62210355773E+02  0.10566000000E+00 0.  1.
         22    1    1    0    0    0  0.80849631282E+01 -0.26748315739E+02  0.10457914356E+02  0.29836336845E+02  0.00000000000E+00 0.  1.
</event>
<event>
 5    1  0.1254921E-009  0.9118800E+02  0.7561462E-02  0.1125453E+00
         25   -1    0    0    0    0  0.00000000000E+00  0.00000000000E+00  0.99999998245E-14  0.12509000000E+03  0.12509000000E+03 0.  0.
        -13    1    3    3    0    0 -0.42946327875E+02  0.23161813875E+02  0.84481315154E+01  0.49520084714E+02  0.10566000000E+00 0.  1.
         23    2    1    0    0    0 -0.11488930273E+02  0.28221830901E+01  0.30072657260E+02  0.92773983060E+02  0.86963710719E+02 0.  0.
         13    1    3    3    0    0  0.31457397603E+02 -0.20339630785E+02  0.21624525744E+02  0.43253898346E+02  0.10566000000E+00 0. -1.
         22    1    1    0    0    0  0.11488930273E+02 -0.28221830901E+01 -0.30072657260E+02  0.32316016940E+02  0.00000000000E+00 0.  1.
</event>
<event>
 5    1  0.1254921E-009  0.9118800E+02  0.7561462E-02  0.1125453E+00
         25   -1    0    0    0    0  0.00000000000E+00  0.00000000000E+00  0.99999998245E-14  0.12509000000E+03  0.12509000000E+03 0.  0.
        -13    1    3    3    0    0 -0.41385893703E+02 -0.19093141955E+02 -0.37442215870E+01  0.45731505843E+02  0.10566000000E+00 0. -1.
         23    2    1    0    0    0 -0.40076264261E+01  0.21206577356E+01 -0.29104416378E+02  0.95634519839E+02  0.90985361863E+02 0.  0.
         13    1    3    3    0    0  0.37378267277E+02  0.21213799691E+02 -0.25360194791E+02  0.49903013996E+02  0.10566000000E+00 0.  1.
         22    1    1    0    0    0  0.40076264261E+01 -0.21206577356E+01  0.29104416378E+02  0.29455480161E+02  0.00000000000E+00 0. -1.
</event>
<event>
 5    1  0.1254921E-009  0.9118800E+02  0.7561462E-02  0.1125453E+00
         25   -1    0    0    0    0  0.00000000000E+00  0.00000000000E+00  0.99999998245E-14  0.12509000000E+03  0.12509000000E+03 0.  0.
        -13    1    3    3    0    0 -0.42582346113E+02  0.78856915769E+01  0.25202354469E+02  0.50105989332E+02  0.10566000000E+00 0.  1.
         23    2    1    0    0    0 -0.20330167594E+02 -0.22236842322E+02  0.52503588537E+00  0.94955824492E+02  0.90047432342E+02 0.  0.
         13    1    3    3    0    0  0.22252178519E+02 -0.30122533899E+02 -0.24677318584E+02  0.44849835160E+02  0.10566000000E+00 0. -1.
         22    1    1    0    0    0  0.20330167594E+02  0.22236842322E+02 -0.52503588537E+00  0.30134175508E+02  0.00000000000E+00 0. -1.
</event>
<event>
 5    1  0.1254921E-009  0.9118800E+02  0.7561462E-02  0.1125453E+00
         25   -1    0    0    0    0  0.00000000000E+00  0.00000000000E+00  0.99999998245E-14  0.12509000000E+03  0.12509000000E+03 0.  0.
        -13    1    3    3    0    0 -0.28416746299E+02 -0.48750119302E+02 -0.23306036007E+02  0.61051356092E+02  0.10566000000E+00 0.  1.
         23    2    1    0    0    0 -0.83588199283E+01 -0.18295727259E+02 -0.18367895782E+02  0.97850633230E+02  0.93982782049E+02 0.  0.
         13    1    3    3    0    0  0.20057926371E+02  0.30454392043E+02  0.49381402247E+01  0.36799277139E+02  0.10566000000E+00 0. -1.
         22    1    1    0    0    0  0.83588199283E+01  0.18295727259E+02  0.18367895782E+02  0.27239366770E+02  0.00000000000E+00 0.  1.
</event>
<event>
 5    1  0.1254921E-009  0.9118800E+02  0.7561462E-02  0.1125453E+00
         25   -1    0    0    0    0  0.00000000000E+00  0.00000000000E+00  0.99999998245E-14  0.12509000000E+03  0.12509000000E+03 0.  0.
        -13    1    3    3    0    0  0.43332039824E+01  0.70939102136E+01  0.25589288143E+02  0.26905818155E+02  0.10566000000E+00 0. -1.
         23    2    1    0    0    0 -0.52979313325E+01 -0.44510950167E+01 -0.35040901939E+02  0.89372425447E+02  0.81924875944E+02 0.  0.
         13    1    3    3    0    0 -0.96311353149E+01 -0.11545005230E+02 -0.60630190082E+02  0.62466607292E+02  0.10566000000E+00 0.  1.
         22    1    1    0    0    0  0.52979313325E+01  0.44510950167E+01  0.35040901939E+02  0.35717574553E+02  0.00000000000E+00 0.  1.
</event>
<event>
 5    1  0.1254921E-009  0.9118800E+02  0.7561462E-02  0.1125453E+00
         25   -1    0    0    0    0  0.00000000000E+00  0.00000000000E+00  0.99999998245E-14  0.12509000000E+03  0.12509000000E+03 0.  0.
        -13    1    3    3    0    0  0.20844021906E+02 -0.57089641905E+02  0.10674738269E+02  0.61706253032E+02  0.10566000000E+00 0. -1.
         23    2    1    0    0    0  0.32223517620E+01 -0.27713170859E+02  0.16006209883E+01  0.97144242227E+02  0.93037833274E+02 0.  0.
         13    1    3    3    0    0 -0.17621670144E+02  0.29376471045E+02 -0.90741172810E+01  0.35437989195E+02  0.10566000000E+00 0.  1.
         22    1    1    0    0    0 -0.32223517620E+01  0.27713170859E+02 -0.16006209883E+01  0.27945757773E+02  0.00000000000E+00 0. -1.
</event>
<event>
 5    1  0.1254921E-009  0.9118800E+02  0.7561462E-02  0.1125453E+00
         25   -1    0    0    0    0  0.00000000000E+00  0.00000000000E+00  0.99999998245E-14  0.12509000000E+03  0.12509000000E+03 0.  0.
        -13    1    3    3    0    0  0.84933140580E+01 -0.36000052804E+02  0.47651889955E+02  0.60322914103E+02  0.10566000000E+00 0. -1.
         23    2    1    0    0    0  0.15222760143E+02 -0.13395317534E+02  0.21752357554E+02  0.95352279553E+02  0.90596496613E+02 0.  0.
         13    1    3    3    0    0  0.67294460850E+01  0.22604735269E+02 -0.25899532401E+02  0.35029365450E+02  0.10566000000E+00 0.  1.
         22    1    1    0    0    0 -0.15222760143E+02  0.13395317534E+02 -0.21752357554E+02  0.29737720447E+02  0.00000000000E+00 0. -1.
</event>
<event>
 5    1  0.1254921E-009  0.9118800E+02  0.7561462E-02  0.1125453E+00
         25   -1    0    0    0    0  0.00000000000E+00  0.00000000000E+00  0.99999998245E-14  0.12509000000E+03  0.12509000000E+03 0.  0.
        -13    1    3    3    0    0  0.48715874961E+02  0.29814547451E+01 -0.35657673702E+02  0.60445069307E+02  0.10566000000E+00 0. -1.
         23    2    1    0    0    0  0.15068053826E+02  0.30107506818E+01 -0.25008575578E+02  0.95738003164E+02  0.91127523458E+02 0.  0.
         13    1    3    3    0    0 -0.33647821135E+02  0.29295936725E-01  0.10649098124E+02  0.35292933858E+02  0.10566000000E+00 0.  1.
         22    1    1    0    0    0 -0.15068053826E+02 -0.30107506818E+01  0.25008575578E+02  0.29351996836E+02  0.00000000000E+00 0. -1.
</event>
<event>
 5    1  0.1254921E-009  0.9118800E+02  0.7561462E-02  0.1125453E+00
         25   -1    0    0    0    0  0.00000000000E+00  0.00000000000E+00  0.99999998245E-14  0.12509000000E+03  0.12509000000E+03 0.  0.
        -13    1    3    3    0    0 -0.33960647380E+02 -0.16512786615E+01  0.49472592942E+01  0.34358970157E+02  0.10566000000E+00 0.  1.
         23    2    1    0    0    0  0.26545894402E+02 -0.82925442524E+01  0.10228585478E+02  0.95457673722E+02  0.90741901632E+02 0.  0.
         13    1    3    3    0    0  0.60506541782E+02 -0.66412655910E+01  0.52813261843E+01  0.61098703565E+02  0.10566000000E+00 0. -1.
         22    1    1    0    0    0 -0.26545894402E+02  0.82925442524E+01 -0.10228585478E+02  0.29632326278E+02  0.00000000000E+00 0. -1.
</event>
<event>
 5    1  0.1254921E-009  0.9118800E+02  0.7561462E-02  0.1125453E+00
         25   -1    0    0    0    0  0.00000000000E+00  0.00000000000E+00  0.99999998245E-14  0.12509000000E+03  0.12509000000E+03 0.  0.
        -13    1    3    3    0    0  0.92047740556E+01  0.38837056015E+00 -0.48692246652E+02  0.49556278565E+02  0.10566000000E+00 0.  1.
         23    2    1    0    0    0 -0.23707874392E+02  0.57561396272E+01 -0.20537699820E+02  0.93199663447E+02  0.87573875677E+02 0.  0.
         13    1    3    3    0    0 -0.32912648447E+02  0.53677690670E+01  0.28154546832E+02  0.43643384882E+02  0.10566000000E+00 0. -1.
         22    1    1    0    0    0  0.23707874392E+02 -0.57561396272E+01  0.20537699820E+02  0.31890336553E+02  0.00000000000E+00 0. -1.
</event>
<event>
 5    1  0.1254921E-009  0.9118800E+02  0.7561462E-02  0.1125453E+00
         25   -1    0    0    0    0  0.00000000000E+00  0.00000000000E+00  0.99999998245E-14  0.12509000000E+03  0.12509000000E+03 0.  0.
        -13    1    3    3    0    0 -0.44062844559E+02  0.12868847772E+02  0.36891205098E+02  0.58890692738E+02  0.10566000000E+00 0. -1.
         23    2    1    0    0    0 -0.12309432903E+02  0.16907030464E+02  0.23619734325E+02  0.93542231979E+02  0.88061839048E+02 0.  0.
         13    1    3    3    0    0  0.31753411656E+02  0.40381826927E+01 -0.13271470773E+02  0.34651539241E+02  0.10566000000E+00 0.  1.
         22    1    1    0    0    0  0.12309432903E+02 -0.16907030464E+02 -0.23619734325E+02  0.31547768021E+02  0.00000000000E+00 0. -1.
</event>
<event>
 5    1  0.1254921E-009  0.9118800E+02  0.7561462E-02  0.1125453E+00
         25   -1    0    0    0    0  0.00000000000E+00  0.00000000000E+00  0.99999998245E-14  0.12509000000E+03  0.12509000000E+03 0.  0.
        -13    1    3    3    0    0 -0.26041824681E+01 -0.28766263441E+01 -0.40831285365E+02  0.41015384602E+02  0.10566000000E+00 0.  1.
         23    2    1    0    0    0 -0.19448388349E+02  0.27942096058E+02 -0.59225746979E+01  0.90534574485E+02  0.83680533845E+02 0.  0.
         13    1    3    3    0    0 -0.16844205881E+02  0.30818722402E+02  0.34908710667E+02  0.49519189883E+02  0.10566000000E+00 0. -1.
         22    1    1    0    0    0  0.19448388349E+02 -0.27942096058E+02  0.59225746979E+01  0.34555425515E+02  0.00000000000E+00 0. -1.
</event>
<event>
 5    1  0.1254921E-009  0.9118800E+02  0.7561462E-02  0.1125453E+00
         25   -1    0    0    0    0  0.00000000000E+00  0.00000000000E+00  0.99999998245E-14  0.12509000000E+03  0.12509000000E+03 0.  0.
        -13    1    3    3    0    0 -0.86646738842E+01 -0.16111533443E+02 -0.28203865824E+02  0.33617365972E+02  0.10566000000E+00 0.  1.
         23    2    1    0    0    0  0.37069082868E+02 -0.56627494220E+01 -0.23663241985E+02  0.80748905551E+02  0.67485206458E+02 0.  0.
         13    1    3    3    0    0  0.45733756752E+02  0.10448784021E+02  0.45406238388E+01  0.47131539579E+02  0.10566000000E+00 0. -1.
         22    1    1    0    0    0 -0.37069082868E+02  0.56627494220E+01  0.23663241985E+02  0.44341094449E+02  0.00000000000E+00 0. -1.
</event>
<event>
 5    1  0.1254921E-009  0.9118800E+02  0.7561462E-02  0.1125453E+00
         25   -1    0    0    0    0  0.00000000000E+00  0.00000000000E+00  0.99999998245E-14  0.12509000000E+03  0.12509000000E+03 0.  0.
        -13    1    3    3    0    0 -0.11547057893E+02 -0.53128242699E+01  0.32090090419E+02  0.34515876272E+02  0.10566000000E+00 0.  1.
         23    2    1    0    0    0 -0.83926172205E+01  0.25946419181E+01 -0.28276743528E+02  0.95480163542E+02  0.90772899122E+02 0.  0.
         13    1    3    3    0    0  0.31544406723E+01  0.79074661880E+01 -0.60366833947E+02  0.60964287270E+02  0.10566000000E+00 0. -1.
         22    1    1    0    0    0  0.83926172205E+01 -0.25946419181E+01  0.28276743528E+02  0.29609836458E+02  0.00000000000E+00 0. -1.
</event>
<event>
 5    1  0.1254921E-009  0.9118800E+02  0.7561462E-02  0.1125453E+00
         25   -1    0    0    0    0  0.00000000000E+00  0.00000000000E+00  0.99999998245E-14  0.12509000000E+03  0.12509000000E+03 0.  0.
        -13    1    3    3    0    0  0.37570623754E+02  0.57351239757E+01  0.37477376973E+02  0.53376102940E+02  0.10566000000E+00 0.  1.
         23    2    1    0    0    0  0.11290164293E+02  0.24862373169E+02  0.97637332780E+01  0.96091105247E+02  0.91610941545E+02 0.  0.
         13    1    3    3    0    0 -0.26280459462E+02  0.19127249193E+02 -0.27713643695E+02  0.42715002307E+02  0.10566000000E+00 0. -1.
         22    1    1    0    0    0 -0.11290164293E+02 -0.24862373169E+02 -0.97637332780E+01  0.28998894753E+02  0.00000000000E+00 0.  1.
</event>
<event>
 5    1  0.1254921E-009  0.9118800E+02  0.7561462E-02  0.1125453E+00
         25   -1    0    0    0    0  0.00000000000E+00  0.00000000000E+00  0.99999998245E-14  0.12509000000E+03  0.12509000000E+03 0.  0.
        -13    1    3    3    0    0 -0.13574745612E+02  0.29419571457E+02  0.20095664860E+01  0.32462816030E+02  0.10566000000E+00 0. -1.
         23    2    1    0    0    0  0.16386193890E+02 -0.25181146895E+02 -0.27251065963E+01  0.94923400671E+02  0.90002379301E+02 0.  0.
         13    1    3    3    0    0  0.29960939502E+02 -0.54600718352E+02 -0.47346730823E+01  0.62460584640E+02  0.10566000000E+00 0.  1.
         22    1    1    0    0    0 -0.16386193890E+02  0.25181146895E+02  0.27251065963E+01  0.30166599329E+02  0.00000000000E+00 0.  1.
</event>
<event>
 5    1  0.1254921E-009  0.9118800E+02  0.7561462E-02  0.1125453E+00
         25   -1    0    0    0    0  0.00000000000E+00  0.00000000000E+00  0.99999998245E-14  0.12509000000E+03  0.12509000000E+03 0.  0.
        -13    1    3    3    0    0  0.12497378463E+02 -0.51235943994E+02  0.26118307273E+02  0.58851368414E+02  0.10566000000E+00 0. -1.
         23    2    1    0    0    0 -0.77485075258E+01 -0.22866761471E+02  0.18862498909E+02  0.94451429306E+02  0.89344000827E+02 0.  0.
         13    1    3    3    0    0 -0.20245885989E+02  0.28369182522E+02 -0.72558083639E+01  0.35600060892E+02  0.10566000000E+00 0.  1.
         22    1    1    0    0    0  0.77485075258E+01  0.22866761471E+02 -0.18862498909E+02  0.30638570694E+02  0.00000000000E+00 0. -1.
</event>
<event>
 5    1  0.1254921E-009  0.9118800E+02  0.7561462E-02  0.1125453E+00
         25   -1    0    0    0    0  0.00000000000E+00  0.00000000000E+00  0.99999998245E-14  0.12509000000E+03  0.12509000000E+03 0.  0.
        -13    1    3    3    0    0 -0.35229774668E+02 -0.14803870521E+02 -0.28491554569E+02  0.47666250654E+02  0.10566000000E+00 0. -1.
         23    2    1    0    0    0  0.88910673507E+01 -0.23113005942E+02 -0.19770311129E+02  0.93402031866E+02  0.87862462020E+02 0.  0.
         13    1    3    3    0    0  0.44120842019E+02 -0.83091354216E+01  0.87212434399E+01  0.45735781212E+02  0.10566000000E+00 0.  1.
         22    1    1    0    0    0 -0.88910673507E+01  0.23113005942E+02  0.19770311129E+02  0.31687968134E+02  0.00000000000E+00 0. -1.
</event>
<event>
 5    1  0.1254921E-009  0.9118800E+02  0.7561462E-02  0.1125453E+00
         25   -1    0    0    0    0  0.00000000000E+00  0.00000000000E+00  0.99999998245E-14  0.12509000000E+03  0.12509000000E+03 0.  0.
        -13    1    3    3    0    0  0.14288504310E+02  0.59722674230E+02 -0.50584669061E+01  0.61616218839E+02  0.10566000000E+00 0. -1.
         23    2    1    0    0    0  0.46840134928E+00  0.25892192565E+02 -0.71624125958E+01  0.98221334424E+02  0.94474892676E+02 0.  0.
         13    1    3    3    0    0 -0.13820102960E+02 -0.33830481665E+02 -0.21039456896E+01  0.36605115585E+02  0.10566000000E+00 0.  1.
         22    1    1    0    0    0 -0.46840134928E+00 -0.25892192565E+02  0.71624125958E+01  0.26868665576E+02  0.00000000000E+00 0. -1.
</event>
<event>
 5    1  0.1254921E-009  0.9118800E+02  0.7561462E-02  0.1125453E+00
         25   -1    0    0    0    0  0.00000000000E+00  0.00000000000E+00  0.99999998245E-14  0.12509000000E+03  0.12509000000E+03 0.  0.
        -13    1    3    3    0    0  0.26823634289E+02 -0.28618720764E+02 -0.22882157940E+02  0.45410823056E+02  0.10566000000E+00 0. -1.
         23    2    1    0    0    0  0.21030050745E+02  0.18973309417E+02 -0.99682740464E+01  0.95063078878E+02  0.90196302440E+02 0.  0.
         13    1    3    3    0    0 -0.57935835436E+01  0.47592030181E+02  0.12913883893E+02  0.49652255822E+02  0.10566000000E+00 0.  1.
         22    1    1    0    0    0 -0.21030050745E+02 -0.18973309417E+02  0.99682740464E+01  0.30026921122E+02  0.00000000000E+00 0.  1.
</event>
<event>
 5    1  0.1254921E-009  0.9118800E+02  0.7561462E-02  0.1125453E+00
         25   -1    0    0    0    0  0.00000000000E+00  0.00000000000E+00  0.99999998245E-14  0.12509000000E+03  0.12509000000E+03 0.  0.
        -13    1    3    3    0    0  0.22230301403E+01 -0.14857462757E+02 -0.30742982454E+02  0.34217366888E+02  0.10566000000E+00 0. -1.
         23    2    1    0    0    0 -0.15095279381E+02  0.55844334861E+01  0.24593160962E+02  0.95698216743E+02  0.91072892590E+02 0.  0.
         13    1    3    3    0    0 -0.17318309521E+02  0.20441896243E+02  0.55336143416E+02  0.61480849854E+02  0.10566000000E+00 0.  1.
         22    1    1    0    0    0  0.15095279381E+02 -0.55844334861E+01 -0.24593160962E+02  0.29391783257E+02  0.00000000000E+00 0.  1.
</event>
<event>
 5    1  0.1254921E-009  0.9118800E+02  0.7561462E-02  0.1125453E+00
         25   -1    0    0    0    0  0.00000000000E+00  0.00000000000E+00  0.99999998245E-14  0.12509000000E+03  0.12509000000E+03 0.  0.
        -13    1    3    3    0    0  0.20442767193E+02 -0.17612722545E+02 -0.22642564665E+02  0.35225156133E+02  0.10566000000E+00 0. -1.
         23    2    1    0    0    0 -0.21706112719E+02  0.17436785581E+02  0.52902031203E+01  0.96749515357E+02  0.92505597949E+02 0.  0.
         13    1    3    3    0    0 -0.42148879912E+02  0.35049508126E+02  0.27932767786E+02  0.61524359224E+02  0.10566000000E+00 0.  1.
         22    1    1    0    0    0  0.21706112719E+02 -0.17436785581E+02 -0.52902031203E+01  0.28340484643E+02  0.00000000000E+00 0.  1.
</event>
<event>
 5    1  0.1254921E-009  0.9118800E+02  0.7561462E-02  0.1125453E+00
         25   -1    0    0    0    0  0.00000000000E+00  0.00000000000E+00  0.99999998245E-14  0.12509000000E+03  0.12509000000E+03 0.  0.
        -13    1    3    3    0    0  0.55520247675E+01 -0.29844539107E+02  0.19648696104E+02  0.36160806354E+02  0.10566000000E+00 0. -1.
         23    2    1    0    0    0 -0.23625249324E+02  0.13638348430E+02 -0.96369128195E+01  0.96158580363E+02  0.91703029040E+02 0.  0.
         13    1    3    3    0    0 -0.29177274092E+02  0.43482887537E+02 -0.29285608923E+02  0.59997774009E+02  0.10566000000E+00 0.  1.
         22    1    1    0    0    0  0.23625249324E+02 -0.13638348430E+02  0.96369128195E+01  0.28931419637E+02  0.00000000000E+00 0.  1.
</event>
<event>
 5    1  0.1254921E-009  0.9118800E+02  0.7561462E-02  0.1125453E+00
         25   -1    0    0    0    0  0.00000000000E+00  0.00000000000E+00  0.99999998245E-14  0.12509000000E+03  0.12509000000E+03 0.  0.
        -13    1    3    3    0    0 -0.25936842922E+02 -0.43549244063E+02 -0.87547051761E-01  0.50688019371E+02  0.10566000000E+00 0.  1.
         23    2    1    0    0    0 -0.28101410754E+02  0.74235831266E+00  0.82147457786E+01  0.95803101386E+02  0.91216839480E+02 0.  0.
         13    1    3    3    0    0 -0.21645678320E+01  0.44291602376E+02  0.83022928304E+01  0.45115082015E+02  0.10566000000E+00 0. -1.
         22    1    1    0    0    0  0.28101410754E+02 -0.74235831266E+00 -0.82147457786E+01  0.29286898614E+02  0.00000000000E+00 0. -1.
</event>
<event>
 5    1  0.1254921E-009  0.9118800E+02  0.7561462E-02  0.1125453E+00
         25   -1    0    0    0    0  0.00000000000E+00  0.00000000000E+00  0.99999998245E-14  0.12509000000E+03  0.12509000000E+03 0.  0.
        -13    1    3    3    0    0 -0.36161788176E+01  0.28924569023E+02 -0.35394442939E+02  0.45852864659E+02  0.10566000000E+00 0.  1.
         23    2    1    0    0    0  0.28047448836E+02  0.32828306992E+01 -0.56696840876E+01  0.96287540361E+02  0.91878772018E+02 0.  0.
         13    1    3    3    0    0  0.31663627653E+02 -0.25641738324E+02  0.29724758851E+02  0.50434675703E+02  0.10566000000E+00 0. -1.
         22    1    1    0    0    0 -0.28047448836E+02 -0.32828306992E+01  0.56696840876E+01  0.28802459639E+02  0.00000000000E+00 0. -1.
</event>
<event>
 5    1  0.1254921E-009  0.9118800E+02  0.7561462E-02  0.1125453E+00
         25   -1    0    0    0    0  0.00000000000E+00  0.00000000000E+00  0.99999998245E-14  0.12509000000E+03  0.12509000000E+03 0.  0.
        -13    1    3    3    0    0  0.38597538271E+02  0.77571401200E+01 -0.46879068810E+02  0.61217656276E+02  0.10566000000E+00 0. -1.
         23    2    1    0    0    0  0.23077875039E+02 -0.26308274267E+01 -0.17591820243E+02  0.95952709310E+02  0.91421773748E+02 0.  0.
         13    1    3    3    0    0 -0.15519663232E+02 -0.10387967547E+02  0.29287248567E+02  0.34735053033E+02  0.10566000000E+00 0.  1.
         22    1    1    0    0    0 -0.23077875039E+02  0.26308274267E+01  0.17591820243E+02  0.29137290690E+02  0.00000000000E+00 0. -1.
</event>
<event>
 5    1  0.1254921E-009  0.9118800E+02  0.7561462E-02  0.1125453E+00
         25   -1    0    0    0    0  0.00000000000E+00  0.00000000000E+00  0.99999998245E-14  0.12509000000E+03  0.12509000000E+03 0.  0.
        -13    1    3    3    0    0  0.22667628525E+02  0.26904244338E+02  0.25648658670E+02  0.43537622833E+02  0.10566000000E+00 0. -1.
         23    2    1    0    0    0 -0.16240410050E+02 -0.57579640228E+01  0.25470934019E+02  0.94338194393E+02  0.89185320391E+02 0.  0.
         13    1    3    3    0    0 -0.38908038575E+02 -0.32662208361E+02 -0.17772465141E+00  0.50800571560E+02  0.10566000000E+00 0.  1.
         22    1    1    0    0    0  0.16240410050E+02  0.57579640228E+01 -0.25470934019E+02  0.30751805607E+02  0.00000000000E+00 0. -1.
</event>
<event>
 5    1  0.1254921E-009  0.9118800E+02  0.7561462E-02  0.1125453E+00
         25   -1    0    0    0    0  0.00000000000E+00  0.00000000000E+00  0.99999998245E-14  0.12509000000E+03  0.12509000000E+03 0.  0.
        -13    1    3    3    0    0 -0.32863871609E+02  0.39742678339E+02 -0.11495740950E+02  0.52836329951E+02  0.10566000000E+00 0. -1.
         23    2    1    0    0    0  0.81474805118E+01  0.26836256714E+02 -0.77474043976E+01  0.95993808015E+02  0.91477990737E+02 0.  0.
         13    1    3    3    0    0  0.41011352121E+02 -0.12906421625E+02  0.37483365522E+01  0.43157478064E+02  0.10566000000E+00 0.  1.
         22    1    1    0    0    0 -0.81474805118E+01 -0.26836256714E+02  0.77474043976E+01  0.29096191985E+02  0.00000000000E+00 0. -1.
</event>
<event>
 5    1  0.1254921E-009  0.9118800E+02  0.7561462E-02  0.1125453E+00
         25   -1    0    0    0    0  0.00000000000E+00  0.00000000000E+00  0.99999998245E-14  0.12509000000E+03  0.12509000000E+03 0.  0.
        -13    1    3    3    0    0 -0.27234854366E+02  0.12754125255E+02 -0.16527106548E+02  0.34315614787E+02  0.10566000000E+00 0.  1.
         23    2    1    0    0    0  0.15412456209E+01 -0.17861840256E+02  0.25614474719E+02  0.93824650322E+02  0.88462098763E+02 0.  0.
         13    1    3    3    0    0  0.28776099987E+02 -0.30615965511E+02  0.42141581266E+02  0.59509035535E+02  0.10566000000E+00 0. -1.
         22    1    1    0    0    0 -0.15412456209E+01  0.17861840256E+02 -0.25614474719E+02  0.31265349678E+02  0.00000000000E+00 0. -1.
</event>
<event>
 5    1  0.1254921E-009  0.9118800E+02  0.7561462E-02  0.1125453E+00
         25   -1    0    0    0    0  0.00000000000E+00  0.00000000000E+00  0.99999998245E-14  0.12509000000E+03  0.12509000000E+03 0.  0.
        -13    1    3    3    0    0 -0.29039867531E+02  0.10330785219E+02  0.33651137212E+02  0.45633860555E+02  0.10566000000E+00 0.  1.
         23    2    1    0    0    0 -0.26692598442E+01  0.29317961990E+02 -0.40131235670E+01  0.95378503839E+02  0.90632698241E+02 0.  0.
         13    1    3    3    0    0  0.26370607686E+02  0.18987176771E+02 -0.37664260779E+02  0.49744643285E+02  0.10566000000E+00 0. -1.
         22    1    1    0    0    0  0.26692598442E+01 -0.29317961990E+02  0.40131235670E+01  0.29711496161E+02  0.00000000000E+00 0.  1.
</event>
<event>
 5    1  0.1254921E-009  0.9118800E+02  0.7561462E-02  0.1125453E+00
         25   -1    0    0    0    0  0.00000000000E+00  0.00000000000E+00  0.99999998245E-14  0.12509000000E+03  0.12509000000E+03 0.  0.
        -13    1    3    3    0    0 -0.21010530232E+02  0.15378765194E+01  0.44405976840E+02  0.49149866612E+02  0.10566000000E+00 0.  1.
         23    2    1    0    0    0  0.26898028303E+01  0.25425075001E+02  0.90262907656E+01  0.97976471955E+02  0.94150122962E+02 0.  0.
         13    1    3    3    0    0  0.23700333062E+02  0.23887198481E+02 -0.35379686075E+02  0.48826605343E+02  0.10566000000E+00 0. -1.
         22    1    1    0    0    0 -0.26898028303E+01 -0.25425075001E+02 -0.90262907656E+01  0.27113528045E+02  0.00000000000E+00 0.  1.
</event>
<event>
 5    1  0.1254921E-009  0.9118800E+02  0.7561462E-02  0.1125453E+00
         25   -1    0    0    0    0  0.00000000000E+00  0.00000000000E+00  0.99999998245E-14  0.12509000000E+03  0.12509000000E+03 0.  0.
        -13    1    3    3    0    0  0.38807081581E+02  0.28530425055E+02 -0.15577346637E+02  0.50622520946E+02  0.10566000000E+00 0.  1.
         23    2    1    0    0    0  0.11571132519E+02 -0.64837179298E+01 -0.25741717643E+02  0.96132000533E+02  0.91666764933E+02 0.  0.
         13    1    3    3    0    0 -0.27235949063E+02 -0.35014142984E+02 -0.10164371005E+02  0.45509479587E+02  0.10566000000E+00 0. -1.
         22    1    1    0    0    0 -0.11571132519E+02  0.64837179298E+01  0.25741717643E+02  0.28957999467E+02  0.00000000000E+00 0.  1.
</event>
<event>
 5    1  0.1254921E-009  0.9118800E+02  0.7561462E-02  0.1125453E+00
         25   -1    0    0    0    0  0.00000000000E+00  0.00000000000E+00  0.99999998245E-14  0.12509000000E+03  0.12509000000E+03 0.  0.
        -13    1    3    3    0    0  0.26630454181E+02  0.21375144428E+02  0.50692158998E+02  0.61121060504E+02  0.10566000000E+00 0.  1.
         23    2    1    0    0    0  0.12974694067E+02  0.14140889520E+01  0.27596966779E+02  0.94562391036E+02  0.89499222842E+02 0.  0.
         13    1    3    3    0    0 -0.13655760115E+02 -0.19961055476E+02 -0.23095192219E+02  0.33441330531E+02  0.10566000000E+00 0. -1.
         22    1    1    0    0    0 -0.12974694067E+02 -0.14140889520E+01 -0.27596966779E+02  0.30527608964E+02  0.00000000000E+00 0.  1.
</event>
<event>
 5    1  0.1254921E-009  0.9118800E+02  0.7561462E-02  0.1125453E+00
         25   -1    0    0    0    0  0.00000000000E+00  0.00000000000E+00  0.99999998245E-14  0.12509000000E+03  0.12509000000E+03 0.  0.
        -13    1    3    3    0    0 -0.48126946081E+02 -0.52999881709E+01  0.55137781002E+01  0.48730952449E+02  0.10566000000E+00 0.  1.
         23    2    1    0    0    0 -0.67106322825E+01 -0.51283026113E+00  0.28132616993E+02  0.96163546374E+02  0.91709802812E+02 0.  0.
         13    1    3    3    0    0  0.41416313798E+02  0.47871579098E+01  0.22618838893E+02  0.47432593924E+02  0.10566000000E+00 0. -1.
         22    1    1    0    0    0  0.67106322825E+01  0.51283026113E+00 -0.28132616993E+02  0.28926453626E+02  0.00000000000E+00 0.  1.
</event>
<event>
 5    1  0.1254921E-009  0.9118800E+02  0.7561462E-02  0.1125453E+00
         25   -1    0    0    0    0  0.00000000000E+00  0.00000000000E+00  0.99999998245E-14  0.12509000000E+03  0.12509000000E+03 0.  0.
        -13    1    3    3    0    0 -0.53142788548E+01 -0.74682821997E+01 -0.47739208187E+02  0.48611315155E+02  0.10566000000E+00 0. -1.
         23    2    1    0    0    0 -0.13290839962E+02 -0.27156928482E+02 -0.77738611468E+01  0.93871766408E+02  0.88528698284E+02 0.  0.
         13    1    3    3    0    0 -0.79765611074E+01 -0.19688646283E+02  0.39965347040E+02  0.45260451253E+02  0.10566000000E+00 0.  1.
         22    1    1    0    0    0  0.13290839962E+02  0.27156928482E+02  0.77738611468E+01  0.31218233592E+02  0.00000000000E+00 0.  1.
</event>
<event>
 5    1  0.1254921E-009  0.9118800E+02  0.7561462E-02  0.1125453E+00
         25   -1    0    0    0    0  0.00000000000E+00  0.00000000000E+00  0.99999998245E-14  0.12509000000E+03  0.12509000000E+03 0.  0.
        -13    1    3    3    0    0  0.41583554574E+02 -0.10375997151E+02 -0.10269892704E+02  0.44071931976E+02  0.10566000000E+00 0.  1.
         23    2    1    0    0    0  0.10143768191E+02  0.12862898229E+02  0.23980151266E+02  0.96048687380E+02  0.91553003821E+02 0.  0.
         13    1    3    3    0    0 -0.31439786383E+02  0.23238895380E+02  0.34250043970E+02  0.51976755404E+02  0.10566000000E+00 0. -1.
         22    1    1    0    0    0 -0.10143768191E+02 -0.12862898229E+02 -0.23980151266E+02  0.29041312620E+02  0.00000000000E+00 0. -1.
</event>
<event>
 5    1  0.1254921E-009  0.9118800E+02  0.7561462E-02  0.1125453E+00
         25   -1    0    0    0    0  0.00000000000E+00  0.00000000000E+00  0.99999998245E-14  0.12509000000E+03  0.12509000000E+03 0.  0.
        -13    1    3    3    0    0 -0.92734463238E+01 -0.35932569069E+01  0.38900480054E+02  0.40151797150E+02  0.10566000000E+00 0. -1.
         23    2    1    0    0    0  0.90657388766E+01  0.27680446923E+02 -0.32880175844E+01  0.95777787138E+02  0.91182118237E+02 0.  0.
         13    1    3    3    0    0  0.18339185200E+02  0.31273703830E+02 -0.42188497639E+02  0.55625989988E+02  0.10566000000E+00 0.  1.
         22    1    1    0    0    0 -0.90657388766E+01 -0.27680446923E+02  0.32880175844E+01  0.29312212862E+02  0.00000000000E+00 0.  1.
</event>
<event>
 5    1  0.1254921E-009  0.9118800E+02  0.7561462E-02  0.1125453E+00
         25   -1    0    0    0    0  0.00000000000E+00  0.00000000000E+00  0.99999998245E-14  0.12509000000E+03  0.12509000000E+03 0.  0.
        -13    1    3    3    0    0 -0.81988775218E+01  0.15661660642E+02 -0.50782714238E+02  0.53771781039E+02  0.10566000000E+00 0.  1.
         23    2    1    0    0    0  0.17321010147E+02  0.92875578102E+00 -0.31925802799E+02  0.88756312269E+02  0.80978676844E+02 0.  0.
         13    1    3    3    0    0  0.25519887669E+02 -0.14732904861E+02  0.18856911439E+02  0.34984531229E+02  0.10566000000E+00 0. -1.
         22    1    1    0    0    0 -0.17321010147E+02 -0.92875578102E+00  0.31925802799E+02  0.36333687731E+02  0.00000000000E+00 0.  1.
</event>
<event>
 5    1  0.1254921E-009  0.9118800E+02  0.7561462E-02  0.1125453E+00
         25   -1    0    0    0    0  0.00000000000E+00  0.00000000000E+00  0.99999998245E-14  0.12509000000E+03  0.12509000000E+03 0.  0.
        -13    1    3    3    0    0 -0.28351592676E+02 -0.11467461530E+02 -0.30788581588E+02  0.43396582832E+02  0.10566000000E+00 0.  1.
         23    2    1    0    0    0  0.22022555584E+02 -0.65339593461E+01 -0.18785027466E+02  0.95415720967E+02  0.90684050260E+02 0.  0.
         13    1    3    3    0    0  0.50374148261E+02  0.49335021842E+01  0.12003554122E+02  0.52019138136E+02  0.10566000000E+00 0. -1.
         22    1    1    0    0    0 -0.22022555584E+02  0.65339593461E+01  0.18785027466E+02  0.29674279033E+02  0.00000000000E+00 0.  1.
</event>
<event>
 5    1  0.1254921E-009  0.9118800E+02  0.7561462E-02  0.1125453E+00
         25   -1    0    0    0    0  0.00000000000E+00  0.00000000000E+00  0.99999998245E-14  0.12509000000E+03  0.12509000000E+03 0.  0.
        -13    1    3    3    0    0 -0.20394213118E+02 -0.96664793952E+01 -0.15410520137E+02  0.27328740321E+02  0.10566000000E+00 0.  1.
         23    2    1    0    0    0 -0.28217390763E+02 -0.35994395078E+01  0.35730297044E+02  0.79419098617E+02  0.64973548403E+02 0.  0.
         13    1    3    3    0    0 -0.78231776449E+01  0.60670398874E+01  0.51140817181E+02  0.52090358297E+02  0.10566000000E+00 0. -1.
         22    1    1    0    0    0  0.28217390763E+02  0.35994395078E+01 -0.35730297044E+02  0.45670901383E+02  0.00000000000E+00 0. -1.
</event>
<event>
 5    1  0.1254921E-009  0.9118800E+02  0.7561462E-02  0.1125453E+00
         25   -1    0    0    0    0  0.00000000000E+00  0.00000000000E+00  0.99999998245E-14  0.12509000000E+03  0.12509000000E+03 0.  0.
        -13    1    3    3    0    0 -0.21831897768E+02  0.31804441430E+01 -0.25312638500E+02  0.33578085368E+02  0.10566000000E+00 0.  1.
         23    2    1    0    0    0  0.20120693900E+02 -0.47081445080E+01  0.20350662632E+02  0.96087268796E+02  0.91605702920E+02 0.  0.
         13    1    3    3    0    0  0.41952591668E+02 -0.78885886510E+01  0.45663301132E+02  0.62509183428E+02  0.10566000000E+00 0. -1.
         22    1    1    0    0    0 -0.20120693900E+02  0.47081445080E+01 -0.20350662632E+02  0.29002731204E+02  0.00000000000E+00 0. -1.
</event>
<event>
 5    1  0.1254921E-009  0.9118800E+02  0.7561462E-02  0.1125453E+00
         25   -1    0    0    0    0  0.00000000000E+00  0.00000000000E+00  0.99999998245E-14  0.12509000000E+03  0.12509000000E+03 0.  0.
        -13    1    3    3    0    0 -0.19305083755E+02 -0.55046565114E+02  0.10306346638E+02  0.59237171900E+02  0.10566000000E+00 0. -1.
         23    2    1    0    0    0 -0.11446299290E+02 -0.19802197462E+02  0.17788878265E+02  0.96114338114E+02  0.91642659332E+02 0.  0.
         13    1    3    3    0    0  0.78587844643E+01  0.35244367652E+02  0.74825316276E+01  0.36877166215E+02  0.10566000000E+00 0.  1.
         22    1    1    0    0    0  0.11446299290E+02  0.19802197462E+02 -0.17788878265E+02  0.28975661886E+02  0.00000000000E+00 0. -1.
</event>
<event>
 5    1  0.1254921E-009  0.9118800E+02  0.7561462E-02  0.1125453E+00
         25   -1    0    0    0    0  0.00000000000E+00  0.00000000000E+00  0.99999998245E-14  0.12509000000E+03  0.12509000000E+03 0.  0.
        -13    1    3    3    0    0 -0.35880608491E+02  0.46777735437E+02  0.12046249256E+02  0.60172235154E+02  0.10566000000E+00 0.  1.
         23    2    1    0    0    0 -0.73096889178E+01  0.24571298585E+02  0.12949159632E+02  0.96369606524E+02  0.91990434613E+02 0.  0.
         13    1    3    3    0    0  0.28570919574E+02 -0.22206436851E+02  0.90291037561E+00  0.36197371370E+02  0.10566000000E+00 0. -1.
         22    1    1    0    0    0  0.73096889178E+01 -0.24571298585E+02 -0.12949159632E+02  0.28720393476E+02  0.00000000000E+00 0.  1.
</event>
<event>
 5    1  0.1254921E-009  0.9118800E+02  0.7561462E-02  0.1125453E+00
         25   -1    0    0    0    0  0.00000000000E+00  0.00000000000E+00  0.99999998245E-14  0.12509000000E+03  0.12509000000E+03 0.  0.
        -13    1    3    3    0    0 -0.12674813126E+02  0.20968392942E+02 -0.18825177869E+02  0.30898590197E+02  0.10566000000E+00 0.  1.
         23    2    1    0    0    0  0.10478468823E+02 -0.29903168655E+01  0.31783626202E+02  0.91490309550E+02  0.85097224062E+02 0.  0.
         13    1    3    3    0    0  0.23153281949E+02 -0.23958709807E+02  0.50608804071E+02  0.60591719353E+02  0.10566000000E+00 0. -1.
         22    1    1    0    0    0 -0.10478468823E+02  0.29903168655E+01 -0.31783626202E+02  0.33599690450E+02  0.00000000000E+00 0. -1.
</event>
<event>
 5    1  0.1254921E-009  0.9118800E+02  0.7561462E-02  0.1125453E+00
         25   -1    0    0    0    0  0.00000000000E+00  0.00000000000E+00  0.99999998245E-14  0.12509000000E+03  0.12509000000E+03 0.  0.
        -13    1    3    3    0    0 -0.14523592710E+01 -0.46486367921E+02  0.29711357604E+02  0.55189380179E+02  0.10566000000E+00 0.  1.
         23    2    1    0    0    0 -0.15360098937E+02 -0.89415441164E+01  0.23374547882E+02  0.95725849421E+02  0.91110838588E+02 0.  0.
         13    1    3    3    0    0 -0.13907739666E+02  0.37544823804E+02 -0.63368097218E+01  0.40536469242E+02  0.10566000000E+00 0. -1.
         22    1    1    0    0    0  0.15360098937E+02  0.89415441164E+01 -0.23374547882E+02  0.29364150579E+02  0.00000000000E+00 0. -1.
</event>
<event>
 5    1  0.1254921E-009  0.9118800E+02  0.7561462E-02  0.1125453E+00
         25   -1    0    0    0    0  0.00000000000E+00  0.00000000000E+00  0.99999998245E-14  0.12509000000E+03  0.12509000000E+03 0.  0.
        -13    1    3    3    0    0  0.20538226638E+02 -0.80563610134E+01  0.29479632470E+02  0.36820966864E+02  0.10566000000E+00 0.  1.
         23    2    1    0    0    0 -0.61620701983E+01 -0.26234966350E+02 -0.16855533493E+02  0.93303940511E+02  0.87722697958E+02 0.  0.
         13    1    3    3    0    0 -0.26700296836E+02 -0.18178605337E+02 -0.46335165963E+02  0.56482973647E+02  0.10566000000E+00 0. -1.
         22    1    1    0    0    0  0.61620701983E+01  0.26234966350E+02  0.16855533493E+02  0.31786059489E+02  0.00000000000E+00 0. -1.
</event>
<event>
 5    1  0.1254921E-009  0.9118800E+02  0.7561462E-02  0.1125453E+00
         25   -1    0    0    0    0  0.00000000000E+00  0.00000000000E+00  0.99999998245E-14  0.12509000000E+03  0.12509000000E+03 0.  0.
        -13    1    3    3    0    0  0.53970606071E+02 -0.27259084380E+02  0.11768504923E+02  0.61598643435E+02  0.10566000000E+00 0.  1.
         23    2    1    0    0    0  0.24516472063E+02 -0.14958456720E+02  0.13051248035E+02  0.93544035042E+02  0.88064400224E+02 0.  0.
         13    1    3    3    0    0 -0.29454134008E+02  0.12300627660E+02  0.12827431121E+01  0.31945391607E+02  0.10566000000E+00 0. -1.
         22    1    1    0    0    0 -0.24516472063E+02  0.14958456720E+02 -0.13051248035E+02  0.31545964958E+02  0.00000000000E+00 0.  1.
</event>
<event>
 5    1  0.1254921E-009  0.9118800E+02  0.7561462E-02  0.1125453E+00
         25   -1    0    0    0    0  0.00000000000E+00  0.00000000000E+00  0.99999998245E-14  0.12509000000E+03  0.12509000000E+03 0.  0.
        -13    1    3    3    0    0 -0.13326135826E+02 -0.46447548650E+02  0.39425672948E+02  0.62364697731E+02  0.10566000000E+00 0.  1.
         23    2    1    0    0    0 -0.96754643252E+01 -0.27652523744E+02  0.27417060285E+02  0.84965545188E+02  0.74894405633E+02 0.  0.
         13    1    3    3    0    0  0.36506715007E+01  0.18795024907E+02 -0.12008612663E+02  0.22600847457E+02  0.10566000000E+00 0. -1.
         22    1    1    0    0    0  0.96754643252E+01  0.27652523744E+02 -0.27417060285E+02  0.40124454812E+02  0.00000000000E+00 0.  1.
</event>
<event>
 5    1  0.1254921E-009  0.9118800E+02  0.7561462E-02  0.1125453E+00
         25   -1    0    0    0    0  0.00000000000E+00  0.00000000000E+00  0.99999998245E-14  0.12509000000E+03  0.12509000000E+03 0.  0.
        -13    1    3    3    0    0  0.57865343366E+02 -0.12265291207E+02  0.55208364043E+00  0.59153624502E+02  0.10566000000E+00 0. -1.
         23    2    1    0    0    0  0.27789984041E+02  0.71168236266E+01 -0.66293680963E+01  0.95647158546E+02  0.91002736361E+02 0.  0.
         13    1    3    3    0    0 -0.30075359326E+02  0.19382114833E+02 -0.71814517367E+01  0.36493534045E+02  0.10566000000E+00 0.  1.
         22    1    1    0    0    0 -0.27789984041E+02 -0.71168236266E+01  0.66293680963E+01  0.29442841454E+02  0.00000000000E+00 0. -1.
</event>
<event>
 5    1  0.1254921E-009  0.9118800E+02  0.7561462E-02  0.1125453E+00
         25   -1    0    0    0    0  0.00000000000E+00  0.00000000000E+00  0.99999998245E-14  0.12509000000E+03  0.12509000000E+03 0.  0.
        -13    1    3    3    0    0 -0.32147514279E+01 -0.49760769359E+02  0.35628948142E+02  0.61285413465E+02  0.10566000000E+00 0. -1.
         23    2    1    0    0    0  0.72001722822E+01 -0.21829354255E+02  0.17772073291E+02  0.96034711718E+02  0.91533906710E+02 0.  0.
         13    1    3    3    0    0  0.10414923710E+02  0.27931415104E+02 -0.17856874850E+02  0.34749298252E+02  0.10566000000E+00 0.  1.
         22    1    1    0    0    0 -0.72001722822E+01  0.21829354255E+02 -0.17772073291E+02  0.29055288282E+02  0.00000000000E+00 0. -1.
</event>
<event>
 5    1  0.1254921E-009  0.9118800E+02  0.7561462E-02  0.1125453E+00
         25   -1    0    0    0    0  0.00000000000E+00  0.00000000000E+00  0.99999998245E-14  0.12509000000E+03  0.12509000000E+03 0.  0.
        -13    1    3    3    0    0  0.55468781726E+02 -0.24048583847E+02 -0.13232867788E+02  0.61888933463E+02  0.10566000000E+00 0.  1.
         23    2    1    0    0    0  0.24257473694E+02 -0.17362227440E+02 -0.76610493797E+01  0.94291239484E+02  0.89119437802E+02 0.  0.
         13    1    3    3    0    0 -0.31211308032E+02  0.66863564067E+01  0.55718184083E+01  0.32402306021E+02  0.10566000000E+00 0. -1.
         22    1    1    0    0    0 -0.24257473694E+02  0.17362227440E+02  0.76610493797E+01  0.30798760516E+02  0.00000000000E+00 0.  1.
</event>
<event>
 5    1  0.1254921E-009  0.9118800E+02  0.7561462E-02  0.1125453E+00
         25   -1    0    0    0    0  0.00000000000E+00  0.00000000000E+00  0.99999998245E-14  0.12509000000E+03  0.12509000000E+03 0.  0.
        -13    1    3    3    0    0  0.34998686147E+02  0.12875187570E+02  0.28603091542E+02  0.46998154185E+02  0.10566000000E+00 0.  1.
         23    2    1    0    0    0  0.24851189783E+02 -0.73907789236E+00 -0.16539667118E+02  0.95228847006E+02  0.90425908035E+02 0.  0.
         13    1    3    3    0    0 -0.10147496364E+02 -0.13614265462E+02 -0.45142758660E+02  0.48230692821E+02  0.10566000000E+00 0. -1.
         22    1    1    0    0    0 -0.24851189783E+02  0.73907789236E+00  0.16539667118E+02  0.29861152994E+02  0.00000000000E+00 0. -1.
</event>
<event>
 5    1  0.1254921E-009  0.9118800E+02  0.7561462E-02  0.1125453E+00
         25   -1    0    0    0    0  0.00000000000E+00  0.00000000000E+00  0.99999998245E-14  0.12509000000E+03  0.12509000000E+03 0.  0.
        -13    1    3    3    0    0 -0.70782414352E+01  0.32252714352E+02  0.49015186584E+01  0.33382257774E+02  0.10566000000E+00 0. -1.
         23    2    1    0    0    0 -0.72431746200E+01 -0.21143071661E+02 -0.22480867464E+02  0.93390118931E+02  0.87845499909E+02 0.  0.
         13    1    3    3    0    0 -0.16493318486E+00 -0.53395786013E+02 -0.27382386122E+02  0.60007861158E+02  0.10566000000E+00 0.  1.
         22    1    1    0    0    0  0.72431746200E+01  0.21143071661E+02  0.22480867464E+02  0.31699881069E+02  0.00000000000E+00 0.  1.
</event>
<event>
 5    1  0.1254921E-009  0.9118800E+02  0.7561462E-02  0.1125453E+00
         25   -1    0    0    0    0  0.00000000000E+00  0.00000000000E+00  0.99999998245E-14  0.12509000000E+03  0.12509000000E+03 0.  0.
        -13    1    3    3    0    0  0.51765651886E+02 -0.17859591658E+01  0.15907561784E+02  0.54184260180E+02  0.10566000000E+00 0. -1.
         23    2    1    0    0    0  0.14940302362E+02  0.20017139536E+02  0.12616423143E+02  0.97106564850E+02  0.92987161985E+02 0.  0.
         13    1    3    3    0    0 -0.36825349524E+02  0.21803098702E+02 -0.32911386405E+01  0.42922304670E+02  0.10566000000E+00 0.  1.
         22    1    1    0    0    0 -0.14940302362E+02 -0.20017139536E+02 -0.12616423143E+02  0.27983435150E+02  0.00000000000E+00 0. -1.
</event>
<event>
 5    1  0.1254921E-009  0.9118800E+02  0.7561462E-02  0.1125453E+00
         25   -1    0    0    0    0  0.00000000000E+00  0.00000000000E+00  0.99999998245E-14  0.12509000000E+03  0.12509000000E+03 0.  0.
        -13    1    3    3    0    0  0.89017086483E+01 -0.20311356332E+02  0.29196481493E+02  0.36663841977E+02  0.10566000000E+00 0. -1.
         23    2    1    0    0    0  0.66028477433E+01  0.29849638402E+02  0.46738433206E+00  0.94515223481E+02  0.89433274068E+02 0.  0.
         13    1    3    3    0    0 -0.22988609049E+01  0.50160994735E+02 -0.28729097161E+02  0.57851381504E+02  0.10566000000E+00 0.  1.
         22    1    1    0    0    0 -0.66028477433E+01 -0.29849638402E+02 -0.46738433206E+00  0.30574776519E+02  0.00000000000E+00 0.  1.
</event>
<event>
 5    1  0.1254921E-009  0.9118800E+02  0.7561462E-02  0.1125453E+00
         25   -1    0    0    0    0  0.00000000000E+00  0.00000000000E+00  0.99999998245E-14  0.12509000000E+03  0.12509000000E+03 0.  0.
        -13    1    3    3    0    0 -0.98802142572E+01 -0.25350322537E+02  0.24360164210E+02  0.36519669369E+02  0.10566000000E+00 0. -1.
         23    2    1    0    0    0  0.58062139555E+01 -0.36759828008E+01 -0.28504215499E+02  0.95769098389E+02  0.91170197625E+02 0.  0.
         13    1    3    3    0    0  0.15686428213E+02  0.21674339736E+02 -0.52864379709E+02  0.59249429020E+02  0.10566000000E+00 0.  1.
         22    1    1    0    0    0 -0.58062139555E+01  0.36759828008E+01  0.28504215499E+02  0.29320901611E+02  0.00000000000E+00 0.  1.
</event>
<event>
 5    1  0.1254921E-009  0.9118800E+02  0.7561462E-02  0.1125453E+00
         25   -1    0    0    0    0  0.00000000000E+00  0.00000000000E+00  0.99999998245E-14  0.12509000000E+03  0.12509000000E+03 0.  0.
        -13    1    3    3    0    0 -0.44210200812E+02  0.50965882364E+01  0.42879228524E+02  0.61799324190E+02  0.10566000000E+00 0.  1.
         23    2    1    0    0    0 -0.22825072367E+02  0.70036444151E+01  0.15370933660E+02  0.96694567880E+02  0.92431265773E+02 0.  0.
         13    1    3    3    0    0  0.21385128445E+02  0.19070561787E+01 -0.27508294864E+02  0.34895243690E+02  0.10566000000E+00 0. -1.
         22    1    1    0    0    0  0.22825072367E+02 -0.70036444151E+01 -0.15370933660E+02  0.28395432120E+02  0.00000000000E+00 0.  1.
</event>
<event>
 5    1  0.1254921E-009  0.9118800E+02  0.7561462E-02  0.1125453E+00
         25   -1    0    0    0    0  0.00000000000E+00  0.00000000000E+00  0.99999998245E-14  0.12509000000E+03  0.12509000000E+03 0.  0.
        -13    1    3    3    0    0  0.39510632706E+02  0.25765709116E+02 -0.32789067934E+02  0.57446462059E+02  0.10566000000E+00 0. -1.
         23    2    1    0    0    0  0.33032626200E+02  0.20660521803E+02 -0.57615736781E+01  0.85704631066E+02  0.76118831442E+02 0.  0.
         13    1    3    3    0    0 -0.64780065063E+01 -0.51051873128E+01  0.27027494256E+02  0.28258169007E+02  0.10566000000E+00 0.  1.
         22    1    1    0    0    0 -0.33032626200E+02 -0.20660521803E+02  0.57615736781E+01  0.39385368934E+02  0.00000000000E+00 0. -1.
</event>
<event>
 5    1  0.1254921E-009  0.9118800E+02  0.7561462E-02  0.1125453E+00
         25   -1    0    0    0    0  0.00000000000E+00  0.00000000000E+00  0.99999998245E-14  0.12509000000E+03  0.12509000000E+03 0.  0.
        -13    1    3    3    0    0 -0.12565798919E+02 -0.33693651528E+02  0.25994187329E+02  0.44371955047E+02  0.10566000000E+00 0.  1.
         23    2    1    0    0    0 -0.25184856503E+02  0.12744335282E+02  0.79480907449E+01  0.95766507280E+02  0.91166642426E+02 0.  0.
         13    1    3    3    0    0 -0.12619057584E+02  0.46437986810E+02 -0.18046096584E+02  0.51394552233E+02  0.10566000000E+00 0. -1.
         22    1    1    0    0    0  0.25184856503E+02 -0.12744335282E+02 -0.79480907449E+01  0.29323492720E+02  0.00000000000E+00 0. -1.
</event>
<event>
 5    1  0.1254921E-009  0.9118800E+02  0.7561462E-02  0.1125453E+00
         25   -1    0    0    0    0  0.00000000000E+00  0.00000000000E+00  0.99999998245E-14  0.12509000000E+03  0.12509000000E+03 0.  0.
        -13    1    3    3    0    0  0.52442972644E+02 -0.26371312225E+02  0.25111638831E+01  0.58753966643E+02  0.10566000000E+00 0.  1.
         23    2    1    0    0    0  0.31897282624E+02 -0.29807970404E+00 -0.50347106806E+01  0.92796443337E+02  0.86996011944E+02 0.  0.
         13    1    3    3    0    0 -0.20545690021E+02  0.26073232521E+02 -0.75458745637E+01  0.34042476694E+02  0.10566000000E+00 0. -1.
         22    1    1    0    0    0 -0.31897282624E+02  0.29807970404E+00  0.50347106806E+01  0.32293556663E+02  0.00000000000E+00 0.  1.
</event>
<event>
 5    1  0.1254921E-009  0.9118800E+02  0.7561462E-02  0.1125453E+00
         25   -1    0    0    0    0  0.00000000000E+00  0.00000000000E+00  0.99999998245E-14  0.12509000000E+03  0.12509000000E+03 0.  0.
        -13    1    3    3    0    0 -0.58222763164E+02 -0.48887975590E+01 -0.20679587679E+02  0.61979407892E+02  0.10566000000E+00 0. -1.
         23    2    1    0    0    0 -0.23329989626E+02 -0.25678333551E+01 -0.14528737009E+02  0.97486261428E+02  0.93496549584E+02 0.  0.
         13    1    3    3    0    0  0.34892773538E+02  0.23209642039E+01  0.61508506703E+01  0.35506853536E+02  0.10566000000E+00 0.  1.
         22    1    1    0    0    0  0.23329989626E+02  0.25678333551E+01  0.14528737009E+02  0.27603738572E+02  0.00000000000E+00 0. -1.
</event>
<event>
 5    1  0.1254921E-009  0.9118800E+02  0.7561462E-02  0.1125453E+00
         25   -1    0    0    0    0  0.00000000000E+00  0.00000000000E+00  0.99999998245E-14  0.12509000000E+03  0.12509000000E+03 0.  0.
        -13    1    3    3    0    0  0.23986109365E+02 -0.24193403232E+02  0.32549653353E+02  0.47118417841E+02  0.10566000000E+00 0. -1.
         23    2    1    0    0    0 -0.76755853481E+01 -0.26161123936E+02 -0.61324756685E+01  0.97144941870E+02  0.93038773945E+02 0.  0.
         13    1    3    3    0    0 -0.31661694713E+02 -0.19677207046E+01 -0.38682129021E+02  0.50026524030E+02  0.10566000000E+00 0.  1.
         22    1    1    0    0    0  0.76755853481E+01  0.26161123936E+02  0.61324756685E+01  0.27945058130E+02  0.00000000000E+00 0. -1.
</event>
<event>
 5    1  0.1254921E-009  0.9118800E+02  0.7561462E-02  0.1125453E+00
         25   -1    0    0    0    0  0.00000000000E+00  0.00000000000E+00  0.99999998245E-14  0.12509000000E+03  0.12509000000E+03 0.  0.
        -13    1    3    3    0    0  0.28024862016E+02  0.11806046295E+02 -0.20469873308E-01  0.30410314092E+02  0.10566000000E+00 0.  1.
         23    2    1    0    0    0 -0.21222748053E+02 -0.14257888246E+01 -0.29047495026E+02  0.89087293491E+02  0.81488348772E+02 0.  0.
         13    1    3    3    0    0 -0.49247610069E+02 -0.13231835119E+02 -0.29027025152E+02  0.58676979399E+02  0.10566000000E+00 0. -1.
         22    1    1    0    0    0  0.21222748053E+02  0.14257888246E+01  0.29047495026E+02  0.36002706509E+02  0.00000000000E+00 0. -1.
</event>
<event>
 5    1  0.1254921E-009  0.9118800E+02  0.7561462E-02  0.1125453E+00
         25   -1    0    0    0    0  0.00000000000E+00  0.00000000000E+00  0.99999998245E-14  0.12509000000E+03  0.12509000000E+03 0.  0.
        -13    1    3    3    0    0 -0.18134476755E+02  0.42532490208E+02 -0.13382947698E+02  0.48135085162E+02  0.10566000000E+00 0. -1.
         23    2    1    0    0    0  0.67578980230E+01  0.59005053955E+01 -0.28717361167E+02  0.95003923785E+02  0.90114225029E+02 0.  0.
         13    1    3    3    0    0  0.24892374778E+02 -0.36631984813E+02 -0.15334413469E+02  0.46868838623E+02  0.10566000000E+00 0.  1.
         22    1    1    0    0    0 -0.67578980230E+01 -0.59005053955E+01  0.28717361167E+02  0.30086076215E+02  0.00000000000E+00 0.  1.
</event>
<event>
 5    1  0.1254921E-009  0.9118800E+02  0.7561462E-02  0.1125453E+00
         25   -1    0    0    0    0  0.00000000000E+00  0.00000000000E+00  0.99999998245E-14  0.12509000000E+03  0.12509000000E+03 0.  0.
        -13    1    3    3    0    0  0.12670068017E+02 -0.86575807822E+01 -0.31461071628E+02  0.35004207184E+02  0.10566000000E+00 0. -1.
         23    2    1    0    0    0  0.94023118381E+01 -0.45060649124E+01  0.28264845582E+02  0.94963440544E+02  0.90058011610E+02 0.  0.
         13    1    3    3    0    0 -0.32677561794E+01  0.41515158698E+01  0.59725917210E+02  0.59959233360E+02  0.10566000000E+00 0.  1.
         22    1    1    0    0    0 -0.94023118381E+01  0.45060649124E+01 -0.28264845582E+02  0.30126559456E+02  0.00000000000E+00 0.  1.
</event>
<event>
 5    1  0.1254921E-009  0.9118800E+02  0.7561462E-02  0.1125453E+00
         25   -1    0    0    0    0  0.00000000000E+00  0.00000000000E+00  0.99999998245E-14  0.12509000000E+03  0.12509000000E+03 0.  0.
        -13    1    3    3    0    0 -0.15439777500E+02 -0.14840736349E+02  0.50806426694E+02  0.55135635864E+02  0.10566000000E+00 0. -1.
         23    2    1    0    0    0 -0.26590480152E+02 -0.12111040816E+02  0.16019509983E+02  0.91768000593E+02  0.85504446015E+02 0.  0.
         13    1    3    3    0    0 -0.11150702652E+02  0.27296955331E+01 -0.34786916711E+02  0.36632364729E+02  0.10566000000E+00 0.  1.
         22    1    1    0    0    0  0.26590480152E+02  0.12111040816E+02 -0.16019509983E+02  0.33321999407E+02  0.00000000000E+00 0. -1.
</event>
<event>
 5    1  0.1254921E-009  0.9118800E+02  0.7561462E-02  0.1125453E+00
         25   -1    0    0    0    0  0.00000000000E+00  0.00000000000E+00  0.99999998245E-14  0.12509000000E+03  0.12509000000E+03 0.  0.
        -13    1    3    3    0    0  0.58170405968E+02 -0.21507706375E+02 -0.45944923800E+00  0.62020962759E+02  0.10566000000E+00 0. -1.
         23    2    1    0    0    0  0.24210063640E+02 -0.13965814833E+02 -0.34079102102E+01  0.96933561706E+02  0.92754139355E+02 0.  0.
         13    1    3    3    0    0 -0.33960342328E+02  0.75418915415E+01 -0.29484609722E+01  0.34912598946E+02  0.10566000000E+00 0.  1.
         22    1    1    0    0    0 -0.24210063640E+02  0.13965814833E+02  0.34079102102E+01  0.28156438294E+02  0.00000000000E+00 0. -1.
</event>
<event>
 5    1  0.1254921E-009  0.9118800E+02  0.7561462E-02  0.1125453E+00
         25   -1    0    0    0    0  0.00000000000E+00  0.00000000000E+00  0.99999998245E-14  0.12509000000E+03  0.12509000000E+03 0.  0.
        -13    1    3    3    0    0 -0.44548050243E+02 -0.92640939537E+00 -0.59942621729E+01  0.44959196588E+02  0.10566000000E+00 0.  1.
         23    2    1    0    0    0 -0.80499383367E+01 -0.21641223270E+02  0.20184185727E+02  0.94421687276E+02  0.89302349481E+02 0.  0.
         13    1    3    3    0    0  0.36498111906E+02 -0.20714813875E+02  0.26178447900E+02  0.49462490688E+02  0.10566000000E+00 0. -1.
         22    1    1    0    0    0  0.80499383367E+01  0.21641223270E+02 -0.20184185727E+02  0.30668312724E+02  0.00000000000E+00 0. -1.
</event>
<event>
 5    1  0.1254921E-009  0.9118800E+02  0.7561462E-02  0.1125453E+00
         25   -1    0    0    0    0  0.00000000000E+00  0.00000000000E+00  0.99999998245E-14  0.12509000000E+03  0.12509000000E+03 0.  0.
        -13    1    3    3    0    0  0.39586394774E+02  0.12716461859E+02  0.63125659224E+01  0.42055329103E+02  0.10566000000E+00 0.  1.
         23    2    1    0    0    0 -0.10101404754E+02  0.72887758477E+01  0.26380144678E+02  0.95916781724E+02  0.91372601756E+02 0.  0.
         13    1    3    3    0    0 -0.49687799528E+02 -0.54276860109E+01  0.20067578755E+02  0.53861452621E+02  0.10566000000E+00 0. -1.
         22    1    1    0    0    0  0.10101404754E+02 -0.72887758477E+01 -0.26380144678E+02  0.29173218276E+02  0.00000000000E+00 0. -1.
</event>
<event>
 5    1  0.1254921E-009  0.9118800E+02  0.7561462E-02  0.1125453E+00
         25   -1    0    0    0    0  0.00000000000E+00  0.00000000000E+00  0.99999998245E-14  0.12509000000E+03  0.12509000000E+03 0.  0.
        -13    1    3    3    0    0  0.14323287433E+02  0.29641588260E+01  0.60218956701E+02  0.61969966198E+02  0.10566000000E+00 0.  1.
         23    2    1    0    0    0  0.42017222662E+01 -0.42644158870E+01  0.26823588377E+02  0.97606466634E+02  0.93657235292E+02 0.  0.
         13    1    3    3    0    0 -0.10121565166E+02 -0.72285747130E+01 -0.33395368324E+02  0.35636500436E+02  0.10566000000E+00 0. -1.
         22    1    1    0    0    0 -0.42017222662E+01  0.42644158870E+01 -0.26823588377E+02  0.27483533366E+02  0.00000000000E+00 0.  1.
</event>
<event>
 5    1  0.1254921E-009  0.9118800E+02  0.7561462E-02  0.1125453E+00
         25   -1    0    0    0    0  0.00000000000E+00  0.00000000000E+00  0.99999998245E-14  0.12509000000E+03  0.12509000000E+03 0.  0.
        -13    1    3    3    0    0  0.43215266572E+02  0.26174425388E+02 -0.17453266151E+02  0.53453601120E+02  0.10566000000E+00 0. -1.
         23    2    1    0    0    0  0.23081147622E+02 -0.11073147218E+02 -0.13941218895E+02  0.95940187837E+02  0.91404639341E+02 0.  0.
         13    1    3    3    0    0 -0.20134118950E+02 -0.37247572606E+02  0.35120472561E+01  0.42486586717E+02  0.10566000000E+00 0.  1.
         22    1    1    0    0    0 -0.23081147622E+02  0.11073147218E+02  0.13941218895E+02  0.29149812163E+02  0.00000000000E+00 0. -1.
</event>
<event>
 5    1  0.1254921E-009  0.9118800E+02  0.7561462E-02  0.1125453E+00
         25   -1    0    0    0    0  0.00000000000E+00  0.00000000000E+00  0.99999998245E-14  0.12509000000E+03  0.12509000000E+03 0.  0.
        -13    1    3    3    0    0 -0.26482919096E+02  0.31865231917E+02  0.36783579779E+02  0.55405603637E+02  0.10566000000E+00 0. -1.
         23    2    1    0    0    0  0.68371631156E+01  0.19919750447E+02  0.24286707646E+02  0.92943656108E+02  0.87207429644E+02 0.  0.
         13    1    3    3    0    0  0.33320082212E+02 -0.11945481470E+02 -0.12496872133E+02  0.37538052471E+02  0.10566000000E+00 0.  1.
         22    1    1    0    0    0 -0.68371631156E+01 -0.19919750447E+02 -0.24286707646E+02  0.32146343892E+02  0.00000000000E+00 0. -1.
</event>
<event>
 5    1  0.1254921E-009  0.9118800E+02  0.7561462E-02  0.1125453E+00
         25   -1    0    0    0    0  0.00000000000E+00  0.00000000000E+00  0.99999998245E-14  0.12509000000E+03  0.12509000000E+03 0.  0.
        -13    1    3    3    0    0  0.12694167657E+02  0.82038012105E+01  0.31597631095E+02  0.35026642741E+02  0.10566000000E+00 0.  1.
         23    2    1    0    0    0  0.37317987593E+02  0.10817778515E+02 -0.11358962027E+02  0.84609355880E+02  0.74297109999E+02 0.  0.
         13    1    3    3    0    0  0.24623819936E+02  0.26139773047E+01 -0.42956593122E+02  0.49582713140E+02  0.10566000000E+00 0. -1.
         22    1    1    0    0    0 -0.37317987593E+02 -0.10817778515E+02  0.11358962027E+02  0.40480644120E+02  0.00000000000E+00 0. -1.
</event>
<event>
 5    1  0.1254921E-009  0.9118800E+02  0.7561462E-02  0.1125453E+00
         25   -1    0    0    0    0  0.00000000000E+00  0.00000000000E+00  0.99999998245E-14  0.12509000000E+03  0.12509000000E+03 0.  0.
        -13    1    3    3    0    0  0.36141450588E+02  0.26686158722E+01  0.10811077069E+02  0.37818203457E+02  0.10566000000E+00 0.  1.
         23    2    1    0    0    0 -0.21098297815E+02 -0.15717704249E+02  0.78452954439E+00  0.98768907999E+02  0.95197149659E+02 0.  0.
         13    1    3    3    0    0 -0.57239748403E+02 -0.18386320121E+02 -0.10026547525E+02  0.60950704542E+02  0.10566000000E+00 0. -1.
         22    1    1    0    0    0  0.21098297815E+02  0.15717704249E+02 -0.78452954439E+00  0.26321092001E+02  0.00000000000E+00 0. -1.
</event>
<event>
 5    1  0.1254921E-009  0.9118800E+02  0.7561462E-02  0.1125453E+00
         25   -1    0    0    0    0  0.00000000000E+00  0.00000000000E+00  0.99999998245E-14  0.12509000000E+03  0.12509000000E+03 0.  0.
        -13    1    3    3    0    0 -0.54179841034E+01  0.44626811914E+02  0.41985173484E+01  0.45150255872E+02  0.10566000000E+00 0.  1.
         23    2    1    0    0    0 -0.38425870323E+01 -0.35418859340E+01  0.26375008708E+02  0.98202242276E+02  0.94449610230E+02 0.  0.
         13    1    3    3    0    0  0.15753970711E+01 -0.48168697848E+02  0.22176491360E+02  0.53051986404E+02  0.10566000000E+00 0. -1.
         22    1    1    0    0    0  0.38425870323E+01  0.35418859340E+01 -0.26375008708E+02  0.26887757724E+02  0.00000000000E+00 0. -1.
</event>
<event>
 5    1  0.1254921E-009  0.9118800E+02  0.7561462E-02  0.1125453E+00
         25   -1    0    0    0    0  0.00000000000E+00  0.00000000000E+00  0.99999998245E-14  0.12509000000E+03  0.12509000000E+03 0.  0.
        -13    1    3    3    0    0  0.37001463587E+02  0.32018304818E+01 -0.18776893022E+02  0.41616618094E+02  0.10566000000E+00 0.  1.
         23    2    1    0    0    0 -0.17448576488E+02  0.11980232265E+02 -0.18816259827E+02  0.96769858396E+02  0.92533102582E+02 0.  0.
         13    1    3    3    0    0 -0.54450040075E+02  0.87784017834E+01 -0.39366804839E-01  0.55153240302E+02  0.10566000000E+00 0. -1.
         22    1    1    0    0    0  0.17448576488E+02 -0.11980232265E+02  0.18816259827E+02  0.28320141604E+02  0.00000000000E+00 0. -1.
</event>
<event>
 5    1  0.1254921E-009  0.9118800E+02  0.7561462E-02  0.1125453E+00
         25   -1    0    0    0    0  0.00000000000E+00  0.00000000000E+00  0.99999998245E-14  0.12509000000E+03  0.12509000000E+03 0.  0.
        -13    1    3    3    0    0 -0.20890686533E+02 -0.16143409143E+02  0.22453221028E+02  0.34658169905E+02  0.10566000000E+00 0. -1.
         23    2    1    0    0    0  0.18533189496E+02 -0.10176439659E+02 -0.22138613236E+02  0.94476976088E+02  0.89379761566E+02 0.  0.
         13    1    3    3    0    0  0.39423876030E+02  0.59669694845E+01 -0.44591834264E+02  0.59818806183E+02  0.10566000000E+00 0.  1.
         22    1    1    0    0    0 -0.18533189496E+02  0.10176439659E+02  0.22138613236E+02  0.30613023912E+02  0.00000000000E+00 0.  1.
</event>
<event>
 5    1  0.1254921E-009  0.9118800E+02  0.7561462E-02  0.1125453E+00
         25   -1    0    0    0    0  0.00000000000E+00  0.00000000000E+00  0.99999998245E-14  0.12509000000E+03  0.12509000000E+03 0.  0.
        -13    1    3    3    0    0 -0.81128274233E+01  0.20367346141E+02  0.58069397291E+02  0.62070224934E+02  0.10566000000E+00 0.  1.
         23    2    1    0    0    0 -0.83295689999E+01  0.65135195411E+01  0.27215522691E+02  0.95892528674E+02  0.91339393054E+02 0.  0.
         13    1    3    3    0    0 -0.21674157664E+00 -0.13853826600E+02 -0.30853874600E+02  0.33822303739E+02  0.10566000000E+00 0. -1.
         22    1    1    0    0    0  0.83295689999E+01 -0.65135195411E+01 -0.27215522691E+02  0.29197471326E+02  0.00000000000E+00 0.  1.
</event>
<event>
 5    1  0.1254921E-009  0.9118800E+02  0.7561462E-02  0.1125453E+00
         25   -1    0    0    0    0  0.00000000000E+00  0.00000000000E+00  0.99999998245E-14  0.12509000000E+03  0.12509000000E+03 0.  0.
        -13    1    3    3    0    0 -0.80714086605E+01  0.24974190469E+01 -0.38311349908E+02  0.39232071517E+02  0.10566000000E+00 0. -1.
         23    2    1    0    0    0  0.21067949294E+02  0.22712086551E+02  0.33341579245E+01  0.93932112202E+02  0.88613925151E+02 0.  0.
         13    1    3    3    0    0  0.29139357955E+02  0.20214667504E+02  0.41645507833E+02  0.54700040685E+02  0.10566000000E+00 0.  1.
         22    1    1    0    0    0 -0.21067949294E+02 -0.22712086551E+02 -0.33341579245E+01  0.31157887798E+02  0.00000000000E+00 0.  1.
</event>
<event>
 5    1  0.1254921E-009  0.9118800E+02  0.7561462E-02  0.1125453E+00
         25   -1    0    0    0    0  0.00000000000E+00  0.00000000000E+00  0.99999998245E-14  0.12509000000E+03  0.12509000000E+03 0.  0.
        -13    1    3    3    0    0 -0.24595812231E+02 -0.29841415142E+02  0.50391612830E+01  0.38998312110E+02  0.10566000000E+00 0.  1.
         23    2    1    0    0    0  0.93644433265E+01  0.96731327803E+01  0.26514266627E+02  0.95353345324E+02  0.90597968151E+02 0.  0.
         13    1    3    3    0    0  0.33960255557E+02  0.39514547922E+02  0.21475105344E+02  0.56355033214E+02  0.10566000000E+00 0. -1.
         22    1    1    0    0    0 -0.93644433265E+01 -0.96731327803E+01 -0.26514266627E+02  0.29736654676E+02  0.00000000000E+00 0. -1.
</event>
<event>
 5    1  0.1254921E-009  0.9118800E+02  0.7561462E-02  0.1125453E+00
         25   -1    0    0    0    0  0.00000000000E+00  0.00000000000E+00  0.99999998245E-14  0.12509000000E+03  0.12509000000E+03 0.  0.
        -13    1    3    3    0    0  0.19205005185E+02 -0.25882574455E+02  0.25629903038E+02  0.41178185710E+02  0.10566000000E+00 0.  1.
         23    2    1    0    0    0 -0.28139348727E+02 -0.92929805727E+01  0.74897650896E+01  0.94524021923E+02  0.89445579571E+02 0.  0.
         13    1    3    3    0    0 -0.47344353911E+02  0.16589593882E+02 -0.18140137949E+02  0.53345836213E+02  0.10566000000E+00 0. -1.
         22    1    1    0    0    0  0.28139348727E+02  0.92929805727E+01 -0.74897650896E+01  0.30565978077E+02  0.00000000000E+00 0. -1.
</event>
<event>
 5    1  0.1254921E-009  0.9118800E+02  0.7561462E-02  0.1125453E+00
         25   -1    0    0    0    0  0.00000000000E+00  0.00000000000E+00  0.99999998245E-14  0.12509000000E+03  0.12509000000E+03 0.  0.
        -13    1    3    3    0    0  0.10698524119E+02 -0.53632029540E+02 -0.32151918294E+01  0.54783224015E+02  0.10566000000E+00 0.  1.
         23    2    1    0    0    0  0.23285447884E+02 -0.12791623515E+02 -0.67893705911E+01  0.97668598352E+02  0.93740182609E+02 0.  0.
         13    1    3    3    0    0  0.12586923765E+02  0.40840406025E+02 -0.35741787617E+01  0.42885374337E+02  0.10566000000E+00 0. -1.
         22    1    1    0    0    0 -0.23285447884E+02  0.12791623515E+02  0.67893705911E+01  0.27421401648E+02  0.00000000000E+00 0.  1.
</event>
<event>
 5    1  0.1254921E-009  0.9118800E+02  0.7561462E-02  0.1125453E+00
         25   -1    0    0    0    0  0.00000000000E+00  0.00000000000E+00  0.99999998245E-14  0.12509000000E+03  0.12509000000E+03 0.  0.
        -13    1    3    3    0    0  0.61255844507E+01  0.13840482442E+02  0.36703086054E+02  0.39701504116E+02  0.10566000000E+00 0. -1.
         23    2    1    0    0    0 -0.24197192016E+02 -0.18273382903E+02  0.43352217917E+01  0.94459708259E+02  0.89355591388E+02 0.  0.
         13    1    3    3    0    0 -0.30322776466E+02 -0.32113865345E+02 -0.32367864263E+02  0.54758204143E+02  0.10566000000E+00 0.  1.
         22    1    1    0    0    0  0.24197192016E+02  0.18273382903E+02 -0.43352217917E+01  0.30630291741E+02  0.00000000000E+00 0.  1.
</event>
<event>
 5    1  0.1254921E-009  0.9118800E+02  0.7561462E-02  0.1125453E+00
         25   -1    0    0    0    0  0.00000000000E+00  0.00000000000E+00  0.99999998245E-14  0.12509000000E+03  0.12509000000E+03 0.  0.
        -13    1    3    3    0    0 -0.17284476307E+02  0.24392315063E+02 -0.15664643518E+02  0.33751005554E+02  0.10566000000E+00 0. -1.
         23    2    1    0    0    0  0.10202295154E+02 -0.23571749806E+02  0.13305043924E+02  0.96163569022E+02  0.91709833703E+02 0.  0.
         13    1    3    3    0    0  0.27486771461E+02 -0.47964064869E+02  0.28969687442E+02  0.62412563468E+02  0.10566000000E+00 0.  1.
         22    1    1    0    0    0 -0.10202295154E+02  0.23571749806E+02 -0.13305043924E+02  0.28926430978E+02  0.00000000000E+00 0.  1.
</event>
<event>
 5    1  0.1254921E-009  0.9118800E+02  0.7561462E-02  0.1125453E+00
         25   -1    0    0    0    0  0.00000000000E+00  0.00000000000E+00  0.99999998245E-14  0.12509000000E+03  0.12509000000E+03 0.  0.
        -13    1    3    3    0    0  0.99835763124E+01  0.32803525353E+02  0.14787834542E+02  0.37342124819E+02  0.10566000000E+00 0.  1.
         23    2    1    0    0    0 -0.95363830163E+01 -0.12930465342E+01 -0.28030005416E+02  0.95453944696E+02  0.90736760930E+02 0.  0.
         13    1    3    3    0    0 -0.19519959329E+02 -0.34096571887E+02 -0.42817839958E+02  0.58111819876E+02  0.10566000000E+00 0. -1.
         22    1    1    0    0    0  0.95363830163E+01  0.12930465342E+01  0.28030005416E+02  0.29636055304E+02  0.00000000000E+00 0. -1.
</event>
<event>
 5    1  0.1254921E-009  0.9118800E+02  0.7561462E-02  0.1125453E+00
         25   -1    0    0    0    0  0.00000000000E+00  0.00000000000E+00  0.99999998245E-14  0.12509000000E+03  0.12509000000E+03 0.  0.
        -13    1    3    3    0    0 -0.48085734830E+01 -0.23759180615E+02 -0.50582406990E+02  0.56091105386E+02  0.10566000000E+00 0.  1.
         23    2    1    0    0    0  0.63017090404E+01  0.70464254958E+01 -0.27100861875E+02  0.96387728949E+02  0.92015074463E+02 0.  0.
         13    1    3    3    0    0  0.11110282523E+02  0.30805606111E+02  0.23481545115E+02  0.40296623563E+02  0.10566000000E+00 0. -1.
         22    1    1    0    0    0 -0.63017090404E+01 -0.70464254958E+01  0.27100861875E+02  0.28702271051E+02  0.00000000000E+00 0.  1.
</event>
<event>
 5    1  0.1254921E-009  0.9118800E+02  0.7561462E-02  0.1125453E+00
         25   -1    0    0    0    0  0.00000000000E+00  0.00000000000E+00  0.99999998245E-14  0.12509000000E+03  0.12509000000E+03 0.  0.
        -13    1    3    3    0    0  0.62003736733E+00 -0.44484338560E+02 -0.15299674885E+02  0.47046062950E+02  0.10566000000E+00 0.  1.
         23    2    1    0    0    0 -0.19733248405E+02 -0.60206997489E+01 -0.26038820074E+02  0.91868469799E+02  0.85651302817E+02 0.  0.
         13    1    3    3    0    0 -0.20353285772E+02  0.38463638811E+02 -0.10739145189E+02  0.44822406849E+02  0.10566000000E+00 0. -1.
         22    1    1    0    0    0  0.19733248405E+02  0.60206997489E+01  0.26038820074E+02  0.33221530201E+02  0.00000000000E+00 0.  1.
</event>
<event>
 5    1  0.1254921E-009  0.9118800E+02  0.7561462E-02  0.1125453E+00
         25   -1    0    0    0    0  0.00000000000E+00  0.00000000000E+00  0.99999998245E-14  0.12509000000E+03  0.12509000000E+03 0.  0.
        -13    1    3    3    0    0 -0.16700691923E+02  0.36105887092E+02 -0.30321714801E+02  0.50019653597E+02  0.10566000000E+00 0.  1.
         23    2    1    0    0    0  0.60769970721E+01  0.28904715477E+02  0.73732191070E+01  0.94646990454E+02  0.89617386548E+02 0.  0.
         13    1    3    3    0    0  0.22777688995E+02 -0.72011716147E+01  0.37694933908E+02  0.44627336857E+02  0.10566000000E+00 0. -1.
         22    1    1    0    0    0 -0.60769970721E+01 -0.28904715477E+02 -0.73732191070E+01  0.30443009546E+02  0.00000000000E+00 0.  1.
</event>
<event>
 5    1  0.1254921E-009  0.9118800E+02  0.7561462E-02  0.1125453E+00
         25   -1    0    0    0    0  0.00000000000E+00  0.00000000000E+00  0.99999998245E-14  0.12509000000E+03  0.12509000000E+03 0.  0.
        -13    1    3    3    0    0  0.22298400989E+02 -0.72185359789E+01  0.27820323262E+02  0.36377293725E+02  0.10566000000E+00 0. -1.
         23    2    1    0    0    0  0.37031508279E+01 -0.25013223870E+02 -0.21428135224E+02  0.91945774657E+02  0.85764128886E+02 0.  0.
         13    1    3    3    0    0 -0.18595250161E+02 -0.17794687891E+02 -0.49248458487E+02  0.55568480931E+02  0.10566000000E+00 0.  1.
         22    1    1    0    0    0 -0.37031508279E+01  0.25013223870E+02  0.21428135224E+02  0.33144225343E+02  0.00000000000E+00 0.  1.
</event>
<event>
 5    1  0.1254921E-009  0.9118800E+02  0.7561462E-02  0.1125453E+00
         25   -1    0    0    0    0  0.00000000000E+00  0.00000000000E+00  0.99999998245E-14  0.12509000000E+03  0.12509000000E+03 0.  0.
        -13    1    3    3    0    0 -0.16553269157E+02 -0.56437348902E+01 -0.29450315554E+02  0.34251930071E+02  0.10566000000E+00 0. -1.
         23    2    1    0    0    0  0.12242137351E+02 -0.14497038497E+02  0.23325949132E+02  0.95021179687E+02  0.90138175232E+02 0.  0.
         13    1    3    3    0    0  0.28795406508E+02 -0.88533036066E+01  0.52776264686E+02  0.60769249617E+02  0.10566000000E+00 0.  1.
         22    1    1    0    0    0 -0.12242137351E+02  0.14497038497E+02 -0.23325949132E+02  0.30068820313E+02  0.00000000000E+00 0.  1.
</event>
<event>
 5    1  0.1254921E-009  0.9118800E+02  0.7561462E-02  0.1125453E+00
         25   -1    0    0    0    0  0.00000000000E+00  0.00000000000E+00  0.99999998245E-14  0.12509000000E+03  0.12509000000E+03 0.  0.
        -13    1    3    3    0    0 -0.41536447826E+02 -0.19030306063E+02 -0.14527248821E+02  0.47942477713E+02  0.10566000000E+00 0.  1.
         23    2    1    0    0    0  0.15530322525E+01 -0.26583417464E+02 -0.19661294086E+02  0.91989297917E+02  0.85827585617E+02 0.  0.
         13    1    3    3    0    0  0.43089480079E+02 -0.75531114009E+01 -0.51340452649E+01  0.44046820204E+02  0.10566000000E+00 0. -1.
         22    1    1    0    0    0 -0.15530322525E+01  0.26583417464E+02  0.19661294086E+02  0.33100702083E+02  0.00000000000E+00 0.  1.
</event>
<event>
 5    1  0.1254921E-009  0.9118800E+02  0.7561462E-02  0.1125453E+00
         25   -1    0    0    0    0  0.00000000000E+00  0.00000000000E+00  0.99999998245E-14  0.12509000000E+03  0.12509000000E+03 0.  0.
        -13    1    3    3    0    0 -0.31357205248E+02 -0.45426992977E+02  0.22870482829E+02  0.59749110125E+02  0.10566000000E+00 0.  1.
         23    2    1    0    0    0 -0.34850193170E+01 -0.22827456598E+02  0.17682520354E+02  0.96005473866E+02  0.91493941613E+02 0.  0.
         13    1    3    3    0    0  0.27872185931E+02  0.22599536379E+02 -0.51879624754E+01  0.36256363742E+02  0.10566000000E+00 0. -1.
         22    1    1    0    0    0  0.34850193170E+01  0.22827456598E+02 -0.17682520354E+02  0.29084526134E+02  0.00000000000E+00 0.  1.
</event>
<event>
 5    1  0.1254921E-009  0.9118800E+02  0.7561462E-02  0.1125453E+00
         25   -1    0    0    0    0  0.00000000000E+00  0.00000000000E+00  0.99999998245E-14  0.12509000000E+03  0.12509000000E+03 0.  0.
        -13    1    3    3    0    0  0.21160605037E+02 -0.24207064346E+02 -0.69745124452E+01  0.32899972001E+02  0.10566000000E+00 0. -1.
         23    2    1    0    0    0 -0.19719060300E+02  0.21872070746E+02 -0.82335409269E+01  0.94511903034E+02  0.89428629651E+02 0.  0.
         13    1    3    3    0    0 -0.40879665337E+02  0.46079135092E+02 -0.12590284817E+01  0.61611931033E+02  0.10566000000E+00 0.  1.
         22    1    1    0    0    0  0.19719060300E+02 -0.21872070746E+02  0.82335409269E+01  0.30578096966E+02  0.00000000000E+00 0.  1.
</event>
<event>
 5    1  0.1254921E-009  0.9118800E+02  0.7561462E-02  0.1125453E+00
         25   -1    0    0    0    0  0.00000000000E+00  0.00000000000E+00  0.99999998245E-14  0.12509000000E+03  0.12509000000E+03 0.  0.
        -13    1    3    3    0    0 -0.15367445614E+02  0.45668169570E+02 -0.31521558810E+02  0.57579162294E+02  0.10566000000E+00 0.  1.
         23    2    1    0    0    0  0.94660882372E+01  0.25902457859E+02 -0.10862949376E+02  0.95449692667E+02  0.90730898880E+02 0.  0.
         13    1    3    3    0    0  0.24833533851E+02 -0.19765711712E+02  0.20658609434E+02  0.37870530374E+02  0.10566000000E+00 0. -1.
         22    1    1    0    0    0 -0.94660882372E+01 -0.25902457859E+02  0.10862949376E+02  0.29640307333E+02  0.00000000000E+00 0.  1.
</event>
<event>
 5    1  0.1254921E-009  0.9118800E+02  0.7561462E-02  0.1125453E+00
         25   -1    0    0    0    0  0.00000000000E+00  0.00000000000E+00  0.99999998245E-14  0.12509000000E+03  0.12509000000E+03 0.  0.
        -13    1    3    3    0    0 -0.36624001106E+02 -0.96943645892E+01 -0.20615902802E+02  0.43131482402E+02  0.10566000000E+00 0. -1.
         23    2    1    0    0    0  0.33475146290E+00 -0.26326348765E+02  0.12944324029E+02  0.95751557260E+02  0.91146127154E+02 0.  0.
         13    1    3    3    0    0  0.36958752568E+02 -0.16631984176E+02  0.33560226832E+02  0.52620074858E+02  0.10566000000E+00 0.  1.
         22    1    1    0    0    0 -0.33475146290E+00  0.26326348765E+02 -0.12944324029E+02  0.29338442740E+02  0.00000000000E+00 0.  1.
</event>
<event>
 5    1  0.1254921E-009  0.9118800E+02  0.7561462E-02  0.1125453E+00
         25   -1    0    0    0    0  0.00000000000E+00  0.00000000000E+00  0.99999998245E-14  0.12509000000E+03  0.12509000000E+03 0.  0.
        -13    1    3    3    0    0 -0.23843635352E+02 -0.69384832303E+01 -0.54864215823E+02  0.60222544269E+02  0.10566000000E+00 0.  1.
         23    2    1    0    0    0 -0.17717275498E+02 -0.11721723305E+02 -0.20103096480E+02  0.95842177236E+02  0.91270410326E+02 0.  0.
         13    1    3    3    0    0  0.61263598541E+01 -0.47832400752E+01  0.34761119343E+02  0.35619632967E+02  0.10566000000E+00 0. -1.
         22    1    1    0    0    0  0.17717275498E+02  0.11721723305E+02  0.20103096480E+02  0.29247822764E+02  0.00000000000E+00 0.  1.
</event>
<event>
 5    1  0.1254921E-009  0.9118800E+02  0.7561462E-02  0.1125453E+00
         25   -1    0    0    0    0  0.00000000000E+00  0.00000000000E+00  0.99999998245E-14  0.12509000000E+03  0.12509000000E+03 0.  0.
        -13    1    3    3    0    0  0.35455104201E+02 -0.15569452978E+00 -0.14866268230E+01  0.35486756376E+02  0.10566000000E+00 0. -1.
         23    2    1    0    0    0 -0.97235478093E+01  0.39574355260E+01  0.31701093065E+02  0.91695869087E+02  0.85398854958E+02 0.  0.
         13    1    3    3    0    0 -0.45178652011E+02  0.41131300558E+01  0.33187719888E+02  0.56209112711E+02  0.10566000000E+00 0.  1.
         22    1    1    0    0    0  0.97235478093E+01 -0.39574355260E+01 -0.31701093065E+02  0.33394130913E+02  0.00000000000E+00 0.  1.
</event>
<event>
 5    1  0.1254921E-009  0.9118800E+02  0.7561462E-02  0.1125453E+00
         25   -1    0    0    0    0  0.00000000000E+00  0.00000000000E+00  0.99999998245E-14  0.12509000000E+03  0.12509000000E+03 0.  0.
        -13    1    3    3    0    0 -0.63581232499E+01 -0.42841971886E+02  0.24209868418E+02  0.49618435881E+02  0.10566000000E+00 0.  1.
         23    2    1    0    0    0  0.24759248814E+02 -0.17162700544E+02  0.41367083137E+01  0.94681266922E+02  0.89665217662E+02 0.  0.
         13    1    3    3    0    0  0.31117372063E+02  0.25679271343E+02 -0.20073160104E+02  0.45062831041E+02  0.10566000000E+00 0. -1.
         22    1    1    0    0    0 -0.24759248814E+02  0.17162700544E+02 -0.41367083137E+01  0.30408733078E+02  0.00000000000E+00 0.  1.
</event>
<event>
 5    1  0.1254921E-009  0.9118800E+02  0.7561462E-02  0.1125453E+00
         25   -1    0    0    0    0  0.00000000000E+00  0.00000000000E+00  0.99999998245E-14  0.12509000000E+03  0.12509000000E+03 0.  0.
        -13    1    3    3    0    0  0.21027563260E+02  0.20500918645E+02  0.21559142494E+02  0.36431495592E+02  0.10566000000E+00 0. -1.
         23    2    1    0    0    0 -0.28132134356E+02  0.43945288594E+01 -0.73378756735E+01  0.95686372899E+02  0.91056623437E+02 0.  0.
         13    1    3    3    0    0 -0.49159697616E+02 -0.16106389786E+02 -0.28897018168E+02  0.59254877307E+02  0.10566000000E+00 0.  1.
         22    1    1    0    0    0  0.28132134356E+02 -0.43945288594E+01  0.73378756735E+01  0.29403627101E+02  0.00000000000E+00 0.  1.
</event>
<event>
 5    1  0.1254921E-009  0.9118800E+02  0.7561462E-02  0.1125453E+00
         25   -1    0    0    0    0  0.00000000000E+00  0.00000000000E+00  0.99999998245E-14  0.12509000000E+03  0.12509000000E+03 0.  0.
        -13    1    3    3    0    0 -0.27961314705E+01 -0.45040892398E+01 -0.33263251458E+02  0.33683233703E+02  0.10566000000E+00 0.  1.
         23    2    1    0    0    0 -0.40379007772E+01 -0.28385669867E+01  0.28844719251E+02  0.95826030107E+02  0.91248277311E+02 0.  0.
         13    1    3    3    0    0 -0.12417693067E+01  0.16655222531E+01  0.62107970709E+02  0.62142796405E+02  0.10566000000E+00 0. -1.
         22    1    1    0    0    0  0.40379007772E+01  0.28385669867E+01 -0.28844719251E+02  0.29263969893E+02  0.00000000000E+00 0. -1.
</event>
<event>
 5    1  0.1254921E-009  0.9118800E+02  0.7561462E-02  0.1125453E+00
         25   -1    0    0    0    0  0.00000000000E+00  0.00000000000E+00  0.99999998245E-14  0.12509000000E+03  0.12509000000E+03 0.  0.
        -13    1    3    3    0    0 -0.16249078381E+02  0.45394496346E+02  0.68031352407E+01  0.48692778313E+02  0.10566000000E+00 0.  1.
         23    2    1    0    0    0  0.61345597708E+01  0.14939210893E+02 -0.23111588922E+02  0.96894993560E+02  0.92702111026E+02 0.  0.
         13    1    3    3    0    0  0.22383638152E+02 -0.30455285453E+02 -0.29914724163E+02  0.48202215247E+02  0.10566000000E+00 0. -1.
         22    1    1    0    0    0 -0.61345597708E+01 -0.14939210893E+02  0.23111588922E+02  0.28195006440E+02  0.00000000000E+00 0. -1.
</event>
<event>
 5    1  0.1254921E-009  0.9118800E+02  0.7561462E-02  0.1125453E+00
         25   -1    0    0    0    0  0.00000000000E+00  0.00000000000E+00  0.99999998245E-14  0.12509000000E+03  0.12509000000E+03 0.  0.
        -13    1    3    3    0    0 -0.41517053935E+02  0.19684020916E+02 -0.41527304964E+02  0.61932662372E+02  0.10566000000E+00 0.  1.
         23    2    1    0    0    0 -0.13439054133E+02  0.12297630885E+02 -0.19719627800E+02  0.98244076251E+02  0.94504999319E+02 0.  0.
         13    1    3    3    0    0  0.28077999802E+02 -0.73863900312E+01  0.21807677164E+02  0.36311413879E+02  0.10566000000E+00 0. -1.
         22    1    1    0    0    0  0.13439054133E+02 -0.12297630885E+02  0.19719627800E+02  0.26845923749E+02  0.00000000000E+00 0.  1.
</event>
<event>
 5    1  0.1254921E-009  0.9118800E+02  0.7561462E-02  0.1125453E+00
         25   -1    0    0    0    0  0.00000000000E+00  0.00000000000E+00  0.99999998245E-14  0.12509000000E+03  0.12509000000E+03 0.  0.
        -13    1    3    3    0    0  0.39603590536E+02 -0.10139032953E+02 -0.21862952023E+02  0.46359941844E+02  0.10566000000E+00 0.  1.
         23    2    1    0    0    0  0.64248469803E+01  0.25272323286E+02 -0.13916601884E+02  0.95532584839E+02  0.90845109803E+02 0.  0.
         13    1    3    3    0    0 -0.33178743555E+02  0.35411356239E+02  0.79463501388E+01  0.49172642996E+02  0.10566000000E+00 0. -1.
         22    1    1    0    0    0 -0.64248469803E+01 -0.25272323286E+02  0.13916601884E+02  0.29557415161E+02  0.00000000000E+00 0. -1.
</event>
<event>
 5    1  0.1254921E-009  0.9118800E+02  0.7561462E-02  0.1125453E+00
         25   -1    0    0    0    0  0.00000000000E+00  0.00000000000E+00  0.99999998245E-14  0.12509000000E+03  0.12509000000E+03 0.  0.
        -13    1    3    3    0    0 -0.48351078327E+02  0.17436168211E+02  0.35327408900E+02  0.62368932337E+02  0.10566000000E+00 0. -1.
         23    2    1    0    0    0 -0.32992599239E+02  0.88856964038E+01  0.24949016069E+02  0.82782546662E+02  0.71154967668E+02 0.  0.
         13    1    3    3    0    0  0.15358479087E+02 -0.85504718073E+01 -0.10378392831E+02  0.20413614325E+02  0.10566000000E+00 0.  1.
         22    1    1    0    0    0  0.32992599239E+02 -0.88856964038E+01 -0.24949016069E+02  0.42307453338E+02  0.00000000000E+00 0. -1.
</event>
<event>
 5    1  0.1254921E-009  0.9118800E+02  0.7561462E-02  0.1125453E+00
         25   -1    0    0    0    0  0.00000000000E+00  0.00000000000E+00  0.99999998245E-14  0.12509000000E+03  0.12509000000E+03 0.  0.
        -13    1    3    3    0    0 -0.11753771597E+02 -0.37927566580E+02  0.42556939535E+02  0.58204430416E+02  0.10566000000E+00 0. -1.
         23    2    1    0    0    0  0.67902587510E+00 -0.56303982722E+01  0.29270865352E+02  0.95274802209E+02  0.90489457489E+02 0.  0.
         13    1    3    3    0    0  0.12432797472E+02  0.32297168308E+02 -0.13286074183E+02  0.37070371794E+02  0.10566000000E+00 0.  1.
         22    1    1    0    0    0 -0.67902587510E+00  0.56303982722E+01 -0.29270865352E+02  0.29815197791E+02  0.00000000000E+00 0. -1.
</event>
<event>
 5    1  0.1254921E-009  0.9118800E+02  0.7561462E-02  0.1125453E+00
         25   -1    0    0    0    0  0.00000000000E+00  0.00000000000E+00  0.99999998245E-14  0.12509000000E+03  0.12509000000E+03 0.  0.
        -13    1    3    3    0    0 -0.43863057727E+02 -0.14914666863E+02 -0.25033237629E+02  0.52660129804E+02  0.10566000000E+00 0.  1.
         23    2    1    0    0    0 -0.14377984655E+01 -0.10361927823E+02 -0.27768151284E+02  0.95416661152E+02  0.90685347147E+02 0.  0.
         13    1    3    3    0    0  0.42425259262E+02  0.45527390399E+01 -0.27349136555E+01  0.42756531348E+02  0.10566000000E+00 0. -1.
         22    1    1    0    0    0  0.14377984655E+01  0.10361927823E+02  0.27768151284E+02  0.29673338848E+02  0.00000000000E+00 0.  1.
</event>
<event>
 5    1  0.1254921E-009  0.9118800E+02  0.7561462E-02  0.1125453E+00
         25   -1    0    0    0    0  0.00000000000E+00  0.00000000000E+00  0.99999998245E-14  0.12509000000E+03  0.12509000000E+03 0.  0.
        -13    1    3    3    0    0  0.28620768757E+02 -0.28028711285E+02 -0.30972889627E+02  0.50636825695E+02  0.10566000000E+00 0. -1.
         23    2    1    0    0    0  0.95045882443E+01 -0.25346445342E+02  0.10241170869E+02  0.96147625013E+02  0.91688083880E+02 0.  0.
         13    1    3    3    0    0 -0.19116180513E+02  0.26822659433E+01  0.41214060496E+02  0.45510799318E+02  0.10566000000E+00 0.  1.
         22    1    1    0    0    0 -0.95045882443E+01  0.25346445342E+02 -0.10241170869E+02  0.28942374987E+02  0.00000000000E+00 0. -1.
</event>
<event>
 5    1  0.1254921E-009  0.9118800E+02  0.7561462E-02  0.1125453E+00
         25   -1    0    0    0    0  0.00000000000E+00  0.00000000000E+00  0.99999998245E-14  0.12509000000E+03  0.12509000000E+03 0.  0.
        -13    1    3    3    0    0  0.35037406235E+02  0.26562651522E+02 -0.30236303218E+02  0.53361404478E+02  0.10566000000E+00 0.  1.
         23    2    1    0    0    0 -0.42383930162E+01  0.25344311611E+02 -0.13377868299E+02  0.96119921184E+02  0.91650279769E+02 0.  0.
         13    1    3    3    0    0 -0.39275799251E+02 -0.12183399115E+01  0.16858434918E+02  0.42758516706E+02  0.10566000000E+00 0. -1.
         22    1    1    0    0    0  0.42383930162E+01 -0.25344311611E+02  0.13377868299E+02  0.28970078816E+02  0.00000000000E+00 0.  1.
</event>
<event>
 5    1  0.1254921E-009  0.9118800E+02  0.7561462E-02  0.1125453E+00
         25   -1    0    0    0    0  0.00000000000E+00  0.00000000000E+00  0.99999998245E-14  0.12509000000E+03  0.12509000000E+03 0.  0.
        -13    1    3    3    0    0 -0.16737605126E+02  0.11872929034E+02 -0.38208185902E+02  0.43370387400E+02  0.10566000000E+00 0.  1.
         23    2    1    0    0    0 -0.24243342416E+02 -0.20916905292E+02 -0.16817139703E+01  0.93026239454E+02  0.87325806532E+02 0.  0.
         13    1    3    3    0    0 -0.75057372902E+01 -0.32789834326E+02  0.36526471932E+02  0.49655852054E+02  0.10566000000E+00 0. -1.
         22    1    1    0    0    0  0.24243342416E+02  0.20916905292E+02  0.16817139703E+01  0.32063760546E+02  0.00000000000E+00 0.  1.
</event>
<event>
 5    1  0.1254921E-009  0.9118800E+02  0.7561462E-02  0.1125453E+00
         25   -1    0    0    0    0  0.00000000000E+00  0.00000000000E+00  0.99999998245E-14  0.12509000000E+03  0.12509000000E+03 0.  0.
        -13    1    3    3    0    0  0.54874612940E+02 -0.28730488254E+01 -0.17980910620E+02  0.57816968665E+02  0.10566000000E+00 0. -1.
         23    2    1    0    0    0  0.21277732845E+02 -0.18071423537E+02 -0.88342584764E+01  0.95809248875E+02  0.91225269435E+02 0.  0.
         13    1    3    3    0    0 -0.33596880096E+02 -0.15198374711E+02  0.91466521440E+01  0.37992280209E+02  0.10566000000E+00 0.  1.
         22    1    1    0    0    0 -0.21277732845E+02  0.18071423537E+02  0.88342584764E+01  0.29280751125E+02  0.00000000000E+00 0. -1.
</event>
<event>
 5    1  0.1254921E-009  0.9118800E+02  0.7561462E-02  0.1125453E+00
         25   -1    0    0    0    0  0.00000000000E+00  0.00000000000E+00  0.99999998245E-14  0.12509000000E+03  0.12509000000E+03 0.  0.
        -13    1    3    3    0    0 -0.22656460985E+02  0.45017290212E+02  0.44646410673E+01  0.50594622503E+02  0.10566000000E+00 0.  1.
         23    2    1    0    0    0  0.16756557031E+02  0.21940675064E+02  0.78391935835E+01  0.96391073507E+02  0.92019621114E+02 0.  0.
         13    1    3    3    0    0  0.39413018016E+02 -0.23076615148E+02  0.33745525162E+01  0.45796451004E+02  0.10566000000E+00 0. -1.
         22    1    1    0    0    0 -0.16756557031E+02 -0.21940675064E+02 -0.78391935835E+01  0.28698926493E+02  0.00000000000E+00 0. -1.
</event>
<event>
 5    1  0.1254921E-009  0.9118800E+02  0.7561462E-02  0.1125453E+00
         25   -1    0    0    0    0  0.00000000000E+00  0.00000000000E+00  0.99999998245E-14  0.12509000000E+03  0.12509000000E+03 0.  0.
        -13    1    3    3    0    0 -0.35330848724E+02  0.46600848930E+02  0.21598609706E+02  0.62341150918E+02  0.10566000000E+00 0.  1.
         23    2    1    0    0    0 -0.14902063720E+02  0.21043476612E+02  0.13206425959E+02  0.96119168158E+02  0.91649251987E+02 0.  0.
         13    1    3    3    0    0  0.20428785004E+02 -0.25557372318E+02 -0.83921837472E+01  0.33778017240E+02  0.10566000000E+00 0. -1.
         22    1    1    0    0    0  0.14902063720E+02 -0.21043476612E+02 -0.13206425959E+02  0.28970831842E+02  0.00000000000E+00 0.  1.
</event>
<event>
 5    1  0.1254921E-009  0.9118800E+02  0.7561462E-02  0.1125453E+00
         25   -1    0    0    0    0  0.00000000000E+00  0.00000000000E+00  0.99999998245E-14  0.12509000000E+03  0.12509000000E+03 0.  0.
        -13    1    3    3    0    0 -0.29311313107E+02  0.50446411659E+02 -0.90735632078E+01  0.59045188107E+02  0.10566000000E+00 0.  1.
         23    2    1    0    0    0 -0.57690608315E+01  0.22445242106E+02 -0.16839272730E+02  0.96443323716E+02  0.92090621820E+02 0.  0.
         13    1    3    3    0    0  0.23542252276E+02 -0.28001169553E+02 -0.77657095224E+01  0.37398135608E+02  0.10566000000E+00 0. -1.
         22    1    1    0    0    0  0.57690608315E+01 -0.22445242106E+02  0.16839272730E+02  0.28646676284E+02  0.00000000000E+00 0.  1.
</event>
<event>
 5    1  0.1254921E-009  0.9118800E+02  0.7561462E-02  0.1125453E+00
         25   -1    0    0    0    0  0.00000000000E+00  0.00000000000E+00  0.99999998245E-14  0.12509000000E+03  0.12509000000E+03 0.  0.
        -13    1    3    3    0    0  0.91153254559E+01  0.36461551947E+02 -0.13469762016E+02  0.39924673841E+02  0.10566000000E+00 0.  1.
         23    2    1    0    0    0  0.23740670545E+02 -0.11070543393E+02  0.12541263587E+02  0.96047623009E+02  0.91551549547E+02 0.  0.
         13    1    3    3    0    0  0.14625345089E+02 -0.47532095339E+02  0.26011025603E+02  0.56122949168E+02  0.10566000000E+00 0. -1.
         22    1    1    0    0    0 -0.23740670545E+02  0.11070543393E+02 -0.12541263587E+02  0.29042376991E+02  0.00000000000E+00 0. -1.
</event>
<event>
 5    1  0.1254921E-009  0.9118800E+02  0.7561462E-02  0.1125453E+00
         25   -1    0    0    0    0  0.00000000000E+00  0.00000000000E+00  0.99999998245E-14  0.12509000000E+03  0.12509000000E+03 0.  0.
        -13    1    3    3    0    0 -0.42925826321E+02 -0.16523637158E+02  0.58929673898E+01  0.46372355763E+02  0.10566000000E+00 0. -1.
         23    2    1    0    0    0 -0.14482535913E+02 -0.86925889166E+01 -0.28670082035E+02  0.91814204706E+02  0.85572014312E+02 0.  0.
         13    1    3    3    0    0  0.28443290408E+02  0.78310482414E+01 -0.34563049425E+02  0.45441848943E+02  0.10566000000E+00 0.  1.
         22    1    1    0    0    0  0.14482535913E+02  0.86925889166E+01  0.28670082035E+02  0.33275795294E+02  0.00000000000E+00 0. -1.
</event>
<event>
 5    1  0.1254921E-009  0.9118800E+02  0.7561462E-02  0.1125453E+00
         25   -1    0    0    0    0  0.00000000000E+00  0.00000000000E+00  0.99999998245E-14  0.12509000000E+03  0.12509000000E+03 0.  0.
        -13    1    3    3    0    0  0.41532119474E+02 -0.17592886056E+02 -0.99057834655E+01  0.46179674078E+02  0.10566000000E+00 0.  1.
         23    2    1    0    0    0  0.16122590695E+02  0.15572115289E+02  0.17932383502E+02  0.96384615778E+02  0.92010842162E+02 0.  0.
         13    1    3    3    0    0 -0.25409528779E+02  0.33165001345E+02  0.27838166967E+02  0.50204941700E+02  0.10566000000E+00 0. -1.
         22    1    1    0    0    0 -0.16122590695E+02 -0.15572115289E+02 -0.17932383502E+02  0.28705384222E+02  0.00000000000E+00 0.  1.
</event>
<event>
 5    1  0.1254921E-009  0.9118800E+02  0.7561462E-02  0.1125453E+00
         25   -1    0    0    0    0  0.00000000000E+00  0.00000000000E+00  0.99999998245E-14  0.12509000000E+03  0.12509000000E+03 0.  0.
        -13    1    3    3    0    0  0.36411195646E+02 -0.15349323997E+02 -0.59809989576E+00  0.39518929680E+02  0.10566000000E+00 0.  1.
         23    2    1    0    0    0 -0.16565353235E+02 -0.17600350034E+02 -0.17587286728E+02  0.95198598167E+02  0.90384053844E+02 0.  0.
         13    1    3    3    0    0 -0.52976548881E+02 -0.22510260366E+01 -0.16989186832E+02  0.55679668487E+02  0.10566000000E+00 0. -1.
         22    1    1    0    0    0  0.16565353235E+02  0.17600350034E+02  0.17587286728E+02  0.29891401833E+02  0.00000000000E+00 0. -1.
</event>
<event>
 5    1  0.1254921E-009  0.9118800E+02  0.7561462E-02  0.1125453E+00
         25   -1    0    0    0    0  0.00000000000E+00  0.00000000000E+00  0.99999998245E-14  0.12509000000E+03  0.12509000000E+03 0.  0.
        -13    1    3    3    0    0 -0.53840368606E+02  0.21344218900E+02 -0.17103709806E+02  0.60389643361E+02  0.10566000000E+00 0.  1.
         23    2    1    0    0    0 -0.21975810271E+02  0.17083709862E+02  0.90866017055E+00  0.97240133877E+02  0.93166671044E+02 0.  0.
         13    1    3    3    0    0  0.31864558334E+02 -0.42605090372E+01  0.18012369977E+02  0.36850490517E+02  0.10566000000E+00 0. -1.
         22    1    1    0    0    0  0.21975810271E+02 -0.17083709862E+02 -0.90866017055E+00  0.27849866123E+02  0.00000000000E+00 0.  1.
</event>
<event>
 5    1  0.1254921E-009  0.9118800E+02  0.7561462E-02  0.1125453E+00
         25   -1    0    0    0    0  0.00000000000E+00  0.00000000000E+00  0.99999998245E-14  0.12509000000E+03  0.12509000000E+03 0.  0.
        -13    1    3    3    0    0  0.33205495142E+01 -0.94768348354E+01  0.56376535529E+02  0.57263962227E+02  0.10566000000E+00 0.  1.
         23    2    1    0    0    0 -0.64559884813E+01 -0.19602146394E+02  0.19656979266E+02  0.96588758546E+02  0.92287959741E+02 0.  0.
         13    1    3    3    0    0 -0.97765379955E+01 -0.10125311559E+02 -0.36719556263E+02  0.39324796319E+02  0.10566000000E+00 0. -1.
         22    1    1    0    0    0  0.64559884813E+01  0.19602146394E+02 -0.19656979266E+02  0.28501241454E+02  0.00000000000E+00 0.  1.
</event>
<event>
 5    1  0.1254921E-009  0.9118800E+02  0.7561462E-02  0.1125453E+00
         25   -1    0    0    0    0  0.00000000000E+00  0.00000000000E+00  0.99999998245E-14  0.12509000000E+03  0.12509000000E+03 0.  0.
        -13    1    3    3    0    0 -0.27657547256E+02 -0.53916303883E+01 -0.53917105611E+02  0.60836461435E+02  0.10566000000E+00 0.  1.
         23    2    1    0    0    0 -0.39713771479E+01  0.20731707189E+01 -0.28008331961E+02  0.96725646799E+02  0.92473316239E+02 0.  0.
         13    1    3    3    0    0  0.23686170108E+02  0.74648011071E+01  0.25908773650E+02  0.35889185364E+02  0.10566000000E+00 0. -1.
         22    1    1    0    0    0  0.39713771479E+01 -0.20731707189E+01  0.28008331961E+02  0.28364353201E+02  0.00000000000E+00 0.  1.
</event>
<event>
 5    1  0.1254921E-009  0.9118800E+02  0.7561462E-02  0.1125453E+00
         25   -1    0    0    0    0  0.00000000000E+00  0.00000000000E+00  0.99999998245E-14  0.12509000000E+03  0.12509000000E+03 0.  0.
        -13    1    3    3    0    0 -0.23160418769E+02 -0.49466194355E+02 -0.17530795306E+02  0.57364181591E+02  0.10566000000E+00 0. -1.
         23    2    1    0    0    0 -0.21982202999E+02 -0.20039024720E+02  0.56118330024E+01  0.94820007763E+02  0.89858563543E+02 0.  0.
         13    1    3    3    0    0  0.11782157698E+01  0.29427169635E+02  0.23142628308E+02  0.37455826172E+02  0.10566000000E+00 0.  1.
         22    1    1    0    0    0  0.21982202999E+02  0.20039024720E+02 -0.56118330024E+01  0.30269992237E+02  0.00000000000E+00 0. -1.
</event>
<event>
 5    1  0.1254921E-009  0.9118800E+02  0.7561462E-02  0.1125453E+00
         25   -1    0    0    0    0  0.00000000000E+00  0.00000000000E+00  0.99999998245E-14  0.12509000000E+03  0.12509000000E+03 0.  0.
        -13    1    3    3    0    0  0.29609771589E+02 -0.30949326720E+02 -0.97258495659E+01  0.43922690171E+02  0.10566000000E+00 0.  1.
         23    2    1    0    0    0  0.48436146506E+01  0.10341498056E+02  0.21102924888E+02  0.10109540428E+03  0.98206619648E+02 0.  0.
         13    1    3    3    0    0 -0.24766156939E+02  0.41290824777E+02  0.30828774454E+02  0.57172714109E+02  0.10566000000E+00 0. -1.
         22    1    1    0    0    0 -0.48436146506E+01 -0.10341498056E+02 -0.21102924888E+02  0.23994595720E+02  0.00000000000E+00 0. -1.
</event>
<event>
 5    1  0.1254921E-009  0.9118800E+02  0.7561462E-02  0.1125453E+00
         25   -1    0    0    0    0  0.00000000000E+00  0.00000000000E+00  0.99999998245E-14  0.12509000000E+03  0.12509000000E+03 0.  0.
        -13    1    3    3    0    0  0.45739633337E+02  0.11013391186E+02 -0.13551970672E+01  0.47066512154E+02  0.10566000000E+00 0. -1.
         23    2    1    0    0    0  0.18425953638E+00  0.28878894910E+02  0.21860297123E+01  0.96127899788E+02  0.91661168817E+02 0.  0.
         13    1    3    3    0    0 -0.45555373800E+02  0.17865503724E+02  0.35412267794E+01  0.49061387634E+02  0.10566000000E+00 0.  1.
         22    1    1    0    0    0 -0.18425953638E+00 -0.28878894910E+02 -0.21860297123E+01  0.28962100212E+02  0.00000000000E+00 0.  1.
</event>
<event>
 5    1  0.1254921E-009  0.9118800E+02  0.7561462E-02  0.1125453E+00
         25   -1    0    0    0    0  0.00000000000E+00  0.00000000000E+00  0.99999998245E-14  0.12509000000E+03  0.12509000000E+03 0.  0.
        -13    1    3    3    0    0  0.45587888573E+02  0.74403825462E+01 -0.11424476932E+02  0.47583029687E+02  0.10566000000E+00 0.  1.
         23    2    1    0    0    0  0.10522363003E+02 -0.10778487978E+01  0.24439813347E+02  0.98459446915E+02  0.94789642520E+02 0.  0.
         13    1    3    3    0    0 -0.35065525570E+02 -0.85182313439E+01  0.35864290279E+02  0.50876417228E+02  0.10566000000E+00 0. -1.
         22    1    1    0    0    0 -0.10522363003E+02  0.10778487978E+01 -0.24439813347E+02  0.26630553085E+02  0.00000000000E+00 0. -1.
</event>
<event>
 5    1  0.1254921E-009  0.9118800E+02  0.7561462E-02  0.1125453E+00
         25   -1    0    0    0    0  0.00000000000E+00  0.00000000000E+00  0.99999998245E-14  0.12509000000E+03  0.12509000000E+03 0.  0.
        -13    1    3    3    0    0 -0.70857803647E+01  0.18672025434E+02 -0.50025457715E+02  0.53864741722E+02  0.10566000000E+00 0.  1.
         23    2    1    0    0    0 -0.25018571114E+02  0.70069310799E+01 -0.14494427622E+02  0.95339127478E+02  0.90578335227E+02 0.  0.
         13    1    3    3    0    0 -0.17932790749E+02 -0.11665094354E+02  0.35531030093E+02  0.41474385756E+02  0.10566000000E+00 0. -1.
         22    1    1    0    0    0  0.25018571114E+02 -0.70069310799E+01  0.14494427622E+02  0.29750872522E+02  0.00000000000E+00 0.  1.
</event>
<event>
 5    1  0.1254921E-009  0.9118800E+02  0.7561462E-02  0.1125453E+00
         25   -1    0    0    0    0  0.00000000000E+00  0.00000000000E+00  0.99999998245E-14  0.12509000000E+03  0.12509000000E+03 0.  0.
        -13    1    3    3    0    0  0.12398001380E+02 -0.37666689184E+02 -0.29938790949E+02  0.49687345268E+02  0.10566000000E+00 0. -1.
         23    2    1    0    0    0  0.55071861660E+01 -0.24929499009E+02  0.14015097267E+02  0.95965577745E+02  0.91439379592E+02 0.  0.
         13    1    3    3    0    0 -0.68908152137E+01  0.12737190176E+02  0.43953888215E+02  0.46278232477E+02  0.10566000000E+00 0.  1.
         22    1    1    0    0    0 -0.55071861660E+01  0.24929499009E+02 -0.14015097267E+02  0.29124422255E+02  0.00000000000E+00 0. -1.
</event>
<event>
 5    1  0.1254921E-009  0.9118800E+02  0.7561462E-02  0.1125453E+00
         25   -1    0    0    0    0  0.00000000000E+00  0.00000000000E+00  0.99999998245E-14  0.12509000000E+03  0.12509000000E+03 0.  0.
        -13    1    3    3    0    0  0.11457859285E+02 -0.24411890100E+02 -0.34578724423E+02  0.43851137550E+02  0.10566000000E+00 0. -1.
         23    2    1    0    0    0 -0.11593193466E+01  0.23462631674E+02 -0.15687635190E+02  0.96842150449E+02  0.92630778359E+02 0.  0.
         13    1    3    3    0    0 -0.12617178632E+02  0.47874521774E+02  0.18891089233E+02  0.52991012899E+02  0.10566000000E+00 0.  1.
         22    1    1    0    0    0  0.11593193466E+01 -0.23462631674E+02  0.15687635190E+02  0.28247849551E+02  0.00000000000E+00 0.  1.
</event>
<event>
 5    1  0.1254921E-009  0.9118800E+02  0.7561462E-02  0.1125453E+00
         25   -1    0    0    0    0  0.00000000000E+00  0.00000000000E+00  0.99999998245E-14  0.12509000000E+03  0.12509000000E+03 0.  0.
        -13    1    3    3    0    0  0.28425396458E+02 -0.83493677614E+01 -0.17795924211E+02  0.34560399135E+02  0.10566000000E+00 0.  1.
         23    2    1    0    0    0 -0.15569372322E+02  0.21654451905E+02  0.12290335773E+02  0.95723812041E+02  0.91108041338E+02 0.  0.
         13    1    3    3    0    0 -0.43994768779E+02  0.30003819667E+02  0.30086259984E+02  0.61163412907E+02  0.10566000000E+00 0. -1.
         22    1    1    0    0    0  0.15569372322E+02 -0.21654451905E+02 -0.12290335773E+02  0.29366187959E+02  0.00000000000E+00 0. -1.
</event>
<event>
 5    1  0.1254921E-009  0.9118800E+02  0.7561462E-02  0.1125453E+00
         25   -1    0    0    0    0  0.00000000000E+00  0.00000000000E+00  0.99999998245E-14  0.12509000000E+03  0.12509000000E+03 0.  0.
        -13    1    3    3    0    0 -0.38452233586E+01 -0.32261369899E+02 -0.11823839854E+02  0.34574500479E+02  0.10566000000E+00 0. -1.
         23    2    1    0    0    0 -0.99472505959E+01  0.27026834174E+02  0.34032165235E+01  0.96090354440E+02  0.91609916351E+02 0.  0.
         13    1    3    3    0    0 -0.61020272373E+01  0.59288204073E+02  0.15227056377E+02  0.61515853961E+02  0.10566000000E+00 0.  1.
         22    1    1    0    0    0  0.99472505959E+01 -0.27026834174E+02 -0.34032165235E+01  0.28999645560E+02  0.00000000000E+00 0.  1.
</event>
<event>
 5    1  0.1254921E-009  0.9118800E+02  0.7561462E-02  0.1125453E+00
         25   -1    0    0    0    0  0.00000000000E+00  0.00000000000E+00  0.99999998245E-14  0.12509000000E+03  0.12509000000E+03 0.  0.
        -13    1    3    3    0    0  0.14024964706E+02  0.32986294360E+02 -0.37206048965E+01  0.36036777263E+02  0.10566000000E+00 0.  1.
         23    2    1    0    0    0  0.11511280154E+02 -0.23517495585E+02 -0.16657059083E+02  0.94057117654E+02  0.88790211143E+02 0.  0.
         13    1    3    3    0    0 -0.25136845519E+01 -0.56503789946E+02 -0.12936454186E+02  0.58020340392E+02  0.10566000000E+00 0. -1.
         22    1    1    0    0    0 -0.11511280154E+02  0.23517495585E+02  0.16657059083E+02  0.31032882346E+02  0.00000000000E+00 0. -1.
</event>
<event>
 5    1  0.1254921E-009  0.9118800E+02  0.7561462E-02  0.1125453E+00
         25   -1    0    0    0    0  0.00000000000E+00  0.00000000000E+00  0.99999998245E-14  0.12509000000E+03  0.12509000000E+03 0.  0.
        -13    1    3    3    0    0  0.31766310998E+02  0.51125735523E+02  0.61990558707E+01  0.60509328247E+02  0.10566000000E+00 0. -1.
         23    2    1    0    0    0  0.12766561194E+02  0.23936433571E+02 -0.83152792467E+01  0.96716036481E+02  0.92460315308E+02 0.  0.
         13    1    3    3    0    0 -0.18999749804E+02 -0.27189301951E+02 -0.14514335117E+02  0.36206708234E+02  0.10566000000E+00 0.  1.
         22    1    1    0    0    0 -0.12766561194E+02 -0.23936433571E+02  0.83152792467E+01  0.28373963519E+02  0.00000000000E+00 0. -1.
</event>
<event>
 5    1  0.1254921E-009  0.9118800E+02  0.7561462E-02  0.1125453E+00
         25   -1    0    0    0    0  0.00000000000E+00  0.00000000000E+00  0.99999998245E-14  0.12509000000E+03  0.12509000000E+03 0.  0.
        -13    1    3    3    0    0  0.13073414707E+02  0.13313413176E+02 -0.34446700194E+02  0.39175853032E+02  0.10566000000E+00 0.  1.
         23    2    1    0    0    0 -0.25297276989E+02 -0.15102369063E+02 -0.51885965695E+01  0.95174196339E+02  0.90350275816E+02 0.  0.
         13    1    3    3    0    0 -0.38370691696E+02 -0.28415782238E+02  0.29258103624E+02  0.55998343307E+02  0.10566000000E+00 0. -1.
         22    1    1    0    0    0  0.25297276989E+02  0.15102369063E+02  0.51885965695E+01  0.29915803661E+02  0.00000000000E+00 0. -1.
</event>
<event>
 5    1  0.1254921E-009  0.9118800E+02  0.7561462E-02  0.1125453E+00
         25   -1    0    0    0    0  0.00000000000E+00  0.00000000000E+00  0.99999998245E-14  0.12509000000E+03  0.12509000000E+03 0.  0.
        -13    1    3    3    0    0 -0.39182148197E+02 -0.27390160295E+02  0.31311001898E+02  0.57147630066E+02  0.10566000000E+00 0.  1.
         23    2    1    0    0    0 -0.26702461401E+02 -0.12077221879E+02 -0.18264030041E+01  0.95726477031E+02  0.91111700256E+02 0.  0.
         13    1    3    3    0    0  0.12479686796E+02  0.15312938415E+02 -0.33137404902E+02  0.38578846965E+02  0.10566000000E+00 0. -1.
         22    1    1    0    0    0  0.26702461401E+02  0.12077221879E+02  0.18264030041E+01  0.29363522969E+02  0.00000000000E+00 0.  1.
</event>
<event>
 5    1  0.1254921E-009  0.9118800E+02  0.7561462E-02  0.1125453E+00
         25   -1    0    0    0    0  0.00000000000E+00  0.00000000000E+00  0.99999998245E-14  0.12509000000E+03  0.12509000000E+03 0.  0.
        -13    1    3    3    0    0 -0.18668800405E+00 -0.12581127023E+02  0.52963501176E+02  0.54437700452E+02  0.10566000000E+00 0.  1.
         23    2    1    0    0    0  0.21679990165E+02 -0.58969980197E+01  0.17600459281E+02  0.96549279510E+02  0.92234433093E+02 0.  0.
         13    1    3    3    0    0  0.21866678169E+02  0.66841290029E+01 -0.35363041896E+02  0.42111579059E+02  0.10566000000E+00 0. -1.
         22    1    1    0    0    0 -0.21679990165E+02  0.58969980197E+01 -0.17600459281E+02  0.28540720490E+02  0.00000000000E+00 0.  1.
</event>
<event>
 5    1  0.1254921E-009  0.9118800E+02  0.7561462E-02  0.1125453E+00
         25   -1    0    0    0    0  0.00000000000E+00  0.00000000000E+00  0.99999998245E-14  0.12509000000E+03  0.12509000000E+03 0.  0.
        -13    1    3    3    0    0  0.19800128497E+02 -0.20508681953E+02  0.40193235844E+02  0.49276348237E+02  0.10566000000E+00 0.  1.
         23    2    1    0    0    0 -0.20553715500E+02 -0.75303183710E+01  0.13346228926E+02  0.99452473946E+02  0.96091164172E+02 0.  0.
         13    1    3    3    0    0 -0.40353843997E+02  0.12978363582E+02 -0.26847006919E+02  0.50176125709E+02  0.10566000000E+00 0. -1.
         22    1    1    0    0    0  0.20553715500E+02  0.75303183710E+01 -0.13346228926E+02  0.25637526054E+02  0.00000000000E+00 0.  1.
</event>
<event>
 5    1  0.1254921E-009  0.9118800E+02  0.7561462E-02  0.1125453E+00
         25   -1    0    0    0    0  0.00000000000E+00  0.00000000000E+00  0.99999998245E-14  0.12509000000E+03  0.12509000000E+03 0.  0.
        -13    1    3    3    0    0  0.11163588934E+02  0.33262844207E+02 -0.10643672772E+02  0.36665262262E+02  0.10566000000E+00 0.  1.
         23    2    1    0    0    0  0.12386899457E+02 -0.20665138187E+02  0.15328284757E+02  0.96534098193E+02  0.92213841618E+02 0.  0.
         13    1    3    3    0    0  0.12233105226E+01 -0.53927982394E+02  0.25971957529E+02  0.59868835930E+02  0.10566000000E+00 0. -1.
         22    1    1    0    0    0 -0.12386899457E+02  0.20665138187E+02 -0.15328284757E+02  0.28555901807E+02  0.00000000000E+00 0. -1.
</event>
<event>
 5    1  0.1254921E-009  0.9118800E+02  0.7561462E-02  0.1125453E+00
         25   -1    0    0    0    0  0.00000000000E+00  0.00000000000E+00  0.99999998245E-14  0.12509000000E+03  0.12509000000E+03 0.  0.
        -13    1    3    3    0    0  0.80210443951E+00 -0.13119670420E+02  0.40362601980E+02  0.42449027387E+02  0.10566000000E+00 0.  1.
         23    2    1    0    0    0  0.20353112869E+02 -0.19348008225E+02 -0.87505018872E+01  0.95676297258E+02  0.91042780866E+02 0.  0.
         13    1    3    3    0    0  0.19551008429E+02 -0.62283378055E+01 -0.49113103867E+02  0.53227269871E+02  0.10566000000E+00 0. -1.
         22    1    1    0    0    0 -0.20353112869E+02  0.19348008225E+02  0.87505018872E+01  0.29413702742E+02  0.00000000000E+00 0.  1.
</event>
<event>
 5    1  0.1254921E-009  0.9118800E+02  0.7561462E-02  0.1125453E+00
         25   -1    0    0    0    0  0.00000000000E+00  0.00000000000E+00  0.99999998245E-14  0.12509000000E+03  0.12509000000E+03 0.  0.
        -13    1    3    3    0    0  0.25189613591E+02  0.22685623636E+02 -0.26028955844E+02  0.42739581876E+02  0.10566000000E+00 0.  1.
         23    2    1    0    0    0  0.15273612070E+02 -0.24467200965E+02 -0.16512430236E+02  0.91854664873E+02  0.85631138950E+02 0.  0.
         13    1    3    3    0    0 -0.99160015202E+01 -0.47152824602E+02  0.95165256076E+01  0.49115082996E+02  0.10566000000E+00 0. -1.
         22    1    1    0    0    0 -0.15273612070E+02  0.24467200965E+02  0.16512430236E+02  0.33235335127E+02  0.00000000000E+00 0. -1.
</event>
<event>
 5    1  0.1254921E-009  0.9118800E+02  0.7561462E-02  0.1125453E+00
         25   -1    0    0    0    0  0.00000000000E+00  0.00000000000E+00  0.99999998245E-14  0.12509000000E+03  0.12509000000E+03 0.  0.
        -13    1    3    3    0    0  0.44204727608E+02  0.22313989086E+02  0.10660883553E+02  0.50652123884E+02  0.10566000000E+00 0.  1.
         23    2    1    0    0    0  0.18998483822E+02  0.10905949836E+01 -0.21279179616E+02  0.96542928871E+02  0.92225819838E+02 0.  0.
         13    1    3    3    0    0 -0.25206243786E+02 -0.21223394102E+02 -0.31940063169E+02  0.45890804986E+02  0.10566000000E+00 0. -1.
         22    1    1    0    0    0 -0.18998483822E+02 -0.10905949836E+01  0.21279179616E+02  0.28547071129E+02  0.00000000000E+00 0. -1.
</event>
<event>
 5    1  0.1254921E-009  0.9118800E+02  0.7561462E-02  0.1125453E+00
         25   -1    0    0    0    0  0.00000000000E+00  0.00000000000E+00  0.99999998245E-14  0.12509000000E+03  0.12509000000E+03 0.  0.
        -13    1    3    3    0    0  0.58871268726E+02  0.12374025743E+02 -0.21849127954E+01  0.60197406941E+02  0.10566000000E+00 0. -1.
         23    2    1    0    0    0  0.23704492862E+02  0.92037298255E+01 -0.12180767822E+02  0.96894561907E+02  0.92701528562E+02 0.  0.
         13    1    3    3    0    0 -0.35166775863E+02 -0.31702959177E+01 -0.99958550265E+01  0.36697154966E+02  0.10566000000E+00 0.  1.
         22    1    1    0    0    0 -0.23704492862E+02 -0.92037298255E+01  0.12180767822E+02  0.28195438093E+02  0.00000000000E+00 0. -1.
</event>
<event>
 5    1  0.1254921E-009  0.9118800E+02  0.7561462E-02  0.1125453E+00
         25   -1    0    0    0    0  0.00000000000E+00  0.00000000000E+00  0.99999998245E-14  0.12509000000E+03  0.12509000000E+03 0.  0.
        -13    1    3    3    0    0  0.21430395818E+02  0.50631686500E+02 -0.23288414365E+02  0.59709219979E+02  0.10566000000E+00 0.  1.
         23    2    1    0    0    0 -0.41287176712E+01  0.19891694896E+02 -0.12935109865E+02  0.10100592014E+03  0.98092573627E+02 0.  0.
         13    1    3    3    0    0 -0.25559113489E+02 -0.30739991604E+02  0.10353304500E+02  0.41296700162E+02  0.10566000000E+00 0. -1.
         22    1    1    0    0    0  0.41287176712E+01 -0.19891694896E+02  0.12935109865E+02  0.24084079859E+02  0.00000000000E+00 0.  1.
</event>
<event>
 5    1  0.1254921E-009  0.9118800E+02  0.7561462E-02  0.1125453E+00
         25   -1    0    0    0    0  0.00000000000E+00  0.00000000000E+00  0.99999998245E-14  0.12509000000E+03  0.12509000000E+03 0.  0.
        -13    1    3    3    0    0  0.20468032130E+02 -0.37102794458E+02 -0.94546243221E+01  0.43416111997E+02  0.10566000000E+00 0.  1.
         23    2    1    0    0    0  0.65385087580E+01  0.21995739974E+00  0.26934935407E+02  0.97371933267E+02  0.93343463428E+02 0.  0.
         13    1    3    3    0    0 -0.13929523372E+02  0.37322751858E+02  0.36389559729E+02  0.53955821270E+02  0.10566000000E+00 0. -1.
         22    1    1    0    0    0 -0.65385087580E+01 -0.21995739974E+00 -0.26934935407E+02  0.27718066733E+02  0.00000000000E+00 0. -1.
</event>
<event>
 5    1  0.1254921E-009  0.9118800E+02  0.7561462E-02  0.1125453E+00
         25   -1    0    0    0    0  0.00000000000E+00  0.00000000000E+00  0.99999998245E-14  0.12509000000E+03  0.12509000000E+03 0.  0.
        -13    1    3    3    0    0 -0.41084266778E+02 -0.18917241365E+02  0.42357716282E+01  0.45428316311E+02  0.10566000000E+00 0.  1.
         23    2    1    0    0    0  0.11966920221E+01 -0.15274501956E+02 -0.24154016732E+02  0.96486521084E+02  0.92149279676E+02 0.  0.
         13    1    3    3    0    0  0.42280958800E+02  0.36427394090E+01 -0.28389788360E+02  0.51058204773E+02  0.10566000000E+00 0. -1.
         22    1    1    0    0    0 -0.11966920221E+01  0.15274501956E+02  0.24154016732E+02  0.28603478916E+02  0.00000000000E+00 0.  1.
</event>
<event>
 5    1  0.1254921E-009  0.9118800E+02  0.7561462E-02  0.1125453E+00
         25   -1    0    0    0    0  0.00000000000E+00  0.00000000000E+00  0.99999998245E-14  0.12509000000E+03  0.12509000000E+03 0.  0.
        -13    1    3    3    0    0  0.48437538192E+02  0.56878957808E+01  0.34605138472E+02  0.59800284592E+02  0.10566000000E+00 0.  1.
         23    2    1    0    0    0  0.25628784207E+02 -0.92272923958E+01  0.11525713858E+02  0.95512650815E+02  0.90817657319E+02 0.  0.
         13    1    3    3    0    0 -0.22808753985E+02 -0.14915188177E+02 -0.23079424614E+02  0.35712366223E+02  0.10566000000E+00 0. -1.
         22    1    1    0    0    0 -0.25628784207E+02  0.92272923958E+01 -0.11525713858E+02  0.29577349185E+02  0.00000000000E+00 0.  1.
</event>
<event>
 5    1  0.1254921E-009  0.9118800E+02  0.7561462E-02  0.1125453E+00
         25   -1    0    0    0    0  0.00000000000E+00  0.00000000000E+00  0.99999998245E-14  0.12509000000E+03  0.12509000000E+03 0.  0.
        -13    1    3    3    0    0  0.23164485918E+02  0.50103373244E+02  0.19891006343E+02  0.58673714009E+02  0.10566000000E+00 0.  1.
         23    2    1    0    0    0 -0.30338725854E+01  0.27116802126E+02  0.23201097895E+01  0.97705547297E+02  0.93789475543E+02 0.  0.
         13    1    3    3    0    0 -0.26198358504E+02 -0.22986571118E+02 -0.17570896553E+02  0.39031833287E+02  0.10566000000E+00 0. -1.
         22    1    1    0    0    0  0.30338725854E+01 -0.27116802126E+02 -0.23201097895E+01  0.27384452703E+02  0.00000000000E+00 0.  1.
</event>
<event>
 5    1  0.1254921E-009  0.9118800E+02  0.7561462E-02  0.1125453E+00
         25   -1    0    0    0    0  0.00000000000E+00  0.00000000000E+00  0.99999998245E-14  0.12509000000E+03  0.12509000000E+03 0.  0.
        -13    1    3    3    0    0  0.20104028054E+02 -0.19325603347E+02 -0.28998709850E+02  0.40231669438E+02  0.10566000000E+00 0.  1.
         23    2    1    0    0    0 -0.15601138774E+02 -0.22695594379E+02  0.12298624902E+02  0.94928075165E+02  0.90008875923E+02 0.  0.
         13    1    3    3    0    0 -0.35705166828E+02 -0.33699910316E+01  0.41297334752E+02  0.54696405727E+02  0.10566000000E+00 0. -1.
         22    1    1    0    0    0  0.15601138774E+02  0.22695594379E+02 -0.12298624902E+02  0.30161924835E+02  0.00000000000E+00 0. -1.
</event>
<event>
 5    1  0.1254921E-009  0.9118800E+02  0.7561462E-02  0.1125453E+00
         25   -1    0    0    0    0  0.00000000000E+00  0.00000000000E+00  0.99999998245E-14  0.12509000000E+03  0.12509000000E+03 0.  0.
        -13    1    3    3    0    0  0.34179972369E+02  0.49569463133E+01 -0.48308199103E+01  0.34873913071E+02  0.10566000000E+00 0.  1.
         23    2    1    0    0    0 -0.22024139019E+02 -0.17664008858E+02  0.54794327588E+01  0.96330582554E+02  0.91937353907E+02 0.  0.
         13    1    3    3    0    0 -0.56204111388E+02 -0.22620955171E+02  0.10310252669E+02  0.61456669483E+02  0.10566000000E+00 0. -1.
         22    1    1    0    0    0  0.22024139019E+02  0.17664008858E+02 -0.54794327588E+01  0.28759417446E+02  0.00000000000E+00 0. -1.
</event>
<event>
 5    1  0.1254921E-009  0.9118800E+02  0.7561462E-02  0.1125453E+00
         25   -1    0    0    0    0  0.00000000000E+00  0.00000000000E+00  0.99999998245E-14  0.12509000000E+03  0.12509000000E+03 0.  0.
        -13    1    3    3    0    0  0.11760702672E+02  0.36543205556E+02 -0.22490334503E+02  0.44492092665E+02  0.10566000000E+00 0.  1.
         23    2    1    0    0    0 -0.16605119313E+02  0.19068156436E+02  0.15820652006E+02  0.95263541827E+02  0.90473890124E+02 0.  0.
         13    1    3    3    0    0 -0.28365821985E+02 -0.17475049120E+02  0.38310986509E+02  0.50771449162E+02  0.10566000000E+00 0. -1.
         22    1    1    0    0    0  0.16605119313E+02 -0.19068156436E+02 -0.15820652006E+02  0.29826458173E+02  0.00000000000E+00 0.  1.
</event>
<event>
 5    1  0.1254921E-009  0.9118800E+02  0.7561462E-02  0.1125453E+00
         25   -1    0    0    0    0  0.00000000000E+00  0.00000000000E+00  0.99999998245E-14  0.12509000000E+03  0.12509000000E+03 0.  0.
        -13    1    3    3    0    0  0.36054092125E+02  0.97438613278E+01  0.12348958413E+02  0.39336348718E+02  0.10566000000E+00 0.  1.
         23    2    1    0    0    0  0.15159458681E+01 -0.30926883007E+02  0.92071938552E+01  0.92786089972E+02  0.86981123753E+02 0.  0.
         13    1    3    3    0    0 -0.34538146257E+02 -0.40670744335E+02 -0.31417645582E+01  0.53449741254E+02  0.10566000000E+00 0. -1.
         22    1    1    0    0    0 -0.15159458681E+01  0.30926883007E+02 -0.92071938552E+01  0.32303910028E+02  0.00000000000E+00 0. -1.
</event>
<event>
 5    1  0.1254921E-009  0.9118800E+02  0.7561462E-02  0.1125453E+00
         25   -1    0    0    0    0  0.00000000000E+00  0.00000000000E+00  0.99999998245E-14  0.12509000000E+03  0.12509000000E+03 0.  0.
        -13    1    3    3    0    0 -0.18510951469E+02  0.34796251105E+02 -0.39919699346E+02  0.56098377651E+02  0.10566000000E+00 0.  1.
         23    2    1    0    0    0 -0.12041830783E+02 -0.16986643555E+01 -0.27218624365E+02  0.95278179164E+02  0.90494125574E+02 0.  0.
         13    1    3    3    0    0  0.64691206860E+01 -0.36494915460E+02  0.12701074980E+02  0.39179801513E+02  0.10566000000E+00 0. -1.
         22    1    1    0    0    0  0.12041830783E+02  0.16986643555E+01  0.27218624365E+02  0.29811820836E+02  0.00000000000E+00 0.  1.
</event>
<event>
 5    1  0.1254921E-009  0.9118800E+02  0.7561462E-02  0.1125453E+00
         25   -1    0    0    0    0  0.00000000000E+00  0.00000000000E+00  0.99999998245E-14  0.12509000000E+03  0.12509000000E+03 0.  0.
        -13    1    3    3    0    0  0.57943464390E+01  0.42073518320E+01 -0.46104965674E+02  0.46657853400E+02  0.10566000000E+00 0.  1.
         23    2    1    0    0    0  0.55085639284E+01  0.25194742630E+02  0.20803940392E+01  0.99216318930E+02  0.95783247857E+02 0.  0.
         13    1    3    3    0    0 -0.28578251063E+00  0.20987390798E+02  0.48185359713E+02  0.52558465530E+02  0.10566000000E+00 0. -1.
         22    1    1    0    0    0 -0.55085639284E+01 -0.25194742630E+02 -0.20803940392E+01  0.25873681070E+02  0.00000000000E+00 0. -1.
</event>
<event>
 5    1  0.1254921E-009  0.9118800E+02  0.7561462E-02  0.1125453E+00
         25   -1    0    0    0    0  0.00000000000E+00  0.00000000000E+00  0.99999998245E-14  0.12509000000E+03  0.12509000000E+03 0.  0.
        -13    1    3    3    0    0 -0.10416803309E+02  0.34619656096E+02  0.10129190662E+02  0.37545200052E+02  0.10566000000E+00 0.  1.
         23    2    1    0    0    0 -0.18633281826E+02 -0.12697715678E+02 -0.20590045084E+02  0.94555083403E+02  0.89489008631E+02 0.  0.
         13    1    3    3    0    0 -0.82164785164E+01 -0.47317371774E+02 -0.30719235747E+02  0.57009883351E+02  0.10566000000E+00 0. -1.
         22    1    1    0    0    0  0.18633281826E+02  0.12697715678E+02  0.20590045084E+02  0.30534916597E+02  0.00000000000E+00 0. -1.
</event>
<event>
 5    1  0.1254921E-009  0.9118800E+02  0.7561462E-02  0.1125453E+00
         25   -1    0    0    0    0  0.00000000000E+00  0.00000000000E+00  0.99999998245E-14  0.12509000000E+03  0.12509000000E+03 0.  0.
        -13    1    3    3    0    0  0.22569652458E+02 -0.47045088852E+01 -0.30887618693E+02  0.38543193543E+02  0.10566000000E+00 0. -1.
         23    2    1    0    0    0 -0.12753137539E+02  0.21041603054E+02  0.10126797469E+02  0.98482790391E+02  0.94820442944E+02 0.  0.
         13    1    3    3    0    0 -0.35322789997E+02  0.25746111940E+02  0.41014416162E+02  0.59939596848E+02  0.10566000000E+00 0.  1.
         22    1    1    0    0    0  0.12753137539E+02 -0.21041603054E+02 -0.10126797469E+02  0.26607209609E+02  0.00000000000E+00 0. -1.
</event>
<event>
 5    1  0.1254921E-009  0.9118800E+02  0.7561462E-02  0.1125453E+00
         25   -1    0    0    0    0  0.00000000000E+00  0.00000000000E+00  0.99999998245E-14  0.12509000000E+03  0.12509000000E+03 0.  0.
        -13    1    3    3    0    0 -0.18987231905E+02 -0.24106119593E+02  0.53891240874E+02  0.62015296373E+02  0.10566000000E+00 0.  1.
         23    2    1    0    0    0 -0.87637413796E+01 -0.14394494055E+02  0.18753740350E+02  0.99876761430E+02  0.96641916757E+02 0.  0.
         13    1    3    3    0    0  0.10223490526E+02  0.97116255376E+01 -0.35137500524E+02  0.37861465056E+02  0.10566000000E+00 0. -1.
         22    1    1    0    0    0  0.87637413796E+01  0.14394494055E+02 -0.18753740350E+02  0.25213238570E+02  0.00000000000E+00 0.  1.
</event>
<event>
 5    1  0.1254921E-009  0.9118800E+02  0.7561462E-02  0.1125453E+00
         25   -1    0    0    0    0  0.00000000000E+00  0.00000000000E+00  0.99999998245E-14  0.12509000000E+03  0.12509000000E+03 0.  0.
        -13    1    3    3    0    0 -0.54153508304E+01  0.29407861655E+02  0.15869569312E+02  0.33852662317E+02  0.10566000000E+00 0.  1.
         23    2    1    0    0    0  0.55188955551E+01 -0.21453451897E+02 -0.18520806618E+02  0.96215632748E+02  0.91780819896E+02 0.  0.
         13    1    3    3    0    0  0.10934246386E+02 -0.50861313553E+02 -0.34390375930E+02  0.62362970431E+02  0.10566000000E+00 0. -1.
         22    1    1    0    0    0 -0.55188955551E+01  0.21453451897E+02  0.18520806618E+02  0.28874367252E+02  0.00000000000E+00 0. -1.
</event>
<event>
 5    1  0.1254921E-009  0.9118800E+02  0.7561462E-02  0.1125453E+00
         25   -1    0    0    0    0  0.00000000000E+00  0.00000000000E+00  0.99999998245E-14  0.12509000000E+03  0.12509000000E+03 0.  0.
        -13    1    3    3    0    0  0.16818816547E+02  0.58430199227E+01 -0.45120757627E+02  0.48506776894E+02  0.10566000000E+00 0.  1.
         23    2    1    0    0    0 -0.22273340155E+02 -0.94097356687E-02 -0.18129151586E+02  0.96371227264E+02  0.91992638493E+02 0.  0.
         13    1    3    3    0    0 -0.39092156702E+02 -0.58524296584E+01  0.26991606041E+02  0.47864450370E+02  0.10566000000E+00 0. -1.
         22    1    1    0    0    0  0.22273340155E+02  0.94097356687E-02  0.18129151586E+02  0.28718772736E+02  0.00000000000E+00 0. -1.
</event>
<event>
 5    1  0.1254921E-009  0.9118800E+02  0.7561462E-02  0.1125453E+00
         25   -1    0    0    0    0  0.00000000000E+00  0.00000000000E+00  0.99999998245E-14  0.12509000000E+03  0.12509000000E+03 0.  0.
        -13    1    3    3    0    0  0.24174044903E+02 -0.20295523208E+02 -0.16364246111E+01  0.31606672694E+02  0.10566000000E+00 0.  1.
         23    2    1    0    0    0 -0.25628008569E+02  0.17348524657E+02 -0.25015470180E+01  0.94041266234E+02  0.88767876433E+02 0.  0.
         13    1    3    3    0    0 -0.49802053472E+02  0.37644047865E+02 -0.86512240685E+00  0.62434593540E+02  0.10566000000E+00 0. -1.
         22    1    1    0    0    0  0.25628008569E+02 -0.17348524657E+02  0.25015470180E+01  0.31048733766E+02  0.00000000000E+00 0. -1.
</event>
<event>
 5    1  0.1254921E-009  0.9118800E+02  0.7561462E-02  0.1125453E+00
         25   -1    0    0    0    0  0.00000000000E+00  0.00000000000E+00  0.99999998245E-14  0.12509000000E+03  0.12509000000E+03 0.  0.
        -13    1    3    3    0    0  0.22401252803E+01  0.26515528072E+02 -0.33827819192E+02  0.43039794441E+02  0.10566000000E+00 0.  1.
         23    2    1    0    0    0 -0.25551678901E+02 -0.92613842127E+01 -0.32018801245E+01  0.97723714748E+02  0.93813702920E+02 0.  0.
         13    1    3    3    0    0 -0.27791804181E+02 -0.35776912285E+02  0.30625939067E+02  0.54683920306E+02  0.10566000000E+00 0. -1.
         22    1    1    0    0    0  0.25551678901E+02  0.92613842127E+01  0.32018801245E+01  0.27366285252E+02  0.00000000000E+00 0. -1.
</event>
<event>
 5    1  0.1254921E-009  0.9118800E+02  0.7561462E-02  0.1125453E+00
         25   -1    0    0    0    0  0.00000000000E+00  0.00000000000E+00  0.99999998245E-14  0.12509000000E+03  0.12509000000E+03 0.  0.
        -13    1    3    3    0    0 -0.82432911443E+01 -0.82633660871E+01 -0.40173066541E+02  0.41834453591E+02  0.10566000000E+00 0. -1.
         23    2    1    0    0    0  0.28707374701E+02 -0.95660719200E+00 -0.75305911183E+00  0.96356821311E+02  0.91973047440E+02 0.  0.
         13    1    3    3    0    0  0.36950665846E+02  0.73067588951E+01  0.39420007429E+02  0.54522367719E+02  0.10566000000E+00 0.  1.
         22    1    1    0    0    0 -0.28707374701E+02  0.95660719200E+00  0.75305911183E+00  0.28733178689E+02  0.00000000000E+00 0.  1.
</event>
<event>
 5    1  0.1254921E-009  0.9118800E+02  0.7561462E-02  0.1125453E+00
         25   -1    0    0    0    0  0.00000000000E+00  0.00000000000E+00  0.99999998245E-14  0.12509000000E+03  0.12509000000E+03 0.  0.
        -13    1    3    3    0    0  0.23009584430E+02 -0.30817587026E+02 -0.86575318387E+01  0.39422438627E+02  0.10566000000E+00 0. -1.
         23    2    1    0    0    0 -0.18064060218E+02 -0.30329833739E+02 -0.23029351552E+02  0.82940739994E+02  0.71432529226E+02 0.  0.
         13    1    3    3    0    0 -0.41073644648E+02  0.48775328731E+00 -0.14371819713E+02  0.43518301367E+02  0.10566000000E+00 0.  1.
         22    1    1    0    0    0  0.18064060218E+02  0.30329833739E+02  0.23029351552E+02  0.42149260006E+02  0.00000000000E+00 0.  1.
</event>
<event>
 5    1  0.1254921E-009  0.9118800E+02  0.7561462E-02  0.1125453E+00
         25   -1    0    0    0    0  0.00000000000E+00  0.00000000000E+00  0.99999998245E-14  0.12509000000E+03  0.12509000000E+03 0.  0.
        -13    1    3    3    0    0 -0.14042340190E+02 -0.24297264745E+02 -0.21115372917E+02  0.35120001845E+02  0.10566000000E+00 0.  1.
         23    2    1    0    0    0 -0.60022622989E+01  0.18775803285E+02  0.21275389444E+02  0.96086549555E+02  0.91604720771E+02 0.  0.
         13    1    3    3    0    0  0.80400778915E+01  0.43073068030E+02  0.42390762362E+02  0.60966547710E+02  0.10566000000E+00 0. -1.
         22    1    1    0    0    0  0.60022622989E+01 -0.18775803285E+02 -0.21275389444E+02  0.29003450445E+02  0.00000000000E+00 0. -1.
</event>
<event>
 5    1  0.1254921E-009  0.9118800E+02  0.7561462E-02  0.1125453E+00
         25   -1    0    0    0    0  0.00000000000E+00  0.00000000000E+00  0.99999998245E-14  0.12509000000E+03  0.12509000000E+03 0.  0.
        -13    1    3    3    0    0 -0.15923986538E+02 -0.30075025748E+02  0.19941301135E+02  0.39442961045E+02  0.10566000000E+00 0.  1.
         23    2    1    0    0    0 -0.20279724695E+02  0.14789655959E+02 -0.14438801596E+02  0.96133478306E+02  0.91668781505E+02 0.  0.
         13    1    3    3    0    0 -0.43557381572E+01  0.44864681707E+02 -0.34380102731E+02  0.56690517261E+02  0.10566000000E+00 0. -1.
         22    1    1    0    0    0  0.20279724695E+02 -0.14789655959E+02  0.14438801596E+02  0.28956521694E+02  0.00000000000E+00 0. -1.
</event>
<event>
 5    1  0.1254921E-009  0.9118800E+02  0.7561462E-02  0.1125453E+00
         25   -1    0    0    0    0  0.00000000000E+00  0.00000000000E+00  0.99999998245E-14  0.12509000000E+03  0.12509000000E+03 0.  0.
        -13    1    3    3    0    0  0.20195470748E+02  0.24690871728E+02 -0.39911267808E+02  0.51092236666E+02  0.10566000000E+00 0.  1.
         23    2    1    0    0    0  0.93369301961E+01  0.25598169412E+02  0.50699097297E+01  0.97374507448E+02  0.93346913035E+02 0.  0.
         13    1    3    3    0    0 -0.10858540552E+02  0.90729768471E+00  0.44981177538E+02  0.46282270782E+02  0.10566000000E+00 0. -1.
         22    1    1    0    0    0 -0.93369301961E+01 -0.25598169412E+02 -0.50699097297E+01  0.27715492552E+02  0.00000000000E+00 0.  1.
</event>
<event>
 5    1  0.1254921E-009  0.9118800E+02  0.7561462E-02  0.1125453E+00
         25   -1    0    0    0    0  0.00000000000E+00  0.00000000000E+00  0.99999998245E-14  0.12509000000E+03  0.12509000000E+03 0.  0.
        -13    1    3    3    0    0 -0.99761708170E+01  0.31836171052E+02  0.24588292526E+01  0.33453292465E+02  0.10566000000E+00 0. -1.
         23    2    1    0    0    0  0.16564385300E+02 -0.23976630814E+02  0.59225939441E+01  0.95352232690E+02  0.90596431908E+02 0.  0.
         13    1    3    3    0    0  0.26540556117E+02 -0.55812801866E+02  0.34637646915E+01  0.61898940225E+02  0.10566000000E+00 0.  1.
         22    1    1    0    0    0 -0.16564385300E+02  0.23976630814E+02 -0.59225939441E+01  0.29737767310E+02  0.00000000000E+00 0.  1.
</event>
<event>
 5    1  0.1254921E-009  0.9118800E+02  0.7561462E-02  0.1125453E+00
         25   -1    0    0    0    0  0.00000000000E+00  0.00000000000E+00  0.99999998245E-14  0.12509000000E+03  0.12509000000E+03 0.  0.
        -13    1    3    3    0    0  0.33824582075E+02  0.32918086714E+02 -0.39344945320E+02  0.61447039568E+02  0.10566000000E+00 0.  1.
         23    2    1    0    0    0  0.20671960156E+02  0.17105265921E+02 -0.11914467961E+02  0.95732299039E+02  0.91119693116E+02 0.  0.
         13    1    3    3    0    0 -0.13152621919E+02 -0.15812820794E+02  0.27430477359E+02  0.34285259471E+02  0.10566000000E+00 0. -1.
         22    1    1    0    0    0 -0.20671960156E+02 -0.17105265921E+02  0.11914467961E+02  0.29357700961E+02  0.00000000000E+00 0.  1.
</event>
<event>
 5    1  0.1254921E-009  0.9118800E+02  0.7561462E-02  0.1125453E+00
         25   -1    0    0    0    0  0.00000000000E+00  0.00000000000E+00  0.99999998245E-14  0.12509000000E+03  0.12509000000E+03 0.  0.
        -13    1    3    3    0    0  0.10921121712E+02 -0.93737828930E+01 -0.58436796901E+02  0.60183129706E+02  0.10566000000E+00 0.  1.
         23    2    1    0    0    0  0.16149706882E+02  0.52102485760E+00 -0.26192641449E+02  0.94314377092E+02  0.89151908341E+02 0.  0.
         13    1    3    3    0    0  0.52285851700E+01  0.98948077506E+01  0.32244155451E+02  0.34131247386E+02  0.10566000000E+00 0. -1.
         22    1    1    0    0    0 -0.16149706882E+02 -0.52102485760E+00  0.26192641449E+02  0.30775622908E+02  0.00000000000E+00 0.  1.
</event>
<event>
 5    1  0.1254921E-009  0.9118800E+02  0.7561462E-02  0.1125453E+00
         25   -1    0    0    0    0  0.00000000000E+00  0.00000000000E+00  0.99999998245E-14  0.12509000000E+03  0.12509000000E+03 0.  0.
        -13    1    3    3    0    0  0.17089950101E+02 -0.23456152243E+02 -0.52924010793E+02  0.60359088420E+02  0.10566000000E+00 0. -1.
         23    2    1    0    0    0  0.10316313095E+02  0.75986925893E+00 -0.25528120384E+02  0.97545696642E+02  0.93576034784E+02 0.  0.
         13    1    3    3    0    0 -0.67736370066E+01  0.24216021502E+02  0.27395890409E+02  0.37186608222E+02  0.10566000000E+00 0.  1.
         22    1    1    0    0    0 -0.10316313095E+02 -0.75986925893E+00  0.25528120384E+02  0.27544303358E+02  0.00000000000E+00 0. -1.
</event>
<event>
 5    1  0.1254921E-009  0.9118800E+02  0.7561462E-02  0.1125453E+00
         25   -1    0    0    0    0  0.00000000000E+00  0.00000000000E+00  0.99999998245E-14  0.12509000000E+03  0.12509000000E+03 0.  0.
        -13    1    3    3    0    0 -0.50800379853E+02  0.34460389780E+02 -0.84161998191E+00  0.61391502223E+02  0.10566000000E+00 0. -1.
         23    2    1    0    0    0 -0.28047359180E+02  0.93882034841E+01  0.24680283848E+01  0.95410311899E+02  0.90676588660E+02 0.  0.
         13    1    3    3    0    0  0.22753020673E+02 -0.25072186296E+02  0.33096483668E+01  0.34018809676E+02  0.10566000000E+00 0.  1.
         22    1    1    0    0    0  0.28047359180E+02 -0.93882034841E+01 -0.24680283848E+01  0.29679688101E+02  0.00000000000E+00 0. -1.
</event>
<event>
 5    1  0.1254921E-009  0.9118800E+02  0.7561462E-02  0.1125453E+00
         25   -1    0    0    0    0  0.00000000000E+00  0.00000000000E+00  0.99999998245E-14  0.12509000000E+03  0.12509000000E+03 0.  0.
        -13    1    3    3    0    0 -0.74092656277E+01  0.43568919646E+02  0.37618293696E+02  0.58037015438E+02  0.10566000000E+00 0.  1.
         23    2    1    0    0    0 -0.60645107656E+01  0.76955227294E+01  0.28323709105E+02  0.95119483515E+02  0.90274494105E+02 0.  0.
         13    1    3    3    0    0  0.13447548621E+01 -0.35873396917E+02 -0.92945845915E+01  0.37082468078E+02  0.10566000000E+00 0. -1.
         22    1    1    0    0    0  0.60645107656E+01 -0.76955227294E+01 -0.28323709105E+02  0.29970516485E+02  0.00000000000E+00 0.  1.
</event>
<event>
 5    1  0.1254921E-009  0.9118800E+02  0.7561462E-02  0.1125453E+00
         25   -1    0    0    0    0  0.00000000000E+00  0.00000000000E+00  0.99999998245E-14  0.12509000000E+03  0.12509000000E+03 0.  0.
        -13    1    3    3    0    0  0.20101611879E+02 -0.22616855968E+02 -0.20763811723E+02  0.36698011054E+02  0.10566000000E+00 0. -1.
         23    2    1    0    0    0  0.13427686002E+02  0.18865157051E+01  0.29283106927E+02  0.92819858318E+02  0.87029673411E+02 0.  0.
         13    1    3    3    0    0 -0.66739258771E+01  0.24503371673E+02  0.50046918650E+02  0.56121847264E+02  0.10566000000E+00 0.  1.
         22    1    1    0    0    0 -0.13427686002E+02 -0.18865157051E+01 -0.29283106927E+02  0.32270141682E+02  0.00000000000E+00 0.  1.
</event>
<event>
 5    1  0.1254921E-009  0.9118800E+02  0.7561462E-02  0.1125453E+00
         25   -1    0    0    0    0  0.00000000000E+00  0.00000000000E+00  0.99999998245E-14  0.12509000000E+03  0.12509000000E+03 0.  0.
        -13    1    3    3    0    0 -0.43489060217E+02 -0.66958853275E+01 -0.85570482030E+01  0.44825968778E+02  0.10566000000E+00 0.  1.
         23    2    1    0    0    0  0.12728902990E+01 -0.25514298032E+02  0.11133300145E+02  0.97223352805E+02  0.93144137254E+02 0.  0.
         13    1    3    3    0    0  0.44761950516E+02 -0.18818412705E+02  0.19690348348E+02  0.52397384027E+02  0.10566000000E+00 0. -1.
         22    1    1    0    0    0 -0.12728902990E+01  0.25514298032E+02 -0.11133300145E+02  0.27866647195E+02  0.00000000000E+00 0.  1.
</event>
<event>
 5    1  0.1254921E-009  0.9118800E+02  0.7561462E-02  0.1125453E+00
         25   -1    0    0    0    0  0.00000000000E+00  0.00000000000E+00  0.99999998245E-14  0.12509000000E+03  0.12509000000E+03 0.  0.
        -13    1    3    3    0    0 -0.45035914535E+02  0.12818268095E+02 -0.14241003639E+02  0.48942404350E+02  0.10566000000E+00 0.  1.
         23    2    1    0    0    0 -0.79817625132E+01 -0.13922086558E+02 -0.24525400765E+02  0.95780815268E+02  0.91186272343E+02 0.  0.
         13    1    3    3    0    0  0.37054152021E+02 -0.26740354653E+02 -0.10284397126E+02  0.46838410918E+02  0.10566000000E+00 0. -1.
         22    1    1    0    0    0  0.79817625132E+01  0.13922086558E+02  0.24525400765E+02  0.29309184732E+02  0.00000000000E+00 0. -1.
</event>
<event>
 5    1  0.1254921E-009  0.9118800E+02  0.7561462E-02  0.1125453E+00
         25   -1    0    0    0    0  0.00000000000E+00  0.00000000000E+00  0.99999998245E-14  0.12509000000E+03  0.12509000000E+03 0.  0.
        -13    1    3    3    0    0 -0.90244118550E+01  0.50779671448E+02  0.10216922191E+02  0.52577673063E+02  0.10566000000E+00 0.  1.
         23    2    1    0    0    0 -0.77276050515E+01  0.59499411022E+01  0.23743315226E+02  0.99421679118E+02  0.96051067573E+02 0.  0.
         13    1    3    3    0    0  0.12968068034E+01 -0.44829730345E+02  0.13526393035E+02  0.46844006055E+02  0.10566000000E+00 0. -1.
         22    1    1    0    0    0  0.77276050515E+01 -0.59499411022E+01 -0.23743315226E+02  0.25668320882E+02  0.00000000000E+00 0.  1.
</event>
<event>
 5    1  0.1254921E-009  0.9118800E+02  0.7561462E-02  0.1125453E+00
         25   -1    0    0    0    0  0.00000000000E+00  0.00000000000E+00  0.99999998245E-14  0.12509000000E+03  0.12509000000E+03 0.  0.
        -13    1    3    3    0    0  0.28927982380E+02  0.21611510470E+02  0.31408256314E+02  0.47857865373E+02  0.10566000000E+00 0.  1.
         23    2    1    0    0    0 -0.15830417608E+02  0.11141306878E+02  0.23736857013E+02  0.94460451824E+02  0.89356632308E+02 0.  0.
         13    1    3    3    0    0 -0.44758399988E+02 -0.10470203592E+02 -0.76713993010E+01  0.46602586452E+02  0.10566000000E+00 0. -1.
         22    1    1    0    0    0  0.15830417608E+02 -0.11141306878E+02 -0.23736857013E+02  0.30629548176E+02  0.00000000000E+00 0. -1.
</event>
<event>
 5    1  0.1254921E-009  0.9118800E+02  0.7561462E-02  0.1125453E+00
         25   -1    0    0    0    0  0.00000000000E+00  0.00000000000E+00  0.99999998245E-14  0.12509000000E+03  0.12509000000E+03 0.  0.
        -13    1    3    3    0    0 -0.15416417981E+02  0.69609209117E+01  0.31248372156E+02  0.35532974682E+02  0.10566000000E+00 0.  1.
         23    2    1    0    0    0  0.23940827307E+02 -0.93219261868E+01 -0.12437598088E+02  0.96546080049E+02  0.92230093823E+02 0.  0.
         13    1    3    3    0    0  0.39357245289E+02 -0.16282847099E+02 -0.43685970244E+02  0.61013105367E+02  0.10566000000E+00 0. -1.
         22    1    1    0    0    0 -0.23940827307E+02  0.93219261868E+01  0.12437598088E+02  0.28543919951E+02  0.00000000000E+00 0. -1.
</event>
<event>
 5    1  0.1254921E-009  0.9118800E+02  0.7561462E-02  0.1125453E+00
         25   -1    0    0    0    0  0.00000000000E+00  0.00000000000E+00  0.99999998245E-14  0.12509000000E+03  0.12509000000E+03 0.  0.
        -13    1    3    3    0    0  0.30222686428E+01 -0.21552890627E+01 -0.60654082012E+02  0.60767657577E+02  0.10566000000E+00 0.  1.
         23    2    1    0    0    0  0.15186707765E+01  0.95185389183E+01 -0.27709733688E+02  0.95751658446E+02  0.91146266023E+02 0.  0.
         13    1    3    3    0    0 -0.15035978663E+01  0.11673827981E+02  0.32944348323E+02  0.34984000868E+02  0.10566000000E+00 0. -1.
         22    1    1    0    0    0 -0.15186707765E+01 -0.95185389183E+01  0.27709733688E+02  0.29338341554E+02  0.00000000000E+00 0.  1.
</event>
<event>
 5    1  0.1254921E-009  0.9118800E+02  0.7561462E-02  0.1125453E+00
         25   -1    0    0    0    0  0.00000000000E+00  0.00000000000E+00  0.99999998245E-14  0.12509000000E+03  0.12509000000E+03 0.  0.
        -13    1    3    3    0    0 -0.24316212541E+01 -0.15307640622E+02 -0.35114562002E+02  0.38383333258E+02  0.10566000000E+00 0.  1.
         23    2    1    0    0    0 -0.48306826944E+01  0.28353434506E+02  0.27109697194E+01  0.96200519208E+02  0.91760219025E+02 0.  0.
         13    1    3    3    0    0 -0.23990614403E+01  0.43661075129E+02  0.37825531721E+02  0.57817185950E+02  0.10566000000E+00 0. -1.
         22    1    1    0    0    0  0.48306826944E+01 -0.28353434506E+02 -0.27109697194E+01  0.28889480792E+02  0.00000000000E+00 0. -1.
</event>
<event>
 5    1  0.1254921E-009  0.9118800E+02  0.7561462E-02  0.1125453E+00
         25   -1    0    0    0    0  0.00000000000E+00  0.00000000000E+00  0.99999998245E-14  0.12509000000E+03  0.12509000000E+03 0.  0.
        -13    1    3    3    0    0 -0.38932862945E+02  0.19574570531E+02 -0.28749987562E+01  0.43671597297E+02  0.10566000000E+00 0.  1.
         23    2    1    0    0    0 -0.91855556384E+01 -0.22445327711E+02 -0.15013187868E+02  0.96566974592E+02  0.92258428360E+02 0.  0.
         13    1    3    3    0    0  0.29747307307E+02 -0.42019898242E+02 -0.12138189112E+02  0.52895377295E+02  0.10566000000E+00 0. -1.
         22    1    1    0    0    0  0.91855556384E+01  0.22445327711E+02  0.15013187868E+02  0.28523025408E+02  0.00000000000E+00 0.  1.
</event>
<event>
 5    1  0.1254921E-009  0.9118800E+02  0.7561462E-02  0.1125453E+00
         25   -1    0    0    0    0  0.00000000000E+00  0.00000000000E+00  0.99999998245E-14  0.12509000000E+03  0.12509000000E+03 0.  0.
        -13    1    3    3    0    0 -0.59826448353E+01 -0.36789797235E+02  0.16762089302E+02  0.40868814781E+02  0.10566000000E+00 0.  1.
         23    2    1    0    0    0  0.11870778441E+02  0.14800917753E+02  0.22380048292E+02  0.95749769792E+02  0.91143673979E+02 0.  0.
         13    1    3    3    0    0  0.17853423276E+02  0.51590714988E+02  0.56179589898E+01  0.54880955011E+02  0.10566000000E+00 0. -1.
         22    1    1    0    0    0 -0.11870778441E+02 -0.14800917753E+02 -0.22380048292E+02  0.29340230208E+02  0.00000000000E+00 0. -1.
</event>
<event>
 5    1  0.1254921E-009  0.9118800E+02  0.7561462E-02  0.1125453E+00
         25   -1    0    0    0    0  0.00000000000E+00  0.00000000000E+00  0.99999998245E-14  0.12509000000E+03  0.12509000000E+03 0.  0.
        -13    1    3    3    0    0 -0.14954166209E+02 -0.25986581035E+02 -0.41537062285E+02  0.51227611580E+02  0.10566000000E+00 0. -1.
         23    2    1    0    0    0 -0.27918418709E+02  0.32687067996E+01 -0.12930962635E+02  0.94149212324E+02  0.88919861894E+02 0.  0.
         13    1    3    3    0    0 -0.12964252499E+02  0.29255287835E+02  0.28606099650E+02  0.42921600744E+02  0.10566000000E+00 0.  1.
         22    1    1    0    0    0  0.27918418709E+02 -0.32687067996E+01  0.12930962635E+02  0.30940787676E+02  0.00000000000E+00 0.  1.
</event>
<event>
 5    1  0.1254921E-009  0.9118800E+02  0.7561462E-02  0.1125453E+00
         25   -1    0    0    0    0  0.00000000000E+00  0.00000000000E+00  0.99999998245E-14  0.12509000000E+03  0.12509000000E+03 0.  0.
        -13    1    3    3    0    0  0.14143897763E+02 -0.32459431888E+02  0.30167836857E+02  0.46516385361E+02  0.10566000000E+00 0. -1.
         23    2    1    0    0    0  0.83592418283E+01  0.15269183242E+02  0.24654380275E+02  0.94909487288E+02  0.89983039678E+02 0.  0.
         13    1    3    3    0    0 -0.57846559346E+01  0.47728615130E+02 -0.55134565824E+01  0.48393101926E+02  0.10566000000E+00 0.  1.
         22    1    1    0    0    0 -0.83592418283E+01 -0.15269183242E+02 -0.24654380275E+02  0.30180512712E+02  0.00000000000E+00 0.  1.
</event>
<event>
 5    1  0.1254921E-009  0.9118800E+02  0.7561462E-02  0.1125453E+00
         25   -1    0    0    0    0  0.00000000000E+00  0.00000000000E+00  0.99999998245E-14  0.12509000000E+03  0.12509000000E+03 0.  0.
        -13    1    3    3    0    0  0.21801422866E+01 -0.35171533265E+02 -0.96022006693E+01  0.36524008464E+02  0.10566000000E+00 0. -1.
         23    2    1    0    0    0 -0.14397482540E+01  0.49892524906E+01  0.30947189274E+02  0.93710165083E+02  0.88300062290E+02 0.  0.
         13    1    3    3    0    0 -0.36198905405E+01  0.40160785755E+02  0.40549389943E+02  0.57186156619E+02  0.10566000000E+00 0.  1.
         22    1    1    0    0    0  0.14397482540E+01 -0.49892524906E+01 -0.30947189274E+02  0.31379834917E+02  0.00000000000E+00 0.  1.
</event>
<event>
 5    1  0.1254921E-009  0.9118800E+02  0.7561462E-02  0.1125453E+00
         25   -1    0    0    0    0  0.00000000000E+00  0.00000000000E+00  0.99999998245E-14  0.12509000000E+03  0.12509000000E+03 0.  0.
        -13    1    3    3    0    0 -0.10720658122E+02  0.35257902469E+02  0.44834423983E+02  0.58036100274E+02  0.10566000000E+00 0.  1.
         23    2    1    0    0    0 -0.36657690052E+01  0.59059195871E+00  0.27332179316E+02  0.97506768002E+02  0.93523981517E+02 0.  0.
         13    1    3    3    0    0  0.70548891168E+01 -0.34667310511E+02 -0.17502244667E+02  0.39470667728E+02  0.10566000000E+00 0. -1.
         22    1    1    0    0    0  0.36657690052E+01 -0.59059195871E+00 -0.27332179316E+02  0.27583231998E+02  0.00000000000E+00 0.  1.
</event>
<event>
 5    1  0.1254921E-009  0.9118800E+02  0.7561462E-02  0.1125453E+00
         25   -1    0    0    0    0  0.00000000000E+00  0.00000000000E+00  0.99999998245E-14  0.12509000000E+03  0.12509000000E+03 0.  0.
        -13    1    3    3    0    0 -0.26142959350E+01 -0.26253762158E+02 -0.40512060152E+02  0.48345969350E+02  0.10566000000E+00 0. -1.
         23    2    1    0    0    0 -0.24638248253E+02 -0.16794197201E+02 -0.16981217344E+00  0.95271932109E+02  0.90485489859E+02 0.  0.
         13    1    3    3    0    0 -0.22023952318E+02  0.94595649570E+01  0.40342247978E+02  0.46925962759E+02  0.10566000000E+00 0.  1.
         22    1    1    0    0    0  0.24638248253E+02  0.16794197201E+02  0.16981217344E+00  0.29818067891E+02  0.00000000000E+00 0.  1.
</event>
<event>
 5    1  0.1254921E-009  0.9118800E+02  0.7561462E-02  0.1125453E+00
         25   -1    0    0    0    0  0.00000000000E+00  0.00000000000E+00  0.99999998245E-14  0.12509000000E+03  0.12509000000E+03 0.  0.
        -13    1    3    3    0    0 -0.54007839603E+00  0.27202675340E+02  0.93092030602E+01  0.28756732360E+02  0.10566000000E+00 0. -1.
         23    2    1    0    0    0 -0.23661508613E+02 -0.25720666733E+02  0.15532974309E+02  0.86844830659E+02  0.77970068836E+02 0.  0.
         13    1    3    3    0    0 -0.23121430217E+02 -0.52923342073E+02  0.62237712486E+01  0.58088098300E+02  0.10566000000E+00 0.  1.
         22    1    1    0    0    0  0.23661508613E+02  0.25720666733E+02 -0.15532974309E+02  0.38245169341E+02  0.00000000000E+00 0.  1.
</event>
<event>
 5    1  0.1254921E-009  0.9118800E+02  0.7561462E-02  0.1125453E+00
         25   -1    0    0    0    0  0.00000000000E+00  0.00000000000E+00  0.99999998245E-14  0.12509000000E+03  0.12509000000E+03 0.  0.
        -13    1    3    3    0    0 -0.11695431396E+02  0.35324866405E+02  0.33674936542E+02  0.50186071945E+02  0.10566000000E+00 0.  1.
         23    2    1    0    0    0  0.21382222565E+02  0.75601470171E+01  0.18024658874E+02  0.96120298720E+02  0.91650795052E+02 0.  0.
         13    1    3    3    0    0  0.33077653962E+02 -0.27764719388E+02 -0.15650277668E+02  0.45934226775E+02  0.10566000000E+00 0. -1.
         22    1    1    0    0    0 -0.21382222565E+02 -0.75601470171E+01 -0.18024658874E+02  0.28969701280E+02  0.00000000000E+00 0.  1.
</event>
<event>
 5    1  0.1254921E-009  0.9118800E+02  0.7561462E-02  0.1125453E+00
         25   -1    0    0    0    0  0.00000000000E+00  0.00000000000E+00  0.99999998245E-14  0.12509000000E+03  0.12509000000E+03 0.  0.
        -13    1    3    3    0    0  0.36256919353E+02  0.24213162367E+02  0.33849168221E+02  0.55196184525E+02  0.10566000000E+00 0.  1.
         23    2    1    0    0    0  0.71044946252E+00  0.91853120848E+01  0.29679510194E+02  0.94013513360E+02  0.88728758993E+02 0.  0.
         13    1    3    3    0    0 -0.35546469891E+02 -0.15027850283E+02 -0.41696580275E+01  0.38817328835E+02  0.10566000000E+00 0. -1.
         22    1    1    0    0    0 -0.71044946252E+00 -0.91853120848E+01 -0.29679510194E+02  0.31076486640E+02  0.00000000000E+00 0.  1.
</event>
<event>
 5    1  0.1254921E-009  0.9118800E+02  0.7561462E-02  0.1125453E+00
         25   -1    0    0    0    0  0.00000000000E+00  0.00000000000E+00  0.99999998245E-14  0.12509000000E+03  0.12509000000E+03 0.  0.
        -13    1    3    3    0    0 -0.46159332940E+02  0.38549150230E+02 -0.12360088130E+02  0.61396286073E+02  0.10566000000E+00 0. -1.
         23    2    1    0    0    0 -0.21445805849E+02  0.94120988203E+01 -0.98422467241E+01  0.99685669398E+02  0.96394256417E+02 0.  0.
         13    1    3    3    0    0  0.24713527090E+02 -0.29137051410E+02  0.25178414057E+01  0.38289383326E+02  0.10566000000E+00 0.  1.
         22    1    1    0    0    0  0.21445805849E+02 -0.94120988203E+01  0.98422467241E+01  0.25404330602E+02  0.00000000000E+00 0. -1.
</event>
<event>
 5    1  0.1254921E-009  0.9118800E+02  0.7561462E-02  0.1125453E+00
         25   -1    0    0    0    0  0.00000000000E+00  0.00000000000E+00  0.99999998245E-14  0.12509000000E+03  0.12509000000E+03 0.  0.
        -13    1    3    3    0    0 -0.15137448287E+02  0.90302284001E+01 -0.36264685318E+02  0.40321531851E+02  0.10566000000E+00 0. -1.
         23    2    1    0    0    0  0.22274342286E+02 -0.18876962597E+02 -0.82837127977E+01  0.94740272837E+02  0.89747497783E+02 0.  0.
         13    1    3    3    0    0  0.37411790573E+02 -0.27907190997E+02  0.27980972521E+02  0.54418740985E+02  0.10566000000E+00 0.  1.
         22    1    1    0    0    0 -0.22274342286E+02  0.18876962597E+02  0.82837127977E+01  0.30349727163E+02  0.00000000000E+00 0.  1.
</event>
<event>
 5    1  0.1254921E-009  0.9118800E+02  0.7561462E-02  0.1125453E+00
         25   -1    0    0    0    0  0.00000000000E+00  0.00000000000E+00  0.99999998245E-14  0.12509000000E+03  0.12509000000E+03 0.  0.
        -13    1    3    3    0    0  0.23891997741E+01 -0.20337972403E+02  0.29792965490E+02  0.36152086437E+02  0.10566000000E+00 0.  1.
         23    2    1    0    0    0  0.34930396238E+01  0.27402170040E+02 -0.71832884460E+01  0.96547402332E+02  0.92231887195E+02 0.  0.
         13    1    3    3    0    0  0.11038398497E+01  0.47740142443E+02 -0.36976253936E+02  0.60395315895E+02  0.10566000000E+00 0. -1.
         22    1    1    0    0    0 -0.34930396238E+01 -0.27402170040E+02  0.71832884460E+01  0.28542597668E+02  0.00000000000E+00 0. -1.
</event>
<event>
 5    1  0.1254921E-009  0.9118800E+02  0.7561462E-02  0.1125453E+00
         25   -1    0    0    0    0  0.00000000000E+00  0.00000000000E+00  0.99999998245E-14  0.12509000000E+03  0.12509000000E+03 0.  0.
        -13    1    3    3    0    0  0.12220086662E+02  0.35264822190E+02  0.92965569905E+01  0.38462648609E+02  0.10566000000E+00 0. -1.
         23    2    1    0    0    0  0.14481740902E+02 -0.18252592434E+02 -0.15103190151E+02  0.97323395907E+02  0.93278395612E+02 0.  0.
         13    1    3    3    0    0  0.22616542405E+01 -0.53517414624E+02 -0.24399747141E+02  0.58860747298E+02  0.10566000000E+00 0.  1.
         22    1    1    0    0    0 -0.14481740902E+02  0.18252592434E+02  0.15103190151E+02  0.27766604093E+02  0.00000000000E+00 0.  1.
</event>
<event>
 5    1  0.1254921E-009  0.9118800E+02  0.7561462E-02  0.1125453E+00
         25   -1    0    0    0    0  0.00000000000E+00  0.00000000000E+00  0.99999998245E-14  0.12509000000E+03  0.12509000000E+03 0.  0.
        -13    1    3    3    0    0  0.95414649422E+01  0.10923727523E+02  0.20264729734E+02  0.24920630238E+02  0.10566000000E+00 0.  1.
         23    2    1    0    0    0 -0.22104840129E+02  0.10090999236E+02 -0.31322654433E+02  0.85447082557E+02  0.75694405434E+02 0.  0.
         13    1    3    3    0    0 -0.31646305071E+02 -0.83272828728E+00 -0.51587384167E+02  0.60526452318E+02  0.10566000000E+00 0. -1.
         22    1    1    0    0    0  0.22104840129E+02 -0.10090999236E+02  0.31322654433E+02  0.39642917443E+02  0.00000000000E+00 0. -1.
</event>
<event>
 5    1  0.1254921E-009  0.9118800E+02  0.7561462E-02  0.1125453E+00
         25   -1    0    0    0    0  0.00000000000E+00  0.00000000000E+00  0.99999998245E-14  0.12509000000E+03  0.12509000000E+03 0.  0.
        -13    1    3    3    0    0 -0.34513710185E+02  0.48939833940E+02  0.11944087127E+02  0.61065341382E+02  0.10566000000E+00 0. -1.
         23    2    1    0    0    0 -0.13562707762E+02  0.25676027270E+02 -0.32602699649E+01  0.95869548627E+02  0.91307916281E+02 0.  0.
         13    1    3    3    0    0  0.20951002422E+02 -0.23263806671E+02 -0.15204357092E+02  0.34804207245E+02  0.10566000000E+00 0.  1.
         22    1    1    0    0    0  0.13562707762E+02 -0.25676027270E+02  0.32602699649E+01  0.29220451373E+02  0.00000000000E+00 0. -1.
</event>
<event>
 5    1  0.1254921E-009  0.9118800E+02  0.7561462E-02  0.1125453E+00
         25   -1    0    0    0    0  0.00000000000E+00  0.00000000000E+00  0.99999998245E-14  0.12509000000E+03  0.12509000000E+03 0.  0.
        -13    1    3    3    0    0  0.60377304462E+02 -0.52063815847E+01 -0.44732022127E+01  0.60766322954E+02  0.10566000000E+00 0.  1.
         23    2    1    0    0    0  0.26920610893E+02 -0.12353816944E+02  0.12025777523E+01  0.95445737871E+02  0.90725446268E+02 0.  0.
         13    1    3    3    0    0 -0.33456693568E+02 -0.71474353590E+01  0.56757799650E+01  0.34679414917E+02  0.10566000000E+00 0. -1.
         22    1    1    0    0    0 -0.26920610893E+02  0.12353816944E+02 -0.12025777523E+01  0.29644262129E+02  0.00000000000E+00 0.  1.
</event>
<event>
 5    1  0.1254921E-009  0.9118800E+02  0.7561462E-02  0.1125453E+00
         25   -1    0    0    0    0  0.00000000000E+00  0.00000000000E+00  0.99999998245E-14  0.12509000000E+03  0.12509000000E+03 0.  0.
        -13    1    3    3    0    0  0.75305128206E+01  0.59097953333E+02 -0.15825353544E+02  0.61641947489E+02  0.10566000000E+00 0.  1.
         23    2    1    0    0    0  0.87608073119E+01  0.27608228730E+02 -0.19970543542E+01  0.96056325337E+02  0.91563439061E+02 0.  0.
         13    1    3    3    0    0  0.12302944912E+01 -0.31489724603E+02  0.13828299189E+02  0.34414377847E+02  0.10566000000E+00 0. -1.
         22    1    1    0    0    0 -0.87608073119E+01 -0.27608228730E+02  0.19970543542E+01  0.29033674663E+02  0.00000000000E+00 0.  1.
</event>
<event>
 5    1  0.1254921E-009  0.9118800E+02  0.7561462E-02  0.1125453E+00
         25   -1    0    0    0    0  0.00000000000E+00  0.00000000000E+00  0.99999998245E-14  0.12509000000E+03  0.12509000000E+03 0.  0.
        -13    1    3    3    0    0  0.97416607814E+01  0.14358313545E+02 -0.43915682682E+02  0.47219270135E+02  0.10566000000E+00 0.  1.
         23    2    1    0    0    0 -0.90962191433E+01 -0.21718249406E+02 -0.17740231297E+02  0.95608830307E+02  0.90950036098E+02 0.  0.
         13    1    3    3    0    0 -0.18837879925E+02 -0.36076562951E+02  0.26175451385E+02  0.48389560172E+02  0.10566000000E+00 0. -1.
         22    1    1    0    0    0  0.90962191433E+01  0.21718249406E+02  0.17740231297E+02  0.29481169693E+02  0.00000000000E+00 0. -1.
</event>
<event>
 5    1  0.1254921E-009  0.9118800E+02  0.7561462E-02  0.1125453E+00
         25   -1    0    0    0    0  0.00000000000E+00  0.00000000000E+00  0.99999998245E-14  0.12509000000E+03  0.12509000000E+03 0.  0.
        -13    1    3    3    0    0  0.16614599708E+02  0.54984916958E+02  0.19010610899E+01  0.57471829740E+02  0.10566000000E+00 0. -1.
         23    2    1    0    0    0 -0.85062407610E+01  0.25578001784E+02  0.87509515542E+01  0.96749755466E+02  0.92505922635E+02 0.  0.
         13    1    3    3    0    0 -0.25120840469E+02 -0.29406915174E+02  0.68498904643E+01  0.39277925726E+02  0.10566000000E+00 0.  1.
         22    1    1    0    0    0  0.85062407610E+01 -0.25578001784E+02 -0.87509515542E+01  0.28340244534E+02  0.00000000000E+00 0. -1.
</event>
<event>
 5    1  0.1254921E-009  0.9118800E+02  0.7561462E-02  0.1125453E+00
         25   -1    0    0    0    0  0.00000000000E+00  0.00000000000E+00  0.99999998245E-14  0.12509000000E+03  0.12509000000E+03 0.  0.
        -13    1    3    3    0    0  0.16113963036E+01 -0.54927214206E+02 -0.21306878270E+02  0.58937167255E+02  0.10566000000E+00 0.  1.
         23    2    1    0    0    0  0.12960807479E+02 -0.33127110348E+02 -0.33813901983E+01  0.89357357078E+02  0.81901865020E+02 0.  0.
         13    1    3    3    0    0  0.11349411175E+02  0.21800103858E+02  0.17925488071E+02  0.30420189823E+02  0.10566000000E+00 0. -1.
         22    1    1    0    0    0 -0.12960807479E+02  0.33127110348E+02  0.33813901983E+01  0.35732642922E+02  0.00000000000E+00 0.  1.
</event>
<event>
 5    1  0.1254921E-009  0.9118800E+02  0.7561462E-02  0.1125453E+00
         25   -1    0    0    0    0  0.00000000000E+00  0.00000000000E+00  0.99999998245E-14  0.12509000000E+03  0.12509000000E+03 0.  0.
        -13    1    3    3    0    0 -0.17632639937E+02 -0.23230814594E+02 -0.31140829775E+02  0.42665479969E+02  0.10566000000E+00 0.  1.
         23    2    1    0    0    0 -0.23025680018E+02  0.44408461147E+01  0.15368683460E+02  0.97052534247E+02  0.92914449458E+02 0.  0.
         13    1    3    3    0    0 -0.53930400817E+01  0.27671660709E+02  0.46509513235E+02  0.54387054279E+02  0.10566000000E+00 0. -1.
         22    1    1    0    0    0  0.23025680018E+02 -0.44408461147E+01 -0.15368683460E+02  0.28037465753E+02  0.00000000000E+00 0. -1.
</event>
<event>
 5    1  0.1254921E-009  0.9118800E+02  0.7561462E-02  0.1125453E+00
         25   -1    0    0    0    0  0.00000000000E+00  0.00000000000E+00  0.99999998245E-14  0.12509000000E+03  0.12509000000E+03 0.  0.
        -13    1    3    3    0    0 -0.41332257782E+01  0.43708382019E+02 -0.17376958565E+02  0.47217328038E+02  0.10566000000E+00 0. -1.
         23    2    1    0    0    0 -0.27049133988E+02  0.82709074668E+01  0.69972251668E+01  0.95951971243E+02  0.91420763864E+02 0.  0.
         13    1    3    3    0    0 -0.22915908210E+02 -0.35437474552E+02  0.24374183732E+02  0.48734643205E+02  0.10566000000E+00 0.  1.
         22    1    1    0    0    0  0.27049133988E+02 -0.82709074668E+01 -0.69972251668E+01  0.29138028757E+02  0.00000000000E+00 0. -1.
</event>
<event>
 5    1  0.1254921E-009  0.9118800E+02  0.7561462E-02  0.1125453E+00
         25   -1    0    0    0    0  0.00000000000E+00  0.00000000000E+00  0.99999998245E-14  0.12509000000E+03  0.12509000000E+03 0.  0.
        -13    1    3    3    0    0 -0.27335764869E+02  0.35366309825E+02 -0.16926891121E+02  0.47796973949E+02  0.10566000000E+00 0.  1.
         23    2    1    0    0    0 -0.31376055679E+02 -0.73857278700E+01 -0.10318269613E+02  0.91245169760E+02  0.84736110783E+02 0.  0.
         13    1    3    3    0    0 -0.40402908104E+01 -0.42752037695E+02  0.66086215082E+01  0.43448195811E+02  0.10566000000E+00 0. -1.
         22    1    1    0    0    0  0.31376055679E+02  0.73857278700E+01  0.10318269613E+02  0.33844830240E+02  0.00000000000E+00 0.  1.
</event>
<event>
 5    1  0.1254921E-009  0.9118800E+02  0.7561462E-02  0.1125453E+00
         25   -1    0    0    0    0  0.00000000000E+00  0.00000000000E+00  0.99999998245E-14  0.12509000000E+03  0.12509000000E+03 0.  0.
        -13    1    3    3    0    0  0.29410302433E+02 -0.21408635194E+01  0.29058396950E+02  0.41399888686E+02  0.10566000000E+00 0.  1.
         23    2    1    0    0    0  0.22742775421E+02  0.68435352793E+01 -0.21422442095E+02  0.93105803367E+02  0.87439703718E+02 0.  0.
         13    1    3    3    0    0 -0.66675270126E+01  0.89843987987E+01 -0.50480839045E+02  0.51705914681E+02  0.10566000000E+00 0. -1.
         22    1    1    0    0    0 -0.22742775421E+02 -0.68435352793E+01  0.21422442095E+02  0.31984196633E+02  0.00000000000E+00 0. -1.
</event>
<event>
 5    1  0.1254921E-009  0.9118800E+02  0.7561462E-02  0.1125453E+00
         25   -1    0    0    0    0  0.00000000000E+00  0.00000000000E+00  0.99999998245E-14  0.12509000000E+03  0.12509000000E+03 0.  0.
        -13    1    3    3    0    0  0.34078811939E+02  0.46881814222E+02  0.10729059637E+02  0.58943988774E+02  0.10566000000E+00 0.  1.
         23    2    1    0    0    0  0.16642020955E+02  0.22836172527E+02 -0.99460410331E+01  0.95133842546E+02  0.90294388686E+02 0.  0.
         13    1    3    3    0    0 -0.17436790984E+02 -0.24045641694E+02 -0.20675100670E+02  0.36189853772E+02  0.10566000000E+00 0. -1.
         22    1    1    0    0    0 -0.16642020955E+02 -0.22836172527E+02  0.99460410331E+01  0.29956157454E+02  0.00000000000E+00 0.  1.
</event>
<event>
 5    1  0.1254921E-009  0.9118800E+02  0.7561462E-02  0.1125453E+00
         25   -1    0    0    0    0  0.00000000000E+00  0.00000000000E+00  0.99999998245E-14  0.12509000000E+03  0.12509000000E+03 0.  0.
        -13    1    3    3    0    0 -0.30592996885E+02  0.13054058818E+02  0.31518889643E+02  0.45823481736E+02  0.10566000000E+00 0.  1.
         23    2    1    0    0    0 -0.14434822766E+02  0.17582726702E+02 -0.16693690464E+02  0.96873060268E+02  0.92672510043E+02 0.  0.
         13    1    3    3    0    0  0.16158174119E+02  0.45286678840E+01 -0.48212580107E+02  0.51049578532E+02  0.10566000000E+00 0. -1.
         22    1    1    0    0    0  0.14434822766E+02 -0.17582726702E+02  0.16693690464E+02  0.28216939732E+02  0.00000000000E+00 0.  1.
</event>
<event>
 5    1  0.1254921E-009  0.9118800E+02  0.7561462E-02  0.1125453E+00
         25   -1    0    0    0    0  0.00000000000E+00  0.00000000000E+00  0.99999998245E-14  0.12509000000E+03  0.12509000000E+03 0.  0.
        -13    1    3    3    0    0  0.15565571145E+02 -0.53845197992E+02  0.24083806292E+02  0.61005190283E+02  0.10566000000E+00 0. -1.
         23    2    1    0    0    0  0.69244241045E+01 -0.42530590385E+02  0.10378497886E+02  0.80767184362E+02  0.67519079405E+02 0.  0.
         13    1    3    3    0    0 -0.86411470404E+01  0.11314607607E+02 -0.13705308406E+02  0.19761994079E+02  0.10566000000E+00 0.  1.
         22    1    1    0    0    0 -0.69244241045E+01  0.42530590385E+02 -0.10378497886E+02  0.44322815638E+02  0.00000000000E+00 0. -1.
</event>
<event>
 5    1  0.1254921E-009  0.9118800E+02  0.7561462E-02  0.1125453E+00
         25   -1    0    0    0    0  0.00000000000E+00  0.00000000000E+00  0.99999998245E-14  0.12509000000E+03  0.12509000000E+03 0.  0.
        -13    1    3    3    0    0 -0.28770762537E+02  0.27206730207E-01  0.31202017203E+02  0.42442131882E+02  0.10566000000E+00 0. -1.
         23    2    1    0    0    0  0.18508567519E+02  0.16348496207E+02  0.19014433528E+02  0.93922884602E+02  0.88600898245E+02 0.  0.
         13    1    3    3    0    0  0.47279330056E+02  0.16321289477E+02 -0.12187583675E+02  0.51480752720E+02  0.10566000000E+00 0.  1.
         22    1    1    0    0    0 -0.18508567519E+02 -0.16348496207E+02 -0.19014433528E+02  0.31167115398E+02  0.00000000000E+00 0.  1.
</event>
<event>
 5    1  0.1254921E-009  0.9118800E+02  0.7561462E-02  0.1125453E+00
         25   -1    0    0    0    0  0.00000000000E+00  0.00000000000E+00  0.99999998245E-14  0.12509000000E+03  0.12509000000E+03 0.  0.
        -13    1    3    3    0    0 -0.32305838021E+02 -0.12003257280E+02 -0.33711638135E+02  0.48210279665E+02  0.10566000000E+00 0.  1.
         23    2    1    0    0    0  0.11134455934E+02 -0.19899413302E+02 -0.20835652808E+02  0.94201698223E+02  0.88993666974E+02 0.  0.
         13    1    3    3    0    0  0.43440293955E+02 -0.78961560224E+01  0.12875985327E+02  0.45991418558E+02  0.10566000000E+00 0. -1.
         22    1    1    0    0    0 -0.11134455934E+02  0.19899413302E+02  0.20835652808E+02  0.30888301777E+02  0.00000000000E+00 0.  1.
</event>
<event>
 5    1  0.1254921E-009  0.9118800E+02  0.7561462E-02  0.1125453E+00
         25   -1    0    0    0    0  0.00000000000E+00  0.00000000000E+00  0.99999998245E-14  0.12509000000E+03  0.12509000000E+03 0.  0.
        -13    1    3    3    0    0 -0.24499660232E+02  0.94487218494E+01 -0.56577284954E+02  0.62373969193E+02  0.10566000000E+00 0.  1.
         23    2    1    0    0    0 -0.10823523573E+02  0.75586468414E+01 -0.29621191278E+02  0.92660125234E+02  0.86799781285E+02 0.  0.
         13    1    3    3    0    0  0.13676136660E+02 -0.18900750080E+01  0.26956093676E+02  0.30286156042E+02  0.10566000000E+00 0. -1.
         22    1    1    0    0    0  0.10823523573E+02 -0.75586468414E+01  0.29621191278E+02  0.32429874766E+02  0.00000000000E+00 0.  1.
</event>
<event>
 5    1  0.1254921E-009  0.9118800E+02  0.7561462E-02  0.1125453E+00
         25   -1    0    0    0    0  0.00000000000E+00  0.00000000000E+00  0.99999998245E-14  0.12509000000E+03  0.12509000000E+03 0.  0.
        -13    1    3    3    0    0  0.23967170904E+02 -0.18266623035E+02 -0.10489447639E+02  0.31908219538E+02  0.10566000000E+00 0.  1.
         23    2    1    0    0    0 -0.27482964251E+02  0.51383286810E+01  0.14366688961E+02  0.93655663720E+02  0.88222819324E+02 0.  0.
         13    1    3    3    0    0 -0.51450135155E+02  0.23404951716E+02  0.24856136600E+02  0.61747444182E+02  0.10566000000E+00 0. -1.
         22    1    1    0    0    0  0.27482964251E+02 -0.51383286810E+01 -0.14366688961E+02  0.31434336280E+02  0.00000000000E+00 0. -1.
</event>
<event>
 5    1  0.1254921E-009  0.9118800E+02  0.7561462E-02  0.1125453E+00
         25   -1    0    0    0    0  0.00000000000E+00  0.00000000000E+00  0.99999998245E-14  0.12509000000E+03  0.12509000000E+03 0.  0.
        -13    1    3    3    0    0  0.10814760734E+02 -0.32912051659E+01 -0.57176575764E+02  0.58283471597E+02  0.10566000000E+00 0. -1.
         23    2    1    0    0    0  0.17947906355E+02  0.80569415724E+01 -0.24055313641E+02  0.94014289801E+02  0.88729853614E+02 0.  0.
         13    1    3    3    0    0  0.71331456204E+01  0.11348146738E+02  0.33121262124E+02  0.35730818204E+02  0.10566000000E+00 0.  1.
         22    1    1    0    0    0 -0.17947906355E+02 -0.80569415724E+01  0.24055313641E+02  0.31075710199E+02  0.00000000000E+00 0. -1.
</event>
<event>
 5    1  0.1254921E-009  0.9118800E+02  0.7561462E-02  0.1125453E+00
         25   -1    0    0    0    0  0.00000000000E+00  0.00000000000E+00  0.99999998245E-14  0.12509000000E+03  0.12509000000E+03 0.  0.
        -13    1    3    3    0    0 -0.17709423710E+02 -0.11126238292E+02  0.10856384509E+02  0.23564573310E+02  0.10566000000E+00 0. -1.
         23    2    1    0    0    0  0.40888919219E+02 -0.38086949083E+01 -0.18997751448E+01  0.83980159117E+02  0.73230103837E+02 0.  0.
         13    1    3    3    0    0  0.58598342929E+02  0.73175433833E+01 -0.12756159653E+02  0.60415585807E+02  0.10566000000E+00 0.  1.
         22    1    1    0    0    0 -0.40888919219E+02  0.38086949083E+01  0.18997751448E+01  0.41109840883E+02  0.00000000000E+00 0.  1.
</event>
<event>
 5    1  0.1254921E-009  0.9118800E+02  0.7561462E-02  0.1125453E+00
         25   -1    0    0    0    0  0.00000000000E+00  0.00000000000E+00  0.99999998245E-14  0.12509000000E+03  0.12509000000E+03 0.  0.
        -13    1    3    3    0    0 -0.86673958033E+01 -0.25691507119E+02 -0.25809906732E+02  0.37434472584E+02  0.10566000000E+00 0. -1.
         23    2    1    0    0    0  0.15056538983E+02 -0.80514841264E+01  0.24166510092E+02  0.95500373899E+02  0.90800745823E+02 0.  0.
         13    1    3    3    0    0  0.23723934786E+02  0.17640022993E+02  0.49976416824E+02  0.58065901315E+02  0.10566000000E+00 0.  1.
         22    1    1    0    0    0 -0.15056538983E+02  0.80514841264E+01 -0.24166510092E+02  0.29589626101E+02  0.00000000000E+00 0.  1.
</event>
<event>
 5    1  0.1254921E-009  0.9118800E+02  0.7561462E-02  0.1125453E+00
         25   -1    0    0    0    0  0.00000000000E+00  0.00000000000E+00  0.99999998245E-14  0.12509000000E+03  0.12509000000E+03 0.  0.
        -13    1    3    3    0    0  0.33797935367E+02 -0.22050093503E+02  0.34489983752E+02  0.53085564910E+02  0.10566000000E+00 0. -1.
         23    2    1    0    0    0  0.28649005961E+02  0.19229930399E+01 -0.11590279816E+01  0.96353145777E+02  0.91968048312E+02 0.  0.
         13    1    3    3    0    0 -0.51489294057E+01  0.23973086543E+02 -0.35649011734E+02  0.43267580867E+02  0.10566000000E+00 0.  1.
         22    1    1    0    0    0 -0.28649005961E+02 -0.19229930399E+01  0.11590279816E+01  0.28736854223E+02  0.00000000000E+00 0. -1.
</event>
<event>
 5    1  0.1254921E-009  0.9118800E+02  0.7561462E-02  0.1125453E+00
         25   -1    0    0    0    0  0.00000000000E+00  0.00000000000E+00  0.99999998245E-14  0.12509000000E+03  0.12509000000E+03 0.  0.
        -13    1    3    3    0    0 -0.28065665152E+02  0.78917477881E+01  0.16968160586E+02  0.33732638220E+02  0.10566000000E+00 0.  1.
         23    2    1    0    0    0  0.22383847514E+02 -0.15240646069E+02 -0.10975513071E+02  0.95870557684E+02  0.91309298657E+02 0.  0.
         13    1    3    3    0    0  0.50449512666E+02 -0.23132393857E+02 -0.27943673657E+02  0.62137919464E+02  0.10566000000E+00 0. -1.
         22    1    1    0    0    0 -0.22383847514E+02  0.15240646069E+02  0.10975513071E+02  0.29219442316E+02  0.00000000000E+00 0. -1.
</event>
<event>
 5    1  0.1254921E-009  0.9118800E+02  0.7561462E-02  0.1125453E+00
         25   -1    0    0    0    0  0.00000000000E+00  0.00000000000E+00  0.99999998245E-14  0.12509000000E+03  0.12509000000E+03 0.  0.
        -13    1    3    3    0    0  0.12199026888E+02 -0.28127968837E+02 -0.44433960726E+02  0.53985061987E+02  0.10566000000E+00 0. -1.
         23    2    1    0    0    0  0.23828080143E+02  0.12523242373E+01 -0.20652438449E+02  0.93532608897E+02  0.88048168600E+02 0.  0.
         13    1    3    3    0    0  0.11629053255E+02  0.29380293074E+02  0.23781522277E+02  0.39547546910E+02  0.10566000000E+00 0.  1.
         22    1    1    0    0    0 -0.23828080143E+02 -0.12523242373E+01  0.20652438449E+02  0.31557391103E+02  0.00000000000E+00 0.  1.
</event>
<event>
 5    1  0.1254921E-009  0.9118800E+02  0.7561462E-02  0.1125453E+00
         25   -1    0    0    0    0  0.00000000000E+00  0.00000000000E+00  0.99999998245E-14  0.12509000000E+03  0.12509000000E+03 0.  0.
        -13    1    3    3    0    0  0.25944133885E+02 -0.19489664742E+02 -0.33312196284E+02  0.46504394417E+02  0.10566000000E+00 0. -1.
         23    2    1    0    0    0 -0.11500425298E+02 -0.27570068002E+02 -0.35637161166E+01  0.95005643530E+02  0.90116612222E+02 0.  0.
         13    1    3    3    0    0 -0.37444559183E+02 -0.80804032593E+01  0.29748480167E+02  0.48501249113E+02  0.10566000000E+00 0.  1.
         22    1    1    0    0    0  0.11500425298E+02  0.27570068002E+02  0.35637161166E+01  0.30084356470E+02  0.00000000000E+00 0. -1.
</event>
<event>
 5    1  0.1254921E-009  0.9118800E+02  0.7561462E-02  0.1125453E+00
         25   -1    0    0    0    0  0.00000000000E+00  0.00000000000E+00  0.99999998245E-14  0.12509000000E+03  0.12509000000E+03 0.  0.
        -13    1    3    3    0    0 -0.19422762257E+02 -0.27484780941E+02  0.19759230925E+01  0.33713088158E+02  0.10566000000E+00 0.  1.
         23    2    1    0    0    0  0.71883062464E+01  0.26129032131E+02 -0.12427527122E+02  0.95276555094E+02  0.90491880594E+02 0.  0.
         13    1    3    3    0    0  0.26611068504E+02  0.53613813072E+02 -0.14403450215E+02  0.61563466936E+02  0.10566000000E+00 0. -1.
         22    1    1    0    0    0 -0.71883062464E+01 -0.26129032131E+02  0.12427527122E+02  0.29813444906E+02  0.00000000000E+00 0. -1.
</event>
<event>
 5    1  0.1254921E-009  0.9118800E+02  0.7561462E-02  0.1125453E+00
         25   -1    0    0    0    0  0.00000000000E+00  0.00000000000E+00  0.99999998245E-14  0.12509000000E+03  0.12509000000E+03 0.  0.
        -13    1    3    3    0    0 -0.45496929032E+00 -0.12150006098E+02  0.51099408782E+02  0.52526092441E+02  0.10566000000E+00 0. -1.
         23    2    1    0    0    0 -0.13407030561E+02  0.14502455686E+02  0.31001722312E+02  0.88331647539E+02  0.80320006731E+02 0.  0.
         13    1    3    3    0    0 -0.12952061271E+02  0.26652461784E+02 -0.20097686470E+02  0.35805555097E+02  0.10566000000E+00 0.  1.
         22    1    1    0    0    0  0.13407030561E+02 -0.14502455686E+02 -0.31001722312E+02  0.36758352461E+02  0.00000000000E+00 0.  1.
</event>
<event>
 5    1  0.1254921E-009  0.9118800E+02  0.7561462E-02  0.1125453E+00
         25   -1    0    0    0    0  0.00000000000E+00  0.00000000000E+00  0.99999998245E-14  0.12509000000E+03  0.12509000000E+03 0.  0.
        -13    1    3    3    0    0  0.25294223230E+02 -0.40269035109E+02  0.28975146558E+02  0.55686292744E+02  0.10566000000E+00 0.  1.
         23    2    1    0    0    0  0.21910345740E+02 -0.14660247191E+01  0.19381596341E+02  0.95800774069E+02  0.91213647864E+02 0.  0.
         13    1    3    3    0    0 -0.33838774901E+01  0.38803010390E+02 -0.95935502175E+01  0.40114481325E+02  0.10566000000E+00 0. -1.
         22    1    1    0    0    0 -0.21910345740E+02  0.14660247191E+01 -0.19381596341E+02  0.29289225931E+02  0.00000000000E+00 0.  1.
</event>
<event>
 5    1  0.1254921E-009  0.9118800E+02  0.7561462E-02  0.1125453E+00
         25   -1    0    0    0    0  0.00000000000E+00  0.00000000000E+00  0.99999998245E-14  0.12509000000E+03  0.12509000000E+03 0.  0.
        -13    1    3    3    0    0 -0.99882562600E+01 -0.15079602929E+02 -0.27080757691E+02  0.32565906847E+02  0.10566000000E+00 0.  1.
         23    2    1    0    0    0  0.19698210154E+02  0.22272802849E+02  0.10766733540E+02  0.93466910632E+02  0.87954781575E+02 0.  0.
         13    1    3    3    0    0  0.29686466414E+02  0.37352405778E+02  0.37847491231E+02  0.60901003785E+02  0.10566000000E+00 0. -1.
         22    1    1    0    0    0 -0.19698210154E+02 -0.22272802849E+02 -0.10766733540E+02  0.31623089368E+02  0.00000000000E+00 0. -1.
</event>
<event>
 5    1  0.1254921E-009  0.9118800E+02  0.7561462E-02  0.1125453E+00
         25   -1    0    0    0    0  0.00000000000E+00  0.00000000000E+00  0.99999998245E-14  0.12509000000E+03  0.12509000000E+03 0.  0.
        -13    1    3    3    0    0 -0.19118323842E+02 -0.40905874006E+02 -0.35501799639E+02  0.57438573941E+02  0.10566000000E+00 0. -1.
         23    2    1    0    0    0  0.56244417264E+01 -0.26899080214E+02 -0.93698532196E+01  0.96055726969E+02  0.91562621594E+02 0.  0.
         13    1    3    3    0    0  0.24742765568E+02  0.14006793792E+02  0.26131946419E+02  0.38617153028E+02  0.10566000000E+00 0.  1.
         22    1    1    0    0    0 -0.56244417264E+01  0.26899080214E+02  0.93698532196E+01  0.29034273031E+02  0.00000000000E+00 0. -1.
</event>
<event>
 5    1  0.1254921E-009  0.9118800E+02  0.7561462E-02  0.1125453E+00
         25   -1    0    0    0    0  0.00000000000E+00  0.00000000000E+00  0.99999998245E-14  0.12509000000E+03  0.12509000000E+03 0.  0.
        -13    1    3    3    0    0 -0.16648678300E+02  0.31122680203E+02  0.21413855524E+02  0.41283944634E+02  0.10566000000E+00 0.  1.
         23    2    1    0    0    0  0.24968260511E+02  0.10921350285E+02 -0.86997798352E+01  0.96482726551E+02  0.92144128562E+02 0.  0.
         13    1    3    3    0    0  0.41616938811E+02 -0.20201329918E+02 -0.30113635359E+02  0.55198781917E+02  0.10566000000E+00 0. -1.
         22    1    1    0    0    0 -0.24968260511E+02 -0.10921350285E+02  0.86997798352E+01  0.28607273449E+02  0.00000000000E+00 0. -1.
</event>
<event>
 5    1  0.1254921E-009  0.9118800E+02  0.7561462E-02  0.1125453E+00
         25   -1    0    0    0    0  0.00000000000E+00  0.00000000000E+00  0.99999998245E-14  0.12509000000E+03  0.12509000000E+03 0.  0.
        -13    1    3    3    0    0  0.38005837897E+01  0.15530607394E+02  0.16329373782E+02  0.22853967167E+02  0.10566000000E+00 0. -1.
         23    2    1    0    0    0  0.87181959498E+01 -0.26478262836E+02 -0.29008843071E+02  0.84857944127E+02  0.74714472237E+02 0.  0.
         13    1    3    3    0    0  0.49176121602E+01 -0.42008870230E+02 -0.45338216853E+02  0.62003976959E+02  0.10566000000E+00 0.  1.
         22    1    1    0    0    0 -0.87181959498E+01  0.26478262836E+02  0.29008843071E+02  0.40232055873E+02  0.00000000000E+00 0.  1.
</event>
<event>
 5    1  0.1254921E-009  0.9118800E+02  0.7561462E-02  0.1125453E+00
         25   -1    0    0    0    0  0.00000000000E+00  0.00000000000E+00  0.99999998245E-14  0.12509000000E+03  0.12509000000E+03 0.  0.
        -13    1    3    3    0    0  0.44241293824E+02  0.14035380858E+02 -0.30578498058E+02  0.55581828888E+02  0.10566000000E+00 0. -1.
         23    2    1    0    0    0  0.88870471657E+01 -0.24604685331E+01 -0.29035081902E+02  0.94625766975E+02  0.89587757433E+02 0.  0.
         13    1    3    3    0    0 -0.35354246658E+02 -0.16495849391E+02  0.15434161559E+01  0.39043938087E+02  0.10566000000E+00 0.  1.
         22    1    1    0    0    0 -0.88870471657E+01  0.24604685331E+01  0.29035081902E+02  0.30464233025E+02  0.00000000000E+00 0. -1.
</event>
<event>
 5    1  0.1254921E-009  0.9118800E+02  0.7561462E-02  0.1125453E+00
         25   -1    0    0    0    0  0.00000000000E+00  0.00000000000E+00  0.99999998245E-14  0.12509000000E+03  0.12509000000E+03 0.  0.
        -13    1    3    3    0    0  0.33248757495E+01  0.29460227763E+02  0.19391417023E+02  0.35425951459E+02  0.10566000000E+00 0.  1.
         23    2    1    0    0    0 -0.92192527397E+01 -0.11921756729E+02 -0.24042265817E+02  0.96714774006E+02  0.92458607284E+02 0.  0.
         13    1    3    3    0    0 -0.12544128489E+02 -0.41381984492E+02 -0.43433682840E+02  0.61288822547E+02  0.10566000000E+00 0. -1.
         22    1    1    0    0    0  0.92192527397E+01  0.11921756729E+02  0.24042265817E+02  0.28375225994E+02  0.00000000000E+00 0. -1.
</event>
<event>
 5    1  0.1254921E-009  0.9118800E+02  0.7561462E-02  0.1125453E+00
         25   -1    0    0    0    0  0.00000000000E+00  0.00000000000E+00  0.99999998245E-14  0.12509000000E+03  0.12509000000E+03 0.  0.
        -13    1    3    3    0    0  0.30261890663E+02 -0.22064650155E+02  0.18102382825E+02  0.41597334541E+02  0.10566000000E+00 0.  1.
         23    2    1    0    0    0  0.71463606409E+01  0.25176356194E+02  0.16373734700E+02  0.94219001156E+02  0.89017984752E+02 0.  0.
         13    1    3    3    0    0 -0.23115530022E+02  0.47241006348E+02 -0.17286481257E+01  0.52621666615E+02  0.10566000000E+00 0. -1.
         22    1    1    0    0    0 -0.71463606409E+01 -0.25176356194E+02 -0.16373734700E+02  0.30870998844E+02  0.00000000000E+00 0. -1.
</event>
<event>
 5    1  0.1254921E-009  0.9118800E+02  0.7561462E-02  0.1125453E+00
         25   -1    0    0    0    0  0.00000000000E+00  0.00000000000E+00  0.99999998245E-14  0.12509000000E+03  0.12509000000E+03 0.  0.
        -13    1    3    3    0    0 -0.14840134428E+01  0.58677080062E+01  0.60049227335E+02  0.60353567921E+02  0.10566000000E+00 0. -1.
         23    2    1    0    0    0 -0.36477969584E+01  0.13544058201E+02  0.23850568139E+02  0.97420566762E+02  0.93408614658E+02 0.  0.
         13    1    3    3    0    0 -0.21637835156E+01  0.76763501948E+01 -0.36198659197E+02  0.37066998841E+02  0.10566000000E+00 0.  1.
         22    1    1    0    0    0  0.36477969584E+01 -0.13544058201E+02 -0.23850568139E+02  0.27669433238E+02  0.00000000000E+00 0. -1.
</event>
<event>
 5    1  0.1254921E-009  0.9118800E+02  0.7561462E-02  0.1125453E+00
         25   -1    0    0    0    0  0.00000000000E+00  0.00000000000E+00  0.99999998245E-14  0.12509000000E+03  0.12509000000E+03 0.  0.
        -13    1    3    3    0    0 -0.29889176981E+02 -0.23941653996E+02 -0.40525588548E+02  0.55757512389E+02  0.10566000000E+00 0. -1.
         23    2    1    0    0    0 -0.26743872038E+02  0.34218852303E+01 -0.11481773763E+02  0.95785134895E+02  0.91192197846E+02 0.  0.
         13    1    3    3    0    0  0.31453049434E+01  0.27363539226E+02  0.29043814785E+02  0.40027622506E+02  0.10566000000E+00 0.  1.
         22    1    1    0    0    0  0.26743872038E+02 -0.34218852303E+01  0.11481773763E+02  0.29304865105E+02  0.00000000000E+00 0. -1.
</event>
<event>
 5    1  0.1254921E-009  0.9118800E+02  0.7561462E-02  0.1125453E+00
         25   -1    0    0    0    0  0.00000000000E+00  0.00000000000E+00  0.99999998245E-14  0.12509000000E+03  0.12509000000E+03 0.  0.
        -13    1    3    3    0    0 -0.39054532478E+02  0.22917890503E+02  0.10868452730E+02  0.46568451133E+02  0.10566000000E+00 0. -1.
         23    2    1    0    0    0 -0.52352687256E+01 -0.53560009991E+01  0.29668019971E+02  0.94491205999E+02  0.89399674590E+02 0.  0.
         13    1    3    3    0    0  0.33819263752E+02 -0.28273891503E+02  0.18799567241E+02  0.47922754866E+02  0.10566000000E+00 0.  1.
         22    1    1    0    0    0  0.52352687256E+01  0.53560009991E+01 -0.29668019971E+02  0.30598794001E+02  0.00000000000E+00 0.  1.
</event>
<event>
 5    1  0.1254921E-009  0.9118800E+02  0.7561462E-02  0.1125453E+00
         25   -1    0    0    0    0  0.00000000000E+00  0.00000000000E+00  0.99999998245E-14  0.12509000000E+03  0.12509000000E+03 0.  0.
        -13    1    3    3    0    0  0.13950099895E+02  0.40291217427E+02  0.10096114781E+02  0.43817007959E+02  0.10566000000E+00 0.  1.
         23    2    1    0    0    0 -0.92476633196E+01 -0.25068690768E+01  0.27852852651E+02  0.95635202933E+02  0.90986301001E+02 0.  0.
         13    1    3    3    0    0 -0.23197763215E+02 -0.42798086503E+02  0.17756737870E+02  0.51818194974E+02  0.10566000000E+00 0. -1.
         22    1    1    0    0    0  0.92476633196E+01  0.25068690768E+01 -0.27852852651E+02  0.29454797067E+02  0.00000000000E+00 0. -1.
</event>
<event>
 5    1  0.1254921E-009  0.9118800E+02  0.7561462E-02  0.1125453E+00
         25   -1    0    0    0    0  0.00000000000E+00  0.00000000000E+00  0.99999998245E-14  0.12509000000E+03  0.12509000000E+03 0.  0.
        -13    1    3    3    0    0  0.63234018731E+01 -0.26325737513E+02 -0.21651826673E+02  0.34667602011E+02  0.10566000000E+00 0.  1.
         23    2    1    0    0    0 -0.19502169322E+02  0.18802521171E+02  0.10763705839E+02  0.95939926689E+02  0.91404281952E+02 0.  0.
         13    1    3    3    0    0 -0.25825571195E+02  0.45128258684E+02  0.32415532512E+02  0.61272324678E+02  0.10566000000E+00 0. -1.
         22    1    1    0    0    0  0.19502169322E+02 -0.18802521171E+02 -0.10763705839E+02  0.29150073311E+02  0.00000000000E+00 0. -1.
</event>
<event>
 5    1  0.1254921E-009  0.9118800E+02  0.7561462E-02  0.1125453E+00
         25   -1    0    0    0    0  0.00000000000E+00  0.00000000000E+00  0.99999998245E-14  0.12509000000E+03  0.12509000000E+03 0.  0.
        -13    1    3    3    0    0  0.33093225301E+02  0.30841641640E+01  0.25707191828E+02  0.42018382943E+02  0.10566000000E+00 0.  1.
         23    2    1    0    0    0 -0.81474449410E+01 -0.26487008329E+02  0.45141297603E+01  0.97012966026E+02  0.92861163789E+02 0.  0.
         13    1    3    3    0    0 -0.41240670242E+02 -0.29571172493E+02 -0.21193062067E+02  0.54994583083E+02  0.10566000000E+00 0. -1.
         22    1    1    0    0    0  0.81474449410E+01  0.26487008329E+02 -0.45141297603E+01  0.28077033974E+02  0.00000000000E+00 0. -1.
</event>
<event>
 5    1  0.1254921E-009  0.9118800E+02  0.7561462E-02  0.1125453E+00
         25   -1    0    0    0    0  0.00000000000E+00  0.00000000000E+00  0.99999998245E-14  0.12509000000E+03  0.12509000000E+03 0.  0.
        -13    1    3    3    0    0  0.21688149239E+02 -0.14303716716E+02  0.50751399902E+02  0.57014804089E+02  0.10566000000E+00 0.  1.
         23    2    1    0    0    0 -0.53187030356E+01 -0.17378646390E+02  0.21201270249E+02  0.97165104074E+02  0.93065877942E+02 0.  0.
         13    1    3    3    0    0 -0.27006852275E+02 -0.30749296738E+01 -0.29550129653E+02  0.40150299984E+02  0.10566000000E+00 0. -1.
         22    1    1    0    0    0  0.53187030356E+01  0.17378646390E+02 -0.21201270249E+02  0.27924895926E+02  0.00000000000E+00 0.  1.
</event>
<event>
 5    1  0.1254921E-009  0.9118800E+02  0.7561462E-02  0.1125453E+00
         25   -1    0    0    0    0  0.00000000000E+00  0.00000000000E+00  0.99999998245E-14  0.12509000000E+03  0.12509000000E+03 0.  0.
        -13    1    3    3    0    0 -0.13322432601E+02 -0.51118194527E+02  0.10155402178E+02  0.53793125765E+02  0.10566000000E+00 0. -1.
         23    2    1    0    0    0 -0.16736125458E+02 -0.16251076021E+02 -0.15382349521E+02  0.97146985775E+02  0.93041521920E+02 0.  0.
         13    1    3    3    0    0 -0.34136928574E+01  0.34867118507E+02 -0.25537751699E+02  0.43353860010E+02  0.10566000000E+00 0.  1.
         22    1    1    0    0    0  0.16736125458E+02  0.16251076021E+02  0.15382349521E+02  0.27943014225E+02  0.00000000000E+00 0. -1.
</event>
<event>
 5    1  0.1254921E-009  0.9118800E+02  0.7561462E-02  0.1125453E+00
         25   -1    0    0    0    0  0.00000000000E+00  0.00000000000E+00  0.99999998245E-14  0.12509000000E+03  0.12509000000E+03 0.  0.
        -13    1    3    3    0    0  0.61845182461E+01 -0.53010088955E+02 -0.64282890629E+01  0.53755482151E+02  0.10566000000E+00 0.  1.
         23    2    1    0    0    0 -0.16080628235E+02 -0.24527399968E+02  0.10841981202E+02  0.93821349405E+02  0.88457430972E+02 0.  0.
         13    1    3    3    0    0 -0.22265146481E+02  0.28482688987E+02  0.17270270265E+02  0.40065867254E+02  0.10566000000E+00 0. -1.
         22    1    1    0    0    0  0.16080628235E+02  0.24527399968E+02 -0.10841981202E+02  0.31268650595E+02  0.00000000000E+00 0. -1.
</event>
<event>
 5    1  0.1254921E-009  0.9118800E+02  0.7561462E-02  0.1125453E+00
         25   -1    0    0    0    0  0.00000000000E+00  0.00000000000E+00  0.99999998245E-14  0.12509000000E+03  0.12509000000E+03 0.  0.
        -13    1    3    3    0    0  0.24714541111E+02 -0.22630452548E+02  0.65764038117E+01  0.34149760994E+02  0.10566000000E+00 0. -1.
         23    2    1    0    0    0 -0.30323067389E+02  0.12198034791E+00 -0.35494445088E+01  0.94559656874E+02  0.89495401316E+02 0.  0.
         13    1    3    3    0    0 -0.55037608499E+02  0.22752432896E+02 -0.10125848320E+02  0.60409895880E+02  0.10566000000E+00 0.  1.
         22    1    1    0    0    0  0.30323067389E+02 -0.12198034791E+00  0.35494445088E+01  0.30530343126E+02  0.00000000000E+00 0.  1.
</event>
<event>
 5    1  0.1254921E-009  0.9118800E+02  0.7561462E-02  0.1125453E+00
         25   -1    0    0    0    0  0.00000000000E+00  0.00000000000E+00  0.99999998245E-14  0.12509000000E+03  0.12509000000E+03 0.  0.
        -13    1    3    3    0    0 -0.22765668075E+02 -0.85865185109E+01 -0.25590790202E+02  0.35311522910E+02  0.10566000000E+00 0.  1.
         23    2    1    0    0    0 -0.29162728595E+01  0.16718907640E+02  0.24768684329E+02  0.95064773216E+02  0.90198652225E+02 0.  0.
         13    1    3    3    0    0  0.19849395215E+02  0.25305426151E+02  0.50359474531E+02  0.59753250306E+02  0.10566000000E+00 0. -1.
         22    1    1    0    0    0  0.29162728595E+01 -0.16718907640E+02 -0.24768684329E+02  0.30025226784E+02  0.00000000000E+00 0. -1.
</event>
<event>
 5    1  0.1254921E-009  0.9118800E+02  0.7561462E-02  0.1125453E+00
         25   -1    0    0    0    0  0.00000000000E+00  0.00000000000E+00  0.99999998245E-14  0.12509000000E+03  0.12509000000E+03 0.  0.
        -13    1    3    3    0    0 -0.65097965316E+01  0.37468604074E+02  0.50933132507E+01  0.38369607061E+02  0.10566000000E+00 0. -1.
         23    2    1    0    0    0  0.24322920152E+02 -0.88853090224E+01 -0.11920155038E+02  0.96583101585E+02  0.92280291799E+02 0.  0.
         13    1    3    3    0    0  0.30832716684E+02 -0.46353913096E+02 -0.17013468289E+02  0.58213494524E+02  0.10566000000E+00 0.  1.
         22    1    1    0    0    0 -0.24322920152E+02  0.88853090224E+01  0.11920155038E+02  0.28506898415E+02  0.00000000000E+00 0.  1.
</event>
<event>
 5    1  0.1254921E-009  0.9118800E+02  0.7561462E-02  0.1125453E+00
         25   -1    0    0    0    0  0.00000000000E+00  0.00000000000E+00  0.99999998245E-14  0.12509000000E+03  0.12509000000E+03 0.  0.
        -13    1    3    3    0    0  0.25378692395E+02 -0.22255151997E+02 -0.15822266610E+02  0.37279016924E+02  0.10566000000E+00 0.  1.
         23    2    1    0    0    0 -0.13028292118E+02  0.22199507529E+02 -0.13385447536E+02  0.96077507247E+02  0.91592372297E+02 0.  0.
         13    1    3    3    0    0 -0.38406984513E+02  0.44454659526E+02  0.24368190738E+01  0.58798490322E+02  0.10566000000E+00 0. -1.
         22    1    1    0    0    0  0.13028292118E+02 -0.22199507529E+02  0.13385447536E+02  0.29012492753E+02  0.00000000000E+00 0. -1.
</event>
<event>
 5    1  0.1254921E-009  0.9118800E+02  0.7561462E-02  0.1125453E+00
         25   -1    0    0    0    0  0.00000000000E+00  0.00000000000E+00  0.99999998245E-14  0.12509000000E+03  0.12509000000E+03 0.  0.
        -13    1    3    3    0    0  0.34763391779E+02 -0.44013238494E+02  0.84646093611E+01  0.56721418761E+02  0.10566000000E+00 0.  1.
         23    2    1    0    0    0  0.25792881663E+02 -0.57130888577E+01  0.11712364679E+02  0.96192048254E+02  0.91748670465E+02 0.  0.
         13    1    3    3    0    0 -0.89705101158E+01  0.38300149636E+02  0.32477553179E+01  0.39470629492E+02  0.10566000000E+00 0. -1.
         22    1    1    0    0    0 -0.25792881663E+02  0.57130888577E+01 -0.11712364679E+02  0.28897951746E+02  0.00000000000E+00 0.  1.
</event>
<event>
 5    1  0.1254921E-009  0.9118800E+02  0.7561462E-02  0.1125453E+00
         25   -1    0    0    0    0  0.00000000000E+00  0.00000000000E+00  0.99999998245E-14  0.12509000000E+03  0.12509000000E+03 0.  0.
        -13    1    3    3    0    0  0.41833476189E+01 -0.15585799708E+02 -0.32148883802E+02  0.35971925770E+02  0.10566000000E+00 0.  1.
         23    2    1    0    0    0 -0.16410342296E+02  0.27269457378E+02 -0.18666075085E+00  0.93263007019E+02  0.87664308564E+02 0.  0.
         13    1    3    3    0    0 -0.20593689915E+02  0.42855257086E+02  0.31962223052E+02  0.57291081249E+02  0.10566000000E+00 0. -1.
         22    1    1    0    0    0  0.16410342296E+02 -0.27269457378E+02  0.18666075085E+00  0.31826992981E+02  0.00000000000E+00 0. -1.
</event>
<event>
 5    1  0.1254921E-009  0.9118800E+02  0.7561462E-02  0.1125453E+00
         25   -1    0    0    0    0  0.00000000000E+00  0.00000000000E+00  0.99999998245E-14  0.12509000000E+03  0.12509000000E+03 0.  0.
        -13    1    3    3    0    0 -0.96024608275E+01  0.28085336687E+02 -0.26089031223E+02  0.39517617653E+02  0.10566000000E+00 0. -1.
         23    2    1    0    0    0 -0.23245957541E+02 -0.23760972972E+01  0.18549783539E+02  0.95255207396E+02  0.90462366132E+02 0.  0.
         13    1    3    3    0    0 -0.13643496714E+02 -0.30461433984E+02  0.44638814762E+02  0.55737589743E+02  0.10566000000E+00 0.  1.
         22    1    1    0    0    0  0.23245957541E+02  0.23760972972E+01 -0.18549783539E+02  0.29834792604E+02  0.00000000000E+00 0.  1.
</event>
<event>
 5    1  0.1254921E-009  0.9118800E+02  0.7561462E-02  0.1125453E+00
         25   -1    0    0    0    0  0.00000000000E+00  0.00000000000E+00  0.99999998245E-14  0.12509000000E+03  0.12509000000E+03 0.  0.
        -13    1    3    3    0    0 -0.13447587250E+02 -0.16545904446E+02  0.31112935660E+02  0.37717774142E+02  0.10566000000E+00 0.  1.
         23    2    1    0    0    0  0.29246920819E+02 -0.43813753733E+01 -0.51896311574E+01  0.95064825578E+02  0.90198724841E+02 0.  0.
         13    1    3    3    0    0  0.42694508069E+02  0.12164529072E+02 -0.36302566818E+02  0.57347051436E+02  0.10566000000E+00 0. -1.
         22    1    1    0    0    0 -0.29246920819E+02  0.43813753733E+01  0.51896311574E+01  0.30025174422E+02  0.00000000000E+00 0. -1.
</event>
<event>
 5    1  0.1254921E-009  0.9118800E+02  0.7561462E-02  0.1125453E+00
         25   -1    0    0    0    0  0.00000000000E+00  0.00000000000E+00  0.99999998245E-14  0.12509000000E+03  0.12509000000E+03 0.  0.
        -13    1    3    3    0    0  0.20788125661E+01 -0.18911998313E+01  0.33722287663E+02  0.33839355013E+02  0.10566000000E+00 0.  1.
         23    2    1    0    0    0 -0.21983506210E+02 -0.10145545005E+02 -0.20262892180E+02  0.93517996132E+02  0.88027405803E+02 0.  0.
         13    1    3    3    0    0 -0.24062318776E+02 -0.82543451736E+01 -0.53985179842E+02  0.59678641119E+02  0.10566000000E+00 0. -1.
         22    1    1    0    0    0  0.21983506210E+02  0.10145545005E+02  0.20262892180E+02  0.31572003868E+02  0.00000000000E+00 0. -1.
</event>
<event>
 5    1  0.1254921E-009  0.9118800E+02  0.7561462E-02  0.1125453E+00
         25   -1    0    0    0    0  0.00000000000E+00  0.00000000000E+00  0.99999998245E-14  0.12509000000E+03  0.12509000000E+03 0.  0.
        -13    1    3    3    0    0 -0.28775070087E+02  0.50542071521E+02  0.14473577899E+02  0.59933306879E+02  0.10566000000E+00 0.  1.
         23    2    1    0    0    0 -0.86289429536E+01  0.34478431013E+02 -0.12469918328E+00  0.89547962755E+02  0.82192464509E+02 0.  0.
         13    1    3    3    0    0  0.20146127134E+02 -0.16063640508E+02 -0.14598277082E+02  0.29614655876E+02  0.10566000000E+00 0. -1.
         22    1    1    0    0    0  0.86289429536E+01 -0.34478431013E+02  0.12469918328E+00  0.35542037245E+02  0.00000000000E+00 0.  1.
</event>
<event>
 5    1  0.1254921E-009  0.9118800E+02  0.7561462E-02  0.1125453E+00
         25   -1    0    0    0    0  0.00000000000E+00  0.00000000000E+00  0.99999998245E-14  0.12509000000E+03  0.12509000000E+03 0.  0.
        -13    1    3    3    0    0 -0.20154805870E+02 -0.14573607628E+02  0.37331417957E+02  0.44858133819E+02  0.10566000000E+00 0. -1.
         23    2    1    0    0    0 -0.29953307226E+02 -0.14989281848E+01 -0.88303324438E+01  0.93826248297E+02  0.88464358354E+02 0.  0.
         13    1    3    3    0    0 -0.97985013560E+01  0.13074679444E+02 -0.46161750401E+02  0.48968114478E+02  0.10566000000E+00 0.  1.
         22    1    1    0    0    0  0.29953307226E+02  0.14989281848E+01  0.88303324438E+01  0.31263751703E+02  0.00000000000E+00 0.  1.
</event>
<event>
 5    1  0.1254921E-009  0.9118800E+02  0.7561462E-02  0.1125453E+00
         25   -1    0    0    0    0  0.00000000000E+00  0.00000000000E+00  0.99999998245E-14  0.12509000000E+03  0.12509000000E+03 0.  0.
        -13    1    3    3    0    0  0.34337916584E+02 -0.32624929893E+02 -0.37278958857E+02  0.60276118848E+02  0.10566000000E+00 0. -1.
         23    2    1    0    0    0  0.18599918922E+02 -0.20718282509E+02 -0.70633815229E+01  0.96365523111E+02  0.91984881757E+02 0.  0.
         13    1    3    3    0    0 -0.15737997662E+02  0.11906647385E+02  0.30215577334E+02  0.36089404263E+02  0.10566000000E+00 0.  1.
         22    1    1    0    0    0 -0.18599918922E+02  0.20718282509E+02  0.70633815229E+01  0.28724476889E+02  0.00000000000E+00 0. -1.
</event>
<event>
 5    1  0.1254921E-009  0.9118800E+02  0.7561462E-02  0.1125453E+00
         25   -1    0    0    0    0  0.00000000000E+00  0.00000000000E+00  0.99999998245E-14  0.12509000000E+03  0.12509000000E+03 0.  0.
        -13    1    3    3    0    0 -0.29132118907E+01  0.33956919780E+02  0.23969690019E+02  0.41666730231E+02  0.10566000000E+00 0. -1.
         23    2    1    0    0    0 -0.27453675598E+02  0.38640775289E+01 -0.12261487640E+02  0.94775325696E+02  0.89796341143E+02 0.  0.
         13    1    3    3    0    0 -0.24540463708E+02 -0.30092842251E+02 -0.36231177659E+02  0.53108595466E+02  0.10566000000E+00 0.  1.
         22    1    1    0    0    0  0.27453675598E+02 -0.38640775289E+01  0.12261487640E+02  0.30314674304E+02  0.00000000000E+00 0.  1.
</event>
<event>
 5    1  0.1254921E-009  0.9118800E+02  0.7561462E-02  0.1125453E+00
         25   -1    0    0    0    0  0.00000000000E+00  0.00000000000E+00  0.99999998245E-14  0.12509000000E+03  0.12509000000E+03 0.  0.
        -13    1    3    3    0    0  0.23604223211E+02 -0.41765171025E+02  0.31095745175E+02  0.57170319189E+02  0.10566000000E+00 0.  1.
         23    2    1    0    0    0  0.15909808451E+02 -0.46786626966E+01  0.24329264692E+02  0.95646409695E+02  0.91001707003E+02 0.  0.
         13    1    3    3    0    0 -0.76944147598E+01  0.37086508329E+02 -0.67664804821E+01  0.38476090506E+02  0.10566000000E+00 0. -1.
         22    1    1    0    0    0 -0.15909808451E+02  0.46786626966E+01 -0.24329264692E+02  0.29443590305E+02  0.00000000000E+00 0.  1.
</event>
<event>
 5    1  0.1254921E-009  0.9118800E+02  0.7561462E-02  0.1125453E+00
         25   -1    0    0    0    0  0.00000000000E+00  0.00000000000E+00  0.99999998245E-14  0.12509000000E+03  0.12509000000E+03 0.  0.
        -13    1    3    3    0    0 -0.10696892123E+01 -0.36791813509E+02 -0.25850703461E+02  0.44978348233E+02  0.10566000000E+00 0.  1.
         23    2    1    0    0    0 -0.28551576752E+02  0.53203697714E+00 -0.38833973497E+01  0.96270625036E+02  0.91855739459E+02 0.  0.
         13    1    3    3    0    0 -0.27481887539E+02  0.37323850486E+02  0.21967306111E+02  0.51292276803E+02  0.10566000000E+00 0. -1.
         22    1    1    0    0    0  0.28551576752E+02 -0.53203697714E+00  0.38833973497E+01  0.28819374964E+02  0.00000000000E+00 0. -1.
</event>
<event>
 5    1  0.1254921E-009  0.9118800E+02  0.7561462E-02  0.1125453E+00
         25   -1    0    0    0    0  0.00000000000E+00  0.00000000000E+00  0.99999998245E-14  0.12509000000E+03  0.12509000000E+03 0.  0.
        -13    1    3    3    0    0 -0.16839610817E+02  0.48360189704E+01 -0.41420469521E+02  0.44973614835E+02  0.10566000000E+00 0.  1.
         23    2    1    0    0    0  0.22589165835E+02  0.15839227002E+02 -0.18239827930E+02  0.92016704911E+02  0.85867520836E+02 0.  0.
         13    1    3    3    0    0  0.39428776652E+02  0.11003208032E+02  0.23180641591E+02  0.47043090076E+02  0.10566000000E+00 0. -1.
         22    1    1    0    0    0 -0.22589165835E+02 -0.15839227002E+02  0.18239827930E+02  0.33073295089E+02  0.00000000000E+00 0.  1.
</event>
<event>
 5    1  0.1254921E-009  0.9118800E+02  0.7561462E-02  0.1125453E+00
         25   -1    0    0    0    0  0.00000000000E+00  0.00000000000E+00  0.99999998245E-14  0.12509000000E+03  0.12509000000E+03 0.  0.
        -13    1    3    3    0    0 -0.39892876327E+02  0.14627312693E+02 -0.43252156946E+02  0.60631345877E+02  0.10566000000E+00 0.  1.
         23    2    1    0    0    0 -0.16162337533E+02 -0.33254514181E+01 -0.23606729338E+02  0.96287960980E+02  0.91879344676E+02 0.  0.
         13    1    3    3    0    0  0.23730538794E+02 -0.17952764111E+02  0.19645427609E+02  0.35656615103E+02  0.10566000000E+00 0. -1.
         22    1    1    0    0    0  0.16162337533E+02  0.33254514181E+01  0.23606729338E+02  0.28802039020E+02  0.00000000000E+00 0.  1.
</event>
<event>
 5    1  0.1254921E-009  0.9118800E+02  0.7561462E-02  0.1125453E+00
         25   -1    0    0    0    0  0.00000000000E+00  0.00000000000E+00  0.99999998245E-14  0.12509000000E+03  0.12509000000E+03 0.  0.
        -13    1    3    3    0    0 -0.31841534255E+02 -0.42982665892E+02 -0.14718628423E+02  0.55480105061E+02  0.10566000000E+00 0. -1.
         23    2    1    0    0    0 -0.27599727117E+02 -0.41137027361E+01 -0.21127331836E+00  0.97184586125E+02  0.93092060117E+02 0.  0.
         13    1    3    3    0    0  0.42418071386E+01  0.38868963156E+02  0.14507355104E+02  0.41704481064E+02  0.10566000000E+00 0.  1.
         22    1    1    0    0    0  0.27599727117E+02  0.41137027361E+01  0.21127331836E+00  0.27905413875E+02  0.00000000000E+00 0. -1.
</event>
<event>
 5    1  0.1254921E-009  0.9118800E+02  0.7561462E-02  0.1125453E+00
         25   -1    0    0    0    0  0.00000000000E+00  0.00000000000E+00  0.99999998245E-14  0.12509000000E+03  0.12509000000E+03 0.  0.
        -13    1    3    3    0    0  0.70002915060E+01  0.21249073315E+02 -0.27603177574E+02  0.35531306957E+02  0.10566000000E+00 0.  1.
         23    2    1    0    0    0  0.39244771221E+01 -0.92765077972E+01  0.25951946400E+02  0.97251921052E+02  0.93182495721E+02 0.  0.
         13    1    3    3    0    0 -0.30758143838E+01 -0.30525581112E+02  0.53555123973E+02  0.61720614094E+02  0.10566000000E+00 0. -1.
         22    1    1    0    0    0 -0.39244771221E+01  0.92765077972E+01 -0.25951946400E+02  0.27838078948E+02  0.00000000000E+00 0. -1.
</event>
<event>
 5    1  0.1254921E-009  0.9118800E+02  0.7561462E-02  0.1125453E+00
         25   -1    0    0    0    0  0.00000000000E+00  0.00000000000E+00  0.99999998245E-14  0.12509000000E+03  0.12509000000E+03 0.  0.
        -13    1    3    3    0    0  0.15565871916E+02  0.38057379791E+02 -0.49616375574E+01  0.41416054090E+02  0.10566000000E+00 0.  1.
         23    2    1    0    0    0 -0.82174145024E+01 -0.61235916245E+01 -0.26994063616E+02  0.96216071518E+02  0.91781417904E+02 0.  0.
         13    1    3    3    0    0 -0.23783286419E+02 -0.44180971416E+02 -0.22032426058E+02  0.54800017428E+02  0.10566000000E+00 0. -1.
         22    1    1    0    0    0  0.82174145024E+01  0.61235916245E+01  0.26994063616E+02  0.28873928482E+02  0.00000000000E+00 0. -1.
</event>
<event>
 5    1  0.1254921E-009  0.9118800E+02  0.7561462E-02  0.1125453E+00
         25   -1    0    0    0    0  0.00000000000E+00  0.00000000000E+00  0.99999998245E-14  0.12509000000E+03  0.12509000000E+03 0.  0.
        -13    1    3    3    0    0 -0.28733627632E+01  0.59739863168E+01 -0.39660407476E+02  0.40210742486E+02  0.10566000000E+00 0. -1.
         23    2    1    0    0    0  0.16335942666E+02 -0.21768113290E+02  0.62282446325E+01  0.97170386640E+02  0.93072977977E+02 0.  0.
         13    1    3    3    0    0  0.19209305429E+02 -0.27742099607E+02  0.45888652109E+02  0.56959644153E+02  0.10566000000E+00 0.  1.
         22    1    1    0    0    0 -0.16335942666E+02  0.21768113290E+02 -0.62282446325E+01  0.27919613360E+02  0.00000000000E+00 0.  1.
</event>
<event>
 5    1  0.1254921E-009  0.9118800E+02  0.7561462E-02  0.1125453E+00
         25   -1    0    0    0    0  0.00000000000E+00  0.00000000000E+00  0.99999998245E-14  0.12509000000E+03  0.12509000000E+03 0.  0.
        -13    1    3    3    0    0 -0.33143132376E+02  0.75119967576E+00 -0.38518132455E+02  0.50820165452E+02  0.10566000000E+00 0.  1.
         23    2    1    0    0    0 -0.20116549056E+02 -0.21591421789E+02 -0.20766488308E+01  0.95506600751E+02  0.90809323727E+02 0.  0.
         13    1    3    3    0    0  0.13026583320E+02 -0.22342621464E+02  0.36441483625E+02  0.44686435299E+02  0.10566000000E+00 0. -1.
         22    1    1    0    0    0  0.20116549056E+02  0.21591421789E+02  0.20766488308E+01  0.29583399249E+02  0.00000000000E+00 0.  1.
</event>
<event>
 5    1  0.1254921E-009  0.9118800E+02  0.7561462E-02  0.1125453E+00
         25   -1    0    0    0    0  0.00000000000E+00  0.00000000000E+00  0.99999998245E-14  0.12509000000E+03  0.12509000000E+03 0.  0.
        -13    1    3    3    0    0  0.42107885507E+02  0.44440959410E+01 -0.29268494727E+01  0.42442921936E+02  0.10566000000E+00 0.  1.
         23    2    1    0    0    0 -0.15030746701E+02  0.11860269279E+02 -0.14325321261E+02  0.10117757304E+03  0.98311225828E+02 0.  0.
         13    1    3    3    0    0 -0.57138632207E+02  0.74161733381E+01 -0.11398471788E+02  0.58734651107E+02  0.10566000000E+00 0. -1.
         22    1    1    0    0    0  0.15030746701E+02 -0.11860269279E+02  0.14325321261E+02  0.23912426957E+02  0.00000000000E+00 0. -1.
</event>
<event>
 5    1  0.1254921E-009  0.9118800E+02  0.7561462E-02  0.1125453E+00
         25   -1    0    0    0    0  0.00000000000E+00  0.00000000000E+00  0.99999998245E-14  0.12509000000E+03  0.12509000000E+03 0.  0.
        -13    1    3    3    0    0  0.20695062150E+02 -0.26166277299E+02 -0.41254224793E+02  0.53055460533E+02  0.10566000000E+00 0.  1.
         23    2    1    0    0    0  0.26973801129E+02 -0.19671528610E+02 -0.39100390429E+01  0.91476856879E+02  0.85077446799E+02 0.  0.
         13    1    3    3    0    0  0.62787389792E+01  0.64947486892E+01  0.37344185751E+02  0.38421396345E+02  0.10566000000E+00 0. -1.
         22    1    1    0    0    0 -0.26973801129E+02  0.19671528610E+02  0.39100390429E+01  0.33613143121E+02  0.00000000000E+00 0. -1.
</event>
<event>
 5    1  0.1254921E-009  0.9118800E+02  0.7561462E-02  0.1125453E+00
         25   -1    0    0    0    0  0.00000000000E+00  0.00000000000E+00  0.99999998245E-14  0.12509000000E+03  0.12509000000E+03 0.  0.
        -13    1    3    3    0    0  0.14620690456E+01 -0.49849651170E+02 -0.33429014334E+02  0.60038616998E+02  0.10566000000E+00 0. -1.
         23    2    1    0    0    0  0.11934489168E+01 -0.29460997124E+02 -0.47544885095E+01  0.95223968579E+02  0.90419159248E+02 0.  0.
         13    1    3    3    0    0 -0.26862012879E+00  0.20388654046E+02  0.28674525824E+02  0.35185351581E+02  0.10566000000E+00 0.  1.
         22    1    1    0    0    0 -0.11934489168E+01  0.29460997124E+02  0.47544885095E+01  0.29866031421E+02  0.00000000000E+00 0. -1.
</event>
<event>
 5    1  0.1254921E-009  0.9118800E+02  0.7561462E-02  0.1125453E+00
         25   -1    0    0    0    0  0.00000000000E+00  0.00000000000E+00  0.99999998245E-14  0.12509000000E+03  0.12509000000E+03 0.  0.
        -13    1    3    3    0    0 -0.45806638922E+02 -0.32172624703E+02 -0.64662891035E+01  0.56348469442E+02  0.10566000000E+00 0. -1.
         23    2    1    0    0    0 -0.83325380343E+01 -0.28935602027E+02  0.20309629980E+01  0.94910121514E+02  0.89983921344E+02 0.  0.
         13    1    3    3    0    0  0.37474100888E+02  0.32370226769E+01  0.84972521015E+01  0.38561652072E+02  0.10566000000E+00 0.  1.
         22    1    1    0    0    0  0.83325380343E+01  0.28935602027E+02 -0.20309629980E+01  0.30179878486E+02  0.00000000000E+00 0. -1.
</event>
<event>
 5    1  0.1254921E-009  0.9118800E+02  0.7561462E-02  0.1125453E+00
         25   -1    0    0    0    0  0.00000000000E+00  0.00000000000E+00  0.99999998245E-14  0.12509000000E+03  0.12509000000E+03 0.  0.
        -13    1    3    3    0    0 -0.22195744882E+02  0.29306500729E+02 -0.16411686613E+02  0.40260112983E+02  0.10566000000E+00 0.  1.
         23    2    1    0    0    0  0.12455745786E+02  0.11172010573E+02  0.23566791230E+02  0.96187524808E+02  0.91742502999E+02 0.  0.
         13    1    3    3    0    0  0.34651490669E+02 -0.18134490156E+02  0.39978477843E+02  0.55927411825E+02  0.10566000000E+00 0. -1.
         22    1    1    0    0    0 -0.12455745786E+02 -0.11172010573E+02 -0.23566791230E+02  0.28902475192E+02  0.00000000000E+00 0. -1.
</event>
<event>
 5    1  0.1254921E-009  0.9118800E+02  0.7561462E-02  0.1125453E+00
         25   -1    0    0    0    0  0.00000000000E+00  0.00000000000E+00  0.99999998245E-14  0.12509000000E+03  0.12509000000E+03 0.  0.
        -13    1    3    3    0    0  0.96385594088E+01  0.15270337747E+02 -0.52472556395E+02  0.55492930911E+02  0.10566000000E+00 0.  1.
         23    2    1    0    0    0 -0.89478721014E+01 -0.93485101371E+01 -0.25606396359E+02  0.96399468610E+02  0.92031032575E+02 0.  0.
         13    1    3    3    0    0 -0.18586431510E+02 -0.24618847884E+02  0.26866160036E+02  0.40906537699E+02  0.10566000000E+00 0. -1.
         22    1    1    0    0    0  0.89478721014E+01  0.93485101371E+01  0.25606396359E+02  0.28690531390E+02  0.00000000000E+00 0.  1.
</event>
<event>
 5    1  0.1254921E-009  0.9118800E+02  0.7561462E-02  0.1125453E+00
         25   -1    0    0    0    0  0.00000000000E+00  0.00000000000E+00  0.99999998245E-14  0.12509000000E+03  0.12509000000E+03 0.  0.
        -13    1    3    3    0    0  0.15976958450E+02  0.37325538765E+02  0.43116037768E+02  0.59223837450E+02  0.10566000000E+00 0. -1.
         23    2    1    0    0    0 -0.66643905674E+01  0.20579233062E+02  0.18771052739E+02  0.96449620184E+02  0.92099174142E+02 0.  0.
         13    1    3    3    0    0 -0.22641349018E+02 -0.16746305703E+02 -0.24344985029E+02  0.37225782734E+02  0.10566000000E+00 0.  1.
         22    1    1    0    0    0  0.66643905674E+01 -0.20579233062E+02 -0.18771052739E+02  0.28640379816E+02  0.00000000000E+00 0. -1.
</event>
<event>
 5    1  0.1254921E-009  0.9118800E+02  0.7561462E-02  0.1125453E+00
         25   -1    0    0    0    0  0.00000000000E+00  0.00000000000E+00  0.99999998245E-14  0.12509000000E+03  0.12509000000E+03 0.  0.
        -13    1    3    3    0    0 -0.44517798669E+02 -0.20596674518E+02 -0.37501863780E+01  0.49194841817E+02  0.10566000000E+00 0. -1.
         23    2    1    0    0    0 -0.21096375810E+01 -0.22985718584E+02  0.16956515883E+02  0.96448818802E+02  0.92098085691E+02 0.  0.
         13    1    3    3    0    0  0.42408161088E+02 -0.23890440663E+01  0.20706702260E+02  0.47253976985E+02  0.10566000000E+00 0.  1.
         22    1    1    0    0    0  0.21096375810E+01  0.22985718584E+02 -0.16956515883E+02  0.28641181198E+02  0.00000000000E+00 0. -1.
</event>
<event>
 5    1  0.1254921E-009  0.9118800E+02  0.7561462E-02  0.1125453E+00
         25   -1    0    0    0    0  0.00000000000E+00  0.00000000000E+00  0.99999998245E-14  0.12509000000E+03  0.12509000000E+03 0.  0.
        -13    1    3    3    0    0 -0.48528376815E+02  0.87922985493E+01 -0.32979070950E+02  0.59329066695E+02  0.10566000000E+00 0.  1.
         23    2    1    0    0    0 -0.30334470608E+02  0.10502678886E+02 -0.52144181970E+01  0.92568060821E+02  0.86667002696E+02 0.  0.
         13    1    3    3    0    0  0.18193906208E+02  0.17103803367E+01  0.27764652753E+02  0.33238994126E+02  0.10566000000E+00 0. -1.
         22    1    1    0    0    0  0.30334470608E+02 -0.10502678886E+02  0.52144181970E+01  0.32521939179E+02  0.00000000000E+00 0.  1.
</event>
<event>
 5    1  0.1254921E-009  0.9118800E+02  0.7561462E-02  0.1125453E+00
         25   -1    0    0    0    0  0.00000000000E+00  0.00000000000E+00  0.99999998245E-14  0.12509000000E+03  0.12509000000E+03 0.  0.
        -13    1    3    3    0    0  0.44076104205E+02  0.13798921953E+02 -0.41586997108E+02  0.62149840720E+02  0.10566000000E+00 0.  1.
         23    2    1    0    0    0  0.17100215063E+02  0.47899874600E+01 -0.22607276088E+02  0.96341951942E+02  0.91952821799E+02 0.  0.
         13    1    3    3    0    0 -0.26975889143E+02 -0.90089344930E+01  0.18979721021E+02  0.34192111222E+02  0.10566000000E+00 0. -1.
         22    1    1    0    0    0 -0.17100215063E+02 -0.47899874600E+01  0.22607276088E+02  0.28748048058E+02  0.00000000000E+00 0.  1.
</event>
<event>
 5    1  0.1254921E-009  0.9118800E+02  0.7561462E-02  0.1125453E+00
         25   -1    0    0    0    0  0.00000000000E+00  0.00000000000E+00  0.99999998245E-14  0.12509000000E+03  0.12509000000E+03 0.  0.
        -13    1    3    3    0    0  0.30347757199E+02 -0.98898549839E+01  0.37661476852E+02  0.49367941028E+02  0.10566000000E+00 0. -1.
         23    2    1    0    0    0  0.20946526709E+02 -0.19948531035E+02 -0.63436743950E+01  0.95476775311E+02  0.90768229835E+02 0.  0.
         13    1    3    3    0    0 -0.94012304896E+01 -0.10058676052E+02 -0.44005151247E+02  0.46108834283E+02  0.10566000000E+00 0.  1.
         22    1    1    0    0    0 -0.20946526709E+02  0.19948531035E+02  0.63436743950E+01  0.29613224689E+02  0.00000000000E+00 0. -1.
</event>
<event>
 5    1  0.1254921E-009  0.9118800E+02  0.7561462E-02  0.1125453E+00
         25   -1    0    0    0    0  0.00000000000E+00  0.00000000000E+00  0.99999998245E-14  0.12509000000E+03  0.12509000000E+03 0.  0.
        -13    1    3    3    0    0 -0.34387788174E+02 -0.16398098067E+02  0.45832310329E+02  0.59598904602E+02  0.10566000000E+00 0. -1.
         23    2    1    0    0    0 -0.13508434749E+02  0.53000434347E+01  0.24893380775E+02  0.96275963903E+02  0.91863009690E+02 0.  0.
         13    1    3    3    0    0  0.20879353425E+02  0.21698141502E+02 -0.20938929554E+02  0.36677059301E+02  0.10566000000E+00 0.  1.
         22    1    1    0    0    0  0.13508434749E+02 -0.53000434347E+01 -0.24893380775E+02  0.28814036097E+02  0.00000000000E+00 0. -1.
</event>
<event>
 5    1  0.1254921E-009  0.9118800E+02  0.7561462E-02  0.1125453E+00
         25   -1    0    0    0    0  0.00000000000E+00  0.00000000000E+00  0.99999998245E-14  0.12509000000E+03  0.12509000000E+03 0.  0.
        -13    1    3    3    0    0  0.27424222231E+02  0.22083807458E+02 -0.38073664132E+02  0.51859402053E+02  0.10566000000E+00 0. -1.
         23    2    1    0    0    0 -0.11973887463E+02  0.10567503758E+02 -0.25879935962E+02  0.94679192676E+02  0.89662323881E+02 0.  0.
         13    1    3    3    0    0 -0.39398109694E+02 -0.11516303699E+02  0.12193728170E+02  0.42819790624E+02  0.10566000000E+00 0.  1.
         22    1    1    0    0    0  0.11973887463E+02 -0.10567503758E+02  0.25879935962E+02  0.30410807324E+02  0.00000000000E+00 0. -1.
</event>
<event>
 5    1  0.1254921E-009  0.9118800E+02  0.7561462E-02  0.1125453E+00
         25   -1    0    0    0    0  0.00000000000E+00  0.00000000000E+00  0.99999998245E-14  0.12509000000E+03  0.12509000000E+03 0.  0.
        -13    1    3    3    0    0 -0.32724112189E+02 -0.73918171811E+01  0.15020920428E+01  0.33582345427E+02  0.10566000000E+00 0. -1.
         23    2    1    0    0    0  0.26519543107E+02  0.48409797711E+01  0.13004112060E+02  0.95159611058E+02  0.90330080231E+02 0.  0.
         13    1    3    3    0    0  0.59243655296E+02  0.12232796952E+02  0.11502020017E+02  0.61577265631E+02  0.10566000000E+00 0.  1.
         22    1    1    0    0    0 -0.26519543107E+02 -0.48409797711E+01 -0.13004112060E+02  0.29930388942E+02  0.00000000000E+00 0.  1.
</event>
<event>
 5    1  0.1254921E-009  0.9118800E+02  0.7561462E-02  0.1125453E+00
         25   -1    0    0    0    0  0.00000000000E+00  0.00000000000E+00  0.99999998245E-14  0.12509000000E+03  0.12509000000E+03 0.  0.
        -13    1    3    3    0    0  0.10853319530E+01  0.35101800706E+02 -0.19642719358E+02  0.40238811439E+02  0.10566000000E+00 0.  1.
         23    2    1    0    0    0  0.16793193231E+02 -0.18592596693E+02 -0.13797096255E+02  0.96488324250E+02  0.92151727389E+02 0.  0.
         13    1    3    3    0    0  0.15707861278E+02 -0.53694397398E+02  0.58456231035E+01  0.56249512810E+02  0.10566000000E+00 0. -1.
         22    1    1    0    0    0 -0.16793193231E+02  0.18592596693E+02  0.13797096255E+02  0.28601675750E+02  0.00000000000E+00 0. -1.
</event>
<event>
 5    1  0.1254921E-009  0.9118800E+02  0.7561462E-02  0.1125453E+00
         25   -1    0    0    0    0  0.00000000000E+00  0.00000000000E+00  0.99999998245E-14  0.12509000000E+03  0.12509000000E+03 0.  0.
        -13    1    3    3    0    0  0.55673085478E+02 -0.16828793893E+02  0.20621596761E+02  0.61708687942E+02  0.10566000000E+00 0.  1.
         23    2    1    0    0    0  0.29616289228E+02 -0.19996783643E+01  0.13252926384E+02  0.92582103129E+02  0.86687268159E+02 0.  0.
         13    1    3    3    0    0 -0.26056796249E+02  0.14829115529E+02 -0.73686703775E+01  0.30873415187E+02  0.10566000000E+00 0. -1.
         22    1    1    0    0    0 -0.29616289228E+02  0.19996783643E+01 -0.13252926384E+02  0.32507896871E+02  0.00000000000E+00 0.  1.
</event>
<event>
 5    1  0.1254921E-009  0.9118800E+02  0.7561462E-02  0.1125453E+00
         25   -1    0    0    0    0  0.00000000000E+00  0.00000000000E+00  0.99999998245E-14  0.12509000000E+03  0.12509000000E+03 0.  0.
        -13    1    3    3    0    0 -0.29668654182E+02 -0.14676760206E+02  0.88124525993E+01  0.34253566471E+02  0.10566000000E+00 0.  1.
         23    2    1    0    0    0  0.14619341790E+02  0.24891702006E+02 -0.63165736471E+01  0.95539685522E+02  0.90854886626E+02 0.  0.
         13    1    3    3    0    0  0.44287995973E+02  0.39568462212E+02 -0.15129026246E+02  0.61286119051E+02  0.10566000000E+00 0. -1.
         22    1    1    0    0    0 -0.14619341790E+02 -0.24891702006E+02  0.63165736471E+01  0.29550314478E+02  0.00000000000E+00 0. -1.
</event>
<event>
 5    1  0.1254921E-009  0.9118800E+02  0.7561462E-02  0.1125453E+00
         25   -1    0    0    0    0  0.00000000000E+00  0.00000000000E+00  0.99999998245E-14  0.12509000000E+03  0.12509000000E+03 0.  0.
        -13    1    3    3    0    0 -0.10623636715E+01  0.39956406292E+02 -0.28762608908E+02  0.49243698638E+02  0.10566000000E+00 0.  1.
         23    2    1    0    0    0  0.12233999193E+02  0.22781053534E+02  0.12873107048E+02  0.96204640015E+02  0.91765836448E+02 0.  0.
         13    1    3    3    0    0  0.13296362865E+02 -0.17175352758E+02  0.41635715956E+02  0.46960941377E+02  0.10566000000E+00 0. -1.
         22    1    1    0    0    0 -0.12233999193E+02 -0.22781053534E+02 -0.12873107048E+02  0.28885359985E+02  0.00000000000E+00 0. -1.
</event>
<event>
 5    1  0.1254921E-009  0.9118800E+02  0.7561462E-02  0.1125453E+00
         25   -1    0    0    0    0  0.00000000000E+00  0.00000000000E+00  0.99999998245E-14  0.12509000000E+03  0.12509000000E+03 0.  0.
        -13    1    3    3    0    0  0.44715569893E+02 -0.19449001633E+02 -0.27145799699E+02  0.55809062532E+02  0.10566000000E+00 0. -1.
         23    2    1    0    0    0  0.54528258910E+01 -0.11586137164E+02 -0.26274752754E+02  0.95860998702E+02  0.91296202305E+02 0.  0.
         13    1    3    3    0    0 -0.39262744002E+02  0.78628644691E+01  0.87104694430E+00  0.40051936171E+02  0.10566000000E+00 0.  1.
         22    1    1    0    0    0 -0.54528258910E+01  0.11586137164E+02  0.26274752754E+02  0.29229001298E+02  0.00000000000E+00 0. -1.
</event>
<event>
 5    1  0.1254921E-009  0.9118800E+02  0.7561462E-02  0.1125453E+00
         25   -1    0    0    0    0  0.00000000000E+00  0.00000000000E+00  0.99999998245E-14  0.12509000000E+03  0.12509000000E+03 0.  0.
        -13    1    3    3    0    0 -0.16280452970E+02 -0.34724069024E+02  0.20591564074E+02  0.43529734590E+02  0.10566000000E+00 0. -1.
         23    2    1    0    0    0 -0.24264238824E+02  0.14276955206E+02  0.14112451199E+02  0.93598000786E+02  0.88141021872E+02 0.  0.
         13    1    3    3    0    0 -0.79837858537E+01  0.49001024230E+02 -0.64791128748E+01  0.50068266195E+02  0.10566000000E+00 0.  1.
         22    1    1    0    0    0  0.24264238824E+02 -0.14276955206E+02 -0.14112451199E+02  0.31491999214E+02  0.00000000000E+00 0.  1.
</event>
<event>
 5    1  0.1254921E-009  0.9118800E+02  0.7561462E-02  0.1125453E+00
         25   -1    0    0    0    0  0.00000000000E+00  0.00000000000E+00  0.99999998245E-14  0.12509000000E+03  0.12509000000E+03 0.  0.
        -13    1    3    3    0    0 -0.15893715320E+02 -0.15728262606E+02 -0.48293509635E+02  0.53219006644E+02  0.10566000000E+00 0. -1.
         23    2    1    0    0    0 -0.26402753148E+02 -0.44104486487E+01 -0.68326848441E+01  0.97463146881E+02  0.93465619276E+02 0.  0.
         13    1    3    3    0    0 -0.10509037828E+02  0.11317813957E+02  0.41460824791E+02  0.44244140236E+02  0.10566000000E+00 0.  1.
         22    1    1    0    0    0  0.26402753148E+02  0.44104486487E+01  0.68326848441E+01  0.27626853119E+02  0.00000000000E+00 0. -1.
</event>
<event>
 5    1  0.1254921E-009  0.9118800E+02  0.7561462E-02  0.1125453E+00
         25   -1    0    0    0    0  0.00000000000E+00  0.00000000000E+00  0.99999998245E-14  0.12509000000E+03  0.12509000000E+03 0.  0.
        -13    1    3    3    0    0  0.10554216911E+02 -0.40259703311E+02 -0.40892421702E+02  0.58347549409E+02  0.10566000000E+00 0. -1.
         23    2    1    0    0    0  0.80046180172E+01 -0.43847915535E+01 -0.26458830336E+02  0.97101252094E+02  0.92980014783E+02 0.  0.
         13    1    3    3    0    0 -0.25495988940E+01  0.35874911757E+02  0.14433591366E+02  0.38753702686E+02  0.10566000000E+00 0.  1.
         22    1    1    0    0    0 -0.80046180172E+01  0.43847915535E+01  0.26458830336E+02  0.27988747906E+02  0.00000000000E+00 0. -1.
</event>
<event>
 5    1  0.1254921E-009  0.9118800E+02  0.7561462E-02  0.1125453E+00
         25   -1    0    0    0    0  0.00000000000E+00  0.00000000000E+00  0.99999998245E-14  0.12509000000E+03  0.12509000000E+03 0.  0.
        -13    1    3    3    0    0 -0.20509310672E+01 -0.39393062357E+02 -0.10823317053E+02  0.40904462301E+02  0.10566000000E+00 0.  1.
         23    2    1    0    0    0 -0.28113234170E+02  0.78206432109E+01 -0.31170919677E-03  0.95909246140E+02  0.91362284885E+02 0.  0.
         13    1    3    3    0    0 -0.26062303103E+02  0.47213705568E+02  0.10823005344E+02  0.55004783839E+02  0.10566000000E+00 0. -1.
         22    1    1    0    0    0  0.28113234170E+02 -0.78206432109E+01  0.31170919677E-03  0.29180753860E+02  0.00000000000E+00 0. -1.
</event>
<event>
 5    1  0.1254921E-009  0.9118800E+02  0.7561462E-02  0.1125453E+00
         25   -1    0    0    0    0  0.00000000000E+00  0.00000000000E+00  0.99999998245E-14  0.12509000000E+03  0.12509000000E+03 0.  0.
        -13    1    3    3    0    0  0.20996115610E+01 -0.27942707886E+02 -0.42900604110E+02  0.51241353317E+02  0.10566000000E+00 0.  1.
         23    2    1    0    0    0 -0.59850680594E+00  0.12786248356E+02 -0.27297683407E+02  0.94940209341E+02  0.90025737836E+02 0.  0.
         13    1    3    3    0    0 -0.26981183669E+01  0.40728956242E+02  0.15602920703E+02  0.43698856024E+02  0.10566000000E+00 0. -1.
         22    1    1    0    0    0  0.59850680594E+00 -0.12786248356E+02  0.27297683407E+02  0.30149790659E+02  0.00000000000E+00 0.  1.
</event>
<event>
 5    1  0.1254921E-009  0.9118800E+02  0.7561462E-02  0.1125453E+00
         25   -1    0    0    0    0  0.00000000000E+00  0.00000000000E+00  0.99999998245E-14  0.12509000000E+03  0.12509000000E+03 0.  0.
        -13    1    3    3    0    0  0.14642657564E+02  0.39694181979E+02  0.58747555747E+01  0.42714861824E+02  0.10566000000E+00 0. -1.
         23    2    1    0    0    0 -0.19589980234E+02  0.92704937346E+01 -0.20240318660E+02  0.95435660029E+02  0.90711550125E+02 0.  0.
         13    1    3    3    0    0 -0.34232637799E+02 -0.30423688245E+02 -0.26115074234E+02  0.52720798205E+02  0.10566000000E+00 0.  1.
         22    1    1    0    0    0  0.19589980234E+02 -0.92704937346E+01  0.20240318660E+02  0.29654339971E+02  0.00000000000E+00 0.  1.
</event>
<event>
 5    1  0.1254921E-009  0.9118800E+02  0.7561462E-02  0.1125453E+00
         25   -1    0    0    0    0  0.00000000000E+00  0.00000000000E+00  0.99999998245E-14  0.12509000000E+03  0.12509000000E+03 0.  0.
        -13    1    3    3    0    0 -0.35274440292E+02 -0.25404836576E+02  0.28287687731E+02  0.51864210208E+02  0.10566000000E+00 0. -1.
         23    2    1    0    0    0 -0.19993117113E+02  0.14001017443E+02  0.16095022613E+02  0.95852986229E+02  0.91285223310E+02 0.  0.
         13    1    3    3    0    0  0.15281323179E+02  0.39405854019E+02 -0.12192665117E+02  0.43988776021E+02  0.10566000000E+00 0.  1.
         22    1    1    0    0    0  0.19993117113E+02 -0.14001017443E+02 -0.16095022613E+02  0.29237013771E+02  0.00000000000E+00 0. -1.
</event>
<event>
 5    1  0.1254921E-009  0.9118800E+02  0.7561462E-02  0.1125453E+00
         25   -1    0    0    0    0  0.00000000000E+00  0.00000000000E+00  0.99999998245E-14  0.12509000000E+03  0.12509000000E+03 0.  0.
        -13    1    3    3    0    0  0.40449476940E+02  0.39358067869E+02  0.42082429330E+01  0.56594506480E+02  0.10566000000E+00 0.  1.
         23    2    1    0    0    0  0.25242259210E+02  0.54167442775E+01 -0.11322401374E+02  0.96899406862E+02  0.92708066040E+02 0.  0.
         13    1    3    3    0    0 -0.15207217730E+02 -0.33941323592E+02 -0.15530644307E+02  0.40304900383E+02  0.10566000000E+00 0. -1.
         22    1    1    0    0    0 -0.25242259210E+02 -0.54167442775E+01  0.11322401374E+02  0.28190593138E+02  0.00000000000E+00 0.  1.
</event>
<event>
 5    1  0.1254921E-009  0.9118800E+02  0.7561462E-02  0.1125453E+00
         25   -1    0    0    0    0  0.00000000000E+00  0.00000000000E+00  0.99999998245E-14  0.12509000000E+03  0.12509000000E+03 0.  0.
        -13    1    3    3    0    0 -0.20705277449E+02  0.44856244580E+02  0.21166911722E+02  0.53747934918E+02  0.10566000000E+00 0.  1.
         23    2    1    0    0    0 -0.24792672242E+02  0.19106303625E+02 -0.79131203075E+01  0.92804633220E+02  0.87007787232E+02 0.  0.
         13    1    3    3    0    0 -0.40873947931E+01 -0.25749940955E+02 -0.29080032030E+02  0.39056698302E+02  0.10566000000E+00 0. -1.
         22    1    1    0    0    0  0.24792672242E+02 -0.19106303625E+02  0.79131203075E+01  0.32285366780E+02  0.00000000000E+00 0. -1.
</event>
<event>
 5    1  0.1254921E-009  0.9118800E+02  0.7561462E-02  0.1125453E+00
         25   -1    0    0    0    0  0.00000000000E+00  0.00000000000E+00  0.99999998245E-14  0.12509000000E+03  0.12509000000E+03 0.  0.
        -13    1    3    3    0    0  0.27750491328E+02  0.19768666405E+02  0.27701033617E+02  0.43911824921E+02  0.10566000000E+00 0.  1.
         23    2    1    0    0    0 -0.21348722970E+02  0.15753384891E+02  0.14226817775E+02  0.94984527873E+02  0.90087297014E+02 0.  0.
         13    1    3    3    0    0 -0.49099214298E+02 -0.40152815140E+01 -0.13474215842E+02  0.51072702952E+02  0.10566000000E+00 0. -1.
         22    1    1    0    0    0  0.21348722970E+02 -0.15753384891E+02 -0.14226817775E+02  0.30105472127E+02  0.00000000000E+00 0. -1.
</event>
<event>
 5    1  0.1254921E-009  0.9118800E+02  0.7561462E-02  0.1125453E+00
         25   -1    0    0    0    0  0.00000000000E+00  0.00000000000E+00  0.99999998245E-14  0.12509000000E+03  0.12509000000E+03 0.  0.
        -13    1    3    3    0    0  0.33741106335E+02 -0.13825330570E+02  0.35794404525E+02  0.51096502634E+02  0.10566000000E+00 0. -1.
         23    2    1    0    0    0 -0.67758942208E+01  0.59404796810E+01  0.26464828817E+02  0.97133083045E+02  0.93022828468E+02 0.  0.
         13    1    3    3    0    0 -0.40517000556E+02  0.19765810251E+02 -0.93295757084E+01  0.46036580410E+02  0.10566000000E+00 0.  1.
         22    1    1    0    0    0  0.67758942208E+01 -0.59404796810E+01 -0.26464828817E+02  0.27956916955E+02  0.00000000000E+00 0. -1.
</event>
<event>
 5    1  0.1254921E-009  0.9118800E+02  0.7561462E-02  0.1125453E+00
         25   -1    0    0    0    0  0.00000000000E+00  0.00000000000E+00  0.99999998245E-14  0.12509000000E+03  0.12509000000E+03 0.  0.
        -13    1    3    3    0    0  0.89940653022E+01 -0.48381404124E+02 -0.24698976245E+02  0.55060912336E+02  0.10566000000E+00 0.  1.
         23    2    1    0    0    0  0.68249158939E+01 -0.11687436523E+02 -0.29980078361E+02  0.92196524234E+02  0.86129079485E+02 0.  0.
         13    1    3    3    0    0 -0.21691494084E+01  0.36693967601E+02 -0.52811021152E+01  0.37135611898E+02  0.10566000000E+00 0. -1.
         22    1    1    0    0    0 -0.68249158939E+01  0.11687436523E+02  0.29980078361E+02  0.32893475766E+02  0.00000000000E+00 0.  1.
</event>
<event>
 5    1  0.1254921E-009  0.9118800E+02  0.7561462E-02  0.1125453E+00
         25   -1    0    0    0    0  0.00000000000E+00  0.00000000000E+00  0.99999998245E-14  0.12509000000E+03  0.12509000000E+03 0.  0.
        -13    1    3    3    0    0 -0.91419338336E+01 -0.24041461130E+01 -0.57094148282E+02  0.57871476609E+02  0.10566000000E+00 0.  1.
         23    2    1    0    0    0 -0.20196892523E+02  0.87399205492E+00 -0.20256528410E+02  0.96471731832E+02  0.92129201504E+02 0.  0.
         13    1    3    3    0    0 -0.11054958689E+02  0.32781381679E+01  0.36837619872E+02  0.38600255224E+02  0.10566000000E+00 0. -1.
         22    1    1    0    0    0  0.20196892523E+02 -0.87399205492E+00  0.20256528410E+02  0.28618268168E+02  0.00000000000E+00 0.  1.
</event>
<event>
 5    1  0.1254921E-009  0.9118800E+02  0.7561462E-02  0.1125453E+00
         25   -1    0    0    0    0  0.00000000000E+00  0.00000000000E+00  0.99999998245E-14  0.12509000000E+03  0.12509000000E+03 0.  0.
        -13    1    3    3    0    0  0.14664528606E+02 -0.16630431539E+02  0.45608208932E+02  0.50712321367E+02  0.10566000000E+00 0. -1.
         23    2    1    0    0    0  0.17822773364E+01 -0.28658361224E+02  0.37466337264E+01  0.96132868843E+02  0.91667949836E+02 0.  0.
         13    1    3    3    0    0 -0.12882251270E+02 -0.12027929686E+02 -0.41861575205E+02  0.45420547476E+02  0.10566000000E+00 0.  1.
         22    1    1    0    0    0 -0.17822773364E+01  0.28658361224E+02 -0.37466337264E+01  0.28957131157E+02  0.00000000000E+00 0. -1.
</event>
<event>
 5    1  0.1254921E-009  0.9118800E+02  0.7561462E-02  0.1125453E+00
         25   -1    0    0    0    0  0.00000000000E+00  0.00000000000E+00  0.99999998245E-14  0.12509000000E+03  0.12509000000E+03 0.  0.
        -13    1    3    3    0    0  0.18406894170E+02  0.91316359945E+01  0.36207433533E+02  0.41631597807E+02  0.10566000000E+00 0.  1.
         23    2    1    0    0    0  0.26208000098E+02 -0.10608058938E+02 -0.12053879310E+02  0.94354252246E+02  0.89207840053E+02 0.  0.
         13    1    3    3    0    0  0.78011059282E+01 -0.19739694933E+02 -0.48261312843E+02  0.52722654439E+02  0.10566000000E+00 0. -1.
         22    1    1    0    0    0 -0.26208000098E+02  0.10608058938E+02  0.12053879310E+02  0.30735747754E+02  0.00000000000E+00 0. -1.
</event>
<event>
 5    1  0.1254921E-009  0.9118800E+02  0.7561462E-02  0.1125453E+00
         25   -1    0    0    0    0  0.00000000000E+00  0.00000000000E+00  0.99999998245E-14  0.12509000000E+03  0.12509000000E+03 0.  0.
        -13    1    3    3    0    0  0.66759780129E+01 -0.11786240854E+02 -0.55881920421E+02  0.57500298694E+02  0.10566000000E+00 0. -1.
         23    2    1    0    0    0  0.10482556766E+02 -0.20571976874E+02 -0.20306301612E+02  0.94342055125E+02  0.89190735232E+02 0.  0.
         13    1    3    3    0    0  0.38065787535E+01 -0.87857360203E+01  0.35575618809E+02  0.36841756431E+02  0.10566000000E+00 0.  1.
         22    1    1    0    0    0 -0.10482556766E+02  0.20571976874E+02  0.20306301612E+02  0.30747944875E+02  0.00000000000E+00 0. -1.
</event>
<event>
 5    1  0.1254921E-009  0.9118800E+02  0.7561462E-02  0.1125453E+00
         25   -1    0    0    0    0  0.00000000000E+00  0.00000000000E+00  0.99999998245E-14  0.12509000000E+03  0.12509000000E+03 0.  0.
        -13    1    3    3    0    0  0.24707971967E+02 -0.40896840196E+02 -0.10364092495E+02  0.48892340852E+02  0.10566000000E+00 0.  1.
         23    2    1    0    0    0  0.12903126182E+02 -0.66144238697E+01  0.22826341472E+02  0.98047752804E+02  0.94244780739E+02 0.  0.
         13    1    3    3    0    0 -0.11804845785E+02  0.34282416326E+02  0.33190433967E+02  0.49155411952E+02  0.10566000000E+00 0. -1.
         22    1    1    0    0    0 -0.12903126182E+02  0.66144238697E+01 -0.22826341472E+02  0.27042247196E+02  0.00000000000E+00 0. -1.
</event>
<event>
 5    1  0.1254921E-009  0.9118800E+02  0.7561462E-02  0.1125453E+00
         25   -1    0    0    0    0  0.00000000000E+00  0.00000000000E+00  0.99999998245E-14  0.12509000000E+03  0.12509000000E+03 0.  0.
        -13    1    3    3    0    0  0.42411671956E+02  0.11151153723E+02 -0.27522718794E+02  0.51774601508E+02  0.10566000000E+00 0. -1.
         23    2    1    0    0    0  0.22275430332E+02 -0.85237532554E+01  0.10454468092E+02  0.99048781343E+02  0.95564198403E+02 0.  0.
         13    1    3    3    0    0 -0.20136241624E+02 -0.19674906978E+02  0.37977186885E+02  0.47274179835E+02  0.10566000000E+00 0.  1.
         22    1    1    0    0    0 -0.22275430332E+02  0.85237532554E+01 -0.10454468092E+02  0.26041218657E+02  0.00000000000E+00 0. -1.
</event>
<event>
 5    1  0.1254921E-009  0.9118800E+02  0.7561462E-02  0.1125453E+00
         25   -1    0    0    0    0  0.00000000000E+00  0.00000000000E+00  0.99999998245E-14  0.12509000000E+03  0.12509000000E+03 0.  0.
        -13    1    3    3    0    0 -0.15802393421E+02 -0.15751683266E+02 -0.30775316522E+02  0.38012661503E+02  0.10566000000E+00 0. -1.
         23    2    1    0    0    0  0.20352888725E+02  0.14102700577E-01  0.16001814777E+02  0.99199879210E+02  0.95761775677E+02 0.  0.
         13    1    3    3    0    0  0.36155282146E+02  0.15765785966E+02  0.46777131299E+02  0.61187217707E+02  0.10566000000E+00 0.  1.
         22    1    1    0    0    0 -0.20352888725E+02 -0.14102700577E-01 -0.16001814777E+02  0.25890120790E+02  0.00000000000E+00 0.  1.
</event>
<event>
 5    1  0.1254921E-009  0.9118800E+02  0.7561462E-02  0.1125453E+00
         25   -1    0    0    0    0  0.00000000000E+00  0.00000000000E+00  0.99999998245E-14  0.12509000000E+03  0.12509000000E+03 0.  0.
        -13    1    3    3    0    0 -0.12810870502E+02  0.55554292746E+02 -0.11095494935E+02  0.58082002525E+02  0.10566000000E+00 0. -1.
         23    2    1    0    0    0 -0.12805833695E+02  0.14646466634E+02 -0.16798970096E+02  0.99385647104E+02  0.96004130601E+02 0.  0.
         13    1    3    3    0    0  0.50368067594E-02 -0.40907826111E+02 -0.57034751615E+01  0.41303644579E+02  0.10566000000E+00 0.  1.
         22    1    1    0    0    0  0.12805833695E+02 -0.14646466634E+02  0.16798970096E+02  0.25704352896E+02  0.00000000000E+00 0. -1.
</event>
<event>
 5    1  0.1254921E-009  0.9118800E+02  0.7561462E-02  0.1125453E+00
         25   -1    0    0    0    0  0.00000000000E+00  0.00000000000E+00  0.99999998245E-14  0.12509000000E+03  0.12509000000E+03 0.  0.
        -13    1    3    3    0    0  0.29930486070E+02 -0.31038274798E+02  0.35310508356E+02  0.55731962671E+02  0.10566000000E+00 0.  1.
         23    2    1    0    0    0 -0.54895367638E+01 -0.16761630555E+02  0.23503362773E+02  0.95704708877E+02  0.91081809198E+02 0.  0.
         13    1    3    3    0    0 -0.35420022834E+02  0.14276644243E+02 -0.11807145583E+02  0.39972746206E+02  0.10566000000E+00 0. -1.
         22    1    1    0    0    0  0.54895367638E+01  0.16761630555E+02 -0.23503362773E+02  0.29385291123E+02  0.00000000000E+00 0.  1.
</event>
<event>
 5    1  0.1254921E-009  0.9118800E+02  0.7561462E-02  0.1125453E+00
         25   -1    0    0    0    0  0.00000000000E+00  0.00000000000E+00  0.99999998245E-14  0.12509000000E+03  0.12509000000E+03 0.  0.
        -13    1    3    3    0    0  0.38693884507E+01 -0.47574413930E+02  0.38492828645E+02  0.61318888190E+02  0.10566000000E+00 0. -1.
         23    2    1    0    0    0  0.64530584969E+01 -0.26876999701E+02  0.12210540852E+02  0.94872250501E+02  0.89931260029E+02 0.  0.
         13    1    3    3    0    0  0.25836700462E+01  0.20697414229E+02 -0.26282287793E+02  0.33553362311E+02  0.10566000000E+00 0.  1.
         22    1    1    0    0    0 -0.64530584969E+01  0.26876999701E+02 -0.12210540852E+02  0.30217749499E+02  0.00000000000E+00 0. -1.
</event>
<event>
 5    1  0.1254921E-009  0.9118800E+02  0.7561462E-02  0.1125453E+00
         25   -1    0    0    0    0  0.00000000000E+00  0.00000000000E+00  0.99999998245E-14  0.12509000000E+03  0.12509000000E+03 0.  0.
        -13    1    3    3    0    0  0.27156640793E+02  0.24091949773E+02 -0.11180817681E+02  0.37985879364E+02  0.10566000000E+00 0. -1.
         23    2    1    0    0    0 -0.27614005912E+02  0.48116785650E+01 -0.31975669630E+00  0.97058092868E+02  0.92921932683E+02 0.  0.
         13    1    3    3    0    0 -0.54770646706E+02 -0.19280271208E+02  0.10861060985E+02  0.59072213503E+02  0.10566000000E+00 0.  1.
         22    1    1    0    0    0  0.27614005912E+02 -0.48116785650E+01  0.31975669630E+00  0.28031907132E+02  0.00000000000E+00 0.  1.
</event>
<event>
 5    1  0.1254921E-009  0.9118800E+02  0.7561462E-02  0.1125453E+00
         25   -1    0    0    0    0  0.00000000000E+00  0.00000000000E+00  0.99999998245E-14  0.12509000000E+03  0.12509000000E+03 0.  0.
        -13    1    3    3    0    0 -0.56934532412E+02  0.20264796182E+02  0.88523107229E+01  0.61078453766E+02  0.10566000000E+00 0. -1.
         23    2    1    0    0    0 -0.24106462082E+02  0.18667904866E+02  0.53946546354E+01  0.94126885092E+02  0.88888447012E+02 0.  0.
         13    1    3    3    0    0  0.32828070330E+02 -0.15968913160E+01 -0.34576560874E+01  0.33048431326E+02  0.10566000000E+00 0.  1.
         22    1    1    0    0    0  0.24106462082E+02 -0.18667904866E+02 -0.53946546354E+01  0.30963114908E+02  0.00000000000E+00 0. -1.
</event>
<event>
 5    1  0.1254921E-009  0.9118800E+02  0.7561462E-02  0.1125453E+00
         25   -1    0    0    0    0  0.00000000000E+00  0.00000000000E+00  0.99999998245E-14  0.12509000000E+03  0.12509000000E+03 0.  0.
        -13    1    3    3    0    0 -0.47611220276E+02  0.48565537979E+01  0.24804821555E+02  0.53904589298E+02  0.10566000000E+00 0. -1.
         23    2    1    0    0    0 -0.16434812867E+02 -0.20509601801E+02  0.68185252523E+01  0.97937852265E+02  0.94098797971E+02 0.  0.
         13    1    3    3    0    0  0.31176407409E+02 -0.25366155599E+02 -0.17986296302E+02  0.44033262967E+02  0.10566000000E+00 0.  1.
         22    1    1    0    0    0  0.16434812867E+02  0.20509601801E+02 -0.68185252523E+01  0.27152147735E+02  0.00000000000E+00 0.  1.
</event>
<event>
 5    1  0.1254921E-009  0.9118800E+02  0.7561462E-02  0.1125453E+00
         25   -1    0    0    0    0  0.00000000000E+00  0.00000000000E+00  0.99999998245E-14  0.12509000000E+03  0.12509000000E+03 0.  0.
        -13    1    3    3    0    0 -0.28650455390E+02  0.33386473620E+02 -0.13729330102E+02  0.46086992568E+02  0.10566000000E+00 0.  1.
         23    2    1    0    0    0  0.18597135346E+02  0.22427849948E+02 -0.26786686043E+01  0.95831887247E+02  0.91256306366E+02 0.  0.
         13    1    3    3    0    0  0.47247590736E+02 -0.10958623672E+02  0.11050661497E+02  0.49744894680E+02  0.10566000000E+00 0. -1.
         22    1    1    0    0    0 -0.18597135346E+02 -0.22427849948E+02  0.26786686043E+01  0.29258112753E+02  0.00000000000E+00 0. -1.
</event>
<event>
 5    1  0.1254921E-009  0.9118800E+02  0.7561462E-02  0.1125453E+00
         25   -1    0    0    0    0  0.00000000000E+00  0.00000000000E+00  0.99999998245E-14  0.12509000000E+03  0.12509000000E+03 0.  0.
        -13    1    3    3    0    0 -0.22148996856E+02 -0.32027231381E+02 -0.45479293145E+02  0.59872354895E+02  0.10566000000E+00 0. -1.
         23    2    1    0    0    0 -0.13625105681E+02 -0.21911666704E+02 -0.10565492836E+02  0.97208208783E+02  0.93123797031E+02 0.  0.
         13    1    3    3    0    0  0.85238911745E+01  0.10115564677E+02  0.34913800309E+02  0.37335853888E+02  0.10566000000E+00 0.  1.
         22    1    1    0    0    0  0.13625105681E+02  0.21911666704E+02  0.10565492836E+02  0.27881791217E+02  0.00000000000E+00 0. -1.
</event>
<event>
 5    1  0.1254921E-009  0.9118800E+02  0.7561462E-02  0.1125453E+00
         25   -1    0    0    0    0  0.00000000000E+00  0.00000000000E+00  0.99999998245E-14  0.12509000000E+03  0.12509000000E+03 0.  0.
        -13    1    3    3    0    0 -0.23698652844E+02  0.18566629094E+02 -0.40066274955E+02  0.50116498434E+02  0.10566000000E+00 0. -1.
         23    2    1    0    0    0 -0.30664529411E+01  0.23994050788E+02  0.53697067542E+01  0.10031195816E+03  0.97203588371E+02 0.  0.
         13    1    3    3    0    0  0.20632199903E+02  0.54274216937E+01  0.45435981709E+02  0.50195459725E+02  0.10566000000E+00 0.  1.
         22    1    1    0    0    0  0.30664529411E+01 -0.23994050788E+02 -0.53697067542E+01  0.24778041841E+02  0.00000000000E+00 0. -1.
</event>
<event>
 5    1  0.1254921E-009  0.9118800E+02  0.7561462E-02  0.1125453E+00
         25   -1    0    0    0    0  0.00000000000E+00  0.00000000000E+00  0.99999998245E-14  0.12509000000E+03  0.12509000000E+03 0.  0.
        -13    1    3    3    0    0  0.17814524989E+02 -0.18616749582E+01 -0.37298965038E+02  0.41376890786E+02  0.10566000000E+00 0.  1.
         23    2    1    0    0    0 -0.25059398643E+02  0.68978445763E+01  0.33911133447E+00  0.99096371615E+02  0.95626472018E+02 0.  0.
         13    1    3    3    0    0 -0.42873923632E+02  0.87595195345E+01  0.37638076372E+02  0.57719480828E+02  0.10566000000E+00 0. -1.
         22    1    1    0    0    0  0.25059398643E+02 -0.68978445763E+01 -0.33911133447E+00  0.25993628385E+02  0.00000000000E+00 0. -1.
</event>
<event>
 5    1  0.1254921E-009  0.9118800E+02  0.7561462E-02  0.1125453E+00
         25   -1    0    0    0    0  0.00000000000E+00  0.00000000000E+00  0.99999998245E-14  0.12509000000E+03  0.12509000000E+03 0.  0.
        -13    1    3    3    0    0  0.23017385465E+02  0.28612482721E+02  0.59019307317E+01  0.37192985246E+02  0.10566000000E+00 0.  1.
         23    2    1    0    0    0 -0.23461614455E+01 -0.26136527118E+02  0.82635743076E+01  0.97578017453E+02  0.93619230431E+02 0.  0.
         13    1    3    3    0    0 -0.25363546911E+02 -0.54749009839E+02  0.23616435759E+01  0.60385032207E+02  0.10566000000E+00 0. -1.
         22    1    1    0    0    0  0.23461614455E+01  0.26136527118E+02 -0.82635743076E+01  0.27511982547E+02  0.00000000000E+00 0. -1.
</event>
<event>
 5    1  0.1254921E-009  0.9118800E+02  0.7561462E-02  0.1125453E+00
         25   -1    0    0    0    0  0.00000000000E+00  0.00000000000E+00  0.99999998245E-14  0.12509000000E+03  0.12509000000E+03 0.  0.
        -13    1    3    3    0    0 -0.18065264266E+02  0.22505074568E+02  0.17608007562E+02  0.33806585877E+02  0.10566000000E+00 0.  1.
         23    2    1    0    0    0  0.22372417826E+02 -0.16381659782E+02 -0.90527191332E+01  0.95920913961E+02  0.91378258655E+02 0.  0.
         13    1    3    3    0    0  0.40437682093E+02 -0.38886734350E+02 -0.26660726695E+02  0.62114328085E+02  0.10566000000E+00 0. -1.
         22    1    1    0    0    0 -0.22372417826E+02  0.16381659782E+02  0.90527191332E+01  0.29169086039E+02  0.00000000000E+00 0. -1.
</event>
<event>
 5    1  0.1254921E-009  0.9118800E+02  0.7561462E-02  0.1125453E+00
         25   -1    0    0    0    0  0.00000000000E+00  0.00000000000E+00  0.99999998245E-14  0.12509000000E+03  0.12509000000E+03 0.  0.
        -13    1    3    3    0    0  0.29357319760E+02 -0.50040869109E+01 -0.22133252093E+02  0.37105055202E+02  0.10566000000E+00 0. -1.
         23    2    1    0    0    0  0.68870995962E+01  0.21260298627E+02  0.22379973241E+02  0.93462549252E+02  0.87948578566E+02 0.  0.
         13    1    3    3    0    0 -0.22470220164E+02  0.26264385538E+02  0.44513225334E+02  0.56357494050E+02  0.10566000000E+00 0.  1.
         22    1    1    0    0    0 -0.68870995962E+01 -0.21260298627E+02 -0.22379973241E+02  0.31627450748E+02  0.00000000000E+00 0.  1.
</event>
<event>
 5    1  0.1254921E-009  0.9118800E+02  0.7561462E-02  0.1125453E+00
         25   -1    0    0    0    0  0.00000000000E+00  0.00000000000E+00  0.99999998245E-14  0.12509000000E+03  0.12509000000E+03 0.  0.
        -13    1    3    3    0    0  0.96734124096E+01 -0.60204659574E+02  0.35747674365E+01  0.61081634460E+02  0.10566000000E+00 0.  1.
         23    2    1    0    0    0 -0.47268267759E+01 -0.30827638176E+02  0.13970185857E+01  0.93870809944E+02  0.88527346801E+02 0.  0.
         13    1    3    3    0    0 -0.14400239185E+02  0.29377021398E+02 -0.21777488507E+01  0.32789175484E+02  0.10566000000E+00 0. -1.
         22    1    1    0    0    0  0.47268267759E+01  0.30827638176E+02 -0.13970185857E+01  0.31219190056E+02  0.00000000000E+00 0.  1.
</event>
<event>
 5    1  0.1254921E-009  0.9118800E+02  0.7561462E-02  0.1125453E+00
         25   -1    0    0    0    0  0.00000000000E+00  0.00000000000E+00  0.99999998245E-14  0.12509000000E+03  0.12509000000E+03 0.  0.
        -13    1    3    3    0    0 -0.21232019661E+02 -0.41115095412E+02 -0.35007720369E+02  0.58024144794E+02  0.10566000000E+00 0.  1.
         23    2    1    0    0    0  0.90766984172E+00 -0.32096402269E+02 -0.13232525351E+02  0.90361011671E+02  0.83420679690E+02 0.  0.
         13    1    3    3    0    0  0.22139689503E+02  0.90186931425E+01  0.21775195019E+02  0.32336866877E+02  0.10566000000E+00 0. -1.
         22    1    1    0    0    0 -0.90766984172E+00  0.32096402269E+02  0.13232525351E+02  0.34728988329E+02  0.00000000000E+00 0.  1.
</event>
<event>
 5    1  0.1254921E-009  0.9118800E+02  0.7561462E-02  0.1125453E+00
         25   -1    0    0    0    0  0.00000000000E+00  0.00000000000E+00  0.99999998245E-14  0.12509000000E+03  0.12509000000E+03 0.  0.
        -13    1    3    3    0    0  0.63572752804E+01  0.49201559032E+02  0.32758513316E+02  0.59450313026E+02  0.10566000000E+00 0.  1.
         23    2    1    0    0    0 -0.47882498346E+01  0.16370009000E+02  0.24745183445E+02  0.95036237592E+02  0.90159069543E+02 0.  0.
         13    1    3    3    0    0 -0.11145525115E+02 -0.32831550032E+02 -0.80133298712E+01  0.35585924567E+02  0.10566000000E+00 0. -1.
         22    1    1    0    0    0  0.47882498346E+01 -0.16370009000E+02 -0.24745183445E+02  0.30053762408E+02  0.00000000000E+00 0.  1.
</event>
<event>
 5    1  0.1254921E-009  0.9118800E+02  0.7561462E-02  0.1125453E+00
         25   -1    0    0    0    0  0.00000000000E+00  0.00000000000E+00  0.99999998245E-14  0.12509000000E+03  0.12509000000E+03 0.  0.
        -13    1    3    3    0    0 -0.35133324840E+02 -0.66104783216E+01  0.17298465634E+02  0.39715198794E+02  0.10566000000E+00 0. -1.
         23    2    1    0    0    0 -0.87440888414E-01 -0.15676699070E+02 -0.25119504095E+02  0.95479933712E+02  0.90772582402E+02 0.  0.
         13    1    3    3    0    0  0.35045883951E+02 -0.90662207480E+01 -0.42417969728E+02  0.55764734918E+02  0.10566000000E+00 0.  1.
         22    1    1    0    0    0  0.87440888414E-01  0.15676699070E+02  0.25119504095E+02  0.29610066288E+02  0.00000000000E+00 0. -1.
</event>
<event>
 5    1  0.1254921E-009  0.9118800E+02  0.7561462E-02  0.1125453E+00
         25   -1    0    0    0    0  0.00000000000E+00  0.00000000000E+00  0.99999998245E-14  0.12509000000E+03  0.12509000000E+03 0.  0.
        -13    1    3    3    0    0  0.31458003631E+02 -0.26334215463E+02 -0.22686802333E+02  0.46880689634E+02  0.10566000000E+00 0. -1.
         23    2    1    0    0    0 -0.16360155665E+02 -0.13063763066E+02 -0.19289642228E+02  0.96622353520E+02  0.92333484195E+02 0.  0.
         13    1    3    3    0    0 -0.47818159296E+02  0.13270452397E+02  0.33971601049E+01  0.49741663885E+02  0.10566000000E+00 0.  1.
         22    1    1    0    0    0  0.16360155665E+02  0.13063763066E+02  0.19289642228E+02  0.28467646480E+02  0.00000000000E+00 0. -1.
</event>
<event>
 5    1  0.1254921E-009  0.9118800E+02  0.7561462E-02  0.1125453E+00
         25   -1    0    0    0    0  0.00000000000E+00  0.00000000000E+00  0.99999998245E-14  0.12509000000E+03  0.12509000000E+03 0.  0.
        -13    1    3    3    0    0  0.95327256624E+01  0.54438435636E+02  0.17892870357E+02  0.58091153429E+02  0.10566000000E+00 0.  1.
         23    2    1    0    0    0  0.10422209423E+01  0.32564941860E+02 -0.64224177431E+01  0.91881430135E+02  0.85670228733E+02 0.  0.
         13    1    3    3    0    0 -0.84905047201E+01 -0.21873493777E+02 -0.24315288100E+02  0.33790276705E+02  0.10566000000E+00 0. -1.
         22    1    1    0    0    0 -0.10422209423E+01 -0.32564941860E+02  0.64224177431E+01  0.33208569865E+02  0.00000000000E+00 0.  1.
</event>
<event>
 5    1  0.1254921E-009  0.9118800E+02  0.7561462E-02  0.1125453E+00
         25   -1    0    0    0    0  0.00000000000E+00  0.00000000000E+00  0.99999998245E-14  0.12509000000E+03  0.12509000000E+03 0.  0.
        -13    1    3    3    0    0 -0.30850584235E+02  0.23316312839E+02  0.23530613104E+02  0.45267095214E+02  0.10566000000E+00 0.  1.
         23    2    1    0    0    0  0.16118273844E+02  0.16404311981E+02  0.22739179776E+02  0.92748532807E+02  0.86927094957E+02 0.  0.
         13    1    3    3    0    0  0.46968858079E+02 -0.69120008577E+01 -0.79143332749E+00  0.47481437593E+02  0.10566000000E+00 0. -1.
         22    1    1    0    0    0 -0.16118273844E+02 -0.16404311981E+02 -0.22739179776E+02  0.32341467193E+02  0.00000000000E+00 0. -1.
</event>
<event>
 5    1  0.1254921E-009  0.9118800E+02  0.7561462E-02  0.1125453E+00
         25   -1    0    0    0    0  0.00000000000E+00  0.00000000000E+00  0.99999998245E-14  0.12509000000E+03  0.12509000000E+03 0.  0.
        -13    1    3    3    0    0 -0.80248136291E+00 -0.31115097904E+02  0.13358495697E+02  0.33871136167E+02  0.10566000000E+00 0. -1.
         23    2    1    0    0    0 -0.11935743669E+02  0.21555558751E+02 -0.16504332627E+02  0.95433683886E+02  0.90708825009E+02 0.  0.
         13    1    3    3    0    0 -0.11133262307E+02  0.52670656655E+02 -0.29862828324E+02  0.61562547719E+02  0.10566000000E+00 0.  1.
         22    1    1    0    0    0  0.11935743669E+02 -0.21555558751E+02  0.16504332627E+02  0.29656316114E+02  0.00000000000E+00 0.  1.
</event>
<event>
 5    1  0.1254921E-009  0.9118800E+02  0.7561462E-02  0.1125453E+00
         25   -1    0    0    0    0  0.00000000000E+00  0.00000000000E+00  0.99999998245E-14  0.12509000000E+03  0.12509000000E+03 0.  0.
        -13    1    3    3    0    0 -0.21794365203E+02 -0.44637346849E+02 -0.16679946986E+02  0.52399607669E+02  0.10566000000E+00 0. -1.
         23    2    1    0    0    0  0.15736566982E+02 -0.19344863965E+02 -0.10317527903E+02  0.98102694016E+02  0.94317675380E+02 0.  0.
         13    1    3    3    0    0  0.37530932185E+02  0.25292482884E+02  0.63624190834E+01  0.45703086348E+02  0.10566000000E+00 0.  1.
         22    1    1    0    0    0 -0.15736566982E+02  0.19344863965E+02  0.10317527903E+02  0.26987305984E+02  0.00000000000E+00 0. -1.
</event>
<event>
 5    1  0.1254921E-009  0.9118800E+02  0.7561462E-02  0.1125453E+00
         25   -1    0    0    0    0  0.00000000000E+00  0.00000000000E+00  0.99999998245E-14  0.12509000000E+03  0.12509000000E+03 0.  0.
        -13    1    3    3    0    0 -0.19009679692E+02 -0.40306798491E+02  0.55180983169E+01  0.44905083228E+02  0.10566000000E+00 0.  1.
         23    2    1    0    0    0 -0.14564041183E+02  0.63662680400E+01  0.24827730199E+02  0.95610229798E+02  0.90951960896E+02 0.  0.
         13    1    3    3    0    0  0.44456385089E+01  0.46673066531E+02  0.19309631882E+02  0.50705146570E+02  0.10566000000E+00 0. -1.
         22    1    1    0    0    0  0.14564041183E+02 -0.63662680400E+01 -0.24827730199E+02  0.29479770202E+02  0.00000000000E+00 0. -1.
</event>
<event>
 5    1  0.1254921E-009  0.9118800E+02  0.7561462E-02  0.1125453E+00
         25   -1    0    0    0    0  0.00000000000E+00  0.00000000000E+00  0.99999998245E-14  0.12509000000E+03  0.12509000000E+03 0.  0.
        -13    1    3    3    0    0 -0.30655672554E+00  0.34432658836E+02 -0.53491609052E+01  0.34847190102E+02  0.10566000000E+00 0. -1.
         23    2    1    0    0    0  0.10928574677E+02 -0.19695475391E+02  0.19349575345E+02  0.95395698167E+02  0.90656426509E+02 0.  0.
         13    1    3    3    0    0  0.11235131403E+02 -0.54128134227E+02  0.24698736250E+02  0.60548508065E+02  0.10566000000E+00 0.  1.
         22    1    1    0    0    0 -0.10928574677E+02  0.19695475391E+02 -0.19349575345E+02  0.29694301833E+02  0.00000000000E+00 0.  1.
</event>
<event>
 5    1  0.1254921E-009  0.9118800E+02  0.7561462E-02  0.1125453E+00
         25   -1    0    0    0    0  0.00000000000E+00  0.00000000000E+00  0.99999998245E-14  0.12509000000E+03  0.12509000000E+03 0.  0.
        -13    1    3    3    0    0  0.13757230658E+02  0.16189680195E+02  0.24216012784E+02  0.32214803731E+02  0.10566000000E+00 0.  1.
         23    2    1    0    0    0 -0.13703465761E+02 -0.19004557329E+02 -0.19434015557E+02  0.94649252082E+02  0.89620543325E+02 0.  0.
         13    1    3    3    0    0 -0.27460696419E+02 -0.35194237524E+02 -0.43650028342E+02  0.62434448351E+02  0.10566000000E+00 0. -1.
         22    1    1    0    0    0  0.13703465761E+02  0.19004557329E+02  0.19434015557E+02  0.30440747918E+02  0.00000000000E+00 0. -1.
</event>
<event>
 5    1  0.1254921E-009  0.9118800E+02  0.7561462E-02  0.1125453E+00
         25   -1    0    0    0    0  0.00000000000E+00  0.00000000000E+00  0.99999998245E-14  0.12509000000E+03  0.12509000000E+03 0.  0.
        -13    1    3    3    0    0 -0.14821758379E+02 -0.22729530070E+02  0.46345433598E+02  0.53704994536E+02  0.10566000000E+00 0. -1.
         23    2    1    0    0    0 -0.19747607887E+02  0.92551363235E+01  0.21043762307E+02  0.94783804302E+02  0.89808151413E+02 0.  0.
         13    1    3    3    0    0 -0.49258495082E+01  0.31984666394E+02 -0.25301671291E+02  0.41078809766E+02  0.10566000000E+00 0.  1.
         22    1    1    0    0    0  0.19747607887E+02 -0.92551363235E+01 -0.21043762307E+02  0.30306195698E+02  0.00000000000E+00 0. -1.
</event>
<event>
 5    1  0.1254921E-009  0.9118800E+02  0.7561462E-02  0.1125453E+00
         25   -1    0    0    0    0  0.00000000000E+00  0.00000000000E+00  0.99999998245E-14  0.12509000000E+03  0.12509000000E+03 0.  0.
        -13    1    3    3    0    0 -0.34780485947E+02 -0.71754053466E+01 -0.12474379272E+01  0.35534995568E+02  0.10566000000E+00 0.  1.
         23    2    1    0    0    0  0.21334384229E+02 -0.17809060858E+02  0.13015357235E+02  0.94402573862E+02  0.89275572408E+02 0.  0.
         13    1    3    3    0    0  0.56114870175E+02 -0.10633655511E+02  0.14262795162E+02  0.58867578294E+02  0.10566000000E+00 0. -1.
         22    1    1    0    0    0 -0.21334384229E+02  0.17809060858E+02 -0.13015357235E+02  0.30687426138E+02  0.00000000000E+00 0. -1.
</event>
<event>
 5    1  0.1254921E-009  0.9118800E+02  0.7561462E-02  0.1125453E+00
         25   -1    0    0    0    0  0.00000000000E+00  0.00000000000E+00  0.99999998245E-14  0.12509000000E+03  0.12509000000E+03 0.  0.
        -13    1    3    3    0    0  0.23247099873E+02  0.29958403976E+02  0.22130057048E+02  0.43905400696E+02  0.10566000000E+00 0.  1.
         23    2    1    0    0    0  0.14065577643E+02  0.30282199858E+02 -0.19423082231E+02  0.86462183261E+02  0.77353738812E+02 0.  0.
         13    1    3    3    0    0 -0.91815222302E+01  0.32379588275E+00 -0.41553139280E+02  0.42556782565E+02  0.10566000000E+00 0. -1.
         22    1    1    0    0    0 -0.14065577643E+02 -0.30282199858E+02  0.19423082231E+02  0.38627816739E+02  0.00000000000E+00 0.  1.
</event>
<event>
 5    1  0.1254921E-009  0.9118800E+02  0.7561462E-02  0.1125453E+00
         25   -1    0    0    0    0  0.00000000000E+00  0.00000000000E+00  0.99999998245E-14  0.12509000000E+03  0.12509000000E+03 0.  0.
        -13    1    3    3    0    0 -0.46136921853E+02 -0.29749043820E+02  0.14423168072E+02  0.56759669727E+02  0.10566000000E+00 0.  1.
         23    2    1    0    0    0 -0.75825635578E+01 -0.24448779695E+02 -0.28428744847E+01  0.99334999825E+02  0.95938116284E+02 0.  0.
         13    1    3    3    0    0  0.38554358295E+02  0.53002641252E+01 -0.17266042556E+02  0.42575330098E+02  0.10566000000E+00 0. -1.
         22    1    1    0    0    0  0.75825635578E+01  0.24448779695E+02  0.28428744847E+01  0.25755000175E+02  0.00000000000E+00 0.  1.
</event>
<event>
 5    1  0.1254921E-009  0.9118800E+02  0.7561462E-02  0.1125453E+00
         25   -1    0    0    0    0  0.00000000000E+00  0.00000000000E+00  0.99999998245E-14  0.12509000000E+03  0.12509000000E+03 0.  0.
        -13    1    3    3    0    0 -0.32153997894E+02 -0.19892664437E+02 -0.11173937816E+02  0.39426713397E+02  0.10566000000E+00 0.  1.
         23    2    1    0    0    0  0.22176548966E+01  0.24731750136E+02  0.81173550258E+01  0.98965894070E+02  0.95455640369E+02 0.  0.
         13    1    3    3    0    0  0.34371652790E+02  0.44624414574E+02  0.19291292842E+02  0.59539180672E+02  0.10566000000E+00 0. -1.
         22    1    1    0    0    0 -0.22176548966E+01 -0.24731750136E+02 -0.81173550258E+01  0.26124105930E+02  0.00000000000E+00 0. -1.
</event>
<event>
 5    1  0.1254921E-009  0.9118800E+02  0.7561462E-02  0.1125453E+00
         25   -1    0    0    0    0  0.00000000000E+00  0.00000000000E+00  0.99999998245E-14  0.12509000000E+03  0.12509000000E+03 0.  0.
        -13    1    3    3    0    0  0.37004463375E+02 -0.10726708057E+02 -0.17414418308E+01  0.38567296497E+02  0.10566000000E+00 0.  1.
         23    2    1    0    0    0 -0.14176341328E+02 -0.74848335309E+01  0.24218094971E+02  0.96046799239E+02  0.91550423995E+02 0.  0.
         13    1    3    3    0    0 -0.51180804703E+02  0.32418745260E+01  0.25959536802E+02  0.57479502742E+02  0.10566000000E+00 0. -1.
         22    1    1    0    0    0  0.14176341328E+02  0.74848335309E+01 -0.24218094971E+02  0.29043200761E+02  0.00000000000E+00 0. -1.
</event>
<event>
 5    1  0.1254921E-009  0.9118800E+02  0.7561462E-02  0.1125453E+00
         25   -1    0    0    0    0  0.00000000000E+00  0.00000000000E+00  0.99999998245E-14  0.12509000000E+03  0.12509000000E+03 0.  0.
        -13    1    3    3    0    0  0.16230321620E+02  0.31091332887E+02  0.28193850231E+01  0.35185997450E+02  0.10566000000E+00 0. -1.
         23    2    1    0    0    0 -0.22486638823E+02 -0.15090727502E+02  0.10716766584E+02  0.95965644761E+02  0.91439471271E+02 0.  0.
         13    1    3    3    0    0 -0.38716960443E+02 -0.46182060389E+02  0.78973815605E+01  0.60779647311E+02  0.10566000000E+00 0.  1.
         22    1    1    0    0    0  0.22486638823E+02  0.15090727502E+02 -0.10716766584E+02  0.29124355239E+02  0.00000000000E+00 0.  1.
</event>
<event>
 5    1  0.1254921E-009  0.9118800E+02  0.7561462E-02  0.1125453E+00
         25   -1    0    0    0    0  0.00000000000E+00  0.00000000000E+00  0.99999998245E-14  0.12509000000E+03  0.12509000000E+03 0.  0.
        -13    1    3    3    0    0 -0.11021754806E+02  0.35072202857E+01  0.51005778786E+02  0.52300863346E+02  0.10566000000E+00 0. -1.
         23    2    1    0    0    0 -0.21645002453E+02 -0.13701930129E+02  0.10834838248E+02  0.97275565972E+02  0.93214231718E+02 0.  0.
         13    1    3    3    0    0 -0.10623247647E+02 -0.17209150415E+02 -0.40170940538E+02  0.44974702626E+02  0.10566000000E+00 0.  1.
         22    1    1    0    0    0  0.21645002453E+02  0.13701930129E+02 -0.10834838248E+02  0.27814434028E+02  0.00000000000E+00 0.  1.
</event>
<event>
 5    1  0.1254921E-009  0.9118800E+02  0.7561462E-02  0.1125453E+00
         25   -1    0    0    0    0  0.00000000000E+00  0.00000000000E+00  0.99999998245E-14  0.12509000000E+03  0.12509000000E+03 0.  0.
        -13    1    3    3    0    0 -0.27691333632E+02 -0.28109334308E+02  0.12984790444E+02  0.41539867362E+02  0.10566000000E+00 0. -1.
         23    2    1    0    0    0  0.22499280202E+02 -0.20196074918E+02 -0.27499330330E+01  0.94731126777E+02  0.89734749105E+02 0.  0.
         13    1    3    3    0    0  0.50190613834E+02  0.79132593903E+01 -0.15734723477E+02  0.53191259415E+02  0.10566000000E+00 0.  1.
         22    1    1    0    0    0 -0.22499280202E+02  0.20196074918E+02  0.27499330330E+01  0.30358873223E+02  0.00000000000E+00 0.  1.
</event>
<event>
 5    1  0.1254921E-009  0.9118800E+02  0.7561462E-02  0.1125453E+00
         25   -1    0    0    0    0  0.00000000000E+00  0.00000000000E+00  0.99999998245E-14  0.12509000000E+03  0.12509000000E+03 0.  0.
        -13    1    3    3    0    0 -0.29261807608E+02 -0.23720525563E+02 -0.20547722989E+02  0.42908470045E+02  0.10566000000E+00 0. -1.
         23    2    1    0    0    0  0.22111305665E+02 -0.14163651750E+02 -0.13274141399E+02  0.95666850968E+02  0.91029801028E+02 0.  0.
         13    1    3    3    0    0  0.51373113273E+02  0.95568738132E+01  0.72735815910E+01  0.52758380923E+02  0.10566000000E+00 0.  1.
         22    1    1    0    0    0 -0.22111305665E+02  0.14163651750E+02  0.13274141399E+02  0.29423149032E+02  0.00000000000E+00 0.  1.
</event>
<event>
 5    1  0.1254921E-009  0.9118800E+02  0.7561462E-02  0.1125453E+00
         25   -1    0    0    0    0  0.00000000000E+00  0.00000000000E+00  0.99999998245E-14  0.12509000000E+03  0.12509000000E+03 0.  0.
        -13    1    3    3    0    0 -0.47959100134E+02 -0.21146175070E+02 -0.70682196431E+01  0.52888627309E+02  0.10566000000E+00 0.  1.
         23    2    1    0    0    0 -0.25237757433E+02  0.14836564899E+02 -0.19901086747E+01  0.95746711317E+02  0.91139476283E+02 0.  0.
         13    1    3    3    0    0  0.22721342701E+02  0.35982739968E+02  0.50781109684E+01  0.42858084007E+02  0.10566000000E+00 0. -1.
         22    1    1    0    0    0  0.25237757433E+02 -0.14836564899E+02  0.19901086747E+01  0.29343288683E+02  0.00000000000E+00 0.  1.
</event>
<event>
 5    1  0.1254921E-009  0.9118800E+02  0.7561462E-02  0.1125453E+00
         25   -1    0    0    0    0  0.00000000000E+00  0.00000000000E+00  0.99999998245E-14  0.12509000000E+03  0.12509000000E+03 0.  0.
        -13    1    3    3    0    0  0.37407931363E+02  0.17807929784E+01 -0.71264485978E+01  0.38122460390E+02  0.10566000000E+00 0.  1.
         23    2    1    0    0    0 -0.19540949300E+02 -0.14565494929E+02 -0.12654679779E+02  0.97628331034E+02  0.93686433160E+02 0.  0.
         13    1    3    3    0    0 -0.56948880663E+02 -0.16346287907E+02 -0.55282311807E+01  0.59505870645E+02  0.10566000000E+00 0. -1.
         22    1    1    0    0    0  0.19540949300E+02  0.14565494929E+02  0.12654679779E+02  0.27461668966E+02  0.00000000000E+00 0. -1.
</event>
<event>
 5    1  0.1254921E-009  0.9118800E+02  0.7561462E-02  0.1125453E+00
         25   -1    0    0    0    0  0.00000000000E+00  0.00000000000E+00  0.99999998245E-14  0.12509000000E+03  0.12509000000E+03 0.  0.
        -13    1    3    3    0    0  0.38850598266E+02 -0.37289653497E+02  0.18291690728E+02  0.56872527263E+02  0.10566000000E+00 0.  1.
         23    2    1    0    0    0  0.58312098309E+01 -0.21627758219E+02  0.22108555653E+02  0.93616977159E+02  0.88167949084E+02 0.  0.
         13    1    3    3    0    0 -0.33019388435E+02  0.15661895278E+02  0.38168649254E+01  0.36744449897E+02  0.10566000000E+00 0. -1.
         22    1    1    0    0    0 -0.58312098309E+01  0.21627758219E+02 -0.22108555653E+02  0.31473022841E+02  0.00000000000E+00 0.  1.
</event>
<event>
 5    1  0.1254921E-009  0.9118800E+02  0.7561462E-02  0.1125453E+00
         25   -1    0    0    0    0  0.00000000000E+00  0.00000000000E+00  0.99999998245E-14  0.12509000000E+03  0.12509000000E+03 0.  0.
        -13    1    3    3    0    0  0.94562489229E+01 -0.44774616660E+01 -0.37317312561E+02  0.38756435433E+02  0.10566000000E+00 0. -1.
         23    2    1    0    0    0 -0.33858955021E+01  0.28302694097E+02  0.73720244773E+01  0.95647623629E+02  0.91003375648E+02 0.  0.
         13    1    3    3    0    0 -0.12842144425E+02  0.32780155763E+02  0.44689337039E+02  0.56891188195E+02  0.10566000000E+00 0.  1.
         22    1    1    0    0    0  0.33858955021E+01 -0.28302694097E+02 -0.73720244773E+01  0.29442376371E+02  0.00000000000E+00 0.  1.
</event>
<event>
 5    1  0.1254921E-009  0.9118800E+02  0.7561462E-02  0.1125453E+00
         25   -1    0    0    0    0  0.00000000000E+00  0.00000000000E+00  0.99999998245E-14  0.12509000000E+03  0.12509000000E+03 0.  0.
        -13    1    3    3    0    0 -0.13762486512E+02 -0.50166067970E+02  0.54970454470E+01  0.52309359423E+02  0.10566000000E+00 0.  1.
         23    2    1    0    0    0  0.15167977811E+02 -0.21499119773E+02 -0.11415168155E+02  0.96409243980E+02  0.92044318449E+02 0.  0.
         13    1    3    3    0    0  0.28930464323E+02  0.28666948197E+02 -0.16912213602E+02  0.44099884556E+02  0.10566000000E+00 0. -1.
         22    1    1    0    0    0 -0.15167977811E+02  0.21499119773E+02  0.11415168155E+02  0.28680756020E+02  0.00000000000E+00 0.  1.
</event>
<event>
 5    1  0.1254921E-009  0.9118800E+02  0.7561462E-02  0.1125453E+00
         25   -1    0    0    0    0  0.00000000000E+00  0.00000000000E+00  0.99999998245E-14  0.12509000000E+03  0.12509000000E+03 0.  0.
        -13    1    3    3    0    0  0.12464324997E+00 -0.60541110190E+02 -0.82773381365E+00  0.60546988912E+02  0.10566000000E+00 0. -1.
         23    2    1    0    0    0  0.34026576489E+01 -0.27377233977E+02 -0.10999133277E+02  0.95390303837E+02  0.90648982973E+02 0.  0.
         13    1    3    3    0    0  0.32780143990E+01  0.33163876214E+02 -0.10171399464E+02  0.34843314925E+02  0.10566000000E+00 0.  1.
         22    1    1    0    0    0 -0.34026576489E+01  0.27377233977E+02  0.10999133277E+02  0.29699696163E+02  0.00000000000E+00 0. -1.
</event>
<event>
 5    1  0.1254921E-009  0.9118800E+02  0.7561462E-02  0.1125453E+00
         25   -1    0    0    0    0  0.00000000000E+00  0.00000000000E+00  0.99999998245E-14  0.12509000000E+03  0.12509000000E+03 0.  0.
        -13    1    3    3    0    0  0.35401033036E+02 -0.19789391063E+02  0.33913946738E+02  0.52867949516E+02  0.10566000000E+00 0.  1.
         23    2    1    0    0    0  0.14433206086E+02 -0.24952776715E+02 -0.34851267051E+01  0.96053736262E+02  0.91559901911E+02 0.  0.
         13    1    3    3    0    0 -0.20967826950E+02 -0.51633856524E+01 -0.37399073443E+02  0.43185786746E+02  0.10566000000E+00 0. -1.
         22    1    1    0    0    0 -0.14433206086E+02  0.24952776715E+02  0.34851267051E+01  0.29036263738E+02  0.00000000000E+00 0. -1.
</event>
<event>
 5    1  0.1254921E-009  0.9118800E+02  0.7561462E-02  0.1125453E+00
         25   -1    0    0    0    0  0.00000000000E+00  0.00000000000E+00  0.99999998245E-14  0.12509000000E+03  0.12509000000E+03 0.  0.
        -13    1    3    3    0    0  0.15629757433E+02  0.47469799859E+02 -0.16917076782E+02  0.52762390649E+02  0.10566000000E+00 0.  1.
         23    2    1    0    0    0 -0.15985365700E+02  0.24754093830E+02  0.97507929662E+00  0.95606990358E+02  0.90947505452E+02 0.  0.
         13    1    3    3    0    0 -0.31615123133E+02 -0.22715706029E+02  0.17892156079E+02  0.42844599710E+02  0.10566000000E+00 0. -1.
         22    1    1    0    0    0  0.15985365700E+02 -0.24754093830E+02 -0.97507929662E+00  0.29483009642E+02  0.00000000000E+00 0. -1.
</event>
<event>
 5    1  0.1254921E-009  0.9118800E+02  0.7561462E-02  0.1125453E+00
         25   -1    0    0    0    0  0.00000000000E+00  0.00000000000E+00  0.99999998245E-14  0.12509000000E+03  0.12509000000E+03 0.  0.
        -13    1    3    3    0    0  0.25326458158E+02 -0.26810665504E+01  0.26220468088E+02  0.36553272240E+02  0.10566000000E+00 0.  1.
         23    2    1    0    0    0 -0.27545414550E+02  0.96692071378E+01  0.25444358843E+01  0.95786116582E+02  0.91193544434E+02 0.  0.
         13    1    3    3    0    0 -0.52871872708E+02  0.12350273688E+02 -0.23676032203E+02  0.59232844342E+02  0.10566000000E+00 0. -1.
         22    1    1    0    0    0  0.27545414550E+02 -0.96692071378E+01 -0.25444358843E+01  0.29303883418E+02  0.00000000000E+00 0. -1.
</event>
<event>
 5    1  0.1254921E-009  0.9118800E+02  0.7561462E-02  0.1125453E+00
         25   -1    0    0    0    0  0.00000000000E+00  0.00000000000E+00  0.99999998245E-14  0.12509000000E+03  0.12509000000E+03 0.  0.
        -13    1    3    3    0    0 -0.25374900788E+02  0.12132425710E+02  0.20120511057E+02  0.34582184327E+02  0.10566000000E+00 0.  1.
         23    2    1    0    0    0  0.97721577545E+01  0.13156209749E+02 -0.27078131868E+02  0.93438678581E+02  0.87914620555E+02 0.  0.
         13    1    3    3    0    0  0.35147058542E+02  0.10237840383E+01 -0.47198642925E+02  0.58856494254E+02  0.10566000000E+00 0. -1.
         22    1    1    0    0    0 -0.97721577545E+01 -0.13156209749E+02  0.27078131868E+02  0.31651321419E+02  0.00000000000E+00 0. -1.
</event>
<event>
 5    1  0.1254921E-009  0.9118800E+02  0.7561462E-02  0.1125453E+00
         25   -1    0    0    0    0  0.00000000000E+00  0.00000000000E+00  0.99999998245E-14  0.12509000000E+03  0.12509000000E+03 0.  0.
        -13    1    3    3    0    0  0.32069697432E+02  0.21556699071E+02  0.47621369104E+02  0.61326688542E+02  0.10566000000E+00 0.  1.
         23    2    1    0    0    0  0.13351249313E+02  0.43678474182E+01  0.29111184115E+02  0.92766711339E+02  0.86953250329E+02 0.  0.
         13    1    3    3    0    0 -0.18718448119E+02 -0.17188851652E+02 -0.18510184989E+02  0.31440022797E+02  0.10566000000E+00 0. -1.
         22    1    1    0    0    0 -0.13351249313E+02 -0.43678474182E+01 -0.29111184115E+02  0.32323288661E+02  0.00000000000E+00 0.  1.
</event>
<event>
 5    1  0.1254921E-009  0.9118800E+02  0.7561462E-02  0.1125453E+00
         25   -1    0    0    0    0  0.00000000000E+00  0.00000000000E+00  0.99999998245E-14  0.12509000000E+03  0.12509000000E+03 0.  0.
        -13    1    3    3    0    0  0.34571163380E+02 -0.17291809920E+01 -0.47938196246E+02  0.59128988049E+02  0.10566000000E+00 0.  1.
         23    2    1    0    0    0  0.25176100379E+02  0.38048197946E+01 -0.11522590942E+02  0.97142141657E+02  0.93035009000E+02 0.  0.
         13    1    3    3    0    0 -0.93950630008E+01  0.55340007866E+01  0.36415605304E+02  0.38013153608E+02  0.10566000000E+00 0. -1.
         22    1    1    0    0    0 -0.25176100379E+02 -0.38048197946E+01  0.11522590942E+02  0.27947858343E+02  0.00000000000E+00 0.  1.
</event>
<event>
 5    1  0.1254921E-009  0.9118800E+02  0.7561462E-02  0.1125453E+00
         25   -1    0    0    0    0  0.00000000000E+00  0.00000000000E+00  0.99999998245E-14  0.12509000000E+03  0.12509000000E+03 0.  0.
        -13    1    3    3    0    0  0.43402247747E+01  0.17174247641E+00  0.52742381253E+02  0.52921044876E+02  0.10566000000E+00 0. -1.
         23    2    1    0    0    0  0.17817954679E+02 -0.17052133759E+02  0.15962519025E+02  0.95712171824E+02  0.91092058089E+02 0.  0.
         13    1    3    3    0    0  0.13477729905E+02 -0.17223876236E+02 -0.36779862227E+02  0.42791126948E+02  0.10566000000E+00 0.  1.
         22    1    1    0    0    0 -0.17817954679E+02  0.17052133759E+02 -0.15962519025E+02  0.29377828176E+02  0.00000000000E+00 0. -1.
</event>
<event>
 5    1  0.1254921E-009  0.9118800E+02  0.7561462E-02  0.1125453E+00
         25   -1    0    0    0    0  0.00000000000E+00  0.00000000000E+00  0.99999998245E-14  0.12509000000E+03  0.12509000000E+03 0.  0.
        -13    1    3    3    0    0 -0.17581875419E+02 -0.29492089955E+02 -0.97045475222E+00  0.34349070724E+02  0.10566000000E+00 0.  1.
         23    2    1    0    0    0 -0.23063429827E+01  0.26872332051E+02  0.14093724005E+02  0.94658527736E+02  0.89633489104E+02 0.  0.
         13    1    3    3    0    0  0.15275532437E+02  0.56364422006E+02  0.15064178757E+02  0.60309457011E+02  0.10566000000E+00 0. -1.
         22    1    1    0    0    0  0.23063429827E+01 -0.26872332051E+02 -0.14093724005E+02  0.30431472264E+02  0.00000000000E+00 0. -1.
</event>
<event>
 5    1  0.1254921E-009  0.9118800E+02  0.7561462E-02  0.1125453E+00
         25   -1    0    0    0    0  0.00000000000E+00  0.00000000000E+00  0.99999998245E-14  0.12509000000E+03  0.12509000000E+03 0.  0.
        -13    1    3    3    0    0 -0.34841409218E+01 -0.81864441189E+00 -0.48077542198E+02  0.48210690147E+02  0.10566000000E+00 0.  1.
         23    2    1    0    0    0  0.27962263112E+02 -0.24881348711E+00 -0.17347760523E+02  0.92182632107E+02  0.86108900820E+02 0.  0.
         13    1    3    3    0    0  0.31446404034E+02  0.56983092478E+00  0.30729781674E+02  0.43971941960E+02  0.10566000000E+00 0. -1.
         22    1    1    0    0    0 -0.27962263112E+02  0.24881348711E+00  0.17347760523E+02  0.32907367893E+02  0.00000000000E+00 0. -1.
</event>
<event>
 5    1  0.1254921E-009  0.9118800E+02  0.7561462E-02  0.1125453E+00
         25   -1    0    0    0    0  0.00000000000E+00  0.00000000000E+00  0.99999998245E-14  0.12509000000E+03  0.12509000000E+03 0.  0.
        -13    1    3    3    0    0  0.49738109569E+02 -0.89786119784E+01 -0.22400729506E+02  0.55283802899E+02  0.10566000000E+00 0.  1.
         23    2    1    0    0    0  0.18271983386E+02  0.13784277570E+02 -0.20814488611E+02  0.94152730871E+02  0.88924811551E+02 0.  0.
         13    1    3    3    0    0 -0.31466126182E+02  0.22762889549E+02  0.15862408955E+01  0.38868927973E+02  0.10566000000E+00 0. -1.
         22    1    1    0    0    0 -0.18271983386E+02 -0.13784277570E+02  0.20814488611E+02  0.30937269129E+02  0.00000000000E+00 0.  1.
</event>
<event>
 5    1  0.1254921E-009  0.9118800E+02  0.7561462E-02  0.1125453E+00
         25   -1    0    0    0    0  0.00000000000E+00  0.00000000000E+00  0.99999998245E-14  0.12509000000E+03  0.12509000000E+03 0.  0.
        -13    1    3    3    0    0 -0.19577667378E+02 -0.47248147569E+02  0.22294879694E+02  0.55791982697E+02  0.10566000000E+00 0.  1.
         23    2    1    0    0    0 -0.74037136850E+01 -0.27570608300E+02 -0.94001543537E+01  0.95034778819E+02  0.90157045564E+02 0.  0.
         13    1    3    3    0    0  0.12173953693E+02  0.19677539268E+02 -0.31695034047E+02  0.39242796122E+02  0.10566000000E+00 0. -1.
         22    1    1    0    0    0  0.74037136850E+01  0.27570608300E+02  0.94001543537E+01  0.30055221181E+02  0.00000000000E+00 0.  1.
</event>
<event>
 5    1  0.1254921E-009  0.9118800E+02  0.7561462E-02  0.1125453E+00
         25   -1    0    0    0    0  0.00000000000E+00  0.00000000000E+00  0.99999998245E-14  0.12509000000E+03  0.12509000000E+03 0.  0.
        -13    1    3    3    0    0  0.32210135481E+02 -0.28303920767E+02 -0.20722501068E+01  0.42929129307E+02  0.10566000000E+00 0. -1.
         23    2    1    0    0    0 -0.20898224822E+02 -0.14323545153E+02  0.74837482796E+01  0.98672084966E+02  0.95069838102E+02 0.  0.
         13    1    3    3    0    0 -0.53108360303E+02  0.13980375614E+02  0.95559983863E+01  0.55742955659E+02  0.10566000000E+00 0.  1.
         22    1    1    0    0    0  0.20898224822E+02  0.14323545153E+02 -0.74837482796E+01  0.26417915034E+02  0.00000000000E+00 0.  1.
</event>
<event>
 5    1  0.1254921E-009  0.9118800E+02  0.7561462E-02  0.1125453E+00
         25   -1    0    0    0    0  0.00000000000E+00  0.00000000000E+00  0.99999998245E-14  0.12509000000E+03  0.12509000000E+03 0.  0.
        -13    1    3    3    0    0  0.16920591620E+01  0.31836868655E+02 -0.33474326356E+02  0.46227599537E+02  0.10566000000E+00 0.  1.
         23    2    1    0    0    0 -0.26201726105E+02 -0.33753333237E+01 -0.10774146858E+02  0.96559217213E+02  0.92247909800E+02 0.  0.
         13    1    3    3    0    0 -0.27893785267E+02 -0.35212201978E+02  0.22700179498E+02  0.50331617677E+02  0.10566000000E+00 0. -1.
         22    1    1    0    0    0  0.26201726105E+02  0.33753333237E+01  0.10774146858E+02  0.28530782787E+02  0.00000000000E+00 0. -1.
</event>
<event>
 5    1  0.1254921E-009  0.9118800E+02  0.7561462E-02  0.1125453E+00
         25   -1    0    0    0    0  0.00000000000E+00  0.00000000000E+00  0.99999998245E-14  0.12509000000E+03  0.12509000000E+03 0.  0.
        -13    1    3    3    0    0 -0.74656544407E+01 -0.31181654944E+02 -0.42742822715E+02  0.53432121977E+02  0.10566000000E+00 0. -1.
         23    2    1    0    0    0  0.16787485357E+02 -0.10982373054E+01 -0.22321382645E+02  0.97138794069E+02  0.93030507901E+02 0.  0.
         13    1    3    3    0    0  0.24253139797E+02  0.30083417638E+02  0.20421440070E+02  0.43706672092E+02  0.10566000000E+00 0.  1.
         22    1    1    0    0    0 -0.16787485357E+02  0.10982373054E+01  0.22321382645E+02  0.27951205931E+02  0.00000000000E+00 0. -1.
</event>
<event>
 5    1  0.1254921E-009  0.9118800E+02  0.7561462E-02  0.1125453E+00
         25   -1    0    0    0    0  0.00000000000E+00  0.00000000000E+00  0.99999998245E-14  0.12509000000E+03  0.12509000000E+03 0.  0.
        -13    1    3    3    0    0  0.13632013994E+02 -0.57142075614E+02 -0.10767665897E+02  0.59724387012E+02  0.10566000000E+00 0.  1.
         23    2    1    0    0    0  0.11429950986E+02 -0.26189768107E+02  0.72534802323E+01  0.95608468348E+02  0.90949538269E+02 0.  0.
         13    1    3    3    0    0 -0.22020630081E+01  0.30952307507E+02  0.18021146129E+02  0.35884081336E+02  0.10566000000E+00 0. -1.
         22    1    1    0    0    0 -0.11429950986E+02  0.26189768107E+02 -0.72534802323E+01  0.29481531652E+02  0.00000000000E+00 0.  1.
</event>
<event>
 5    1  0.1254921E-009  0.9118800E+02  0.7561462E-02  0.1125453E+00
         25   -1    0    0    0    0  0.00000000000E+00  0.00000000000E+00  0.99999998245E-14  0.12509000000E+03  0.12509000000E+03 0.  0.
        -13    1    3    3    0    0  0.46677668563E+02 -0.22457068506E+02 -0.23638298696E+02  0.56937729122E+02  0.10566000000E+00 0. -1.
         23    2    1    0    0    0  0.31204222414E+02 -0.11846975182E+00  0.13522345815E+01  0.93856267115E+02  0.88506795258E+02 0.  0.
         13    1    3    3    0    0 -0.15473446148E+02  0.22338598754E+02  0.24990533278E+02  0.36918537993E+02  0.10566000000E+00 0.  1.
         22    1    1    0    0    0 -0.31204222414E+02  0.11846975182E+00 -0.13522345815E+01  0.31233732885E+02  0.00000000000E+00 0. -1.
</event>
<event>
 5    1  0.1254921E-009  0.9118800E+02  0.7561462E-02  0.1125453E+00
         25   -1    0    0    0    0  0.00000000000E+00  0.00000000000E+00  0.99999998245E-14  0.12509000000E+03  0.12509000000E+03 0.  0.
        -13    1    3    3    0    0 -0.70218148355E+01  0.38851644364E+02  0.12508369698E+02  0.41415294638E+02  0.10566000000E+00 0.  1.
         23    2    1    0    0    0  0.17699146957E+01 -0.17792970539E+02 -0.11786421067E+02  0.10367406854E+03  0.10143801244E+03 0.  0.
         13    1    3    3    0    0  0.87917295312E+01 -0.56644614903E+02 -0.24294790766E+02  0.62258773904E+02  0.10566000000E+00 0. -1.
         22    1    1    0    0    0 -0.17699146957E+01  0.17792970539E+02  0.11786421067E+02  0.21415931458E+02  0.00000000000E+00 0. -1.
</event>
<event>
 5    1  0.1254921E-009  0.9118800E+02  0.7561462E-02  0.1125453E+00
         25   -1    0    0    0    0  0.00000000000E+00  0.00000000000E+00  0.99999998245E-14  0.12509000000E+03  0.12509000000E+03 0.  0.
        -13    1    3    3    0    0 -0.34612983646E+02 -0.17029755638E+02  0.47743809781E+01  0.38870002467E+02  0.10566000000E+00 0.  1.
         23    2    1    0    0    0 -0.23428993418E+00  0.17398754434E+02  0.27482226360E+02  0.92562406893E+02  0.86658841767E+02 0.  0.
         13    1    3    3    0    0  0.34378693712E+02  0.34428510072E+02  0.22707845382E+02  0.53692404426E+02  0.10566000000E+00 0. -1.
         22    1    1    0    0    0  0.23428993418E+00 -0.17398754434E+02 -0.27482226360E+02  0.32527593107E+02  0.00000000000E+00 0. -1.
</event>
<event>
 5    1  0.1254921E-009  0.9118800E+02  0.7561462E-02  0.1125453E+00
         25   -1    0    0    0    0  0.00000000000E+00  0.00000000000E+00  0.99999998245E-14  0.12509000000E+03  0.12509000000E+03 0.  0.
        -13    1    3    3    0    0  0.34785822339E+01 -0.25214462474E+02 -0.21667803575E+02  0.33427152556E+02  0.10566000000E+00 0. -1.
         23    2    1    0    0    0 -0.65494127608E+01  0.25138111353E+02  0.13651445219E+02  0.95744107503E+02  0.91135902449E+02 0.  0.
         13    1    3    3    0    0 -0.10027994995E+02  0.50352573826E+02  0.35319248794E+02  0.62316954947E+02  0.10566000000E+00 0.  1.
         22    1    1    0    0    0  0.65494127608E+01 -0.25138111353E+02 -0.13651445219E+02  0.29345892497E+02  0.00000000000E+00 0.  1.
</event>
<event>
 5    1  0.1254921E-009  0.9118800E+02  0.7561462E-02  0.1125453E+00
         25   -1    0    0    0    0  0.00000000000E+00  0.00000000000E+00  0.99999998245E-14  0.12509000000E+03  0.12509000000E+03 0.  0.
        -13    1    3    3    0    0  0.32767396465E+01  0.57385915949E+02 -0.38867621295E+01  0.57610749482E+02  0.10566000000E+00 0. -1.
         23    2    1    0    0    0  0.50344084340E+01  0.45235249705E+02 -0.17846695028E+02  0.76201580026E+02  0.58451716748E+02 0.  0.
         13    1    3    3    0    0  0.17576687875E+01 -0.12150666244E+02 -0.13959932898E+02  0.18590830543E+02  0.10566000000E+00 0.  1.
         22    1    1    0    0    0 -0.50344084340E+01 -0.45235249705E+02  0.17846695028E+02  0.48888419974E+02  0.00000000000E+00 0. -1.
</event>
<event>
 5    1  0.1254921E-009  0.9118800E+02  0.7561462E-02  0.1125453E+00
         25   -1    0    0    0    0  0.00000000000E+00  0.00000000000E+00  0.99999998245E-14  0.12509000000E+03  0.12509000000E+03 0.  0.
        -13    1    3    3    0    0 -0.70550213527E+00  0.34258843172E+02  0.35661869671E+02  0.49456507976E+02  0.10566000000E+00 0. -1.
         23    2    1    0    0    0 -0.10228760266E+02 -0.10651423860E+02  0.24143247495E+02  0.96788467066E+02  0.92558255118E+02 0.  0.
         13    1    3    3    0    0 -0.95232581307E+01 -0.44910267033E+02 -0.11518622176E+02  0.47331959090E+02  0.10566000000E+00 0.  1.
         22    1    1    0    0    0  0.10228760266E+02  0.10651423860E+02 -0.24143247495E+02  0.28301532934E+02  0.00000000000E+00 0. -1.
</event>
<event>
 5    1  0.1254921E-009  0.9118800E+02  0.7561462E-02  0.1125453E+00
         25   -1    0    0    0    0  0.00000000000E+00  0.00000000000E+00  0.99999998245E-14  0.12509000000E+03  0.12509000000E+03 0.  0.
        -13    1    3    3    0    0 -0.19429187123E+02 -0.18164745359E+02 -0.22716477477E+02  0.34978576289E+02  0.10566000000E+00 0. -1.
         23    2    1    0    0    0  0.21965882526E+02 -0.31673452689E+01  0.19181588106E+02  0.95756309583E+02  0.91152649065E+02 0.  0.
         13    1    3    3    0    0  0.41395069649E+02  0.14997400091E+02  0.41898065583E+02  0.60777733294E+02  0.10566000000E+00 0.  1.
         22    1    1    0    0    0 -0.21965882526E+02  0.31673452689E+01 -0.19181588106E+02  0.29333690417E+02  0.00000000000E+00 0.  1.
</event>
<event>
 5    1  0.1254921E-009  0.9118800E+02  0.7561462E-02  0.1125453E+00
         25   -1    0    0    0    0  0.00000000000E+00  0.00000000000E+00  0.99999998245E-14  0.12509000000E+03  0.12509000000E+03 0.  0.
        -13    1    3    3    0    0  0.21612105368E+02  0.23216589009E+02  0.23318127055E+02  0.39367998641E+02  0.10566000000E+00 0.  1.
         23    2    1    0    0    0  0.15271046968E+02  0.26110206218E+02 -0.23552240886E+02  0.86753910019E+02  0.77824065100E+02 0.  0.
         13    1    3    3    0    0 -0.63410583999E+01  0.28936172089E+01 -0.46870367941E+02  0.47385911378E+02  0.10566000000E+00 0. -1.
         22    1    1    0    0    0 -0.15271046968E+02 -0.26110206218E+02  0.23552240886E+02  0.38336089981E+02  0.00000000000E+00 0. -1.
</event>
<event>
 5    1  0.1254921E-009  0.9118800E+02  0.7561462E-02  0.1125453E+00
         25   -1    0    0    0    0  0.00000000000E+00  0.00000000000E+00  0.99999998245E-14  0.12509000000E+03  0.12509000000E+03 0.  0.
        -13    1    3    3    0    0  0.27627414750E+01 -0.34414451296E+02  0.45396859998E+02  0.57033965846E+02  0.10566000000E+00 0. -1.
         23    2    1    0    0    0  0.11888897030E+02 -0.24410945931E+02  0.80352686961E+01  0.96773826232E+02  0.92538466308E+02 0.  0.
         13    1    3    3    0    0  0.91261555555E+01  0.10003505365E+02 -0.37361591302E+02  0.39739860385E+02  0.10566000000E+00 0.  1.
         22    1    1    0    0    0 -0.11888897030E+02  0.24410945931E+02 -0.80352686961E+01  0.28316173768E+02  0.00000000000E+00 0. -1.
</event>
<event>
 5    1  0.1254921E-009  0.9118800E+02  0.7561462E-02  0.1125453E+00
         25   -1    0    0    0    0  0.00000000000E+00  0.00000000000E+00  0.99999998245E-14  0.12509000000E+03  0.12509000000E+03 0.  0.
        -13    1    3    3    0    0  0.17960442329E+02 -0.28615831842E+02  0.10377000799E+02  0.35343127058E+02  0.10566000000E+00 0.  1.
         23    2    1    0    0    0  0.55987490450E+00  0.18221207276E+02 -0.23231660084E+02  0.95559746280E+02  0.90882502300E+02 0.  0.
         13    1    3    3    0    0 -0.17400567424E+02  0.46837039118E+02 -0.33608660884E+02  0.60216619221E+02  0.10566000000E+00 0. -1.
         22    1    1    0    0    0 -0.55987490450E+00 -0.18221207276E+02  0.23231660084E+02  0.29530253720E+02  0.00000000000E+00 0. -1.
</event>
<event>
 5    1  0.1254921E-009  0.9118800E+02  0.7561462E-02  0.1125453E+00
         25   -1    0    0    0    0  0.00000000000E+00  0.00000000000E+00  0.99999998245E-14  0.12509000000E+03  0.12509000000E+03 0.  0.
        -13    1    3    3    0    0  0.32711677948E+02  0.15605990291E+02 -0.41281933496E+02  0.54934597517E+02  0.10566000000E+00 0. -1.
         23    2    1    0    0    0  0.26734328959E+02 -0.84168530456E+01 -0.89250381036E+01  0.95675308684E+02  0.91041422587E+02 0.  0.
         13    1    3    3    0    0 -0.59773489892E+01 -0.24022843337E+02  0.32356895393E+02  0.40740711167E+02  0.10566000000E+00 0.  1.
         22    1    1    0    0    0 -0.26734328959E+02  0.84168530456E+01  0.89250381036E+01  0.29414691316E+02  0.00000000000E+00 0. -1.
</event>
<event>
 5    1  0.1254921E-009  0.9118800E+02  0.7561462E-02  0.1125453E+00
         25   -1    0    0    0    0  0.00000000000E+00  0.00000000000E+00  0.99999998245E-14  0.12509000000E+03  0.12509000000E+03 0.  0.
        -13    1    3    3    0    0  0.15522635616E+00  0.33525519889E+02  0.13612942062E+02  0.36184360361E+02  0.10566000000E+00 0.  1.
         23    2    1    0    0    0  0.16056522037E+02 -0.17330425030E+02 -0.15432732374E+02  0.96870773218E+02  0.92669422916E+02 0.  0.
         13    1    3    3    0    0  0.15901295681E+02 -0.50855944919E+02 -0.29045674437E+02  0.60686412857E+02  0.10566000000E+00 0. -1.
         22    1    1    0    0    0 -0.16056522037E+02  0.17330425030E+02  0.15432732374E+02  0.28219226782E+02  0.00000000000E+00 0. -1.
</event>
<event>
 5    1  0.1254921E-009  0.9118800E+02  0.7561462E-02  0.1125453E+00
         25   -1    0    0    0    0  0.00000000000E+00  0.00000000000E+00  0.99999998245E-14  0.12509000000E+03  0.12509000000E+03 0.  0.
        -13    1    3    3    0    0 -0.15610954190E+02  0.32758885011E+02 -0.10225043846E+02  0.37701579855E+02  0.10566000000E+00 0.  1.
         23    2    1    0    0    0  0.30069746766E+01 -0.25467871169E+02 -0.23475114916E+01  0.99338006509E+02  0.95942036503E+02 0.  0.
         13    1    3    3    0    0  0.18617928866E+02 -0.58226756180E+02  0.78775323545E+01  0.61636426653E+02  0.10566000000E+00 0. -1.
         22    1    1    0    0    0 -0.30069746766E+01  0.25467871169E+02  0.23475114916E+01  0.25751993491E+02  0.00000000000E+00 0. -1.
</event>
<event>
 5    1  0.1254921E-009  0.9118800E+02  0.7561462E-02  0.1125453E+00
         25   -1    0    0    0    0  0.00000000000E+00  0.00000000000E+00  0.99999998245E-14  0.12509000000E+03  0.12509000000E+03 0.  0.
        -13    1    3    3    0    0 -0.78500511949E+01 -0.12933737123E+02 -0.33765251903E+02  0.37000111620E+02  0.10566000000E+00 0. -1.
         23    2    1    0    0    0 -0.45092353160E+01 -0.10829252692E+02  0.25827370553E+02  0.96723488288E+02  0.92470396344E+02 0.  0.
         13    1    3    3    0    0  0.33408158789E+01  0.21044844305E+01  0.59592622456E+02  0.59723376669E+02  0.10566000000E+00 0.  1.
         22    1    1    0    0    0  0.45092353160E+01  0.10829252692E+02 -0.25827370553E+02  0.28366511712E+02  0.00000000000E+00 0.  1.
</event>
<event>
 5    1  0.1254921E-009  0.9118800E+02  0.7561462E-02  0.1125453E+00
         25   -1    0    0    0    0  0.00000000000E+00  0.00000000000E+00  0.99999998245E-14  0.12509000000E+03  0.12509000000E+03 0.  0.
        -13    1    3    3    0    0  0.39132064227E+02 -0.25819300431E+02  0.11609326151E+02  0.48298471437E+02  0.10566000000E+00 0.  1.
         23    2    1    0    0    0  0.34628514154E+01  0.84273889723E+00  0.28826798619E+02  0.96043728856E+02  0.91546228678E+02 0.  0.
         13    1    3    3    0    0 -0.35669212812E+02  0.26662039328E+02  0.17217472468E+02  0.47745257419E+02  0.10566000000E+00 0. -1.
         22    1    1    0    0    0 -0.34628514154E+01 -0.84273889723E+00 -0.28826798619E+02  0.29046271144E+02  0.00000000000E+00 0. -1.
</event>
<event>
 5    1  0.1254921E-009  0.9118800E+02  0.7561462E-02  0.1125453E+00
         25   -1    0    0    0    0  0.00000000000E+00  0.00000000000E+00  0.99999998245E-14  0.12509000000E+03  0.12509000000E+03 0.  0.
        -13    1    3    3    0    0  0.10926925839E+02 -0.69474359045E+01  0.46023212395E+02  0.47810164371E+02  0.10566000000E+00 0.  1.
         23    2    1    0    0    0 -0.23840421234E+02 -0.94003699514E+01  0.11059932670E+02  0.97178447723E+02  0.93083811436E+02 0.  0.
         13    1    3    3    0    0 -0.34767347073E+02 -0.24529340469E+01 -0.34963279726E+02  0.49368283352E+02  0.10566000000E+00 0. -1.
         22    1    1    0    0    0  0.23840421234E+02  0.94003699514E+01 -0.11059932670E+02  0.27911552277E+02  0.00000000000E+00 0.  1.
</event>
<event>
 5    1  0.1254921E-009  0.9118800E+02  0.7561462E-02  0.1125453E+00
         25   -1    0    0    0    0  0.00000000000E+00  0.00000000000E+00  0.99999998245E-14  0.12509000000E+03  0.12509000000E+03 0.  0.
        -13    1    3    3    0    0 -0.46756236868E+02  0.10077006054E+01 -0.65384444878E-01  0.46767259763E+02  0.10566000000E+00 0. -1.
         23    2    1    0    0    0 -0.27898242896E+01  0.27006753259E+02 -0.18471657832E+01  0.97876770449E+02  0.94017563950E+02 0.  0.
         13    1    3    3    0    0  0.43966412578E+02  0.25999052653E+02 -0.17817813383E+01  0.51109510687E+02  0.10566000000E+00 0.  1.
         22    1    1    0    0    0  0.27898242896E+01 -0.27006753259E+02  0.18471657832E+01  0.27213229551E+02  0.00000000000E+00 0. -1.
</event>
<event>
 5    1  0.1254921E-009  0.9118800E+02  0.7561462E-02  0.1125453E+00
         25   -1    0    0    0    0  0.00000000000E+00  0.00000000000E+00  0.99999998245E-14  0.12509000000E+03  0.12509000000E+03 0.  0.
        -13    1    3    3    0    0 -0.29030633646E+02  0.16525443568E+02 -0.30705713346E+02  0.45373119478E+02  0.10566000000E+00 0. -1.
         23    2    1    0    0    0  0.17153293579E+01  0.31553045393E+02  0.29264232576E+01  0.93355145637E+02  0.87795684605E+02 0.  0.
         13    1    3    3    0    0  0.30745963004E+02  0.15027601825E+02  0.33632136604E+02  0.47982026158E+02  0.10566000000E+00 0.  1.
         22    1    1    0    0    0 -0.17153293579E+01 -0.31553045393E+02 -0.29264232576E+01  0.31734854363E+02  0.00000000000E+00 0. -1.
</event>
<event>
 5    1  0.1254921E-009  0.9118800E+02  0.7561462E-02  0.1125453E+00
         25   -1    0    0    0    0  0.00000000000E+00  0.00000000000E+00  0.99999998245E-14  0.12509000000E+03  0.12509000000E+03 0.  0.
        -13    1    3    3    0    0  0.76338924542E+01 -0.59350276527E+02 -0.15850059276E+02  0.61902885078E+02  0.10566000000E+00 0.  1.
         23    2    1    0    0    0  0.83638398764E+01 -0.19825219215E+02 -0.74673058701E+01  0.10231383282E+03  0.99746511694E+02 0.  0.
         13    1    3    3    0    0  0.72994742220E+00  0.39525057312E+02  0.83827534063E+01  0.40410947743E+02  0.10566000000E+00 0. -1.
         22    1    1    0    0    0 -0.83638398764E+01  0.19825219215E+02  0.74673058701E+01  0.22776167179E+02  0.00000000000E+00 0.  1.
</event>
<event>
 5    1  0.1254921E-009  0.9118800E+02  0.7561462E-02  0.1125453E+00
         25   -1    0    0    0    0  0.00000000000E+00  0.00000000000E+00  0.99999998245E-14  0.12509000000E+03  0.12509000000E+03 0.  0.
        -13    1    3    3    0    0  0.13322517685E+02 -0.37206196071E+02 -0.39053804680E+02  0.55560789479E+02  0.10566000000E+00 0. -1.
         23    2    1    0    0    0  0.21057004258E+02 -0.27677074373E+01 -0.21064920086E+02  0.95176984588E+02  0.90354136066E+02 0.  0.
         13    1    3    3    0    0  0.77344865736E+01  0.34438488634E+02  0.17988884593E+02  0.39616195109E+02  0.10566000000E+00 0.  1.
         22    1    1    0    0    0 -0.21057004258E+02  0.27677074373E+01  0.21064920086E+02  0.29913015412E+02  0.00000000000E+00 0. -1.
</event>
<event>
 5    1  0.1254921E-009  0.9118800E+02  0.7561462E-02  0.1125453E+00
         25   -1    0    0    0    0  0.00000000000E+00  0.00000000000E+00  0.99999998245E-14  0.12509000000E+03  0.12509000000E+03 0.  0.
        -13    1    3    3    0    0  0.14884745590E+02 -0.36640605783E+02  0.96725024865E+01  0.40714347739E+02  0.10566000000E+00 0.  1.
         23    2    1    0    0    0  0.11581833148E+02  0.15100251345E+02 -0.17488423558E+02  0.99244276789E+02  0.95819753010E+02 0.  0.
         13    1    3    3    0    0 -0.33029124417E+01  0.51740857128E+02 -0.27160926045E+02  0.58529929050E+02  0.10566000000E+00 0. -1.
         22    1    1    0    0    0 -0.11581833148E+02 -0.15100251345E+02  0.17488423558E+02  0.25845723211E+02  0.00000000000E+00 0. -1.
</event>
<event>
 5    1  0.1254921E-009  0.9118800E+02  0.7561462E-02  0.1125453E+00
         25   -1    0    0    0    0  0.00000000000E+00  0.00000000000E+00  0.99999998245E-14  0.12509000000E+03  0.12509000000E+03 0.  0.
        -13    1    3    3    0    0  0.32939665401E+02 -0.11935000674E+02 -0.13956398506E+02  0.37712836291E+02  0.10566000000E+00 0.  1.
         23    2    1    0    0    0 -0.85210445154E+01  0.27637525121E+02 -0.38096067145E+01  0.95918882473E+02  0.91375477657E+02 0.  0.
         13    1    3    3    0    0 -0.41460709916E+02  0.39572525795E+02  0.10146791792E+02  0.58206046183E+02  0.10566000000E+00 0. -1.
         22    1    1    0    0    0  0.85210445154E+01 -0.27637525121E+02  0.38096067145E+01  0.29171117527E+02  0.00000000000E+00 0. -1.
</event>
<event>
 5    1  0.1254921E-009  0.9118800E+02  0.7561462E-02  0.1125453E+00
         25   -1    0    0    0    0  0.00000000000E+00  0.00000000000E+00  0.99999998245E-14  0.12509000000E+03  0.12509000000E+03 0.  0.
        -13    1    3    3    0    0  0.51312805418E+02 -0.14088743428E+02 -0.83052350525E+01  0.53856148995E+02  0.10566000000E+00 0.  1.
         23    2    1    0    0    0  0.18255739926E+02  0.45436940840E+01 -0.23720959068E+02  0.94814579354E+02  0.89851006465E+02 0.  0.
         13    1    3    3    0    0 -0.33057065491E+02  0.18632437512E+02 -0.15415724016E+02  0.40958430359E+02  0.10566000000E+00 0. -1.
         22    1    1    0    0    0 -0.18255739926E+02 -0.45436940840E+01  0.23720959068E+02  0.30275420646E+02  0.00000000000E+00 0. -1.
</event>
<event>
 5    1  0.1254921E-009  0.9118800E+02  0.7561462E-02  0.1125453E+00
         25   -1    0    0    0    0  0.00000000000E+00  0.00000000000E+00  0.99999998245E-14  0.12509000000E+03  0.12509000000E+03 0.  0.
        -13    1    3    3    0    0  0.43779336620E+02  0.28480011883E+02  0.10921600253E+02  0.53357604030E+02  0.10566000000E+00 0.  1.
         23    2    1    0    0    0  0.82716281535E+01  0.26403978799E+02 -0.11195255687E+02  0.95241655345E+02  0.90443624619E+02 0.  0.
         13    1    3    3    0    0 -0.35507708466E+02 -0.20760330836E+01 -0.22116855939E+02  0.41884051315E+02  0.10566000000E+00 0. -1.
         22    1    1    0    0    0 -0.82716281535E+01 -0.26403978799E+02  0.11195255687E+02  0.29848344655E+02  0.00000000000E+00 0.  1.
</event>
<event>
 5    1  0.1254921E-009  0.9118800E+02  0.7561462E-02  0.1125453E+00
         25   -1    0    0    0    0  0.00000000000E+00  0.00000000000E+00  0.99999998245E-14  0.12509000000E+03  0.12509000000E+03 0.  0.
        -13    1    3    3    0    0  0.16469344272E+02 -0.42575228701E+01  0.32607979879E+02  0.36778489876E+02  0.10566000000E+00 0.  1.
         23    2    1    0    0    0  0.26632712161E+00 -0.18987482419E+02 -0.22245744197E+02  0.95841605965E+02  0.91269627370E+02 0.  0.
         13    1    3    3    0    0 -0.16203017151E+02 -0.14729959549E+02 -0.54853724076E+02  0.59063116089E+02  0.10566000000E+00 0. -1.
         22    1    1    0    0    0 -0.26632712161E+00  0.18987482419E+02  0.22245744197E+02  0.29248394035E+02  0.00000000000E+00 0. -1.
</event>
<event>
 5    1  0.1254921E-009  0.9118800E+02  0.7561462E-02  0.1125453E+00
         25   -1    0    0    0    0  0.00000000000E+00  0.00000000000E+00  0.99999998245E-14  0.12509000000E+03  0.12509000000E+03 0.  0.
        -13    1    3    3    0    0  0.15351478864E+02  0.72220496052E+01  0.31324682051E+02  0.35624047684E+02  0.10566000000E+00 0.  1.
         23    2    1    0    0    0  0.10318227418E+02 -0.24776788504E+02 -0.16646353473E+02  0.93507470818E+02  0.88012447695E+02 0.  0.
         13    1    3    3    0    0 -0.50332514456E+01 -0.31998838109E+02 -0.47971035524E+02  0.57883423134E+02  0.10566000000E+00 0. -1.
         22    1    1    0    0    0 -0.10318227418E+02  0.24776788504E+02  0.16646353473E+02  0.31582529182E+02  0.00000000000E+00 0. -1.
</event>
<event>
 5    1  0.1254921E-009  0.9118800E+02  0.7561462E-02  0.1125453E+00
         25   -1    0    0    0    0  0.00000000000E+00  0.00000000000E+00  0.99999998245E-14  0.12509000000E+03  0.12509000000E+03 0.  0.
        -13    1    3    3    0    0  0.38820074248E+02  0.48725014450E+01 -0.10008662734E+02  0.40384699191E+02  0.10566000000E+00 0. -1.
         23    2    1    0    0    0  0.14319782704E+02  0.84802005371E+01 -0.41459316688E+02  0.80415119831E+02  0.66863641685E+02 0.  0.
         13    1    3    3    0    0 -0.24500291544E+02  0.36076990921E+01 -0.31450653954E+02  0.40030420640E+02  0.10566000000E+00 0.  1.
         22    1    1    0    0    0 -0.14319782704E+02 -0.84802005371E+01  0.41459316688E+02  0.44674880169E+02  0.00000000000E+00 0.  1.
</event>
<event>
 5    1  0.1254921E-009  0.9118800E+02  0.7561462E-02  0.1125453E+00
         25   -1    0    0    0    0  0.00000000000E+00  0.00000000000E+00  0.99999998245E-14  0.12509000000E+03  0.12509000000E+03 0.  0.
        -13    1    3    3    0    0 -0.23895825184E+02 -0.27453350334E+02 -0.38232567225E+01  0.36596794419E+02  0.10566000000E+00 0.  1.
         23    2    1    0    0    0 -0.20407692519E+01  0.26742727291E+02  0.96846302759E+01  0.96574560924E+02  0.92268713831E+02 0.  0.
         13    1    3    3    0    0  0.21855055932E+02  0.54196077625E+02  0.13507886998E+02  0.59977766505E+02  0.10566000000E+00 0. -1.
         22    1    1    0    0    0  0.20407692519E+01 -0.26742727291E+02 -0.96846302759E+01  0.28515439076E+02  0.00000000000E+00 0. -1.
</event>
<event>
 5    1  0.1254921E-009  0.9118800E+02  0.7561462E-02  0.1125453E+00
         25   -1    0    0    0    0  0.00000000000E+00  0.00000000000E+00  0.99999998245E-14  0.12509000000E+03  0.12509000000E+03 0.  0.
        -13    1    3    3    0    0 -0.22173921948E+02 -0.26989250486E+02  0.12066576954E+02  0.36955593619E+02  0.10566000000E+00 0. -1.
         23    2    1    0    0    0  0.51827960416E+01  0.97560794057E+01 -0.26206474891E+02  0.96650207694E+02  0.92371212295E+02 0.  0.
         13    1    3    3    0    0  0.27356717990E+02  0.36745329892E+02 -0.38273051845E+02  0.59694614075E+02  0.10566000000E+00 0.  1.
         22    1    1    0    0    0 -0.51827960416E+01 -0.97560794057E+01  0.26206474891E+02  0.28439792306E+02  0.00000000000E+00 0.  1.
</event>
<event>
 5    1  0.1254921E-009  0.9118800E+02  0.7561462E-02  0.1125453E+00
         25   -1    0    0    0    0  0.00000000000E+00  0.00000000000E+00  0.99999998245E-14  0.12509000000E+03  0.12509000000E+03 0.  0.
        -13    1    3    3    0    0  0.54753236429E+02  0.12439680129E+02  0.14166988516E+02  0.57908352324E+02  0.10566000000E+00 0.  1.
         23    2    1    0    0    0  0.24535315274E+02  0.12730007570E+02 -0.90372740325E+01  0.96008956169E+02  0.91498702474E+02 0.  0.
         13    1    3    3    0    0 -0.30217921155E+02  0.29032744168E+00 -0.23204262548E+02  0.38100603846E+02  0.10566000000E+00 0. -1.
         22    1    1    0    0    0 -0.24535315274E+02 -0.12730007570E+02  0.90372740325E+01  0.29081043831E+02  0.00000000000E+00 0.  1.
</event>
<event>
 5    1  0.1254921E-009  0.9118800E+02  0.7561462E-02  0.1125453E+00
         25   -1    0    0    0    0  0.00000000000E+00  0.00000000000E+00  0.99999998245E-14  0.12509000000E+03  0.12509000000E+03 0.  0.
        -13    1    3    3    0    0  0.55878192310E+02 -0.11702231940E+02  0.20916074651E+02  0.60801381161E+02  0.10566000000E+00 0.  1.
         23    2    1    0    0    0  0.29469798016E+02 -0.66609423031E+01 -0.19660938773E-01  0.94876798680E+02  0.89937586102E+02 0.  0.
         13    1    3    3    0    0 -0.26408394294E+02  0.50412896368E+01 -0.20935735590E+02  0.34075417519E+02  0.10566000000E+00 0. -1.
         22    1    1    0    0    0 -0.29469798016E+02  0.66609423031E+01  0.19660938773E-01  0.30213201320E+02  0.00000000000E+00 0.  1.
</event>
<event>
 5    1  0.1254921E-009  0.9118800E+02  0.7561462E-02  0.1125453E+00
         25   -1    0    0    0    0  0.00000000000E+00  0.00000000000E+00  0.99999998245E-14  0.12509000000E+03  0.12509000000E+03 0.  0.
        -13    1    3    3    0    0 -0.27464057936E+02  0.14952515195E+02  0.47158753852E+02  0.56584551052E+02  0.10566000000E+00 0.  1.
         23    2    1    0    0    0 -0.23902523067E+02 -0.72097429654E+01  0.14484422382E+02  0.96226363806E+02  0.91795444315E+02 0.  0.
         13    1    3    3    0    0  0.35615348684E+01 -0.22162258160E+02 -0.32674331470E+02  0.39641812754E+02  0.10566000000E+00 0. -1.
         22    1    1    0    0    0  0.23902523067E+02  0.72097429654E+01 -0.14484422382E+02  0.28863636194E+02  0.00000000000E+00 0.  1.
</event>
<event>
 5    1  0.1254921E-009  0.9118800E+02  0.7561462E-02  0.1125453E+00
         25   -1    0    0    0    0  0.00000000000E+00  0.00000000000E+00  0.99999998245E-14  0.12509000000E+03  0.12509000000E+03 0.  0.
        -13    1    3    3    0    0 -0.27593540213E+02 -0.26291679881E+00  0.52021271306E+02  0.58887149864E+02  0.10566000000E+00 0.  1.
         23    2    1    0    0    0 -0.20221206590E+02  0.11010233233E+02  0.16824195359E+02  0.96573759341E+02  0.92267627108E+02 0.  0.
         13    1    3    3    0    0  0.73723336223E+01  0.11273150032E+02 -0.35197075947E+02  0.37686609478E+02  0.10566000000E+00 0. -1.
         22    1    1    0    0    0  0.20221206590E+02 -0.11010233233E+02 -0.16824195359E+02  0.28516240659E+02  0.00000000000E+00 0.  1.
</event>
<event>
 5    1  0.1254921E-009  0.9118800E+02  0.7561462E-02  0.1125453E+00
         25   -1    0    0    0    0  0.00000000000E+00  0.00000000000E+00  0.99999998245E-14  0.12509000000E+03  0.12509000000E+03 0.  0.
        -13    1    3    3    0    0 -0.13630669739E+02  0.27943139251E+02 -0.28697777557E+02  0.42310610838E+02  0.10566000000E+00 0.  1.
         23    2    1    0    0    0 -0.25032474848E+02 -0.15899164440E+02 -0.97874450051E+00  0.95419034938E+02  0.90688621451E+02 0.  0.
         13    1    3    3    0    0 -0.11401805110E+02 -0.43842303691E+02  0.27719033057E+02  0.53108424100E+02  0.10566000000E+00 0. -1.
         22    1    1    0    0    0  0.25032474848E+02  0.15899164440E+02  0.97874450051E+00  0.29670965062E+02  0.00000000000E+00 0.  1.
</event>
<event>
 5    1  0.1254921E-009  0.9118800E+02  0.7561462E-02  0.1125453E+00
         25   -1    0    0    0    0  0.00000000000E+00  0.00000000000E+00  0.99999998245E-14  0.12509000000E+03  0.12509000000E+03 0.  0.
        -13    1    3    3    0    0 -0.37492363641E+02  0.87821968652E+01  0.29654922928E+02  0.48602776989E+02  0.10566000000E+00 0.  1.
         23    2    1    0    0    0 -0.15285032408E+01  0.29042099440E+02  0.14675480281E+02  0.92514709003E+02  0.86589963613E+02 0.  0.
         13    1    3    3    0    0  0.35963860400E+02  0.20259902575E+02 -0.14979442647E+02  0.43911932014E+02  0.10566000000E+00 0. -1.
         22    1    1    0    0    0  0.15285032408E+01 -0.29042099440E+02 -0.14675480281E+02  0.32575290997E+02  0.00000000000E+00 0. -1.
</event>
<event>
 5    1  0.1254921E-009  0.9118800E+02  0.7561462E-02  0.1125453E+00
         25   -1    0    0    0    0  0.00000000000E+00  0.00000000000E+00  0.99999998245E-14  0.12509000000E+03  0.12509000000E+03 0.  0.
        -13    1    3    3    0    0  0.34139082858E+02 -0.34760404497E+02  0.38293365129E+02  0.61968989633E+02  0.10566000000E+00 0.  1.
         23    2    1    0    0    0  0.18057471761E+02 -0.19636801142E+02  0.13415604837E+02  0.95229412286E+02  0.90426690007E+02 0.  0.
         13    1    3    3    0    0 -0.16081611098E+02  0.15123603355E+02 -0.24877760291E+02  0.33260422653E+02  0.10566000000E+00 0. -1.
         22    1    1    0    0    0 -0.18057471761E+02  0.19636801142E+02 -0.13415604837E+02  0.29860587714E+02  0.00000000000E+00 0.  1.
</event>
<event>
 5    1  0.1254921E-009  0.9118800E+02  0.7561462E-02  0.1125453E+00
         25   -1    0    0    0    0  0.00000000000E+00  0.00000000000E+00  0.99999998245E-14  0.12509000000E+03  0.12509000000E+03 0.  0.
        -13    1    3    3    0    0  0.17353792825E+02 -0.24832699122E+02 -0.34761086428E+02  0.46110317335E+02  0.10566000000E+00 0. -1.
         23    2    1    0    0    0  0.29270867887E+02  0.89266092804E+01 -0.23584295579E+01  0.94397488697E+02  0.89268446957E+02 0.  0.
         13    1    3    3    0    0  0.11917075062E+02  0.33759308402E+02  0.32402656870E+02  0.48287171362E+02  0.10566000000E+00 0.  1.
         22    1    1    0    0    0 -0.29270867887E+02 -0.89266092804E+01  0.23584295579E+01  0.30692511303E+02  0.00000000000E+00 0.  1.
</event>
<event>
 5    1  0.1254921E-009  0.9118800E+02  0.7561462E-02  0.1125453E+00
         25   -1    0    0    0    0  0.00000000000E+00  0.00000000000E+00  0.99999998245E-14  0.12509000000E+03  0.12509000000E+03 0.  0.
        -13    1    3    3    0    0 -0.12460619546E+02  0.40214010056E+02  0.80554077896E+01  0.42864138892E+02  0.10566000000E+00 0.  1.
         23    2    1    0    0    0 -0.42745212346E+01 -0.11013774089E+01 -0.27042413370E+02  0.97689695534E+02  0.93768331160E+02 0.  0.
         13    1    3    3    0    0  0.81860983118E+01 -0.41315387465E+02 -0.35097821159E+02  0.54825556642E+02  0.10566000000E+00 0. -1.
         22    1    1    0    0    0  0.42745212346E+01  0.11013774089E+01  0.27042413370E+02  0.27400304466E+02  0.00000000000E+00 0. -1.
</event>
<event>
 5    1  0.1254921E-009  0.9118800E+02  0.7561462E-02  0.1125453E+00
         25   -1    0    0    0    0  0.00000000000E+00  0.00000000000E+00  0.99999998245E-14  0.12509000000E+03  0.12509000000E+03 0.  0.
        -13    1    3    3    0    0 -0.47378308746E+00 -0.78656455396E+01  0.29654132727E+02  0.30683409230E+02  0.10566000000E+00 0.  1.
         23    2    1    0    0    0 -0.11062232668E+02 -0.27363433336E+01 -0.30788329293E+02  0.92260412931E+02  0.86221818626E+02 0.  0.
         13    1    3    3    0    0 -0.10588449580E+02  0.51293022060E+01 -0.60442462020E+02  0.61577003701E+02  0.10566000000E+00 0. -1.
         22    1    1    0    0    0  0.11062232668E+02  0.27363433336E+01  0.30788329293E+02  0.32829587069E+02  0.00000000000E+00 0. -1.
</event>
<event>
 5    1  0.1254921E-009  0.9118800E+02  0.7561462E-02  0.1125453E+00
         25   -1    0    0    0    0  0.00000000000E+00  0.00000000000E+00  0.99999998245E-14  0.12509000000E+03  0.12509000000E+03 0.  0.
        -13    1    3    3    0    0  0.22785540700E+02 -0.22109345514E+02  0.16902781841E+02  0.35968308579E+02  0.10566000000E+00 0. -1.
         23    2    1    0    0    0 -0.19928389514E+02  0.19392342838E+02  0.77536704868E+01  0.96222664214E+02  0.91790402728E+02 0.  0.
         13    1    3    3    0    0 -0.42713930214E+02  0.41501688352E+02 -0.91491113543E+01  0.60254355635E+02  0.10566000000E+00 0.  1.
         22    1    1    0    0    0  0.19928389514E+02 -0.19392342838E+02 -0.77536704868E+01  0.28867335786E+02  0.00000000000E+00 0.  1.
</event>
<event>
 5    1  0.1254921E-009  0.9118800E+02  0.7561462E-02  0.1125453E+00
         25   -1    0    0    0    0  0.00000000000E+00  0.00000000000E+00  0.99999998245E-14  0.12509000000E+03  0.12509000000E+03 0.  0.
        -13    1    3    3    0    0 -0.27972052113E+02 -0.51789357211E+02  0.38739936246E+01  0.58988068373E+02  0.10566000000E+00 0.  1.
         23    2    1    0    0    0  0.40968827184E+00 -0.29985147492E+02 -0.85661634656E+00  0.95089821564E+02  0.90233383284E+02 0.  0.
         13    1    3    3    0    0  0.28381740385E+02  0.21804209719E+02 -0.47306099712E+01  0.36101753191E+02  0.10566000000E+00 0. -1.
         22    1    1    0    0    0 -0.40968827184E+00  0.29985147492E+02  0.85661634656E+00  0.30000178436E+02  0.00000000000E+00 0.  1.
</event>
<event>
 5    1  0.1254921E-009  0.9118800E+02  0.7561462E-02  0.1125453E+00
         25   -1    0    0    0    0  0.00000000000E+00  0.00000000000E+00  0.99999998245E-14  0.12509000000E+03  0.12509000000E+03 0.  0.
        -13    1    3    3    0    0 -0.51071960572E+01  0.14058702164E+02 -0.28642897009E+02  0.32313422462E+02  0.10566000000E+00 0. -1.
         23    2    1    0    0    0  0.35234843671E+01 -0.16183692636E+02  0.25356304870E+02  0.94803550125E+02  0.89835650330E+02 0.  0.
         13    1    3    3    0    0  0.86306804243E+01 -0.30242394800E+02  0.53999201878E+02  0.62490127663E+02  0.10566000000E+00 0.  1.
         22    1    1    0    0    0 -0.35234843671E+01  0.16183692636E+02 -0.25356304870E+02  0.30286449875E+02  0.00000000000E+00 0.  1.
</event>
<event>
 5    1  0.1254921E-009  0.9118800E+02  0.7561462E-02  0.1125453E+00
         25   -1    0    0    0    0  0.00000000000E+00  0.00000000000E+00  0.99999998245E-14  0.12509000000E+03  0.12509000000E+03 0.  0.
        -13    1    3    3    0    0 -0.51092816155E+01 -0.37081795779E+02  0.12651476716E+02  0.39512470993E+02  0.10566000000E+00 0. -1.
         23    2    1    0    0    0  0.25031860964E+02  0.70678663546E+01 -0.95291878345E+01  0.97388840838E+02  0.93366118592E+02 0.  0.
         13    1    3    3    0    0  0.30141142579E+02  0.44149662134E+02 -0.22180664551E+02  0.57876369845E+02  0.10566000000E+00 0.  1.
         22    1    1    0    0    0 -0.25031860964E+02 -0.70678663546E+01  0.95291878345E+01  0.27701159162E+02  0.00000000000E+00 0.  1.
</event>
<event>
 5    1  0.1254921E-009  0.9118800E+02  0.7561462E-02  0.1125453E+00
         25   -1    0    0    0    0  0.00000000000E+00  0.00000000000E+00  0.99999998245E-14  0.12509000000E+03  0.12509000000E+03 0.  0.
        -13    1    3    3    0    0  0.37975952891E+02  0.45536662878E+02  0.75656721128E+00  0.59298770830E+02  0.10566000000E+00 0.  1.
         23    2    1    0    0    0  0.21066739642E+02  0.17683508909E+02 -0.12999824668E+02  0.94667813230E+02  0.89646446745E+02 0.  0.
         13    1    3    3    0    0 -0.16909213249E+02 -0.27853153969E+02 -0.13756391879E+02  0.35369042400E+02  0.10566000000E+00 0. -1.
         22    1    1    0    0    0 -0.21066739642E+02 -0.17683508909E+02  0.12999824668E+02  0.30422186770E+02  0.00000000000E+00 0.  1.
</event>
<event>
 5    1  0.1254921E-009  0.9118800E+02  0.7561462E-02  0.1125453E+00
         25   -1    0    0    0    0  0.00000000000E+00  0.00000000000E+00  0.99999998245E-14  0.12509000000E+03  0.12509000000E+03 0.  0.
        -13    1    3    3    0    0 -0.64591928571E+01  0.22967635009E+02  0.42152819823E+02  0.48436606130E+02  0.10566000000E+00 0.  1.
         23    2    1    0    0    0  0.13043968845E+02  0.27760858027E+02  0.80179149513E+00  0.94406890131E+02  0.89281620017E+02 0.  0.
         13    1    3    3    0    0  0.19503161702E+02  0.47932230179E+01 -0.41351028328E+02  0.45970284001E+02  0.10566000000E+00 0. -1.
         22    1    1    0    0    0 -0.13043968845E+02 -0.27760858027E+02 -0.80179149513E+00  0.30683109869E+02  0.00000000000E+00 0.  1.
</event>
<event>
 5    1  0.1254921E-009  0.9118800E+02  0.7561462E-02  0.1125453E+00
         25   -1    0    0    0    0  0.00000000000E+00  0.00000000000E+00  0.99999998245E-14  0.12509000000E+03  0.12509000000E+03 0.  0.
        -13    1    3    3    0    0 -0.49313098956E+01  0.11999284769E+02  0.48900627331E+02  0.50592323229E+02  0.10566000000E+00 0.  1.
         23    2    1    0    0    0 -0.23564441973E+02  0.19735445128E+02  0.13118510203E+02  0.91670454374E+02  0.85361620036E+02 0.  0.
         13    1    3    3    0    0 -0.18633132078E+02  0.77361603587E+01 -0.35782117128E+02  0.41078131145E+02  0.10566000000E+00 0. -1.
         22    1    1    0    0    0  0.23564441973E+02 -0.19735445128E+02 -0.13118510203E+02  0.33419545626E+02  0.00000000000E+00 0. -1.
</event>
<event>
 5    1  0.1254921E-009  0.9118800E+02  0.7561462E-02  0.1125453E+00
         25   -1    0    0    0    0  0.00000000000E+00  0.00000000000E+00  0.99999998245E-14  0.12509000000E+03  0.12509000000E+03 0.  0.
        -13    1    3    3    0    0 -0.72921898178E+01 -0.40088451488E+02 -0.28767560312E+02  0.49878288517E+02  0.10566000000E+00 0. -1.
         23    2    1    0    0    0  0.12807038965E+02  0.81125422452E+00 -0.26664223493E+02  0.95498460754E+02  0.90798110175E+02 0.  0.
         13    1    3    3    0    0  0.20099228783E+02  0.40899705713E+02  0.21033368191E+01  0.45620172236E+02  0.10566000000E+00 0.  1.
         22    1    1    0    0    0 -0.12807038965E+02 -0.81125422452E+00  0.26664223493E+02  0.29591539246E+02  0.00000000000E+00 0. -1.
</event>
<event>
 5    1  0.1254921E-009  0.9118800E+02  0.7561462E-02  0.1125453E+00
         25   -1    0    0    0    0  0.00000000000E+00  0.00000000000E+00  0.99999998245E-14  0.12509000000E+03  0.12509000000E+03 0.  0.
        -13    1    3    3    0    0 -0.79399419555E+01  0.35961035050E+02  0.27574541148E+02  0.46006577830E+02  0.10566000000E+00 0. -1.
         23    2    1    0    0    0 -0.27353909883E+02  0.20508485166E+00 -0.39164267477E+01  0.97456381993E+02  0.93456565028E+02 0.  0.
         13    1    3    3    0    0 -0.19413967928E+02 -0.35755950198E+02 -0.31490967896E+02  0.51449804162E+02  0.10566000000E+00 0.  1.
         22    1    1    0    0    0  0.27353909883E+02 -0.20508485166E+00  0.39164267477E+01  0.27633618007E+02  0.00000000000E+00 0.  1.
</event>
<event>
 5    1  0.1254921E-009  0.9118800E+02  0.7561462E-02  0.1125453E+00
         25   -1    0    0    0    0  0.00000000000E+00  0.00000000000E+00  0.99999998245E-14  0.12509000000E+03  0.12509000000E+03 0.  0.
        -13    1    3    3    0    0  0.72049075127E+01 -0.14227531438E+02 -0.59867273867E+02  0.61955104611E+02  0.10566000000E+00 0. -1.
         23    2    1    0    0    0  0.12274637591E+01 -0.16888609534E+01 -0.31298164984E+02  0.93722276940E+02  0.88317218846E+02 0.  0.
         13    1    3    3    0    0 -0.59774437536E+01  0.12538670485E+02  0.28569108882E+02  0.31767172328E+02  0.10566000000E+00 0.  1.
         22    1    1    0    0    0 -0.12274637591E+01  0.16888609534E+01  0.31298164984E+02  0.31367723060E+02  0.00000000000E+00 0. -1.
</event>
<event>
 5    1  0.1254921E-009  0.9118800E+02  0.7561462E-02  0.1125453E+00
         25   -1    0    0    0    0  0.00000000000E+00  0.00000000000E+00  0.99999998245E-14  0.12509000000E+03  0.12509000000E+03 0.  0.
        -13    1    3    3    0    0  0.23750421940E+02 -0.31921166092E+02 -0.83853326260E+01  0.40661632460E+02  0.10566000000E+00 0. -1.
         23    2    1    0    0    0  0.18387007266E+02  0.15958724488E+02  0.17264347214E+02  0.95243381963E+02  0.90446012624E+02 0.  0.
         13    1    3    3    0    0 -0.53634146741E+01  0.47879890580E+02  0.25649679840E+02  0.54581749504E+02  0.10566000000E+00 0.  1.
         22    1    1    0    0    0 -0.18387007266E+02 -0.15958724488E+02 -0.17264347214E+02  0.29846618037E+02  0.00000000000E+00 0.  1.
</event>
<event>
 5    1  0.1254921E-009  0.9118800E+02  0.7561462E-02  0.1125453E+00
         25   -1    0    0    0    0  0.00000000000E+00  0.00000000000E+00  0.99999998245E-14  0.12509000000E+03  0.12509000000E+03 0.  0.
        -13    1    3    3    0    0 -0.88025664333E+00 -0.48742513835E+02  0.89895360081E+01  0.49572476520E+02  0.10566000000E+00 0. -1.
         23    2    1    0    0    0  0.86381802816E+01 -0.74597522887E+01  0.27128567741E+02  0.95658295148E+02  0.91018043158E+02 0.  0.
         13    1    3    3    0    0  0.95184369249E+01  0.41282761546E+02  0.18139031733E+02  0.46085818628E+02  0.10566000000E+00 0.  1.
         22    1    1    0    0    0 -0.86381802816E+01  0.74597522887E+01 -0.27128567741E+02  0.29431704852E+02  0.00000000000E+00 0. -1.
</event>
<event>
 5    1  0.1254921E-009  0.9118800E+02  0.7561462E-02  0.1125453E+00
         25   -1    0    0    0    0  0.00000000000E+00  0.00000000000E+00  0.99999998245E-14  0.12509000000E+03  0.12509000000E+03 0.  0.
        -13    1    3    3    0    0 -0.14446772426E+02  0.35915015163E+02 -0.48481831708E+02  0.62041088945E+02  0.10566000000E+00 0. -1.
         23    2    1    0    0    0 -0.29780338887E+01  0.20712788394E+02 -0.21293313691E+02  0.95235461034E+02  0.90435057038E+02 0.  0.
         13    1    3    3    0    0  0.11468738537E+02 -0.15202226769E+02  0.27188518017E+02  0.33194372089E+02  0.10566000000E+00 0.  1.
         22    1    1    0    0    0  0.29780338887E+01 -0.20712788394E+02  0.21293313691E+02  0.29854538966E+02  0.00000000000E+00 0. -1.
</event>
<event>
 5    1  0.1254921E-009  0.9118800E+02  0.7561462E-02  0.1125453E+00
         25   -1    0    0    0    0  0.00000000000E+00  0.00000000000E+00  0.99999998245E-14  0.12509000000E+03  0.12509000000E+03 0.  0.
        -13    1    3    3    0    0  0.13299774092E+02  0.16858200829E+02  0.25542568665E+02  0.33369400716E+02  0.10566000000E+00 0.  1.
         23    2    1    0    0    0 -0.38567609068E+01 -0.19295139510E+02 -0.22041149142E+02  0.95543608191E+02  0.90860287240E+02 0.  0.
         13    1    3    3    0    0 -0.17156534998E+02 -0.36153340339E+02 -0.47583717807E+02  0.62174207476E+02  0.10566000000E+00 0. -1.
         22    1    1    0    0    0  0.38567609068E+01  0.19295139510E+02  0.22041149142E+02  0.29546391809E+02  0.00000000000E+00 0. -1.
</event>
<event>
 5    1  0.1254921E-009  0.9118800E+02  0.7561462E-02  0.1125453E+00
         25   -1    0    0    0    0  0.00000000000E+00  0.00000000000E+00  0.99999998245E-14  0.12509000000E+03  0.12509000000E+03 0.  0.
        -13    1    3    3    0    0  0.10314231726E+02  0.92958475912E+01  0.29169082654E+02  0.32305459375E+02  0.10566000000E+00 0. -1.
         23    2    1    0    0    0 -0.13037858260E+02 -0.21016612501E+02 -0.19056630229E+02  0.93867589704E+02  0.88522796455E+02 0.  0.
         13    1    3    3    0    0 -0.23352089985E+02 -0.30312460092E+02 -0.48225712883E+02  0.61562130329E+02  0.10566000000E+00 0.  1.
         22    1    1    0    0    0  0.13037858260E+02  0.21016612501E+02  0.19056630229E+02  0.31222410296E+02  0.00000000000E+00 0.  1.
</event>
<event>
 5    1  0.1254921E-009  0.9118800E+02  0.7561462E-02  0.1125453E+00
         25   -1    0    0    0    0  0.00000000000E+00  0.00000000000E+00  0.99999998245E-14  0.12509000000E+03  0.12509000000E+03 0.  0.
        -13    1    3    3    0    0  0.26684882842E+02 -0.40662305200E+02  0.37733476784E+02  0.61557554132E+02  0.10566000000E+00 0.  1.
         23    2    1    0    0    0  0.84387877278E+01 -0.24899242615E+02  0.14386462805E+02  0.95120753544E+02  0.90276253919E+02 0.  0.
         13    1    3    3    0    0 -0.18246095114E+02  0.15763062585E+02 -0.23347013980E+02  0.33563199412E+02  0.10566000000E+00 0. -1.
         22    1    1    0    0    0 -0.84387877278E+01  0.24899242615E+02 -0.14386462805E+02  0.29969246456E+02  0.00000000000E+00 0.  1.
</event>
<event>
 5    1  0.1254921E-009  0.9118800E+02  0.7561462E-02  0.1125453E+00
         25   -1    0    0    0    0  0.00000000000E+00  0.00000000000E+00  0.99999998245E-14  0.12509000000E+03  0.12509000000E+03 0.  0.
        -13    1    3    3    0    0  0.58233563681E+02  0.12909036638E+01 -0.70686463569E+01  0.58675303976E+02  0.10566000000E+00 0. -1.
         23    2    1    0    0    0  0.27694203063E+02  0.29098401332E+01  0.12056430479E+02  0.94745419449E+02  0.89754670842E+02 0.  0.
         13    1    3    3    0    0 -0.30539360618E+02  0.16189364694E+01  0.19125076836E+02  0.36070115474E+02  0.10566000000E+00 0.  1.
         22    1    1    0    0    0 -0.27694203063E+02 -0.29098401332E+01 -0.12056430479E+02  0.30344580551E+02  0.00000000000E+00 0. -1.
</event>
<event>
 5    1  0.1254921E-009  0.9118800E+02  0.7561462E-02  0.1125453E+00
         25   -1    0    0    0    0  0.00000000000E+00  0.00000000000E+00  0.99999998245E-14  0.12509000000E+03  0.12509000000E+03 0.  0.
        -13    1    3    3    0    0  0.15697629792E+02  0.77683154906E+01  0.24947341540E+02  0.30481852316E+02  0.10566000000E+00 0.  1.
         23    2    1    0    0    0 -0.21636851691E+02 -0.14812716331E+02 -0.19229264935E+02  0.92573318956E+02  0.86674591642E+02 0.  0.
         13    1    3    3    0    0 -0.37334481483E+02 -0.22581031821E+02 -0.44176606476E+02  0.62091466640E+02  0.10566000000E+00 0. -1.
         22    1    1    0    0    0  0.21636851691E+02  0.14812716331E+02  0.19229264935E+02  0.32516681044E+02  0.00000000000E+00 0. -1.
</event>
<event>
 5    1  0.1254921E-009  0.9118800E+02  0.7561462E-02  0.1125453E+00
         25   -1    0    0    0    0  0.00000000000E+00  0.00000000000E+00  0.99999998245E-14  0.12509000000E+03  0.12509000000E+03 0.  0.
        -13    1    3    3    0    0 -0.25362481979E+01 -0.26555283195E+02  0.19363779435E+02  0.32963354479E+02  0.10566000000E+00 0. -1.
         23    2    1    0    0    0  0.14714366589E+02  0.19273800093E+02 -0.18275380394E+02  0.94725852018E+02  0.89727395804E+02 0.  0.
         13    1    3    3    0    0  0.17250614787E+02  0.45829083288E+02 -0.37639159830E+02  0.61762497539E+02  0.10566000000E+00 0.  1.
         22    1    1    0    0    0 -0.14714366589E+02 -0.19273800093E+02  0.18275380394E+02  0.30364147982E+02  0.00000000000E+00 0.  1.
</event>
<event>
 5    1  0.1254921E-009  0.9118800E+02  0.7561462E-02  0.1125453E+00
         25   -1    0    0    0    0  0.00000000000E+00  0.00000000000E+00  0.99999998245E-14  0.12509000000E+03  0.12509000000E+03 0.  0.
        -13    1    3    3    0    0 -0.33851602418E+02  0.29962099451E+02 -0.33302667822E+01  0.45329463163E+02  0.10566000000E+00 0.  1.
         23    2    1    0    0    0  0.15491712011E+02  0.25813046395E+02  0.34351635651E+00  0.94983115261E+02  0.90085335521E+02 0.  0.
         13    1    3    3    0    0  0.49343314428E+02 -0.41490530562E+01  0.36737831387E+01  0.49653652098E+02  0.10566000000E+00 0. -1.
         22    1    1    0    0    0 -0.15491712011E+02 -0.25813046395E+02 -0.34351635651E+00  0.30106884739E+02  0.00000000000E+00 0. -1.
</event>
<event>
 5    1  0.1254921E-009  0.9118800E+02  0.7561462E-02  0.1125453E+00
         25   -1    0    0    0    0  0.00000000000E+00  0.00000000000E+00  0.99999998245E-14  0.12509000000E+03  0.12509000000E+03 0.  0.
        -13    1    3    3    0    0  0.20834726978E+02 -0.49313889335E+01 -0.51786616375E+02  0.56038105291E+02  0.10566000000E+00 0.  1.
         23    2    1    0    0    0  0.23283244393E+02  0.10811989549E+02 -0.16999164901E+02  0.94300712987E+02  0.89132734026E+02 0.  0.
         13    1    3    3    0    0  0.24485174146E+01  0.15743378482E+02  0.34787451474E+02  0.38262607695E+02  0.10566000000E+00 0. -1.
         22    1    1    0    0    0 -0.23283244393E+02 -0.10811989549E+02  0.16999164901E+02  0.30789287013E+02  0.00000000000E+00 0.  1.
</event>
<event>
 5    1  0.1254921E-009  0.9118800E+02  0.7561462E-02  0.1125453E+00
         25   -1    0    0    0    0  0.00000000000E+00  0.00000000000E+00  0.99999998245E-14  0.12509000000E+03  0.12509000000E+03 0.  0.
        -13    1    3    3    0    0  0.35837570185E+02  0.16002725447E+02 -0.42769979499E+02  0.58049125479E+02  0.10566000000E+00 0. -1.
         23    2    1    0    0    0  0.27082605469E+02 -0.47529307866E+01 -0.15131700950E+02  0.93704872253E+02  0.88292563901E+02 0.  0.
         13    1    3    3    0    0 -0.87549647158E+01 -0.20755656234E+02  0.27638278548E+02  0.35655746774E+02  0.10566000000E+00 0.  1.
         22    1    1    0    0    0 -0.27082605469E+02  0.47529307866E+01  0.15131700950E+02  0.31385127747E+02  0.00000000000E+00 0. -1.
</event>
<event>
 5    1  0.1254921E-009  0.9118800E+02  0.7561462E-02  0.1125453E+00
         25   -1    0    0    0    0  0.00000000000E+00  0.00000000000E+00  0.99999998245E-14  0.12509000000E+03  0.12509000000E+03 0.  0.
        -13    1    3    3    0    0  0.35780842341E+02 -0.28614855222E+02 -0.61985570643E+01  0.46233233628E+02  0.10566000000E+00 0.  1.
         23    2    1    0    0    0 -0.76968101718E+01 -0.33519842361E+02 -0.69932755477E+01  0.89994036961E+02  0.82868571045E+02 0.  0.
         13    1    3    3    0    0 -0.43477652513E+02 -0.49049871387E+01 -0.79471848340E+00  0.43760803333E+02  0.10566000000E+00 0. -1.
         22    1    1    0    0    0  0.76968101718E+01  0.33519842361E+02  0.69932755477E+01  0.35095963039E+02  0.00000000000E+00 0.  1.
</event>
<event>
 5    1  0.1254921E-009  0.9118800E+02  0.7561462E-02  0.1125453E+00
         25   -1    0    0    0    0  0.00000000000E+00  0.00000000000E+00  0.99999998245E-14  0.12509000000E+03  0.12509000000E+03 0.  0.
        -13    1    3    3    0    0  0.25307354482E+02 -0.10737195536E+02  0.33447319442E+02  0.43295310379E+02  0.10566000000E+00 0.  1.
         23    2    1    0    0    0  0.10959984213E+02 -0.15159728765E+02 -0.19344150542E+02  0.98180247300E+02  0.94420475372E+02 0.  0.
         13    1    3    3    0    0 -0.14347370269E+02 -0.44225332287E+01 -0.52791469984E+02  0.54884936922E+02  0.10566000000E+00 0. -1.
         22    1    1    0    0    0 -0.10959984213E+02  0.15159728765E+02  0.19344150542E+02  0.26909752700E+02  0.00000000000E+00 0. -1.
</event>
<event>
 5    1  0.1254921E-009  0.9118800E+02  0.7561462E-02  0.1125453E+00
         25   -1    0    0    0    0  0.00000000000E+00  0.00000000000E+00  0.99999998245E-14  0.12509000000E+03  0.12509000000E+03 0.  0.
        -13    1    3    3    0    0 -0.26002856477E+02  0.47832702278E+02  0.86022153112E+01  0.55119191073E+02  0.10566000000E+00 0. -1.
         23    2    1    0    0    0 -0.53145741582E+01  0.15371739117E+02  0.23597711844E+02  0.96430148880E+02  0.92072724229E+02 0.  0.
         13    1    3    3    0    0  0.20688282319E+02 -0.32460963162E+02  0.14995496532E+02  0.41310957808E+02  0.10566000000E+00 0.  1.
         22    1    1    0    0    0  0.53145741582E+01 -0.15371739117E+02 -0.23597711844E+02  0.28659851120E+02  0.00000000000E+00 0. -1.
</event>
<event>
 5    1  0.1254921E-009  0.9118800E+02  0.7561462E-02  0.1125453E+00
         25   -1    0    0    0    0  0.00000000000E+00  0.00000000000E+00  0.99999998245E-14  0.12509000000E+03  0.12509000000E+03 0.  0.
        -13    1    3    3    0    0 -0.44371453258E+02  0.17730746917E+02  0.16791598416E+02  0.50647548725E+02  0.10566000000E+00 0. -1.
         23    2    1    0    0    0 -0.21202773301E+02 -0.19255449179E+02  0.37121693014E+01  0.96209035341E+02  0.91771827712E+02 0.  0.
         13    1    3    3    0    0  0.23168679957E+02 -0.36986196096E+02 -0.13079429114E+02  0.45561486615E+02  0.10566000000E+00 0.  1.
         22    1    1    0    0    0  0.21202773301E+02  0.19255449179E+02 -0.37121693014E+01  0.28880964659E+02  0.00000000000E+00 0. -1.
</event>
<event>
 5    1  0.1254921E-009  0.9118800E+02  0.7561462E-02  0.1125453E+00
         25   -1    0    0    0    0  0.00000000000E+00  0.00000000000E+00  0.99999998245E-14  0.12509000000E+03  0.12509000000E+03 0.  0.
        -13    1    3    3    0    0 -0.23923088015E+01 -0.39726690039E+02 -0.11443099699E+02  0.41411215119E+02  0.10566000000E+00 0.  1.
         23    2    1    0    0    0 -0.26657406259E+01  0.12478682162E+02 -0.26442693774E+02  0.95729486796E+02  0.91115832360E+02 0.  0.
         13    1    3    3    0    0 -0.27343182442E+00  0.52205372201E+02 -0.14999594075E+02  0.54318271678E+02  0.10566000000E+00 0. -1.
         22    1    1    0    0    0  0.26657406259E+01 -0.12478682162E+02  0.26442693774E+02  0.29360513204E+02  0.00000000000E+00 0. -1.
</event>
<event>
 5    1  0.1254921E-009  0.9118800E+02  0.7561462E-02  0.1125453E+00
         25   -1    0    0    0    0  0.00000000000E+00  0.00000000000E+00  0.99999998245E-14  0.12509000000E+03  0.12509000000E+03 0.  0.
        -13    1    3    3    0    0  0.25742546546E+02 -0.35016329154E+01 -0.29841960878E+02  0.39566323165E+02  0.10566000000E+00 0. -1.
         23    2    1    0    0    0 -0.25341070979E+02 -0.12332475741E+02 -0.12798090659E+02  0.94137601696E+02  0.88903526883E+02 0.  0.
         13    1    3    3    0    0 -0.51083617525E+02 -0.88308428254E+01  0.17043870219E+02  0.54571278531E+02  0.10566000000E+00 0.  1.
         22    1    1    0    0    0  0.25341070979E+02  0.12332475741E+02  0.12798090659E+02  0.30952398304E+02  0.00000000000E+00 0.  1.
</event>
<event>
 5    1  0.1254921E-009  0.9118800E+02  0.7561462E-02  0.1125453E+00
         25   -1    0    0    0    0  0.00000000000E+00  0.00000000000E+00  0.99999998245E-14  0.12509000000E+03  0.12509000000E+03 0.  0.
        -13    1    3    3    0    0  0.20536370319E+01 -0.21453322585E+02  0.55530374217E+02  0.59565897120E+02  0.10566000000E+00 0. -1.
         23    2    1    0    0    0 -0.12647942181E+02 -0.10687889929E+02  0.26199673023E+02  0.94096060285E+02  0.88845057613E+02 0.  0.
         13    1    3    3    0    0 -0.14701579213E+02  0.10765432656E+02 -0.29330701195E+02  0.34530163165E+02  0.10566000000E+00 0.  1.
         22    1    1    0    0    0  0.12647942181E+02  0.10687889929E+02 -0.26199673023E+02  0.30993939715E+02  0.00000000000E+00 0. -1.
</event>
<event>
 5    1  0.1254921E-009  0.9118800E+02  0.7561462E-02  0.1125453E+00
         25   -1    0    0    0    0  0.00000000000E+00  0.00000000000E+00  0.99999998245E-14  0.12509000000E+03  0.12509000000E+03 0.  0.
        -13    1    3    3    0    0  0.19715789183E+02  0.45012131496E+02 -0.57969667877E+01  0.49481514861E+02  0.10566000000E+00 0.  1.
         23    2    1    0    0    0 -0.97940269453E+01  0.20207029131E+02  0.19299027311E+02  0.95480889151E+02  0.90773899045E+02 0.  0.
         13    1    3    3    0    0 -0.29509816128E+02 -0.24805102365E+02  0.25095994099E+02  0.45999374290E+02  0.10566000000E+00 0. -1.
         22    1    1    0    0    0  0.97940269453E+01 -0.20207029131E+02 -0.19299027311E+02  0.29609110849E+02  0.00000000000E+00 0.  1.
</event>
<event>
 5    1  0.1254921E-009  0.9118800E+02  0.7561462E-02  0.1125453E+00
         25   -1    0    0    0    0  0.00000000000E+00  0.00000000000E+00  0.99999998245E-14  0.12509000000E+03  0.12509000000E+03 0.  0.
        -13    1    3    3    0    0  0.96452541365E+01 -0.26254458489E+02 -0.43494044955E+02  0.51711416810E+02  0.10566000000E+00 0.  1.
         23    2    1    0    0    0 -0.15809612151E+02  0.57675848203E+01 -0.20246386631E+02  0.98762731956E+02  0.95189033931E+02 0.  0.
         13    1    3    3    0    0 -0.25454866288E+02  0.32022043309E+02  0.23247658324E+02  0.47051315146E+02  0.10566000000E+00 0. -1.
         22    1    1    0    0    0  0.15809612151E+02 -0.57675848203E+01  0.20246386631E+02  0.26327268044E+02  0.00000000000E+00 0.  1.
</event>
<event>
 5    1  0.1254921E-009  0.9118800E+02  0.7561462E-02  0.1125453E+00
         25   -1    0    0    0    0  0.00000000000E+00  0.00000000000E+00  0.99999998245E-14  0.12509000000E+03  0.12509000000E+03 0.  0.
        -13    1    3    3    0    0 -0.39341693961E+02 -0.35169374105E+02 -0.33493163187E+02  0.62501655202E+02  0.10566000000E+00 0.  1.
         23    2    1    0    0    0 -0.28782682730E+02 -0.26800988078E+02 -0.26334689779E+02  0.77758703030E+02  0.61694118229E+02 0.  0.
         13    1    3    3    0    0  0.10559011231E+02  0.83683860271E+01  0.71584734080E+01  0.15257047828E+02  0.10566000000E+00 0. -1.
         22    1    1    0    0    0  0.28782682730E+02  0.26800988078E+02  0.26334689779E+02  0.47331296970E+02  0.00000000000E+00 0.  1.
</event>
<event>
 5    1  0.1254921E-009  0.9118800E+02  0.7561462E-02  0.1125453E+00
         25   -1    0    0    0    0  0.00000000000E+00  0.00000000000E+00  0.99999998245E-14  0.12509000000E+03  0.12509000000E+03 0.  0.
        -13    1    3    3    0    0 -0.18182183427E+02  0.58020145297E+02  0.76649209055E+01  0.61283694659E+02  0.10566000000E+00 0.  1.
         23    2    1    0    0    0 -0.97274205042E+01  0.24619250878E+02  0.12029510398E+02  0.96013560330E+02  0.91504996712E+02 0.  0.
         13    1    3    3    0    0  0.84547629224E+01 -0.33400894419E+02  0.43645894927E+01  0.34729865671E+02  0.10566000000E+00 0. -1.
         22    1    1    0    0    0  0.97274205042E+01 -0.24619250878E+02 -0.12029510398E+02  0.29076439670E+02  0.00000000000E+00 0.  1.
</event>
<event>
 5    1  0.1254921E-009  0.9118800E+02  0.7561462E-02  0.1125453E+00
         25   -1    0    0    0    0  0.00000000000E+00  0.00000000000E+00  0.99999998245E-14  0.12509000000E+03  0.12509000000E+03 0.  0.
        -13    1    3    3    0    0  0.20873455488E+02  0.51180122705E+02 -0.27314323313E+02  0.61653787606E+02  0.10566000000E+00 0.  1.
         23    2    1    0    0    0  0.15268363595E+02  0.23338923726E+02 -0.77389884900E+01  0.96146602991E+02  0.91686689527E+02 0.  0.
         13    1    3    3    0    0 -0.56050918933E+01 -0.27841198979E+02  0.19575334823E+02  0.34492815385E+02  0.10566000000E+00 0. -1.
         22    1    1    0    0    0 -0.15268363595E+02 -0.23338923726E+02  0.77389884900E+01  0.28943397009E+02  0.00000000000E+00 0.  1.
</event>
<event>
 5    1  0.1254921E-009  0.9118800E+02  0.7561462E-02  0.1125453E+00
         25   -1    0    0    0    0  0.00000000000E+00  0.00000000000E+00  0.99999998245E-14  0.12509000000E+03  0.12509000000E+03 0.  0.
        -13    1    3    3    0    0 -0.11876283571E+02  0.18526415470E+02 -0.37389412027E+02  0.43384945285E+02  0.10566000000E+00 0. -1.
         23    2    1    0    0    0 -0.13386635996E+02 -0.24753210970E+02 -0.76225233172E+01  0.95934788831E+02  0.91397250340E+02 0.  0.
         13    1    3    3    0    0 -0.15103524256E+01 -0.43279626440E+02  0.29766888709E+02  0.52549843546E+02  0.10566000000E+00 0.  1.
         22    1    1    0    0    0  0.13386635996E+02  0.24753210970E+02  0.76225233172E+01  0.29155211169E+02  0.00000000000E+00 0.  1.
</event>
<event>
 5    1  0.1254921E-009  0.9118800E+02  0.7561462E-02  0.1125453E+00
         25   -1    0    0    0    0  0.00000000000E+00  0.00000000000E+00  0.99999998245E-14  0.12509000000E+03  0.12509000000E+03 0.  0.
        -13    1    3    3    0    0  0.74311375462E+00 -0.99936954389E+01  0.50483633216E+02  0.51468772603E+02  0.10566000000E+00 0.  1.
         23    2    1    0    0    0 -0.23595558293E+02  0.47829843725E+01  0.16026298927E+02  0.96168216377E+02  0.91716172364E+02 0.  0.
         13    1    3    3    0    0 -0.24338672048E+02  0.14776679811E+02 -0.34457334289E+02  0.44699443773E+02  0.10566000000E+00 0. -1.
         22    1    1    0    0    0  0.23595558293E+02 -0.47829843725E+01 -0.16026298927E+02  0.28921783623E+02  0.00000000000E+00 0.  1.
</event>
<event>
 5    1  0.1254921E-009  0.9118800E+02  0.7561462E-02  0.1125453E+00
         25   -1    0    0    0    0  0.00000000000E+00  0.00000000000E+00  0.99999998245E-14  0.12509000000E+03  0.12509000000E+03 0.  0.
        -13    1    3    3    0    0 -0.43336357083E+02 -0.31214147622E+02 -0.18107058387E+01  0.53438307202E+02  0.10566000000E+00 0.  1.
         23    2    1    0    0    0 -0.25945354221E+02  0.44995898859E+01  0.12861163601E+02  0.95784416164E+02  0.91191211945E+02 0.  0.
         13    1    3    3    0    0  0.17391002863E+02  0.35713737508E+02  0.14671869439E+02  0.42346108962E+02  0.10566000000E+00 0. -1.
         22    1    1    0    0    0  0.25945354221E+02 -0.44995898859E+01 -0.12861163601E+02  0.29305583836E+02  0.00000000000E+00 0. -1.
</event>
<event>
 5    1  0.1254921E-009  0.9118800E+02  0.7561462E-02  0.1125453E+00
         25   -1    0    0    0    0  0.00000000000E+00  0.00000000000E+00  0.99999998245E-14  0.12509000000E+03  0.12509000000E+03 0.  0.
        -13    1    3    3    0    0 -0.11455228069E+02  0.39250096140E+02  0.13362923865E+02  0.43015941177E+02  0.10566000000E+00 0.  1.
         23    2    1    0    0    0  0.18897269233E+02 -0.12867725227E+01  0.23750634330E+02  0.94711468122E+02  0.89707340807E+02 0.  0.
         13    1    3    3    0    0  0.30352497302E+02 -0.40536868662E+02  0.10387710465E+02  0.51695526945E+02  0.10566000000E+00 0. -1.
         22    1    1    0    0    0 -0.18897269233E+02  0.12867725227E+01 -0.23750634330E+02  0.30378531878E+02  0.00000000000E+00 0.  1.
</event>
<event>
 5    1  0.1254921E-009  0.9118800E+02  0.7561462E-02  0.1125453E+00
         25   -1    0    0    0    0  0.00000000000E+00  0.00000000000E+00  0.99999998245E-14  0.12509000000E+03  0.12509000000E+03 0.  0.
        -13    1    3    3    0    0  0.53703134633E+02  0.22027092751E+02  0.17649405858E+02  0.60669038031E+02  0.10566000000E+00 0.  1.
         23    2    1    0    0    0  0.20497015373E+02  0.89772477707E+01  0.18035790752E+02  0.96349638750E+02  0.91963278119E+02 0.  0.
         13    1    3    3    0    0 -0.33206119260E+02 -0.13049844981E+02  0.38638489395E+00  0.35680600719E+02  0.10566000000E+00 0. -1.
         22    1    1    0    0    0 -0.20497015373E+02 -0.89772477707E+01 -0.18035790752E+02  0.28740361250E+02  0.00000000000E+00 0.  1.
</event>
<event>
 5    1  0.1254921E-009  0.9118800E+02  0.7561462E-02  0.1125453E+00
         25   -1    0    0    0    0  0.00000000000E+00  0.00000000000E+00  0.99999998245E-14  0.12509000000E+03  0.12509000000E+03 0.  0.
        -13    1    3    3    0    0 -0.15583047055E+02 -0.34989839921E+02  0.29465766514E+01  0.38416321157E+02  0.10566000000E+00 0.  1.
         23    2    1    0    0    0  0.21384635956E+02  0.11249760376E+02 -0.98704176039E+01  0.98988565036E+02  0.95485344953E+02 0.  0.
         13    1    3    3    0    0  0.36967683011E+02  0.46239600297E+02 -0.12816994255E+02  0.60572243880E+02  0.10566000000E+00 0. -1.
         22    1    1    0    0    0 -0.21384635956E+02 -0.11249760376E+02  0.98704176039E+01  0.26101434964E+02  0.00000000000E+00 0. -1.
</event>
<event>
 5    1  0.1254921E-009  0.9118800E+02  0.7561462E-02  0.1125453E+00
         25   -1    0    0    0    0  0.00000000000E+00  0.00000000000E+00  0.99999998245E-14  0.12509000000E+03  0.12509000000E+03 0.  0.
        -13    1    3    3    0    0  0.24082964982E+02 -0.28837044369E+02 -0.39251832250E+01  0.37775422666E+02  0.10566000000E+00 0.  1.
         23    2    1    0    0    0  0.35881660960E+01  0.20389818897E+02  0.20076385934E+02  0.96251121333E+02  0.91829175293E+02 0.  0.
         13    1    3    3    0    0 -0.20494798886E+02  0.49226863266E+02  0.24001569159E+02  0.58475698666E+02  0.10566000000E+00 0. -1.
         22    1    1    0    0    0 -0.35881660960E+01 -0.20389818897E+02 -0.20076385934E+02  0.28838878667E+02  0.00000000000E+00 0.  1.
</event>
<event>
 5    1  0.1254921E-009  0.9118800E+02  0.7561462E-02  0.1125453E+00
         25   -1    0    0    0    0  0.00000000000E+00  0.00000000000E+00  0.99999998245E-14  0.12509000000E+03  0.12509000000E+03 0.  0.
        -13    1    3    3    0    0  0.10571867653E+02  0.10241392627E+02 -0.34242741599E+02  0.37272335919E+02  0.10566000000E+00 0.  1.
         23    2    1    0    0    0 -0.23089889930E+02  0.12114704548E+02  0.13506680722E+02  0.95724382224E+02  0.91108824187E+02 0.  0.
         13    1    3    3    0    0 -0.33661757583E+02  0.18733119205E+01  0.47749422321E+02  0.58452046304E+02  0.10566000000E+00 0. -1.
         22    1    1    0    0    0  0.23089889930E+02 -0.12114704548E+02 -0.13506680722E+02  0.29365617776E+02  0.00000000000E+00 0. -1.
</event>
<event>
 5    1  0.1254921E-009  0.9118800E+02  0.7561462E-02  0.1125453E+00
         25   -1    0    0    0    0  0.00000000000E+00  0.00000000000E+00  0.99999998245E-14  0.12509000000E+03  0.12509000000E+03 0.  0.
        -13    1    3    3    0    0  0.31639234481E+02 -0.43208009942E+02  0.33982912652E+01  0.53661278677E+02  0.10566000000E+00 0.  1.
         23    2    1    0    0    0  0.19612987070E+02 -0.83287426086E+01  0.21554298744E+02  0.94781172745E+02  0.89804485953E+02 0.  0.
         13    1    3    3    0    0 -0.12026247411E+02  0.34879267333E+02  0.18156007479E+02  0.41119894068E+02  0.10566000000E+00 0. -1.
         22    1    1    0    0    0 -0.19612987070E+02  0.83287426086E+01 -0.21554298744E+02  0.30308827255E+02  0.00000000000E+00 0. -1.
</event>
<event>
 5    1  0.1254921E-009  0.9118800E+02  0.7561462E-02  0.1125453E+00
         25   -1    0    0    0    0  0.00000000000E+00  0.00000000000E+00  0.99999998245E-14  0.12509000000E+03  0.12509000000E+03 0.  0.
        -13    1    3    3    0    0 -0.41815155335E+02  0.23911952304E+02 -0.15107030341E+02  0.50482890255E+02  0.10566000000E+00 0. -1.
         23    2    1    0    0    0 -0.23719553080E+02 -0.22854245148E+01  0.17091100802E+02  0.95765162572E+02  0.91164797331E+02 0.  0.
         13    1    3    3    0    0  0.18095602255E+02 -0.26197376819E+02  0.32198131142E+02  0.45282272318E+02  0.10566000000E+00 0.  1.
         22    1    1    0    0    0  0.23719553080E+02  0.22854245148E+01 -0.17091100802E+02  0.29324837428E+02  0.00000000000E+00 0. -1.
</event>
<event>
 5    1  0.1254921E-009  0.9118800E+02  0.7561462E-02  0.1125453E+00
         25   -1    0    0    0    0  0.00000000000E+00  0.00000000000E+00  0.99999998245E-14  0.12509000000E+03  0.12509000000E+03 0.  0.
        -13    1    3    3    0    0 -0.22421570357E+02 -0.18398092385E+02  0.27936275208E+02  0.40269880273E+02  0.10566000000E+00 0. -1.
         23    2    1    0    0    0 -0.17799306481E+02  0.22200847551E+02 -0.88911665006E+01  0.95278160324E+02  0.90494099530E+02 0.  0.
         13    1    3    3    0    0  0.46222638761E+01  0.40598939936E+02 -0.36827441709E+02  0.55008280050E+02  0.10566000000E+00 0.  1.
         22    1    1    0    0    0  0.17799306481E+02 -0.22200847551E+02  0.88911665006E+01  0.29811839676E+02  0.00000000000E+00 0.  1.
</event>
<event>
 5    1  0.1254921E-009  0.9118800E+02  0.7561462E-02  0.1125453E+00
         25   -1    0    0    0    0  0.00000000000E+00  0.00000000000E+00  0.99999998245E-14  0.12509000000E+03  0.12509000000E+03 0.  0.
        -13    1    3    3    0    0 -0.36313623557E+02  0.10999469162E+02 -0.23802253110E+01  0.38017682915E+02  0.10566000000E+00 0.  1.
         23    2    1    0    0    0  0.60954954322E+01 -0.12673663141E+02 -0.28605203301E+02  0.93214704584E+02  0.87595357713E+02 0.  0.
         13    1    3    3    0    0  0.42409118989E+02 -0.23673132303E+02 -0.26224977990E+02  0.55197021669E+02  0.10566000000E+00 0. -1.
         22    1    1    0    0    0 -0.60954954322E+01  0.12673663141E+02  0.28605203301E+02  0.31875295416E+02  0.00000000000E+00 0.  1.
</event>
<event>
 5    1  0.1254921E-009  0.9118800E+02  0.7561462E-02  0.1125453E+00
         25   -1    0    0    0    0  0.00000000000E+00  0.00000000000E+00  0.99999998245E-14  0.12509000000E+03  0.12509000000E+03 0.  0.
        -13    1    3    3    0    0  0.44350926371E+02 -0.34667217177E+02 -0.21868172199E+02  0.60390800095E+02  0.10566000000E+00 0. -1.
         23    2    1    0    0    0  0.17726785364E+02 -0.11009315823E+02 -0.20200952166E+02  0.96046542516E+02  0.91550073220E+02 0.  0.
         13    1    3    3    0    0 -0.26624141007E+02  0.23657901354E+02  0.16672200327E+01  0.35655742420E+02  0.10566000000E+00 0.  1.
         22    1    1    0    0    0 -0.17726785364E+02  0.11009315823E+02  0.20200952166E+02  0.29043457484E+02  0.00000000000E+00 0. -1.
</event>
<event>
 5    1  0.1254921E-009  0.9118800E+02  0.7561462E-02  0.1125453E+00
         25   -1    0    0    0    0  0.00000000000E+00  0.00000000000E+00  0.99999998245E-14  0.12509000000E+03  0.12509000000E+03 0.  0.
        -13    1    3    3    0    0 -0.80330554427E+01 -0.41831674279E+02 -0.10419244752E+02  0.43851918749E+02  0.10566000000E+00 0.  1.
         23    2    1    0    0    0  0.19691345419E+02  0.66845733479E+01 -0.14279551856E+02  0.99864255086E+02  0.96625727616E+02 0.  0.
         13    1    3    3    0    0  0.27724400862E+02  0.48516247627E+02 -0.38603071046E+01  0.56012336337E+02  0.10566000000E+00 0. -1.
         22    1    1    0    0    0 -0.19691345419E+02 -0.66845733479E+01  0.14279551856E+02  0.25225744914E+02  0.00000000000E+00 0. -1.
</event>
<event>
 5    1  0.1254921E-009  0.9118800E+02  0.7561462E-02  0.1125453E+00
         25   -1    0    0    0    0  0.00000000000E+00  0.00000000000E+00  0.99999998245E-14  0.12509000000E+03  0.12509000000E+03 0.  0.
        -13    1    3    3    0    0  0.38076709106E+02  0.11017749074E+02 -0.94328020124E+01  0.40745741972E+02  0.10566000000E+00 0. -1.
         23    2    1    0    0    0 -0.24049101780E+01 -0.25448871429E+02 -0.14896836948E+02  0.95503780218E+02  0.90805438355E+02 0.  0.
         13    1    3    3    0    0 -0.40481619284E+02 -0.36466620503E+02 -0.54640349355E+01  0.54758038246E+02  0.10566000000E+00 0.  1.
         22    1    1    0    0    0  0.24049101780E+01  0.25448871429E+02  0.14896836948E+02  0.29586219782E+02  0.00000000000E+00 0.  1.
</event>
<event>
 5    1  0.1254921E-009  0.9118800E+02  0.7561462E-02  0.1125453E+00
         25   -1    0    0    0    0  0.00000000000E+00  0.00000000000E+00  0.99999998245E-14  0.12509000000E+03  0.12509000000E+03 0.  0.
        -13    1    3    3    0    0  0.22360067431E+02  0.22048516606E+02 -0.50109882088E+02  0.59136462077E+02  0.10566000000E+00 0.  1.
         23    2    1    0    0    0  0.22786981282E+02  0.56306323450E+01 -0.16960822618E+02  0.96131062857E+02  0.91665485356E+02 0.  0.
         13    1    3    3    0    0  0.42691385156E+00 -0.16417884262E+02  0.33149059470E+02  0.36994600780E+02  0.10566000000E+00 0. -1.
         22    1    1    0    0    0 -0.22786981282E+02 -0.56306323450E+01  0.16960822618E+02  0.28958937143E+02  0.00000000000E+00 0.  1.
</event>
<event>
 5    1  0.1254921E-009  0.9118800E+02  0.7561462E-02  0.1125453E+00
         25   -1    0    0    0    0  0.00000000000E+00  0.00000000000E+00  0.99999998245E-14  0.12509000000E+03  0.12509000000E+03 0.  0.
        -13    1    3    3    0    0 -0.20222046659E+02 -0.51129685545E+02  0.13358056587E+02  0.56582901612E+02  0.10566000000E+00 0. -1.
         23    2    1    0    0    0  0.88465723238E+01 -0.26210675517E+02  0.12112969188E+02  0.94890904393E+02  0.89957202941E+02 0.  0.
         13    1    3    3    0    0  0.29068618983E+02  0.24919010028E+02 -0.12450873987E+01  0.38308002780E+02  0.10566000000E+00 0.  1.
         22    1    1    0    0    0 -0.88465723238E+01  0.26210675517E+02 -0.12112969188E+02  0.30199095607E+02  0.00000000000E+00 0. -1.
</event>
<event>
 5    1  0.1254921E-009  0.9118800E+02  0.7561462E-02  0.1125453E+00
         25   -1    0    0    0    0  0.00000000000E+00  0.00000000000E+00  0.99999998245E-14  0.12509000000E+03  0.12509000000E+03 0.  0.
        -13    1    3    3    0    0  0.42972570950E+02 -0.25052024490E+02  0.11951466862E+02  0.51157545966E+02  0.10566000000E+00 0.  1.
         23    2    1    0    0    0  0.26364196477E+02  0.13538940747E+02 -0.18907979936E+01  0.95392375692E+02  0.90651841960E+02 0.  0.
         13    1    3    3    0    0 -0.16608374473E+02  0.38590965237E+02 -0.13842264855E+02  0.44234829726E+02  0.10566000000E+00 0. -1.
         22    1    1    0    0    0 -0.26364196477E+02 -0.13538940747E+02  0.18907979936E+01  0.29697624308E+02  0.00000000000E+00 0.  1.
</event>
<event>
 5    1  0.1254921E-009  0.9118800E+02  0.7561462E-02  0.1125453E+00
         25   -1    0    0    0    0  0.00000000000E+00  0.00000000000E+00  0.99999998245E-14  0.12509000000E+03  0.12509000000E+03 0.  0.
        -13    1    3    3    0    0 -0.44213772928E+02 -0.13250541767E+02 -0.35783142821E+02  0.58402731510E+02  0.10566000000E+00 0.  1.
         23    2    1    0    0    0 -0.19895445557E+02  0.10309999372E+02 -0.13776737126E+02  0.98785564503E+02  0.95219033955E+02 0.  0.
         13    1    3    3    0    0  0.24318327371E+02  0.23560541140E+02  0.22006405694E+02  0.40382832993E+02  0.10566000000E+00 0. -1.
         22    1    1    0    0    0  0.19895445557E+02 -0.10309999372E+02  0.13776737126E+02  0.26304435497E+02  0.00000000000E+00 0.  1.
</event>
<event>
 5    1  0.1254921E-009  0.9118800E+02  0.7561462E-02  0.1125453E+00
         25   -1    0    0    0    0  0.00000000000E+00  0.00000000000E+00  0.99999998245E-14  0.12509000000E+03  0.12509000000E+03 0.  0.
        -13    1    3    3    0    0  0.47715355950E+01 -0.51386594448E+02 -0.86617835585E+01  0.52329602515E+02  0.10566000000E+00 0.  1.
         23    2    1    0    0    0  0.18881427408E+02 -0.10528988545E+02 -0.18472054234E+02  0.96654376421E+02  0.92376857453E+02 0.  0.
         13    1    3    3    0    0  0.14109891813E+02  0.40857605903E+02 -0.98102706751E+01  0.44324773906E+02  0.10566000000E+00 0. -1.
         22    1    1    0    0    0 -0.18881427408E+02  0.10528988545E+02  0.18472054234E+02  0.28435623579E+02  0.00000000000E+00 0.  1.
</event>
<event>
 5    1  0.1254921E-009  0.9118800E+02  0.7561462E-02  0.1125453E+00
         25   -1    0    0    0    0  0.00000000000E+00  0.00000000000E+00  0.99999998245E-14  0.12509000000E+03  0.12509000000E+03 0.  0.
        -13    1    3    3    0    0 -0.18288088491E+02 -0.27094365716E+01 -0.31918717495E+02  0.36886459816E+02  0.10566000000E+00 0.  1.
         23    2    1    0    0    0 -0.10790659103E+02 -0.13336954228E+02  0.24720504767E+02  0.94999868264E+02  0.90108595274E+02 0.  0.
         13    1    3    3    0    0  0.74974293881E+01 -0.10627517656E+02  0.56639222262E+02  0.58113408448E+02  0.10566000000E+00 0. -1.
         22    1    1    0    0    0  0.10790659103E+02  0.13336954228E+02 -0.24720504767E+02  0.30090131736E+02  0.00000000000E+00 0. -1.
</event>
<event>
 5    1  0.1254921E-009  0.9118800E+02  0.7561462E-02  0.1125453E+00
         25   -1    0    0    0    0  0.00000000000E+00  0.00000000000E+00  0.99999998245E-14  0.12509000000E+03  0.12509000000E+03 0.  0.
        -13    1    3    3    0    0  0.43465118232E+02  0.42248589274E+02  0.13506497930E+02  0.62101501181E+02  0.10566000000E+00 0. -1.
         23    2    1    0    0    0  0.16948756015E+02  0.23334725793E+02  0.82410577359E+01  0.95095253945E+02  0.90240913847E+02 0.  0.
         13    1    3    3    0    0 -0.26516362217E+02 -0.18913863481E+02 -0.52654401943E+01  0.32993752764E+02  0.10566000000E+00 0.  1.
         22    1    1    0    0    0 -0.16948756015E+02 -0.23334725793E+02 -0.82410577359E+01  0.29994746055E+02  0.00000000000E+00 0. -1.
</event>
<event>
 5    1  0.1254921E-009  0.9118800E+02  0.7561462E-02  0.1125453E+00
         25   -1    0    0    0    0  0.00000000000E+00  0.00000000000E+00  0.99999998245E-14  0.12509000000E+03  0.12509000000E+03 0.  0.
        -13    1    3    3    0    0 -0.41435341770E+02  0.37285429630E+02  0.26628621278E+02  0.61775281832E+02  0.10566000000E+00 0.  1.
         23    2    1    0    0    0 -0.15001820255E+02  0.22803680812E+02  0.12190526270E+02  0.95195662739E+02  0.90379991172E+02 0.  0.
         13    1    3    3    0    0  0.26433521515E+02 -0.14481748818E+02 -0.14438095008E+02  0.33420380907E+02  0.10566000000E+00 0. -1.
         22    1    1    0    0    0  0.15001820255E+02 -0.22803680812E+02 -0.12190526270E+02  0.29894337261E+02  0.00000000000E+00 0.  1.
</event>
<event>
 5    1  0.1254921E-009  0.9118800E+02  0.7561462E-02  0.1125453E+00
         25   -1    0    0    0    0  0.00000000000E+00  0.00000000000E+00  0.99999998245E-14  0.12509000000E+03  0.12509000000E+03 0.  0.
        -13    1    3    3    0    0  0.19263932688E+02  0.21473930753E+02 -0.25959051692E+02  0.38808663123E+02  0.10566000000E+00 0.  1.
         23    2    1    0    0    0  0.48472220871E+01 -0.28386281451E+02 -0.13204854501E+01  0.96262578707E+02  0.91844781240E+02 0.  0.
         13    1    3    3    0    0 -0.14416710601E+02 -0.49860212203E+02  0.24638566242E+02  0.57453915585E+02  0.10566000000E+00 0. -1.
         22    1    1    0    0    0 -0.48472220871E+01  0.28386281451E+02  0.13204854501E+01  0.28827421293E+02  0.00000000000E+00 0. -1.
</event>
<event>
 5    1  0.1254921E-009  0.9118800E+02  0.7561462E-02  0.1125453E+00
         25   -1    0    0    0    0  0.00000000000E+00  0.00000000000E+00  0.99999998245E-14  0.12509000000E+03  0.12509000000E+03 0.  0.
        -13    1    3    3    0    0 -0.42223856342E+02 -0.13550063951E+02  0.98615443607E-01  0.44345001596E+02  0.10566000000E+00 0. -1.
         23    2    1    0    0    0  0.83257415108E+01 -0.17576421922E+02  0.18458811277E+02  0.98276266709E+02  0.94547598093E+02 0.  0.
         13    1    3    3    0    0  0.50549597853E+02 -0.40263579707E+01  0.18360195833E+02  0.53931265113E+02  0.10566000000E+00 0.  1.
         22    1    1    0    0    0 -0.83257415108E+01  0.17576421922E+02 -0.18458811277E+02  0.26813733291E+02  0.00000000000E+00 0.  1.
</event>
<event>
 5    1  0.1254921E-009  0.9118800E+02  0.7561462E-02  0.1125453E+00
         25   -1    0    0    0    0  0.00000000000E+00  0.00000000000E+00  0.99999998245E-14  0.12509000000E+03  0.12509000000E+03 0.  0.
        -13    1    3    3    0    0 -0.16055416634E+02  0.24510521165E+02  0.25890027336E+02  0.39100469698E+02  0.10566000000E+00 0.  1.
         23    2    1    0    0    0 -0.19836025484E+02 -0.24039964044E+02  0.72829239343E+00  0.93914397551E+02  0.88588915104E+02 0.  0.
         13    1    3    3    0    0 -0.37806088498E+01 -0.48550485209E+02 -0.25161734943E+02  0.54813927853E+02  0.10566000000E+00 0. -1.
         22    1    1    0    0    0  0.19836025484E+02  0.24039964044E+02 -0.72829239343E+00  0.31175602449E+02  0.00000000000E+00 0. -1.
</event>
<event>
 5    1  0.1254921E-009  0.9118800E+02  0.7561462E-02  0.1125453E+00
         25   -1    0    0    0    0  0.00000000000E+00  0.00000000000E+00  0.99999998245E-14  0.12509000000E+03  0.12509000000E+03 0.  0.
        -13    1    3    3    0    0  0.14425813158E+02  0.57343092054E+02  0.38325692595E+01  0.59253979130E+02  0.10566000000E+00 0. -1.
         23    2    1    0    0    0  0.12154688020E+02  0.24779049806E+02 -0.11340553235E+02  0.95251335522E+02  0.90457012005E+02 0.  0.
         13    1    3    3    0    0 -0.22711251375E+01 -0.32564042248E+02 -0.15173122494E+02  0.35997356392E+02  0.10566000000E+00 0.  1.
         22    1    1    0    0    0 -0.12154688020E+02 -0.24779049806E+02  0.11340553235E+02  0.29838664478E+02  0.00000000000E+00 0. -1.
</event>
<event>
 5    1  0.1254921E-009  0.9118800E+02  0.7561462E-02  0.1125453E+00
         25   -1    0    0    0    0  0.00000000000E+00  0.00000000000E+00  0.99999998245E-14  0.12509000000E+03  0.12509000000E+03 0.  0.
        -13    1    3    3    0    0  0.37019750464E+02  0.41931130913E+02 -0.93297067077E+01  0.56707462078E+02  0.10566000000E+00 0. -1.
         23    2    1    0    0    0  0.24418440574E+02  0.17613555261E+01 -0.95589352655E+01  0.98808145865E+02  0.95248694650E+02 0.  0.
         13    1    3    3    0    0 -0.12601309889E+02 -0.40169775387E+02 -0.22922855778E+00  0.42100683787E+02  0.10566000000E+00 0.  1.
         22    1    1    0    0    0 -0.24418440574E+02 -0.17613555261E+01  0.95589352655E+01  0.26281854135E+02  0.00000000000E+00 0. -1.
</event>
<event>
 5    1  0.1254921E-009  0.9118800E+02  0.7561462E-02  0.1125453E+00
         25   -1    0    0    0    0  0.00000000000E+00  0.00000000000E+00  0.99999998245E-14  0.12509000000E+03  0.12509000000E+03 0.  0.
        -13    1    3    3    0    0 -0.37211084987E+02 -0.22175930101E+02 -0.19545817678E+02  0.47523540214E+02  0.10566000000E+00 0.  1.
         23    2    1    0    0    0 -0.21567338748E+02  0.19537527489E+02 -0.47271166845E+00  0.95985214528E+02  0.91466238966E+02 0.  0.
         13    1    3    3    0    0  0.15643746239E+02  0.41713457589E+02  0.19073106009E+02  0.48461674314E+02  0.10566000000E+00 0. -1.
         22    1    1    0    0    0  0.21567338748E+02 -0.19537527489E+02  0.47271166845E+00  0.29104785472E+02  0.00000000000E+00 0. -1.
</event>
<event>
 5    1  0.1254921E-009  0.9118800E+02  0.7561462E-02  0.1125453E+00
         25   -1    0    0    0    0  0.00000000000E+00  0.00000000000E+00  0.99999998245E-14  0.12509000000E+03  0.12509000000E+03 0.  0.
        -13    1    3    3    0    0  0.14058161260E+02 -0.12998954261E+02  0.30687231016E+02  0.36170734322E+02  0.10566000000E+00 0. -1.
         23    2    1    0    0    0 -0.23087710037E+02  0.20315126967E+02  0.81404911053E+00  0.94326232116E+02  0.89168540702E+02 0.  0.
         13    1    3    3    0    0 -0.37145871297E+02  0.33314081229E+02 -0.29873181906E+02  0.58155497795E+02  0.10566000000E+00 0.  1.
         22    1    1    0    0    0  0.23087710037E+02 -0.20315126967E+02 -0.81404911053E+00  0.30763767884E+02  0.00000000000E+00 0.  1.
</event>
<event>
 5    1  0.1254921E-009  0.9118800E+02  0.7561462E-02  0.1125453E+00
         25   -1    0    0    0    0  0.00000000000E+00  0.00000000000E+00  0.99999998245E-14  0.12509000000E+03  0.12509000000E+03 0.  0.
        -13    1    3    3    0    0  0.17039387930E+02 -0.34763051321E+02  0.63627163591E+01  0.39233987838E+02  0.10566000000E+00 0.  1.
         23    2    1    0    0    0  0.16074327242E+02  0.17100408056E+02 -0.16985603177E+02  0.96119002999E+02  0.91649026565E+02 0.  0.
         13    1    3    3    0    0 -0.96506068739E+00  0.51863459377E+02 -0.23348319536E+02  0.56885015161E+02  0.10566000000E+00 0. -1.
         22    1    1    0    0    0 -0.16074327242E+02 -0.17100408056E+02  0.16985603177E+02  0.28970997001E+02  0.00000000000E+00 0. -1.
</event>
<event>
 5    1  0.1254921E-009  0.9118800E+02  0.7561462E-02  0.1125453E+00
         25   -1    0    0    0    0  0.00000000000E+00  0.00000000000E+00  0.99999998245E-14  0.12509000000E+03  0.12509000000E+03 0.  0.
        -13    1    3    3    0    0 -0.25721485775E+01 -0.42392165944E+02 -0.43982192638E+02  0.61140462175E+02  0.10566000000E+00 0.  1.
         23    2    1    0    0    0  0.72614306574E+01 -0.18566787699E+02 -0.24800869651E+02  0.93269611629E+02  0.87673732311E+02 0.  0.
         13    1    3    3    0    0  0.98335792349E+01  0.23825378245E+02  0.19181322987E+02  0.32129149454E+02  0.10566000000E+00 0. -1.
         22    1    1    0    0    0 -0.72614306574E+01  0.18566787699E+02  0.24800869651E+02  0.31820388371E+02  0.00000000000E+00 0.  1.
</event>
<event>
 5    1  0.1254921E-009  0.9118800E+02  0.7561462E-02  0.1125453E+00
         25   -1    0    0    0    0  0.00000000000E+00  0.00000000000E+00  0.99999998245E-14  0.12509000000E+03  0.12509000000E+03 0.  0.
        -13    1    3    3    0    0  0.24916795046E+02 -0.17132610959E+02  0.20958842370E+02  0.36792081636E+02  0.10566000000E+00 0. -1.
         23    2    1    0    0    0  0.12650038267E+01  0.18023658687E+02 -0.21655651384E+02  0.96886813229E+02  0.92691072028E+02 0.  0.
         13    1    3    3    0    0 -0.23651791219E+02  0.35156269646E+02 -0.42614493754E+02  0.60094731593E+02  0.10566000000E+00 0.  1.
         22    1    1    0    0    0 -0.12650038267E+01 -0.18023658687E+02  0.21655651384E+02  0.28203186771E+02  0.00000000000E+00 0.  1.
</event>
<event>
 5    1  0.1254921E-009  0.9118800E+02  0.7561462E-02  0.1125453E+00
         25   -1    0    0    0    0  0.00000000000E+00  0.00000000000E+00  0.99999998245E-14  0.12509000000E+03  0.12509000000E+03 0.  0.
        -13    1    3    3    0    0 -0.30533149597E+02  0.26567580911E+02  0.47330958443E+02  0.62276322716E+02  0.10566000000E+00 0. -1.
         23    2    1    0    0    0 -0.16853078139E+02  0.92447881380E+01  0.21942465851E+02  0.95918710037E+02  0.91375241598E+02 0.  0.
         13    1    3    3    0    0  0.13680071458E+02 -0.17322792773E+02 -0.25388492592E+02  0.33642387322E+02  0.10566000000E+00 0.  1.
         22    1    1    0    0    0  0.16853078139E+02 -0.92447881380E+01 -0.21942465851E+02  0.29171289963E+02  0.00000000000E+00 0. -1.
</event>
<event>
 5    1  0.1254921E-009  0.9118800E+02  0.7561462E-02  0.1125453E+00
         25   -1    0    0    0    0  0.00000000000E+00  0.00000000000E+00  0.99999998245E-14  0.12509000000E+03  0.12509000000E+03 0.  0.
        -13    1    3    3    0    0  0.84381542241E+01 -0.44325142312E+02 -0.85176575898E+01  0.45918213625E+02  0.10566000000E+00 0. -1.
         23    2    1    0    0    0 -0.89595895190E+01 -0.77495683199E+01 -0.30761050844E+02  0.92126803819E+02  0.86027761097E+02 0.  0.
         13    1    3    3    0    0 -0.17397743743E+02  0.36575573992E+02 -0.22243393254E+02  0.46208590193E+02  0.10566000000E+00 0.  1.
         22    1    1    0    0    0  0.89595895190E+01  0.77495683199E+01  0.30761050844E+02  0.32963196181E+02  0.00000000000E+00 0.  1.
</event>
<event>
 5    1  0.1254921E-009  0.9118800E+02  0.7561462E-02  0.1125453E+00
         25   -1    0    0    0    0  0.00000000000E+00  0.00000000000E+00  0.99999998245E-14  0.12509000000E+03  0.12509000000E+03 0.  0.
        -13    1    3    3    0    0 -0.12554988626E+02  0.58374252682E+02 -0.18058812799E+02  0.62380389541E+02  0.10566000000E+00 0.  1.
         23    2    1    0    0    0 -0.40704514514E+01  0.31142972658E+02 -0.74621312143E+01  0.92807857517E+02  0.87012422640E+02 0.  0.
         13    1    3    3    0    0  0.84845371746E+01 -0.27231280024E+02  0.10596681585E+02  0.30427467976E+02  0.10566000000E+00 0. -1.
         22    1    1    0    0    0  0.40704514514E+01 -0.31142972658E+02  0.74621312143E+01  0.32282142483E+02  0.00000000000E+00 0.  1.
</event>
<event>
 5    1  0.1254921E-009  0.9118800E+02  0.7561462E-02  0.1125453E+00
         25   -1    0    0    0    0  0.00000000000E+00  0.00000000000E+00  0.99999998245E-14  0.12509000000E+03  0.12509000000E+03 0.  0.
        -13    1    3    3    0    0  0.24109153395E+02  0.23187181187E+02 -0.84861376386E+01  0.34509742753E+02  0.10566000000E+00 0. -1.
         23    2    1    0    0    0 -0.29132426999E+01 -0.25094371094E+02  0.16181796774E+02  0.95088916845E+02  0.90232129069E+02 0.  0.
         13    1    3    3    0    0 -0.27022396095E+02 -0.48281552282E+02  0.24667934412E+02  0.60579174092E+02  0.10566000000E+00 0.  1.
         22    1    1    0    0    0  0.29132426999E+01  0.25094371094E+02 -0.16181796774E+02  0.30001083155E+02  0.00000000000E+00 0.  1.
</event>
<event>
 5    1  0.1254921E-009  0.9118800E+02  0.7561462E-02  0.1125453E+00
         25   -1    0    0    0    0  0.00000000000E+00  0.00000000000E+00  0.99999998245E-14  0.12509000000E+03  0.12509000000E+03 0.  0.
        -13    1    3    3    0    0  0.21499993057E+01 -0.34922468527E+00 -0.42741190176E+02  0.42796786755E+02  0.10566000000E+00 0.  1.
         23    2    1    0    0    0  0.28894204648E+02 -0.39702911146E+01  0.28584575678E+01  0.95784555908E+02  0.91191403636E+02 0.  0.
         13    1    3    3    0    0  0.26744205342E+02 -0.36210664294E+01  0.45599647743E+02  0.52987769153E+02  0.10566000000E+00 0. -1.
         22    1    1    0    0    0 -0.28894204648E+02  0.39702911146E+01 -0.28584575678E+01  0.29305444092E+02  0.00000000000E+00 0. -1.
</event>
<event>
 5    1  0.1254921E-009  0.9118800E+02  0.7561462E-02  0.1125453E+00
         25   -1    0    0    0    0  0.00000000000E+00  0.00000000000E+00  0.99999998245E-14  0.12509000000E+03  0.12509000000E+03 0.  0.
        -13    1    3    3    0    0 -0.44961824654E+02 -0.30841605108E+02 -0.20240596537E+02  0.58158947669E+02  0.10566000000E+00 0. -1.
         23    2    1    0    0    0 -0.28180778897E+02 -0.20577164973E+01 -0.61589845399E+00  0.96827483705E+02  0.92610970048E+02 0.  0.
         13    1    3    3    0    0  0.16781045756E+02  0.28783888611E+02  0.19624698083E+02  0.38668536035E+02  0.10566000000E+00 0.  1.
         22    1    1    0    0    0  0.28180778897E+02  0.20577164973E+01  0.61589845399E+00  0.28262516295E+02  0.00000000000E+00 0. -1.
</event>
<event>
 5    1  0.1254921E-009  0.9118800E+02  0.7561462E-02  0.1125453E+00
         25   -1    0    0    0    0  0.00000000000E+00  0.00000000000E+00  0.99999998245E-14  0.12509000000E+03  0.12509000000E+03 0.  0.
        -13    1    3    3    0    0 -0.11330874130E+02  0.56490883673E+01 -0.27547620607E+02  0.30318038740E+02  0.10566000000E+00 0. -1.
         23    2    1    0    0    0  0.10346108256E+02  0.66253317180E+01  0.30456943814E+02  0.92248526177E+02  0.86204571682E+02 0.  0.
         13    1    3    3    0    0  0.21676982386E+02  0.97624335072E+00  0.58004564420E+02  0.61930487436E+02  0.10566000000E+00 0.  1.
         22    1    1    0    0    0 -0.10346108256E+02 -0.66253317180E+01 -0.30456943814E+02  0.32841473823E+02  0.00000000000E+00 0.  1.
</event>
<event>
 5    1  0.1254921E-009  0.9118800E+02  0.7561462E-02  0.1125453E+00
         25   -1    0    0    0    0  0.00000000000E+00  0.00000000000E+00  0.99999998245E-14  0.12509000000E+03  0.12509000000E+03 0.  0.
        -13    1    3    3    0    0  0.19255460276E+02  0.30906241384E+02 -0.10839652099E+01  0.36430133839E+02  0.10566000000E+00 0. -1.
         23    2    1    0    0    0  0.37234678037E+00 -0.27040751491E+02 -0.53391081974E+01  0.97524678313E+02  0.93547933812E+02 0.  0.
         13    1    3    3    0    0 -0.18883113496E+02 -0.57946992876E+02 -0.42551429875E+01  0.61094544474E+02  0.10566000000E+00 0.  1.
         22    1    1    0    0    0 -0.37234678037E+00  0.27040751491E+02  0.53391081974E+01  0.27565321687E+02  0.00000000000E+00 0.  1.
</event>
<event>
 5    1  0.1254921E-009  0.9118800E+02  0.7561462E-02  0.1125453E+00
         25   -1    0    0    0    0  0.00000000000E+00  0.00000000000E+00  0.99999998245E-14  0.12509000000E+03  0.12509000000E+03 0.  0.
        -13    1    3    3    0    0 -0.33096038306E+02 -0.94982419079E+00  0.18835554495E+02  0.38092508380E+02  0.10566000000E+00 0. -1.
         23    2    1    0    0    0  0.62056832098E+01  0.22870764984E+02 -0.16626911644E+02  0.96141138436E+02  0.91679233821E+02 0.  0.
         13    1    3    3    0    0  0.39301721515E+02  0.23820589175E+02 -0.35462466139E+02  0.58048630056E+02  0.10566000000E+00 0.  1.
         22    1    1    0    0    0 -0.62056832098E+01 -0.22870764984E+02  0.16626911644E+02  0.28948861564E+02  0.00000000000E+00 0.  1.
</event>
<event>
 5    1  0.1254921E-009  0.9118800E+02  0.7561462E-02  0.1125453E+00
         25   -1    0    0    0    0  0.00000000000E+00  0.00000000000E+00  0.99999998245E-14  0.12509000000E+03  0.12509000000E+03 0.  0.
        -13    1    3    3    0    0 -0.25847229231E+02 -0.16195318398E+02 -0.27743777689E+02  0.41232219943E+02  0.10566000000E+00 0. -1.
         23    2    1    0    0    0 -0.95224097337E+01  0.27403905107E+02  0.12044883508E+01  0.96053796832E+02  0.91559984662E+02 0.  0.
         13    1    3    3    0    0  0.16324819498E+02  0.43599223505E+02  0.28948266039E+02  0.54821576889E+02  0.10566000000E+00 0.  1.
         22    1    1    0    0    0  0.95224097337E+01 -0.27403905107E+02 -0.12044883508E+01  0.29036203168E+02  0.00000000000E+00 0.  1.
</event>
<event>
 5    1  0.1254921E-009  0.9118800E+02  0.7561462E-02  0.1125453E+00
         25   -1    0    0    0    0  0.00000000000E+00  0.00000000000E+00  0.99999998245E-14  0.12509000000E+03  0.12509000000E+03 0.  0.
        -13    1    3    3    0    0  0.15288400654E+02 -0.45179416847E+01  0.34678707663E+02  0.38167668528E+02  0.10566000000E+00 0.  1.
         23    2    1    0    0    0  0.16049294034E+02 -0.61865300981E+01 -0.23274206335E+02  0.96149687732E+02  0.91690898004E+02 0.  0.
         13    1    3    3    0    0  0.76089338022E+00 -0.16685884134E+01 -0.57952913998E+02  0.57982019204E+02  0.10566000000E+00 0. -1.
         22    1    1    0    0    0 -0.16049294034E+02  0.61865300981E+01  0.23274206335E+02  0.28940312268E+02  0.00000000000E+00 0. -1.
</event>
<event>
 5    1  0.1254921E-009  0.9118800E+02  0.7561462E-02  0.1125453E+00
         25   -1    0    0    0    0  0.00000000000E+00  0.00000000000E+00  0.99999998245E-14  0.12509000000E+03  0.12509000000E+03 0.  0.
        -13    1    3    3    0    0  0.15320609304E+02 -0.26056231004E+02 -0.45785104384E+02  0.54862876256E+02  0.10566000000E+00 0. -1.
         23    2    1    0    0    0  0.96838834053E+01 -0.26853062928E+02 -0.49193323916E+01  0.96123391334E+02  0.91655015924E+02 0.  0.
         13    1    3    3    0    0 -0.56367258984E+01 -0.79683192451E+00  0.40865771992E+02  0.41260515078E+02  0.10566000000E+00 0.  1.
         22    1    1    0    0    0 -0.96838834053E+01  0.26853062928E+02  0.49193323916E+01  0.28966608666E+02  0.00000000000E+00 0. -1.
</event>
<event>
 5    1  0.1254921E-009  0.9118800E+02  0.7561462E-02  0.1125453E+00
         25   -1    0    0    0    0  0.00000000000E+00  0.00000000000E+00  0.99999998245E-14  0.12509000000E+03  0.12509000000E+03 0.  0.
        -13    1    3    3    0    0  0.49153606461E+01 -0.43019732308E+02 -0.33335290470E+02  0.54645319040E+02  0.10566000000E+00 0. -1.
         23    2    1    0    0    0  0.11086855183E+02  0.49475162285E+01 -0.13544409462E+02  0.10690079160E+03  0.10534197616E+03 0.  0.
         13    1    3    3    0    0  0.61714945369E+01  0.47967248537E+02  0.19790881008E+02  0.52255472557E+02  0.10566000000E+00 0.  1.
         22    1    1    0    0    0 -0.11086855183E+02 -0.49475162285E+01  0.13544409462E+02  0.18189208404E+02  0.00000000000E+00 0.  1.
</event>
<event>
 5    1  0.1254921E-009  0.9118800E+02  0.7561462E-02  0.1125453E+00
         25   -1    0    0    0    0  0.00000000000E+00  0.00000000000E+00  0.99999998245E-14  0.12509000000E+03  0.12509000000E+03 0.  0.
        -13    1    3    3    0    0 -0.21034633801E+02 -0.24295891603E+02  0.49492475835E+02  0.59010698151E+02  0.10566000000E+00 0.  1.
         23    2    1    0    0    0 -0.14827830761E+02  0.26354006976E+01  0.24817158707E+02  0.96060682609E+02  0.91569391584E+02 0.  0.
         13    1    3    3    0    0  0.62068030390E+01  0.26931292300E+02 -0.24675317129E+02  0.37049984458E+02  0.10566000000E+00 0. -1.
         22    1    1    0    0    0  0.14827830761E+02 -0.26354006976E+01 -0.24817158707E+02  0.29029317391E+02  0.00000000000E+00 0.  1.
</event>
<event>
 5    1  0.1254921E-009  0.9118800E+02  0.7561462E-02  0.1125453E+00
         25   -1    0    0    0    0  0.00000000000E+00  0.00000000000E+00  0.99999998245E-14  0.12509000000E+03  0.12509000000E+03 0.  0.
        -13    1    3    3    0    0  0.21070576780E+02  0.63352925536E+00 -0.18510803384E+02  0.28054082967E+02  0.10566000000E+00 0. -1.
         23    2    1    0    0    0 -0.28366423648E+02 -0.24685051721E+02  0.24168063004E+01  0.87409146484E+02  0.78870223579E+02 0.  0.
         13    1    3    3    0    0 -0.49437000428E+02 -0.25318580976E+02  0.20927609685E+02  0.59355063517E+02  0.10566000000E+00 0.  1.
         22    1    1    0    0    0  0.28366423648E+02  0.24685051721E+02 -0.24168063004E+01  0.37680853516E+02  0.00000000000E+00 0.  1.
</event>
<event>
 5    1  0.1254921E-009  0.9118800E+02  0.7561462E-02  0.1125453E+00
         25   -1    0    0    0    0  0.00000000000E+00  0.00000000000E+00  0.99999998245E-14  0.12509000000E+03  0.12509000000E+03 0.  0.
        -13    1    3    3    0    0 -0.16154434745E+02 -0.24799494529E+02 -0.39573957400E+02  0.49417506606E+02  0.10566000000E+00 0. -1.
         23    2    1    0    0    0 -0.11758765583E+02  0.17001523915E+02 -0.21784064038E+02  0.95058918943E+02  0.90190532990E+02 0.  0.
         13    1    3    3    0    0  0.43956691616E+01  0.41801018443E+02  0.17789893361E+02  0.45641412337E+02  0.10566000000E+00 0.  1.
         22    1    1    0    0    0  0.11758765583E+02 -0.17001523915E+02  0.21784064038E+02  0.30031081057E+02  0.00000000000E+00 0.  1.
</event>
<event>
 5    1  0.1254921E-009  0.9118800E+02  0.7561462E-02  0.1125453E+00
         25   -1    0    0    0    0  0.00000000000E+00  0.00000000000E+00  0.99999998245E-14  0.12509000000E+03  0.12509000000E+03 0.  0.
        -13    1    3    3    0    0 -0.40343800148E+02  0.21485280174E+02 -0.17346666316E+01  0.45741225464E+02  0.10566000000E+00 0.  1.
         23    2    1    0    0    0 -0.36419835469E+01 -0.15592097473E+01 -0.28261477191E+02  0.96552195736E+02  0.92238388046E+02 0.  0.
         13    1    3    3    0    0  0.36701816601E+02 -0.23044489922E+02 -0.26526810559E+02  0.50810970273E+02  0.10566000000E+00 0. -1.
         22    1    1    0    0    0  0.36419835469E+01  0.15592097473E+01  0.28261477191E+02  0.28537804264E+02  0.00000000000E+00 0. -1.
</event>
<event>
 5    1  0.1254921E-009  0.9118800E+02  0.7561462E-02  0.1125453E+00
         25   -1    0    0    0    0  0.00000000000E+00  0.00000000000E+00  0.99999998245E-14  0.12509000000E+03  0.12509000000E+03 0.  0.
        -13    1    3    3    0    0  0.44858623868E+02 -0.97211877879E+01  0.16019473104E+01  0.45927932967E+02  0.10566000000E+00 0. -1.
         23    2    1    0    0    0 -0.33682252519E+01 -0.27523309884E+02  0.11457872612E+01  0.97337696370E+02  0.93297571126E+02 0.  0.
         13    1    3    3    0    0 -0.48226849120E+02 -0.17802122096E+02 -0.45616004924E+00  0.51409763404E+02  0.10566000000E+00 0.  1.
         22    1    1    0    0    0  0.33682252519E+01  0.27523309884E+02 -0.11457872612E+01  0.27752303630E+02  0.00000000000E+00 0. -1.
</event>
<event>
 5    1  0.1254921E-009  0.9118800E+02  0.7561462E-02  0.1125453E+00
         25   -1    0    0    0    0  0.00000000000E+00  0.00000000000E+00  0.99999998245E-14  0.12509000000E+03  0.12509000000E+03 0.  0.
        -13    1    3    3    0    0  0.49770896830E+02  0.24453247621E+01  0.16152821368E+02  0.52383648085E+02  0.10566000000E+00 0.  1.
         23    2    1    0    0    0  0.21701502207E+02  0.14462583386E+02 -0.14164742968E+02  0.95412374428E+02  0.90679433910E+02 0.  0.
         13    1    3    3    0    0 -0.28069394623E+02  0.12017258624E+02 -0.30317564337E+02  0.43028726343E+02  0.10566000000E+00 0. -1.
         22    1    1    0    0    0 -0.21701502207E+02 -0.14462583386E+02  0.14164742968E+02  0.29677625572E+02  0.00000000000E+00 0.  1.
</event>
<event>
 5    1  0.1254921E-009  0.9118800E+02  0.7561462E-02  0.1125453E+00
         25   -1    0    0    0    0  0.00000000000E+00  0.00000000000E+00  0.99999998245E-14  0.12509000000E+03  0.12509000000E+03 0.  0.
        -13    1    3    3    0    0  0.40833007807E+02  0.41446204221E+02 -0.19501577538E+02  0.61363222385E+02  0.10566000000E+00 0. -1.
         23    2    1    0    0    0  0.11830639100E+02  0.21431143531E+02 -0.13580085915E+02  0.97095774381E+02  0.92972645087E+02 0.  0.
         13    1    3    3    0    0 -0.29002368707E+02 -0.20015060690E+02  0.59214916228E+01  0.35732551996E+02  0.10566000000E+00 0.  1.
         22    1    1    0    0    0 -0.11830639100E+02 -0.21431143531E+02  0.13580085915E+02  0.27994225619E+02  0.00000000000E+00 0. -1.
</event>
<event>
 5    1  0.1254921E-009  0.9118800E+02  0.7561462E-02  0.1125453E+00
         25   -1    0    0    0    0  0.00000000000E+00  0.00000000000E+00  0.99999998245E-14  0.12509000000E+03  0.12509000000E+03 0.  0.
        -13    1    3    3    0    0  0.25985551716E+02 -0.16794111270E+02  0.49124905675E+00  0.30944200766E+02  0.10566000000E+00 0.  1.
         23    2    1    0    0    0 -0.46943136714E+01  0.32324772354E+02  0.12547678060E+02  0.90098976676E+02  0.83026826296E+02 0.  0.
         13    1    3    3    0    0 -0.30679865388E+02  0.49118883624E+02  0.12056429003E+02  0.59154775910E+02  0.10566000000E+00 0. -1.
         22    1    1    0    0    0  0.46943136714E+01 -0.32324772354E+02 -0.12547678060E+02  0.34991023324E+02  0.00000000000E+00 0. -1.
</event>
<event>
 5    1  0.1254921E-009  0.9118800E+02  0.7561462E-02  0.1125453E+00
         25   -1    0    0    0    0  0.00000000000E+00  0.00000000000E+00  0.99999998245E-14  0.12509000000E+03  0.12509000000E+03 0.  0.
        -13    1    3    3    0    0 -0.51478994260E+02 -0.10510148667E+02 -0.16052079673E+02  0.54938424630E+02  0.10566000000E+00 0. -1.
         23    2    1    0    0    0 -0.15528247417E+02 -0.24720501084E+02 -0.29843569752E+01  0.95744880674E+02  0.91136963671E+02 0.  0.
         13    1    3    3    0    0  0.35950746843E+02 -0.14210352416E+02  0.13067722697E+02  0.40806456044E+02  0.10566000000E+00 0.  1.
         22    1    1    0    0    0  0.15528247417E+02  0.24720501084E+02  0.29843569752E+01  0.29345119326E+02  0.00000000000E+00 0. -1.
</event>
<event>
 5    1  0.1254921E-009  0.9118800E+02  0.7561462E-02  0.1125453E+00
         25   -1    0    0    0    0  0.00000000000E+00  0.00000000000E+00  0.99999998245E-14  0.12509000000E+03  0.12509000000E+03 0.  0.
        -13    1    3    3    0    0  0.22433408411E+02 -0.83539038884E+00 -0.24531609249E+02  0.33253070631E+02  0.10566000000E+00 0.  1.
         23    2    1    0    0    0 -0.17261482918E+02  0.60894332706E+01  0.23083715805E+02  0.95629892644E+02  0.90979000003E+02 0.  0.
         13    1    3    3    0    0 -0.39694891328E+02  0.69248236594E+01  0.47615325054E+02  0.62376822012E+02  0.10566000000E+00 0. -1.
         22    1    1    0    0    0  0.17261482918E+02 -0.60894332706E+01 -0.23083715805E+02  0.29460107356E+02  0.00000000000E+00 0. -1.
</event>
<event>
 5    1  0.1254921E-009  0.9118800E+02  0.7561462E-02  0.1125453E+00
         25   -1    0    0    0    0  0.00000000000E+00  0.00000000000E+00  0.99999998245E-14  0.12509000000E+03  0.12509000000E+03 0.  0.
        -13    1    3    3    0    0 -0.24775006390E+02 -0.55106066179E+01 -0.30776117925E+02  0.39891707478E+02  0.10566000000E+00 0. -1.
         23    2    1    0    0    0  0.88933962188E+01  0.13669334335E+02 -0.41836242131E+02  0.80187724411E+02  0.66436863210E+02 0.  0.
         13    1    3    3    0    0  0.33668402609E+02  0.19179940953E+02 -0.11060124205E+02  0.40296016933E+02  0.10566000000E+00 0.  1.
         22    1    1    0    0    0 -0.88933962188E+01 -0.13669334335E+02  0.41836242131E+02  0.44902275589E+02  0.00000000000E+00 0.  1.
</event>
<event>
 5    1  0.1254921E-009  0.9118800E+02  0.7561462E-02  0.1125453E+00
         25   -1    0    0    0    0  0.00000000000E+00  0.00000000000E+00  0.99999998245E-14  0.12509000000E+03  0.12509000000E+03 0.  0.
        -13    1    3    3    0    0  0.23821554609E+02 -0.39954898925E+01  0.28759844175E+02  0.37557558553E+02  0.10566000000E+00 0.  1.
         23    2    1    0    0    0 -0.27133921629E+02 -0.11043062607E+02  0.15435988599E+01  0.95754328333E+02  0.91149930128E+02 0.  0.
         13    1    3    3    0    0 -0.50955476238E+02 -0.70475727145E+01 -0.27216245315E+02  0.58196769780E+02  0.10566000000E+00 0. -1.
         22    1    1    0    0    0  0.27133921629E+02  0.11043062607E+02 -0.15435988599E+01  0.29335671667E+02  0.00000000000E+00 0. -1.
</event>
<event>
 5    1  0.1254921E-009  0.9118800E+02  0.7561462E-02  0.1125453E+00
         25   -1    0    0    0    0  0.00000000000E+00  0.00000000000E+00  0.99999998245E-14  0.12509000000E+03  0.12509000000E+03 0.  0.
        -13    1    3    3    0    0 -0.12407339024E+01 -0.30948536491E+01 -0.48532421117E+02  0.48646938272E+02  0.10566000000E+00 0.  1.
         23    2    1    0    0    0  0.13453954821E+02 -0.23781600335E+02 -0.77334806485E+01  0.96693166766E+02  0.92429369583E+02 0.  0.
         13    1    3    3    0    0  0.14694688723E+02 -0.20686746685E+02  0.40798940468E+02  0.48046228494E+02  0.10566000000E+00 0. -1.
         22    1    1    0    0    0 -0.13453954821E+02  0.23781600335E+02  0.77334806485E+01  0.28396833234E+02  0.00000000000E+00 0. -1.
</event>
<event>
 5    1  0.1254921E-009  0.9118800E+02  0.7561462E-02  0.1125453E+00
         25   -1    0    0    0    0  0.00000000000E+00  0.00000000000E+00  0.99999998245E-14  0.12509000000E+03  0.12509000000E+03 0.  0.
        -13    1    3    3    0    0 -0.27082810748E+01 -0.34457236673E+02 -0.11631926778E+02  0.36468463501E+02  0.10566000000E+00 0.  1.
         23    2    1    0    0    0  0.13023095844E+02  0.23597422824E+02 -0.90003519304E+01  0.96674410543E+02  0.92403982218E+02 0.  0.
         13    1    3    3    0    0  0.15731376919E+02  0.58054659497E+02  0.26315748476E+01  0.60205947043E+02  0.10566000000E+00 0. -1.
         22    1    1    0    0    0 -0.13023095844E+02 -0.23597422824E+02  0.90003519304E+01  0.28415589457E+02  0.00000000000E+00 0. -1.
</event>
<event>
 5    1  0.1254921E-009  0.9118800E+02  0.7561462E-02  0.1125453E+00
         25   -1    0    0    0    0  0.00000000000E+00  0.00000000000E+00  0.99999998245E-14  0.12509000000E+03  0.12509000000E+03 0.  0.
        -13    1    3    3    0    0  0.48922499315E+01  0.38874428087E+02 -0.45245770012E+02  0.59852703669E+02  0.10566000000E+00 0.  1.
         23    2    1    0    0    0  0.60275970521E+01  0.23652367914E+02 -0.91859634113E+01  0.99010345900E+02  0.95513874580E+02 0.  0.
         13    1    3    3    0    0  0.11353471206E+01 -0.15222060172E+02  0.36059806601E+02  0.39157642231E+02  0.10566000000E+00 0. -1.
         22    1    1    0    0    0 -0.60275970521E+01 -0.23652367914E+02  0.91859634113E+01  0.26079654100E+02  0.00000000000E+00 0.  1.
</event>
<event>
 5    1  0.1254921E-009  0.9118800E+02  0.7561462E-02  0.1125453E+00
         25   -1    0    0    0    0  0.00000000000E+00  0.00000000000E+00  0.99999998245E-14  0.12509000000E+03  0.12509000000E+03 0.  0.
        -13    1    3    3    0    0 -0.36745950610E+02  0.50399293692E+02  0.43125550862E+01  0.62521700123E+02  0.10566000000E+00 0.  1.
         23    2    1    0    0    0 -0.17560018003E+02  0.23803394953E+02  0.84938170243E+00  0.95498154961E+02  0.90797688892E+02 0.  0.
         13    1    3    3    0    0  0.19185932607E+02 -0.26595898739E+02 -0.34631733838E+01  0.32976454837E+02  0.10566000000E+00 0. -1.
         22    1    1    0    0    0  0.17560018003E+02 -0.23803394953E+02 -0.84938170243E+00  0.29591845039E+02  0.00000000000E+00 0.  1.
</event>
<event>
 5    1  0.1254921E-009  0.9118800E+02  0.7561462E-02  0.1125453E+00
         25   -1    0    0    0    0  0.00000000000E+00  0.00000000000E+00  0.99999998245E-14  0.12509000000E+03  0.12509000000E+03 0.  0.
        -13    1    3    3    0    0 -0.15786312799E+02  0.23199951308E+00 -0.29238875527E+02  0.33229271759E+02  0.10566000000E+00 0.  1.
         23    2    1    0    0    0  0.15079471333E+02  0.35343105453E+02 -0.37338116561E+01  0.86483434390E+02  0.77388096731E+02 0.  0.
         13    1    3    3    0    0  0.30865784132E+02  0.35111105940E+02  0.25505063870E+02  0.53254162630E+02  0.10566000000E+00 0. -1.
         22    1    1    0    0    0 -0.15079471333E+02 -0.35343105453E+02  0.37338116561E+01  0.38606565610E+02  0.00000000000E+00 0. -1.
</event>
<event>
 5    1  0.1254921E-009  0.9118800E+02  0.7561462E-02  0.1125453E+00
         25   -1    0    0    0    0  0.00000000000E+00  0.00000000000E+00  0.99999998245E-14  0.12509000000E+03  0.12509000000E+03 0.  0.
        -13    1    3    3    0    0  0.31740009001E+02  0.16655799513E+02  0.45413554901E+02  0.57855388354E+02  0.10566000000E+00 0.  1.
         23    2    1    0    0    0  0.25111030022E+02 -0.50766860837E+01  0.16545265347E+02  0.94592748062E+02  0.89541641766E+02 0.  0.
         13    1    3    3    0    0 -0.66289789792E+01 -0.21732485597E+02 -0.28868289554E+02  0.36737359708E+02  0.10566000000E+00 0. -1.
         22    1    1    0    0    0 -0.25111030022E+02  0.50766860837E+01 -0.16545265347E+02  0.30497251938E+02  0.00000000000E+00 0.  1.
</event>
<event>
 5    1  0.1254921E-009  0.9118800E+02  0.7561462E-02  0.1125453E+00
         25   -1    0    0    0    0  0.00000000000E+00  0.00000000000E+00  0.99999998245E-14  0.12509000000E+03  0.12509000000E+03 0.  0.
        -13    1    3    3    0    0 -0.14822892322E+02  0.33282873286E+02  0.33839551467E+02  0.49725186762E+02  0.10566000000E+00 0. -1.
         23    2    1    0    0    0 -0.28193156084E+02  0.32384395877E+01  0.28160982770E+00  0.96710062631E+02  0.92452232905E+02 0.  0.
         13    1    3    3    0    0 -0.13370263762E+02 -0.30044433698E+02 -0.33557941640E+02  0.46984875869E+02  0.10566000000E+00 0.  1.
         22    1    1    0    0    0  0.28193156084E+02 -0.32384395877E+01 -0.28160982770E+00  0.28379937369E+02  0.00000000000E+00 0. -1.
</event>
<event>
 5    1  0.1254921E-009  0.9118800E+02  0.7561462E-02  0.1125453E+00
         25   -1    0    0    0    0  0.00000000000E+00  0.00000000000E+00  0.99999998245E-14  0.12509000000E+03  0.12509000000E+03 0.  0.
        -13    1    3    3    0    0 -0.14200756572E+02 -0.10685187768E+02 -0.41364197230E+02  0.45020469803E+02  0.10566000000E+00 0.  1.
         23    2    1    0    0    0 -0.21401841116E+02 -0.13712711009E+02  0.10586617342E+02  0.97555408790E+02  0.93589016829E+02 0.  0.
         13    1    3    3    0    0 -0.72010845442E+01 -0.30275232410E+01  0.51950814572E+02  0.52534938986E+02  0.10566000000E+00 0. -1.
         22    1    1    0    0    0  0.21401841116E+02  0.13712711009E+02 -0.10586617342E+02  0.27534591210E+02  0.00000000000E+00 0.  1.
</event>
<event>
 5    1  0.1254921E-009  0.9118800E+02  0.7561462E-02  0.1125453E+00
         25   -1    0    0    0    0  0.00000000000E+00  0.00000000000E+00  0.99999998245E-14  0.12509000000E+03  0.12509000000E+03 0.  0.
        -13    1    3    3    0    0 -0.17940466745E+02 -0.30163019004E+02 -0.34756288624E+02  0.49393105039E+02  0.10566000000E+00 0.  1.
         23    2    1    0    0    0 -0.25273861601E+02  0.87224355310E+01 -0.20292283089E+02  0.91524754361E+02  0.85147841700E+02 0.  0.
         13    1    3    3    0    0 -0.73333948564E+01  0.38885454535E+02  0.14464005535E+02  0.42131649323E+02  0.10566000000E+00 0. -1.
         22    1    1    0    0    0  0.25273861601E+02 -0.87224355310E+01  0.20292283089E+02  0.33565245639E+02  0.00000000000E+00 0. -1.
</event>
<event>
 5    1  0.1254921E-009  0.9118800E+02  0.7561462E-02  0.1125453E+00
         25   -1    0    0    0    0  0.00000000000E+00  0.00000000000E+00  0.99999998245E-14  0.12509000000E+03  0.12509000000E+03 0.  0.
        -13    1    3    3    0    0  0.47589832627E+02 -0.38493534104E+02  0.39008350688E+01  0.61333286358E+02  0.10566000000E+00 0.  1.
         23    2    1    0    0    0  0.25666722915E+02 -0.10442239737E+02 -0.14859715334E+01  0.97340600956E+02  0.93301465407E+02 0.  0.
         13    1    3    3    0    0 -0.21923109712E+02  0.28051294367E+02 -0.53868066022E+01  0.36007314597E+02  0.10566000000E+00 0. -1.
         22    1    1    0    0    0 -0.25666722915E+02  0.10442239737E+02  0.14859715334E+01  0.27749399044E+02  0.00000000000E+00 0.  1.
</event>
<event>
 5    1  0.1254921E-009  0.9118800E+02  0.7561462E-02  0.1125453E+00
         25   -1    0    0    0    0  0.00000000000E+00  0.00000000000E+00  0.99999998245E-14  0.12509000000E+03  0.12509000000E+03 0.  0.
        -13    1    3    3    0    0 -0.44811930989E+02  0.22625453645E+02 -0.36922423075E+02  0.62316103868E+02  0.10566000000E+00 0.  1.
         23    2    1    0    0    0 -0.23528491318E+02  0.16072094954E+02 -0.21086023107E+02  0.89642538731E+02  0.82336275358E+02 0.  0.
         13    1    3    3    0    0  0.21283439671E+02 -0.65533586903E+01  0.15836399968E+02  0.27326434863E+02  0.10566000000E+00 0. -1.
         22    1    1    0    0    0  0.23528491318E+02 -0.16072094954E+02  0.21086023107E+02  0.35447461269E+02  0.00000000000E+00 0.  1.
</event>
<event>
 5    1  0.1254921E-009  0.9118800E+02  0.7561462E-02  0.1125453E+00
         25   -1    0    0    0    0  0.00000000000E+00  0.00000000000E+00  0.99999998245E-14  0.12509000000E+03  0.12509000000E+03 0.  0.
        -13    1    3    3    0    0  0.16396239704E+02 -0.50318735080E+02  0.12984208219E+02  0.54492316923E+02  0.10566000000E+00 0. -1.
         23    2    1    0    0    0 -0.14843054182E+02 -0.25094464736E+02  0.71991322562E+01  0.95058750890E+02  0.90190299909E+02 0.  0.
         13    1    3    3    0    0 -0.31239293886E+02  0.25224270344E+02 -0.57850759625E+01  0.40566433967E+02  0.10566000000E+00 0.  1.
         22    1    1    0    0    0  0.14843054182E+02  0.25094464736E+02 -0.71991322562E+01  0.30031249110E+02  0.00000000000E+00 0.  1.
</event>
<event>
 5    1  0.1254921E-009  0.9118800E+02  0.7561462E-02  0.1125453E+00
         25   -1    0    0    0    0  0.00000000000E+00  0.00000000000E+00  0.99999998245E-14  0.12509000000E+03  0.12509000000E+03 0.  0.
        -13    1    3    3    0    0 -0.26444258164E+02  0.42933728661E+02  0.58963517572E+01  0.50767922694E+02  0.10566000000E+00 0. -1.
         23    2    1    0    0    0 -0.27445762906E+02  0.69129199757E+01 -0.15645222523E+02  0.92750684116E+02  0.86930190683E+02 0.  0.
         13    1    3    3    0    0 -0.10015047423E+01 -0.36020808686E+02 -0.21541574280E+02  0.41982761422E+02  0.10566000000E+00 0.  1.
         22    1    1    0    0    0  0.27445762906E+02 -0.69129199757E+01  0.15645222523E+02  0.32339315884E+02  0.00000000000E+00 0. -1.
</event>
<event>
 5    1  0.1254921E-009  0.9118800E+02  0.7561462E-02  0.1125453E+00
         25   -1    0    0    0    0  0.00000000000E+00  0.00000000000E+00  0.99999998245E-14  0.12509000000E+03  0.12509000000E+03 0.  0.
        -13    1    3    3    0    0 -0.31291981080E+02 -0.18849958879E+02  0.28420000681E+01  0.36641467739E+02  0.10566000000E+00 0. -1.
         23    2    1    0    0    0  0.22799457132E+02 -0.75436979439E+00  0.18421205354E+02  0.95768930340E+02  0.91169967053E+02 0.  0.
         13    1    3    3    0    0  0.54091438212E+02  0.18095589085E+02  0.15579205286E+02  0.59127462601E+02  0.10566000000E+00 0.  1.
         22    1    1    0    0    0 -0.22799457132E+02  0.75436979439E+00 -0.18421205354E+02  0.29321069660E+02  0.00000000000E+00 0.  1.
</event>
<event>
 5    1  0.1254921E-009  0.9118800E+02  0.7561462E-02  0.1125453E+00
         25   -1    0    0    0    0  0.00000000000E+00  0.00000000000E+00  0.99999998245E-14  0.12509000000E+03  0.12509000000E+03 0.  0.
        -13    1    3    3    0    0  0.35220110829E+02  0.16935932087E+01 -0.22576308944E+01  0.35333164677E+02  0.10566000000E+00 0.  1.
         23    2    1    0    0    0 -0.19374113515E+02 -0.77206978034E+00  0.22550054607E+02  0.95350172680E+02  0.90593587528E+02 0.  0.
         13    1    3    3    0    0 -0.54594224344E+02 -0.24656629890E+01  0.24807685501E+02  0.60017008004E+02  0.10566000000E+00 0. -1.
         22    1    1    0    0    0  0.19374113515E+02  0.77206978034E+00 -0.22550054607E+02  0.29739827320E+02  0.00000000000E+00 0. -1.
</event>
<event>
 5    1  0.1254921E-009  0.9118800E+02  0.7561462E-02  0.1125453E+00
         25   -1    0    0    0    0  0.00000000000E+00  0.00000000000E+00  0.99999998245E-14  0.12509000000E+03  0.12509000000E+03 0.  0.
        -13    1    3    3    0    0  0.13467179682E+02 -0.34546474049E+02 -0.93247458683E+01  0.38233308088E+02  0.10566000000E+00 0. -1.
         23    2    1    0    0    0 -0.56296720921E+01  0.55112588872E+01  0.27864672452E+02  0.96133012014E+02  0.91668145206E+02 0.  0.
         13    1    3    3    0    0 -0.19096851774E+02  0.40057732936E+02  0.37189418320E+02  0.57899703926E+02  0.10566000000E+00 0.  1.
         22    1    1    0    0    0  0.56296720921E+01 -0.55112588872E+01 -0.27864672452E+02  0.28956987986E+02  0.00000000000E+00 0.  1.
</event>
<event>
 5    1  0.1254921E-009  0.9118800E+02  0.7561462E-02  0.1125453E+00
         25   -1    0    0    0    0  0.00000000000E+00  0.00000000000E+00  0.99999998245E-14  0.12509000000E+03  0.12509000000E+03 0.  0.
        -13    1    3    3    0    0  0.27418039841E+02  0.23858606616E+02 -0.36288327933E+02  0.51359866886E+02  0.10566000000E+00 0.  1.
         23    2    1    0    0    0 -0.49211235027E+01  0.28447663478E+02 -0.66541139081E+01  0.95462913647E+02  0.90749124713E+02 0.  0.
         13    1    3    3    0    0 -0.32339163344E+02  0.45890568624E+01  0.29634214025E+02  0.44103046760E+02  0.10566000000E+00 0. -1.
         22    1    1    0    0    0  0.49211235027E+01 -0.28447663478E+02  0.66541139081E+01  0.29627086353E+02  0.00000000000E+00 0.  1.
</event>
<event>
 5    1  0.1254921E-009  0.9118800E+02  0.7561462E-02  0.1125453E+00
         25   -1    0    0    0    0  0.00000000000E+00  0.00000000000E+00  0.99999998245E-14  0.12509000000E+03  0.12509000000E+03 0.  0.
        -13    1    3    3    0    0  0.26472007040E+02 -0.21214887689E+02 -0.14280875694E+02  0.36807515415E+02  0.10566000000E+00 0.  1.
         23    2    1    0    0    0 -0.15670411484E+01  0.29299886564E+02 -0.44591998643E+01  0.95411330319E+02  0.90677993577E+02 0.  0.
         13    1    3    3    0    0 -0.28039048189E+02  0.50514774253E+02  0.98216758301E+01  0.58603814904E+02  0.10566000000E+00 0. -1.
         22    1    1    0    0    0  0.15670411484E+01 -0.29299886564E+02  0.44591998643E+01  0.29678669681E+02  0.00000000000E+00 0.  1.
</event>
<event>
 5    1  0.1254921E-009  0.9118800E+02  0.7561462E-02  0.1125453E+00
         25   -1    0    0    0    0  0.00000000000E+00  0.00000000000E+00  0.99999998245E-14  0.12509000000E+03  0.12509000000E+03 0.  0.
        -13    1    3    3    0    0 -0.45316363758E+02 -0.14688256198E+02  0.16777940719E+02  0.50505723964E+02  0.10566000000E+00 0. -1.
         23    2    1    0    0    0 -0.21124244726E+02  0.20662170326E+02  0.36038464747E+01  0.95321783607E+02  0.90554379921E+02 0.  0.
         13    1    3    3    0    0  0.24192119032E+02  0.35350426524E+02 -0.13174094245E+02  0.44816059643E+02  0.10566000000E+00 0.  1.
         22    1    1    0    0    0  0.21124244726E+02 -0.20662170326E+02 -0.36038464747E+01  0.29768216393E+02  0.00000000000E+00 0. -1.
</event>
<event>
 5    1  0.1254921E-009  0.9118800E+02  0.7561462E-02  0.1125453E+00
         25   -1    0    0    0    0  0.00000000000E+00  0.00000000000E+00  0.99999998245E-14  0.12509000000E+03  0.12509000000E+03 0.  0.
        -13    1    3    3    0    0  0.54419389445E+01 -0.59276500848E+01 -0.49508518498E+02  0.50158312401E+02  0.10566000000E+00 0.  1.
         23    2    1    0    0    0 -0.16443524927E+02  0.17447689910E+02 -0.17739911454E+02  0.95265247635E+02  0.90476248559E+02 0.  0.
         13    1    3    3    0    0 -0.21885463871E+02  0.23375339995E+02  0.31768607043E+02  0.45106935234E+02  0.10566000000E+00 0. -1.
         22    1    1    0    0    0  0.16443524927E+02 -0.17447689910E+02  0.17739911454E+02  0.29824752365E+02  0.00000000000E+00 0.  1.
</event>
<event>
 5    1  0.1254921E-009  0.9118800E+02  0.7561462E-02  0.1125453E+00
         25   -1    0    0    0    0  0.00000000000E+00  0.00000000000E+00  0.99999998245E-14  0.12509000000E+03  0.12509000000E+03 0.  0.
        -13    1    3    3    0    0  0.20630333152E+01  0.74842457804E+01 -0.57318638824E+02  0.57842091612E+02  0.10566000000E+00 0.  1.
         23    2    1    0    0    0  0.40750117755E+01  0.19708941797E+02 -0.21988905586E+02  0.95281275160E+02  0.90498405066E+02 0.  0.
         13    1    3    3    0    0  0.20119784603E+01  0.12224696017E+02  0.35329733238E+02  0.37439183548E+02  0.10566000000E+00 0. -1.
         22    1    1    0    0    0 -0.40750117755E+01 -0.19708941797E+02  0.21988905586E+02  0.29808724840E+02  0.00000000000E+00 0.  1.
</event>
<event>
 5    1  0.1254921E-009  0.9118800E+02  0.7561462E-02  0.1125453E+00
         25   -1    0    0    0    0  0.00000000000E+00  0.00000000000E+00  0.99999998245E-14  0.12509000000E+03  0.12509000000E+03 0.  0.
        -13    1    3    3    0    0 -0.32702096832E+02  0.32295862837E+02  0.25133834967E+02  0.52384832898E+02  0.10566000000E+00 0.  1.
         23    2    1    0    0    0 -0.27817029943E+02 -0.68061174765E+01  0.79898347009E+01  0.95358739540E+02  0.90605415722E+02 0.  0.
         13    1    3    3    0    0  0.48850668888E+01 -0.39101980313E+02 -0.17144000266E+02  0.42973906642E+02  0.10566000000E+00 0. -1.
         22    1    1    0    0    0  0.27817029943E+02  0.68061174765E+01 -0.79898347009E+01  0.29731260460E+02  0.00000000000E+00 0. -1.
</event>
<event>
 5    1  0.1254921E-009  0.9118800E+02  0.7561462E-02  0.1125453E+00
         25   -1    0    0    0    0  0.00000000000E+00  0.00000000000E+00  0.99999998245E-14  0.12509000000E+03  0.12509000000E+03 0.  0.
        -13    1    3    3    0    0  0.39805199365E+02 -0.74829573982E+01  0.24212286401E+02  0.47187864168E+02  0.10566000000E+00 0.  1.
         23    2    1    0    0    0  0.13729739430E+02 -0.22703317025E+02 -0.13356689133E+02  0.95385665412E+02  0.90642582006E+02 0.  0.
         13    1    3    3    0    0 -0.26075459935E+02 -0.15220359627E+02 -0.37568975534E+02  0.48197801244E+02  0.10566000000E+00 0. -1.
         22    1    1    0    0    0 -0.13729739430E+02  0.22703317025E+02  0.13356689133E+02  0.29704334588E+02  0.00000000000E+00 0. -1.
</event>
<event>
 5    1  0.1254921E-009  0.9118800E+02  0.7561462E-02  0.1125453E+00
         25   -1    0    0    0    0  0.00000000000E+00  0.00000000000E+00  0.99999998245E-14  0.12509000000E+03  0.12509000000E+03 0.  0.
        -13    1    3    3    0    0 -0.37372723869E+02 -0.16102759392E+02 -0.92037611046E+01  0.41722173145E+02  0.10566000000E+00 0. -1.
         23    2    1    0    0    0  0.15288291432E+02 -0.24629927053E+02  0.12081786717E+01  0.96075781808E+02  0.91590015792E+02 0.  0.
         13    1    3    3    0    0  0.52661015301E+02 -0.85271676617E+01  0.10411939776E+02  0.54353608664E+02  0.10566000000E+00 0.  1.
         22    1    1    0    0    0 -0.15288291432E+02  0.24629927053E+02 -0.12081786717E+01  0.29014218192E+02  0.00000000000E+00 0.  1.
</event>
<event>
 5    1  0.1254921E-009  0.9118800E+02  0.7561462E-02  0.1125453E+00
         25   -1    0    0    0    0  0.00000000000E+00  0.00000000000E+00  0.99999998245E-14  0.12509000000E+03  0.12509000000E+03 0.  0.
        -13    1    3    3    0    0 -0.24410379175E+02  0.13941626823E+02 -0.21104001423E+02  0.35151466684E+02  0.10566000000E+00 0.  1.
         23    2    1    0    0    0  0.69073194360E+01 -0.29907310304E+02  0.31330371686E+01  0.94235920961E+02  0.89041757654E+02 0.  0.
         13    1    3    3    0    0  0.31317698611E+02 -0.43848937128E+02  0.24237038591E+02  0.59084454277E+02  0.10566000000E+00 0. -1.
         22    1    1    0    0    0 -0.69073194360E+01  0.29907310304E+02 -0.31330371686E+01  0.30854079039E+02  0.00000000000E+00 0. -1.
</event>
<event>
 5    1  0.1254921E-009  0.9118800E+02  0.7561462E-02  0.1125453E+00
         25   -1    0    0    0    0  0.00000000000E+00  0.00000000000E+00  0.99999998245E-14  0.12509000000E+03  0.12509000000E+03 0.  0.
        -13    1    3    3    0    0  0.35706392378E+01  0.32131591697E+02  0.29983422393E+02  0.44093144955E+02  0.10566000000E+00 0.  1.
         23    2    1    0    0    0  0.17794108979E+02 -0.11441872619E+02  0.28032147104E+02  0.89970944850E+02  0.82833706198E+02 0.  0.
         13    1    3    3    0    0  0.14223469741E+02 -0.43573464316E+02 -0.19512752894E+01  0.45877799895E+02  0.10566000000E+00 0. -1.
         22    1    1    0    0    0 -0.17794108979E+02  0.11441872619E+02 -0.28032147104E+02  0.35119055150E+02  0.00000000000E+00 0. -1.
</event>
<event>
 5    1  0.1254921E-009  0.9118800E+02  0.7561462E-02  0.1125453E+00
         25   -1    0    0    0    0  0.00000000000E+00  0.00000000000E+00  0.99999998245E-14  0.12509000000E+03  0.12509000000E+03 0.  0.
        -13    1    3    3    0    0  0.30555721029E+02 -0.26673402301E+02  0.33957784802E+02  0.52898627493E+02  0.10566000000E+00 0.  1.
         23    2    1    0    0    0 -0.30253700210E+01 -0.27710099515E+02  0.60704015234E+01  0.96561904138E+02  0.92251553251E+02 0.  0.
         13    1    3    3    0    0 -0.33581091050E+02 -0.10366972138E+01 -0.27887383278E+02  0.43663276645E+02  0.10566000000E+00 0. -1.
         22    1    1    0    0    0  0.30253700210E+01  0.27710099515E+02 -0.60704015234E+01  0.28528095862E+02  0.00000000000E+00 0.  1.
</event>
<event>
 5    1  0.1254921E-009  0.9118800E+02  0.7561462E-02  0.1125453E+00
         25   -1    0    0    0    0  0.00000000000E+00  0.00000000000E+00  0.99999998245E-14  0.12509000000E+03  0.12509000000E+03 0.  0.
        -13    1    3    3    0    0  0.17739043705E+02 -0.90494762808E+00 -0.38370885410E+02  0.42282722393E+02  0.10566000000E+00 0.  1.
         23    2    1    0    0    0 -0.47867640683E+00  0.30868664466E+02 -0.16091690256E+01  0.94175715245E+02  0.88957137656E+02 0.  0.
         13    1    3    3    0    0 -0.18217720112E+02  0.31773612094E+02  0.36761716384E+02  0.51892992852E+02  0.10566000000E+00 0. -1.
         22    1    1    0    0    0  0.47867640683E+00 -0.30868664466E+02  0.16091690256E+01  0.30914284755E+02  0.00000000000E+00 0. -1.
</event>
<event>
 5    1  0.1254921E-009  0.9118800E+02  0.7561462E-02  0.1125453E+00
         25   -1    0    0    0    0  0.00000000000E+00  0.00000000000E+00  0.99999998245E-14  0.12509000000E+03  0.12509000000E+03 0.  0.
        -13    1    3    3    0    0 -0.28491758275E+02 -0.10110714232E+02 -0.17464003535E+02  0.34914315336E+02  0.10566000000E+00 0.  1.
         23    2    1    0    0    0  0.27751095450E+02  0.88027887483E+01 -0.65729650374E+01  0.95243454843E+02  0.90446113420E+02 0.  0.
         13    1    3    3    0    0  0.56242853725E+02  0.18913502981E+02  0.10891038497E+02  0.60329139507E+02  0.10566000000E+00 0. -1.
         22    1    1    0    0    0 -0.27751095450E+02 -0.88027887483E+01  0.65729650374E+01  0.29846545157E+02  0.00000000000E+00 0. -1.
</event>
<event>
 5    1  0.1254921E-009  0.9118800E+02  0.7561462E-02  0.1125453E+00
         25   -1    0    0    0    0  0.00000000000E+00  0.00000000000E+00  0.99999998245E-14  0.12509000000E+03  0.12509000000E+03 0.  0.
        -13    1    3    3    0    0  0.54741433907E+02 -0.42624373422E+01 -0.31644927652E+01  0.54998346673E+02  0.10566000000E+00 0.  1.
         23    2    1    0    0    0  0.21711718598E+02  0.93339294660E+01  0.16964522528E+02  0.95998489411E+02  0.91484392006E+02 0.  0.
         13    1    3    3    0    0 -0.33029715309E+02  0.13596366808E+02  0.20129015294E+02  0.41000142737E+02  0.10566000000E+00 0. -1.
         22    1    1    0    0    0 -0.21711718598E+02 -0.93339294660E+01 -0.16964522528E+02  0.29091510589E+02  0.00000000000E+00 0.  1.
</event>
<event>
 5    1  0.1254921E-009  0.9118800E+02  0.7561462E-02  0.1125453E+00
         25   -1    0    0    0    0  0.00000000000E+00  0.00000000000E+00  0.99999998245E-14  0.12509000000E+03  0.12509000000E+03 0.  0.
        -13    1    3    3    0    0 -0.13140244814E+02  0.46218519864E+02 -0.17504936623E+02  0.51139530526E+02  0.10566000000E+00 0. -1.
         23    2    1    0    0    0  0.18137556359E+02  0.22036567445E+02  0.42004867158E+01  0.96241683861E+02  0.91816318638E+02 0.  0.
         13    1    3    3    0    0  0.31277801174E+02 -0.24181952419E+02  0.21705423339E+02  0.45102153335E+02  0.10566000000E+00 0.  1.
         22    1    1    0    0    0 -0.18137556359E+02 -0.22036567445E+02 -0.42004867158E+01  0.28848316139E+02  0.00000000000E+00 0. -1.
</event>
<event>
 5    1  0.1254921E-009  0.9118800E+02  0.7561462E-02  0.1125453E+00
         25   -1    0    0    0    0  0.00000000000E+00  0.00000000000E+00  0.99999998245E-14  0.12509000000E+03  0.12509000000E+03 0.  0.
        -13    1    3    3    0    0  0.38740854224E+02 -0.25685515129E+02  0.23111879146E+02  0.51911170235E+02  0.10566000000E+00 0.  1.
         23    2    1    0    0    0  0.28090986334E+02  0.24311575149E+01 -0.86012275112E+01  0.95611276236E+02  0.90953400094E+02 0.  0.
         13    1    3    3    0    0 -0.10649867890E+02  0.28116672644E+02 -0.31713106657E+02  0.43700106001E+02  0.10566000000E+00 0. -1.
         22    1    1    0    0    0 -0.28090986334E+02 -0.24311575149E+01  0.86012275112E+01  0.29478723764E+02  0.00000000000E+00 0. -1.
</event>
<event>
 5    1  0.1254921E-009  0.9118800E+02  0.7561462E-02  0.1125453E+00
         25   -1    0    0    0    0  0.00000000000E+00  0.00000000000E+00  0.99999998245E-14  0.12509000000E+03  0.12509000000E+03 0.  0.
        -13    1    3    3    0    0 -0.34130831966E+02  0.96118227379E+01 -0.50408407274E+02  0.61630507989E+02  0.10566000000E+00 0.  1.
         23    2    1    0    0    0 -0.21381659773E+02  0.95666326711E+01 -0.21214755017E+02  0.93486809247E+02  0.87983076995E+02 0.  0.
         13    1    3    3    0    0  0.12749172192E+02 -0.45190066850E-01  0.29193652257E+02  0.31856301259E+02  0.10566000000E+00 0. -1.
         22    1    1    0    0    0  0.21381659773E+02 -0.95666326711E+01  0.21214755017E+02  0.31603190753E+02  0.00000000000E+00 0.  1.
</event>
<event>
 5    1  0.1254921E-009  0.9118800E+02  0.7561462E-02  0.1125453E+00
         25   -1    0    0    0    0  0.00000000000E+00  0.00000000000E+00  0.99999998245E-14  0.12509000000E+03  0.12509000000E+03 0.  0.
        -13    1    3    3    0    0  0.25302210787E+02 -0.52354546986E+02  0.13966155465E+02  0.59801882272E+02  0.10566000000E+00 0.  1.
         23    2    1    0    0    0  0.22355493614E+02 -0.16912092174E+02  0.37265844737E+01  0.96811485395E+02  0.92589358546E+02 0.  0.
         13    1    3    3    0    0 -0.29467171732E+01  0.35442454811E+02 -0.10239570991E+02  0.37009603122E+02  0.10566000000E+00 0. -1.
         22    1    1    0    0    0 -0.22355493614E+02  0.16912092174E+02 -0.37265844737E+01  0.28278514605E+02  0.00000000000E+00 0.  1.
</event>
<event>
 5    1  0.1254921E-009  0.9118800E+02  0.7561462E-02  0.1125453E+00
         25   -1    0    0    0    0  0.00000000000E+00  0.00000000000E+00  0.99999998245E-14  0.12509000000E+03  0.12509000000E+03 0.  0.
        -13    1    3    3    0    0 -0.37446168484E+02  0.14330287197E+02  0.33892132307E+02  0.52500099634E+02  0.10566000000E+00 0.  1.
         23    2    1    0    0    0 -0.26982032271E+02  0.82044921447E+01 -0.77262393055E+01  0.95848958113E+02  0.91279703334E+02 0.  0.
         13    1    3    3    0    0  0.10464136212E+02 -0.61257950520E+01 -0.41618371613E+02  0.43348858479E+02  0.10566000000E+00 0. -1.
         22    1    1    0    0    0  0.26982032271E+02 -0.82044921447E+01  0.77262393055E+01  0.29241041887E+02  0.00000000000E+00 0.  1.
</event>
<event>
 5    1  0.1254921E-009  0.9118800E+02  0.7561462E-02  0.1125453E+00
         25   -1    0    0    0    0  0.00000000000E+00  0.00000000000E+00  0.99999998245E-14  0.12509000000E+03  0.12509000000E+03 0.  0.
        -13    1    3    3    0    0 -0.35212515754E+02  0.13146594900E+02  0.48389464851E+02  0.61272389343E+02  0.10566000000E+00 0.  1.
         23    2    1    0    0    0 -0.11260150971E+02  0.12977429277E+02  0.25032133897E+02  0.94728636427E+02  0.89731277498E+02 0.  0.
         13    1    3    3    0    0  0.23952364783E+02 -0.16916562365E+00 -0.23357330954E+02  0.33456247085E+02  0.10566000000E+00 0. -1.
         22    1    1    0    0    0  0.11260150971E+02 -0.12977429277E+02 -0.25032133897E+02  0.30361363573E+02  0.00000000000E+00 0.  1.
</event>
<event>
 5    1  0.1254921E-009  0.9118800E+02  0.7561462E-02  0.1125453E+00
         25   -1    0    0    0    0  0.00000000000E+00  0.00000000000E+00  0.99999998245E-14  0.12509000000E+03  0.12509000000E+03 0.  0.
        -13    1    3    3    0    0 -0.67934250064E+01  0.14762122674E+01  0.36343310313E+02  0.37002394443E+02  0.10566000000E+00 0.  1.
         23    2    1    0    0    0  0.25240985013E+02 -0.75291005181E+01 -0.12364833128E+02  0.95992168855E+02  0.91475749269E+02 0.  0.
         13    1    3    3    0    0  0.32034410019E+02 -0.90053127855E+01 -0.48708143441E+02  0.58989774412E+02  0.10566000000E+00 0. -1.
         22    1    1    0    0    0 -0.25240985013E+02  0.75291005181E+01  0.12364833128E+02  0.29097831145E+02  0.00000000000E+00 0. -1.
</event>
<event>
 5    1  0.1254921E-009  0.9118800E+02  0.7561462E-02  0.1125453E+00
         25   -1    0    0    0    0  0.00000000000E+00  0.00000000000E+00  0.99999998245E-14  0.12509000000E+03  0.12509000000E+03 0.  0.
        -13    1    3    3    0    0 -0.33540261001E+02  0.24451277286E+02  0.91493936071E+01  0.42503372058E+02  0.10566000000E+00 0.  1.
         23    2    1    0    0    0  0.10733069360E+02  0.27023318609E+02 -0.14319480081E+02  0.92678489139E+02  0.86826242074E+02 0.  0.
         13    1    3    3    0    0  0.44273330361E+02  0.25720413230E+01 -0.23468873688E+02  0.50175117081E+02  0.10566000000E+00 0. -1.
         22    1    1    0    0    0 -0.10733069360E+02 -0.27023318609E+02  0.14319480081E+02  0.32411510861E+02  0.00000000000E+00 0. -1.
</event>
<event>
 5    1  0.1254921E-009  0.9118800E+02  0.7561462E-02  0.1125453E+00
         25   -1    0    0    0    0  0.00000000000E+00  0.00000000000E+00  0.99999998245E-14  0.12509000000E+03  0.12509000000E+03 0.  0.
        -13    1    3    3    0    0  0.24812629182E+02  0.27819158102E+02 -0.41158657129E+00  0.37279386958E+02  0.10566000000E+00 0.  1.
         23    2    1    0    0    0 -0.15631344084E+02  0.53764018854E+00  0.27476864332E+02  0.93473452934E+02  0.87964085598E+02 0.  0.
         13    1    3    3    0    0 -0.40443973266E+02 -0.27281517913E+02  0.27888450903E+02  0.56194065977E+02  0.10566000000E+00 0. -1.
         22    1    1    0    0    0  0.15631344084E+02 -0.53764018854E+00 -0.27476864332E+02  0.31616547066E+02  0.00000000000E+00 0. -1.
</event>
<event>
 5    1  0.1254921E-009  0.9118800E+02  0.7561462E-02  0.1125453E+00
         25   -1    0    0    0    0  0.00000000000E+00  0.00000000000E+00  0.99999998245E-14  0.12509000000E+03  0.12509000000E+03 0.  0.
        -13    1    3    3    0    0  0.24188464747E+01  0.31751801086E+02 -0.28182466531E+02  0.42523996453E+02  0.10566000000E+00 0.  1.
         23    2    1    0    0    0  0.17223068570E+02  0.21026512570E+02  0.18200084439E+02  0.92379277057E+02  0.86394093746E+02 0.  0.
         13    1    3    3    0    0  0.14804222095E+02 -0.10725288516E+02  0.46382550971E+02  0.49855280605E+02  0.10566000000E+00 0. -1.
         22    1    1    0    0    0 -0.17223068570E+02 -0.21026512570E+02 -0.18200084439E+02  0.32710722943E+02  0.00000000000E+00 0. -1.
</event>
<event>
 5    1  0.1254921E-009  0.9118800E+02  0.7561462E-02  0.1125453E+00
         25   -1    0    0    0    0  0.00000000000E+00  0.00000000000E+00  0.99999998245E-14  0.12509000000E+03  0.12509000000E+03 0.  0.
        -13    1    3    3    0    0 -0.30500827712E+02 -0.14414857738E+02 -0.58756888332E+01  0.34243590612E+02  0.10566000000E+00 0.  1.
         23    2    1    0    0    0  0.21025444327E+02  0.11956849771E+02 -0.19862181341E+02  0.93792367291E+02  0.88416437096E+02 0.  0.
         13    1    3    3    0    0  0.51526272039E+02  0.26371707509E+02 -0.13986492508E+02  0.59548776678E+02  0.10566000000E+00 0. -1.
         22    1    1    0    0    0 -0.21025444327E+02 -0.11956849771E+02  0.19862181341E+02  0.31297632709E+02  0.00000000000E+00 0. -1.
</event>
<event>
 5    1  0.1254921E-009  0.9118800E+02  0.7561462E-02  0.1125453E+00
         25   -1    0    0    0    0  0.00000000000E+00  0.00000000000E+00  0.99999998245E-14  0.12509000000E+03  0.12509000000E+03 0.  0.
        -13    1    3    3    0    0  0.24743907060E+02  0.31471250767E+02 -0.14815656680E+02  0.42687415104E+02  0.10566000000E+00 0.  1.
         23    2    1    0    0    0  0.11302394755E+02 -0.21055786263E+02 -0.14939118050E+02  0.96907247997E+02  0.92718645395E+02 0.  0.
         13    1    3    3    0    0 -0.13441512305E+02 -0.52527037030E+02 -0.12346136978E+00  0.54219832893E+02  0.10566000000E+00 0. -1.
         22    1    1    0    0    0 -0.11302394755E+02  0.21055786263E+02  0.14939118050E+02  0.28182752003E+02  0.00000000000E+00 0. -1.
</event>
<event>
 5    1  0.1254921E-009  0.9118800E+02  0.7561462E-02  0.1125453E+00
         25   -1    0    0    0    0  0.00000000000E+00  0.00000000000E+00  0.99999998245E-14  0.12509000000E+03  0.12509000000E+03 0.  0.
        -13    1    3    3    0    0  0.30209506016E+02  0.17430955473E+02 -0.22087882015E+02  0.41283630635E+02  0.10566000000E+00 0.  1.
         23    2    1    0    0    0  0.44420877030E+01 -0.28007086541E+02 -0.10939298640E+02  0.94695966138E+02  0.89685721876E+02 0.  0.
         13    1    3    3    0    0 -0.25767418313E+02 -0.45438042014E+02  0.11148583375E+02  0.53412335503E+02  0.10566000000E+00 0. -1.
         22    1    1    0    0    0 -0.44420877030E+01  0.28007086541E+02  0.10939298640E+02  0.30394033862E+02  0.00000000000E+00 0. -1.
</event>
<event>
 5    1  0.1254921E-009  0.9118800E+02  0.7561462E-02  0.1125453E+00
         25   -1    0    0    0    0  0.00000000000E+00  0.00000000000E+00  0.99999998245E-14  0.12509000000E+03  0.12509000000E+03 0.  0.
        -13    1    3    3    0    0 -0.36819305169E+02 -0.15407228224E+02 -0.30817661868E+02  0.50426018698E+02  0.10566000000E+00 0.  1.
         23    2    1    0    0    0 -0.19995522359E+02 -0.15080367144E+02  0.12646172015E+02  0.97033555922E+02  0.92888895573E+02 0.  0.
         13    1    3    3    0    0  0.16823782810E+02  0.32686107996E+00  0.43463833884E+02  0.46607537224E+02  0.10566000000E+00 0. -1.
         22    1    1    0    0    0  0.19995522359E+02  0.15080367144E+02 -0.12646172015E+02  0.28056444078E+02  0.00000000000E+00 0. -1.
</event>
<event>
 5    1  0.1254921E-009  0.9118800E+02  0.7561462E-02  0.1125453E+00
         25   -1    0    0    0    0  0.00000000000E+00  0.00000000000E+00  0.99999998245E-14  0.12509000000E+03  0.12509000000E+03 0.  0.
        -13    1    3    3    0    0  0.28261868589E+02 -0.21257739935E+02  0.13764781926E+02  0.37948716827E+02  0.10566000000E+00 0.  1.
         23    2    1    0    0    0 -0.21113255842E+02  0.12666235232E+02  0.11546097980E+02  0.97895966357E+02  0.94043100562E+02 0.  0.
         13    1    3    3    0    0 -0.49375124431E+02  0.33923975168E+02 -0.22186839457E+01  0.59947249530E+02  0.10566000000E+00 0. -1.
         22    1    1    0    0    0  0.21113255842E+02 -0.12666235232E+02 -0.11546097980E+02  0.27194033643E+02  0.00000000000E+00 0. -1.
</event>
<event>
 5    1  0.1254921E-009  0.9118800E+02  0.7561462E-02  0.1125453E+00
         25   -1    0    0    0    0  0.00000000000E+00  0.00000000000E+00  0.99999998245E-14  0.12509000000E+03  0.12509000000E+03 0.  0.
        -13    1    3    3    0    0 -0.23984244715E+02 -0.15395580387E+02  0.21282147838E+02  0.35569774678E+02  0.10566000000E+00 0.  1.
         23    2    1    0    0    0 -0.20101603850E+01  0.12301299729E+02 -0.26964561992E+02  0.95383934571E+02  0.90640193353E+02 0.  0.
         13    1    3    3    0    0  0.21974084330E+02  0.27696880116E+02 -0.48246709830E+02  0.59814159894E+02  0.10566000000E+00 0. -1.
         22    1    1    0    0    0  0.20101603850E+01 -0.12301299729E+02  0.26964561992E+02  0.29706065429E+02  0.00000000000E+00 0. -1.
</event>
<event>
 5    1  0.1254921E-009  0.9118800E+02  0.7561462E-02  0.1125453E+00
         25   -1    0    0    0    0  0.00000000000E+00  0.00000000000E+00  0.99999998245E-14  0.12509000000E+03  0.12509000000E+03 0.  0.
        -13    1    3    3    0    0 -0.32840113808E+02  0.77801894483E+00  0.90937123440E+01  0.34084969658E+02  0.10566000000E+00 0.  1.
         23    2    1    0    0    0  0.27809319603E+02  0.71520952878E+01 -0.28757254228E+01  0.96232063128E+02  0.91803210475E+02 0.  0.
         13    1    3    3    0    0  0.60649433411E+02  0.63740763430E+01 -0.11969437767E+02  0.62147093470E+02  0.10566000000E+00 0. -1.
         22    1    1    0    0    0 -0.27809319603E+02 -0.71520952878E+01  0.28757254228E+01  0.28857936872E+02  0.00000000000E+00 0. -1.
</event>
<event>
 5    1  0.1254921E-009  0.9118800E+02  0.7561462E-02  0.1125453E+00
         25   -1    0    0    0    0  0.00000000000E+00  0.00000000000E+00  0.99999998245E-14  0.12509000000E+03  0.12509000000E+03 0.  0.
        -13    1    3    3    0    0 -0.12999940390E+02  0.33695075753E+02  0.82571116057E+01  0.37047910012E+02  0.10566000000E+00 0.  1.
         23    2    1    0    0    0 -0.11404263128E+02 -0.24731219318E+02  0.11367541691E+02  0.95578791442E+02  0.90908712140E+02 0.  0.
         13    1    3    3    0    0  0.15956772625E+01 -0.58426295071E+02  0.31104300855E+01  0.58530881430E+02  0.10566000000E+00 0. -1.
         22    1    1    0    0    0  0.11404263128E+02  0.24731219318E+02 -0.11367541691E+02  0.29511208558E+02  0.00000000000E+00 0. -1.
</event>
<event>
 5    1  0.1254921E-009  0.9118800E+02  0.7561462E-02  0.1125453E+00
         25   -1    0    0    0    0  0.00000000000E+00  0.00000000000E+00  0.99999998245E-14  0.12509000000E+03  0.12509000000E+03 0.  0.
        -13    1    3    3    0    0  0.41440176218E+01  0.24005536491E+02 -0.35268914026E+02  0.42864275625E+02  0.10566000000E+00 0.  1.
         23    2    1    0    0    0 -0.16995049601E+02  0.20189619748E+02  0.12980963271E+02  0.95679834004E+02  0.91047640118E+02 0.  0.
         13    1    3    3    0    0 -0.21139067223E+02 -0.38159167428E+01  0.48249877297E+02  0.52815558378E+02  0.10566000000E+00 0. -1.
         22    1    1    0    0    0  0.16995049601E+02 -0.20189619748E+02 -0.12980963271E+02  0.29410165996E+02  0.00000000000E+00 0. -1.
</event>
<event>
 5    1  0.1254921E-009  0.9118800E+02  0.7561462E-02  0.1125453E+00
         25   -1    0    0    0    0  0.00000000000E+00  0.00000000000E+00  0.99999998245E-14  0.12509000000E+03  0.12509000000E+03 0.  0.
        -13    1    3    3    0    0 -0.87222191383E+01  0.47958511314E+02 -0.19354025707E+02  0.52446976932E+02  0.10566000000E+00 0.  1.
         23    2    1    0    0    0 -0.15227107602E+02  0.62913240910E+01 -0.25158754131E+02  0.95016615186E+02  0.90131840585E+02 0.  0.
         13    1    3    3    0    0 -0.65048884635E+01 -0.41667187223E+02 -0.58047284241E+01  0.42569638254E+02  0.10566000000E+00 0. -1.
         22    1    1    0    0    0  0.15227107602E+02 -0.62913240910E+01  0.25158754131E+02  0.30073384814E+02  0.00000000000E+00 0.  1.
</event>
<event>
 5    1  0.1254921E-009  0.9118800E+02  0.7561462E-02  0.1125453E+00
         25   -1    0    0    0    0  0.00000000000E+00  0.00000000000E+00  0.99999998245E-14  0.12509000000E+03  0.12509000000E+03 0.  0.
        -13    1    3    3    0    0  0.77970574558E+00  0.40904688240E+01  0.34657468251E+02  0.34906892527E+02  0.10566000000E+00 0.  1.
         23    2    1    0    0    0 -0.16208785698E+02  0.18184418533E+01 -0.24030737303E+02  0.96046794255E+02  0.91550417185E+02 0.  0.
         13    1    3    3    0    0 -0.16988491444E+02 -0.22720269707E+01 -0.58688205555E+02  0.61139901728E+02  0.10566000000E+00 0. -1.
         22    1    1    0    0    0  0.16208785698E+02 -0.18184418533E+01  0.24030737303E+02  0.29043205745E+02  0.00000000000E+00 0. -1.
</event>
<event>
 5    1  0.1254921E-009  0.9118800E+02  0.7561462E-02  0.1125453E+00
         25   -1    0    0    0    0  0.00000000000E+00  0.00000000000E+00  0.99999998245E-14  0.12509000000E+03  0.12509000000E+03 0.  0.
        -13    1    3    3    0    0 -0.42376604774E+02 -0.14713032401E+02 -0.43539091304E+02  0.62513307305E+02  0.10566000000E+00 0. -1.
         23    2    1    0    0    0 -0.19502046994E+02 -0.81213507246E+01 -0.21290276816E+02  0.95097299864E+02  0.90243749811E+02 0.  0.
         13    1    3    3    0    0  0.22874557780E+02  0.65916816761E+01  0.22248814488E+02  0.32583992559E+02  0.10566000000E+00 0.  1.
         22    1    1    0    0    0  0.19502046994E+02  0.81213507246E+01  0.21290276816E+02  0.29992700136E+02  0.00000000000E+00 0. -1.
</event>
<event>
 5    1  0.1254921E-009  0.9118800E+02  0.7561462E-02  0.1125453E+00
         25   -1    0    0    0    0  0.00000000000E+00  0.00000000000E+00  0.99999998245E-14  0.12509000000E+03  0.12509000000E+03 0.  0.
        -13    1    3    3    0    0 -0.12537181882E+02  0.17979208873E+02 -0.57263924885E+02  0.61315586424E+02  0.10566000000E+00 0. -1.
         23    2    1    0    0    0 -0.12719043082E+01  0.16066575798E+02 -0.27257353449E+02  0.93424310122E+02  0.87894173904E+02 0.  0.
         13    1    3    3    0    0  0.11265277574E+02 -0.19126330748E+01  0.30006571436E+02  0.32108723698E+02  0.10566000000E+00 0.  1.
         22    1    1    0    0    0  0.12719043082E+01 -0.16066575798E+02  0.27257353449E+02  0.31665689878E+02  0.00000000000E+00 0. -1.
</event>
<event>
 5    1  0.1254921E-009  0.9118800E+02  0.7561462E-02  0.1125453E+00
         25   -1    0    0    0    0  0.00000000000E+00  0.00000000000E+00  0.99999998245E-14  0.12509000000E+03  0.12509000000E+03 0.  0.
        -13    1    3    3    0    0  0.33229282517E+02 -0.29681339135E+01  0.18555327835E+02  0.38174682587E+02  0.10566000000E+00 0. -1.
         23    2    1    0    0    0 -0.95819486206E+01 -0.26022825695E+02 -0.11202086928E+02  0.95182008625E+02  0.90361091283E+02 0.  0.
         13    1    3    3    0    0 -0.42811231137E+02 -0.23054691782E+02 -0.29757414763E+02  0.57007326038E+02  0.10566000000E+00 0.  1.
         22    1    1    0    0    0  0.95819486206E+01  0.26022825695E+02  0.11202086928E+02  0.29907991375E+02  0.00000000000E+00 0.  1.
</event>
<event>
 5    1  0.1254921E-009  0.9118800E+02  0.7561462E-02  0.1125453E+00
         25   -1    0    0    0    0  0.00000000000E+00  0.00000000000E+00  0.99999998245E-14  0.12509000000E+03  0.12509000000E+03 0.  0.
        -13    1    3    3    0    0  0.17621797806E+02 -0.14149158394E+02  0.44735821964E+02  0.50120169314E+02  0.10566000000E+00 0. -1.
         23    2    1    0    0    0 -0.10064862642E+02  0.12542511670E+02  0.29510447601E+02  0.91482224462E+02  0.85085338431E+02 0.  0.
         13    1    3    3    0    0 -0.27686660448E+02  0.26691670064E+02 -0.15225374363E+02  0.41362055149E+02  0.10566000000E+00 0.  1.
         22    1    1    0    0    0  0.10064862642E+02 -0.12542511670E+02 -0.29510447601E+02  0.33607775538E+02  0.00000000000E+00 0. -1.
</event>
<event>
 5    1  0.1254921E-009  0.9118800E+02  0.7561462E-02  0.1125453E+00
         25   -1    0    0    0    0  0.00000000000E+00  0.00000000000E+00  0.99999998245E-14  0.12509000000E+03  0.12509000000E+03 0.  0.
        -13    1    3    3    0    0 -0.10754477106E+02  0.33319435555E+02  0.25070949463E+02  0.43062828920E+02  0.10566000000E+00 0.  1.
         23    2    1    0    0    0 -0.39085033980E+02  0.17297998654E+02  0.24927472884E+02  0.75610311813E+02  0.57172368409E+02 0.  0.
         13    1    3    3    0    0 -0.28330556874E+02 -0.16021436901E+02 -0.14347657876E+00  0.32547482894E+02  0.10566000000E+00 0. -1.
         22    1    1    0    0    0  0.39085033980E+02 -0.17297998654E+02 -0.24927472884E+02  0.49479688187E+02  0.00000000000E+00 0.  1.
</event>
<event>
 5    1  0.1254921E-009  0.9118800E+02  0.7561462E-02  0.1125453E+00
         25   -1    0    0    0    0  0.00000000000E+00  0.00000000000E+00  0.99999998245E-14  0.12509000000E+03  0.12509000000E+03 0.  0.
        -13    1    3    3    0    0  0.20614883707E+01 -0.14695830005E+01 -0.36533647280E+02  0.36621413901E+02  0.10566000000E+00 0.  1.
         23    2    1    0    0    0 -0.18325442398E+02 -0.39955551754E+01  0.20537200272E+02  0.97277001326E+02  0.93216157890E+02 0.  0.
         13    1    3    3    0    0 -0.20386930769E+02 -0.25259721749E+01  0.57070847551E+02  0.60655587425E+02  0.10566000000E+00 0. -1.
         22    1    1    0    0    0  0.18325442398E+02  0.39955551754E+01 -0.20537200272E+02  0.27812998674E+02  0.00000000000E+00 0. -1.
</event>
<event>
 5    1  0.1254921E-009  0.9118800E+02  0.7561462E-02  0.1125453E+00
         25   -1    0    0    0    0  0.00000000000E+00  0.00000000000E+00  0.99999998245E-14  0.12509000000E+03  0.12509000000E+03 0.  0.
        -13    1    3    3    0    0 -0.46198723276E+02  0.13189325813E+02  0.13094988367E+02  0.49797291414E+02  0.10566000000E+00 0.  1.
         23    2    1    0    0    0 -0.24272967905E+02 -0.21948413104E+02  0.54467813798E+01  0.91915051076E+02  0.85719305750E+02 0.  0.
         13    1    3    3    0    0  0.21925755371E+02 -0.35137738917E+02 -0.76482069877E+01  0.42117759662E+02  0.10566000000E+00 0. -1.
         22    1    1    0    0    0  0.24272967905E+02  0.21948413104E+02 -0.54467813798E+01  0.33174948924E+02  0.00000000000E+00 0.  1.
</event>
<event>
 5    1  0.1254921E-009  0.9118800E+02  0.7561462E-02  0.1125453E+00
         25   -1    0    0    0    0  0.00000000000E+00  0.00000000000E+00  0.99999998245E-14  0.12509000000E+03  0.12509000000E+03 0.  0.
        -13    1    3    3    0    0  0.15544633300E+02  0.33667263579E+02  0.28691711380E+02  0.46886519676E+02  0.10566000000E+00 0.  1.
         23    2    1    0    0    0  0.53261582579E+01  0.29023990251E+02 -0.14993493461E+02  0.91990682514E+02  0.85829603584E+02 0.  0.
         13    1    3    3    0    0 -0.10218475042E+02 -0.46432733286E+01 -0.43685204840E+02  0.45104162839E+02  0.10566000000E+00 0. -1.
         22    1    1    0    0    0 -0.53261582579E+01 -0.29023990251E+02  0.14993493461E+02  0.33099317486E+02  0.00000000000E+00 0.  1.
</event>
<event>
 5    1  0.1254921E-009  0.9118800E+02  0.7561462E-02  0.1125453E+00
         25   -1    0    0    0    0  0.00000000000E+00  0.00000000000E+00  0.99999998245E-14  0.12509000000E+03  0.12509000000E+03 0.  0.
        -13    1    3    3    0    0  0.49886498506E+02  0.14542196964E+02  0.54451058359E+01  0.52247474268E+02  0.10566000000E+00 0.  1.
         23    2    1    0    0    0  0.19727987917E+02 -0.14950656434E+02  0.15853537188E+02  0.95695267880E+02  0.91068842192E+02 0.  0.
         13    1    3    3    0    0 -0.30158510589E+02 -0.29492853398E+02  0.10408431352E+02  0.43447793612E+02  0.10566000000E+00 0. -1.
         22    1    1    0    0    0 -0.19727987917E+02  0.14950656434E+02 -0.15853537188E+02  0.29394732120E+02  0.00000000000E+00 0. -1.
</event>
<event>
 5    1  0.1254921E-009  0.9118800E+02  0.7561462E-02  0.1125453E+00
         25   -1    0    0    0    0  0.00000000000E+00  0.00000000000E+00  0.99999998245E-14  0.12509000000E+03  0.12509000000E+03 0.  0.
        -13    1    3    3    0    0  0.50470817045E+02 -0.83776445741E+01  0.28430780560E+02  0.58530408756E+02  0.10566000000E+00 0. -1.
         23    2    1    0    0    0  0.25073722878E+02  0.11506833577E+02  0.96050926996E+01  0.95877731966E+02  0.91319126601E+02 0.  0.
         13    1    3    3    0    0 -0.25397094168E+02  0.19884478151E+02 -0.18825687860E+02  0.37347323210E+02  0.10566000000E+00 0.  1.
         22    1    1    0    0    0 -0.25073722878E+02 -0.11506833577E+02 -0.96050926996E+01  0.29212268034E+02  0.00000000000E+00 0. -1.
</event>
<event>
 5    1  0.1254921E-009  0.9118800E+02  0.7561462E-02  0.1125453E+00
         25   -1    0    0    0    0  0.00000000000E+00  0.00000000000E+00  0.99999998245E-14  0.12509000000E+03  0.12509000000E+03 0.  0.
        -13    1    3    3    0    0  0.98511851124E+01 -0.22556041859E+02 -0.34676067104E+02  0.42523660076E+02  0.10566000000E+00 0. -1.
         23    2    1    0    0    0  0.82993167098E+01 -0.18553257430E+02  0.19531863123E+02  0.96901426142E+02  0.92710790592E+02 0.  0.
         13    1    3    3    0    0 -0.15518684027E+01  0.40027844287E+01  0.54207930227E+02  0.54377766065E+02  0.10566000000E+00 0.  1.
         22    1    1    0    0    0 -0.82993167098E+01  0.18553257430E+02 -0.19531863123E+02  0.28188573858E+02  0.00000000000E+00 0.  1.
</event>
<event>
 5    1  0.1254921E-009  0.9118800E+02  0.7561462E-02  0.1125453E+00
         25   -1    0    0    0    0  0.00000000000E+00  0.00000000000E+00  0.99999998245E-14  0.12509000000E+03  0.12509000000E+03 0.  0.
        -13    1    3    3    0    0  0.33644905810E+02 -0.47440204040E+02  0.63525969393E+01  0.58505720218E+02  0.10566000000E+00 0.  1.
         23    2    1    0    0    0  0.51919757551E+01 -0.23163071197E+02  0.15150716540E+02  0.96929234897E+02  0.92748303955E+02 0.  0.
         13    1    3    3    0    0 -0.28452930055E+02  0.24277132843E+02  0.87981196002E+01  0.38423514679E+02  0.10566000000E+00 0. -1.
         22    1    1    0    0    0 -0.51919757551E+01  0.23163071197E+02 -0.15150716540E+02  0.28160765103E+02  0.00000000000E+00 0.  1.
</event>
<event>
 5    1  0.1254921E-009  0.9118800E+02  0.7561462E-02  0.1125453E+00
         25   -1    0    0    0    0  0.00000000000E+00  0.00000000000E+00  0.99999998245E-14  0.12509000000E+03  0.12509000000E+03 0.  0.
        -13    1    3    3    0    0  0.13517523429E+02  0.26737417730E+02  0.18109728529E+02  0.35008375826E+02  0.10566000000E+00 0. -1.
         23    2    1    0    0    0  0.37778403817E+01 -0.29423192967E+02 -0.17644219108E+01  0.95372840865E+02  0.90624881946E+02 0.  0.
         13    1    3    3    0    0 -0.97396830473E+01 -0.56160610697E+02 -0.19874150440E+02  0.60364465040E+02  0.10566000000E+00 0.  1.
         22    1    1    0    0    0 -0.37778403817E+01  0.29423192967E+02  0.17644219108E+01  0.29717159135E+02  0.00000000000E+00 0.  1.
</event>
<event>
 5    1  0.1254921E-009  0.9118800E+02  0.7561462E-02  0.1125453E+00
         25   -1    0    0    0    0  0.00000000000E+00  0.00000000000E+00  0.99999998245E-14  0.12509000000E+03  0.12509000000E+03 0.  0.
        -13    1    3    3    0    0 -0.57472922897E+02  0.24391834544E+02 -0.13512201673E+01  0.62449462917E+02  0.10566000000E+00 0. -1.
         23    2    1    0    0    0 -0.26474729948E+02  0.89235019820E+01 -0.17752535086E+01  0.97095505211E+02  0.92972282933E+02 0.  0.
         13    1    3    3    0    0  0.30998192948E+02 -0.15468332562E+02 -0.42403334128E+00  0.34646042294E+02  0.10566000000E+00 0.  1.
         22    1    1    0    0    0  0.26474729948E+02 -0.89235019820E+01  0.17752535086E+01  0.27994494789E+02  0.00000000000E+00 0. -1.
</event>
<event>
 5    1  0.1254921E-009  0.9118800E+02  0.7561462E-02  0.1125453E+00
         25   -1    0    0    0    0  0.00000000000E+00  0.00000000000E+00  0.99999998245E-14  0.12509000000E+03  0.12509000000E+03 0.  0.
        -13    1    3    3    0    0  0.39050829603E+02 -0.18562864930E+02 -0.13693611937E+02  0.45354971271E+02  0.10566000000E+00 0.  1.
         23    2    1    0    0    0  0.13793083883E+02  0.24736992251E+02 -0.68760358397E+01  0.95944711916E+02  0.91410830470E+02 0.  0.
         13    1    3    3    0    0 -0.25257745720E+02  0.43299857180E+02  0.68175760971E+01  0.50589740646E+02  0.10566000000E+00 0. -1.
         22    1    1    0    0    0 -0.13793083883E+02 -0.24736992251E+02  0.68760358397E+01  0.29145288084E+02  0.00000000000E+00 0. -1.
</event>
<event>
 5    1  0.1254921E-009  0.9118800E+02  0.7561462E-02  0.1125453E+00
         25   -1    0    0    0    0  0.00000000000E+00  0.00000000000E+00  0.99999998245E-14  0.12509000000E+03  0.12509000000E+03 0.  0.
        -13    1    3    3    0    0 -0.25863295193E+02 -0.44663572110E+02 -0.13143938685E+01  0.51628320785E+02  0.10566000000E+00 0. -1.
         23    2    1    0    0    0 -0.12048837268E+02 -0.10338938634E+02 -0.24937892015E+02  0.95527074066E+02  0.90837521377E+02 0.  0.
         13    1    3    3    0    0  0.13814457924E+02  0.34324633475E+02 -0.23623498146E+02  0.43898753281E+02  0.10566000000E+00 0.  1.
         22    1    1    0    0    0  0.12048837268E+02  0.10338938634E+02  0.24937892015E+02  0.29562925934E+02  0.00000000000E+00 0. -1.
</event>
<event>
 5    1  0.1254921E-009  0.9118800E+02  0.7561462E-02  0.1125453E+00
         25   -1    0    0    0    0  0.00000000000E+00  0.00000000000E+00  0.99999998245E-14  0.12509000000E+03  0.12509000000E+03 0.  0.
        -13    1    3    3    0    0  0.12343439387E+00 -0.14158328143E+02  0.60134962454E+02  0.61779433189E+02  0.10566000000E+00 0. -1.
         23    2    1    0    0    0 -0.54590335556E+01 -0.21928726433E+01  0.27167604331E+02  0.97292725621E+02  0.93237256480E+02 0.  0.
         13    1    3    3    0    0 -0.55824679495E+01  0.11965455500E+02 -0.32967358122E+02  0.35513292432E+02  0.10566000000E+00 0.  1.
         22    1    1    0    0    0  0.54590335556E+01  0.21928726433E+01 -0.27167604331E+02  0.27797274379E+02  0.00000000000E+00 0. -1.
</event>
<event>
 5    1  0.1254921E-009  0.9118800E+02  0.7561462E-02  0.1125453E+00
         25   -1    0    0    0    0  0.00000000000E+00  0.00000000000E+00  0.99999998245E-14  0.12509000000E+03  0.12509000000E+03 0.  0.
        -13    1    3    3    0    0  0.23347104776E+02  0.17621732052E+02  0.15910471332E+02  0.33298153162E+02  0.10566000000E+00 0. -1.
         23    2    1    0    0    0 -0.22778261668E+02 -0.12625326803E+02 -0.13444312442E+02  0.95781338848E+02  0.91186990590E+02 0.  0.
         13    1    3    3    0    0 -0.46125366445E+02 -0.30247058855E+02 -0.29354783773E+02  0.62483185686E+02  0.10566000000E+00 0.  1.
         22    1    1    0    0    0  0.22778261668E+02  0.12625326803E+02  0.13444312442E+02  0.29308661152E+02  0.00000000000E+00 0.  1.
</event>
<event>
 5    1  0.1254921E-009  0.9118800E+02  0.7561462E-02  0.1125453E+00
         25   -1    0    0    0    0  0.00000000000E+00  0.00000000000E+00  0.99999998245E-14  0.12509000000E+03  0.12509000000E+03 0.  0.
        -13    1    3    3    0    0  0.53087772421E+01  0.16332855095E+02  0.27173813975E+02  0.32146113317E+02  0.10566000000E+00 0. -1.
         23    2    1    0    0    0  0.48438054193E+01 -0.19005972454E+02 -0.23847786369E+02  0.94212721063E+02  0.89009159391E+02 0.  0.
         13    1    3    3    0    0 -0.46497182277E+00 -0.35338827549E+02 -0.51021600345E+02  0.62066607746E+02  0.10566000000E+00 0.  1.
         22    1    1    0    0    0 -0.48438054193E+01  0.19005972454E+02  0.23847786369E+02  0.30877278937E+02  0.00000000000E+00 0.  1.
</event>
<event>
 5    1  0.1254921E-009  0.9118800E+02  0.7561462E-02  0.1125453E+00
         25   -1    0    0    0    0  0.00000000000E+00  0.00000000000E+00  0.99999998245E-14  0.12509000000E+03  0.12509000000E+03 0.  0.
        -13    1    3    3    0    0 -0.39716396421E+02  0.25744933610E+02 -0.15523019541E+02  0.49811334563E+02  0.10566000000E+00 0.  1.
         23    2    1    0    0    0  0.55522673814E+00  0.24696666941E+02  0.11004941559E+02  0.98046657503E+02  0.94243326947E+02 0.  0.
         13    1    3    3    0    0  0.40271623160E+02 -0.10482666692E+01  0.26527961100E+02  0.48235322939E+02  0.10566000000E+00 0. -1.
         22    1    1    0    0    0 -0.55522673814E+00 -0.24696666941E+02 -0.11004941559E+02  0.27043342497E+02  0.00000000000E+00 0.  1.
</event>
<event>
 5    1  0.1254921E-009  0.9118800E+02  0.7561462E-02  0.1125453E+00
         25   -1    0    0    0    0  0.00000000000E+00  0.00000000000E+00  0.99999998245E-14  0.12509000000E+03  0.12509000000E+03 0.  0.
        -13    1    3    3    0    0 -0.72434003942E+01  0.55817283718E+02  0.25777982165E+02  0.61907604859E+02  0.10566000000E+00 0.  1.
         23    2    1    0    0    0 -0.94241663300E+01  0.24351487936E+02  0.10634884352E+02  0.96895840305E+02  0.92703253598E+02 0.  0.
         13    1    3    3    0    0 -0.21807659358E+01 -0.31465795782E+02 -0.15143097812E+02  0.34988235446E+02  0.10566000000E+00 0. -1.
         22    1    1    0    0    0  0.94241663300E+01 -0.24351487936E+02 -0.10634884352E+02  0.28194159695E+02  0.00000000000E+00 0.  1.
</event>
<event>
 5    1  0.1254921E-009  0.9118800E+02  0.7561462E-02  0.1125453E+00
         25   -1    0    0    0    0  0.00000000000E+00  0.00000000000E+00  0.99999998245E-14  0.12509000000E+03  0.12509000000E+03 0.  0.
        -13    1    3    3    0    0  0.46748878565E+01  0.40201319056E+02  0.28912457015E+01  0.40575498716E+02  0.10566000000E+00 0. -1.
         23    2    1    0    0    0  0.21755664311E+02 -0.99411360290E+01 -0.15429178309E+02  0.96626081463E+02  0.92338534537E+02 0.  0.
         13    1    3    3    0    0  0.17080776455E+02 -0.50142455085E+02 -0.18320424011E+02  0.56050582747E+02  0.10566000000E+00 0.  1.
         22    1    1    0    0    0 -0.21755664311E+02  0.99411360290E+01  0.15429178309E+02  0.28463918537E+02  0.00000000000E+00 0.  1.
</event>
<event>
 5    1  0.1254921E-009  0.9118800E+02  0.7561462E-02  0.1125453E+00
         25   -1    0    0    0    0  0.00000000000E+00  0.00000000000E+00  0.99999998245E-14  0.12509000000E+03  0.12509000000E+03 0.  0.
        -13    1    3    3    0    0 -0.42517568767E+02  0.19628565199E+02 -0.37279596391E+02  0.59856525933E+02  0.10566000000E+00 0. -1.
         23    2    1    0    0    0 -0.26637594319E+02  0.86641816317E+01 -0.62618403368E+01  0.96387384808E+02  0.92014606619E+02 0.  0.
         13    1    3    3    0    0  0.15879974448E+02 -0.10964383567E+02  0.31017756054E+02  0.36530858875E+02  0.10566000000E+00 0.  1.
         22    1    1    0    0    0  0.26637594319E+02 -0.86641816317E+01  0.62618403368E+01  0.28702615192E+02  0.00000000000E+00 0. -1.
</event>
<event>
 5    1  0.1254921E-009  0.9118800E+02  0.7561462E-02  0.1125453E+00
         25   -1    0    0    0    0  0.00000000000E+00  0.00000000000E+00  0.99999998245E-14  0.12509000000E+03  0.12509000000E+03 0.  0.
        -13    1    3    3    0    0 -0.23264121576E+02  0.33884158856E+02 -0.23076725539E+02  0.47137055484E+02  0.10566000000E+00 0.  1.
         23    2    1    0    0    0  0.95998983952E+01  0.27080157729E+02  0.10394504684E+02  0.94536134132E+02  0.89462516940E+02 0.  0.
         13    1    3    3    0    0  0.32864019971E+02 -0.68040011267E+01  0.33471230223E+02  0.47399078648E+02  0.10566000000E+00 0. -1.
         22    1    1    0    0    0 -0.95998983952E+01 -0.27080157729E+02 -0.10394504684E+02  0.30553865868E+02  0.00000000000E+00 0.  1.
</event>
<event>
 5    1  0.1254921E-009  0.9118800E+02  0.7561462E-02  0.1125453E+00
         25   -1    0    0    0    0  0.00000000000E+00  0.00000000000E+00  0.99999998245E-14  0.12509000000E+03  0.12509000000E+03 0.  0.
        -13    1    3    3    0    0 -0.31876643505E+02  0.78775263255E+01  0.50147832136E+02  0.59941572002E+02  0.10566000000E+00 0. -1.
         23    2    1    0    0    0 -0.57042225884E+01  0.11999526525E+02  0.26458840682E+02  0.95482618448E+02  0.90776282052E+02 0.  0.
         13    1    3    3    0    0  0.26172420917E+02  0.41220001991E+01 -0.23688991454E+02  0.35541046445E+02  0.10566000000E+00 0.  1.
         22    1    1    0    0    0  0.57042225884E+01 -0.11999526525E+02 -0.26458840682E+02  0.29607381552E+02  0.00000000000E+00 0. -1.
</event>
<event>
 5    1  0.1254921E-009  0.9118800E+02  0.7561462E-02  0.1125453E+00
         25   -1    0    0    0    0  0.00000000000E+00  0.00000000000E+00  0.99999998245E-14  0.12509000000E+03  0.12509000000E+03 0.  0.
        -13    1    3    3    0    0 -0.32849116703E+02  0.76810500846E+01 -0.23743199176E+02  0.41253044369E+02  0.10566000000E+00 0.  1.
         23    2    1    0    0    0  0.19612496091E+02 -0.22293098193E+01 -0.23178460079E+02  0.94645610750E+02  0.89615460705E+02 0.  0.
         13    1    3    3    0    0  0.52461612794E+02 -0.99103599039E+01  0.56473909632E+00  0.53392566380E+02  0.10566000000E+00 0. -1.
         22    1    1    0    0    0 -0.19612496091E+02  0.22293098193E+01  0.23178460079E+02  0.30444389250E+02  0.00000000000E+00 0.  1.
</event>
<event>
 5    1  0.1254921E-009  0.9118800E+02  0.7561462E-02  0.1125453E+00
         25   -1    0    0    0    0  0.00000000000E+00  0.00000000000E+00  0.99999998245E-14  0.12509000000E+03  0.12509000000E+03 0.  0.
        -13    1    3    3    0    0 -0.27659875550E+02  0.21194153588E+02  0.46383697102E+02  0.58014820371E+02  0.10566000000E+00 0.  1.
         23    2    1    0    0    0  0.47400651822E+01  0.10750215805E+02  0.33738949877E+01  0.11286631295E+03  0.11220243345E+03 0.  0.
         13    1    3    3    0    0  0.32399940733E+02 -0.10443937783E+02 -0.43009802114E+02  0.54851492576E+02  0.10566000000E+00 0. -1.
         22    1    1    0    0    0 -0.47400651822E+01 -0.10750215805E+02 -0.33738949877E+01  0.12223687053E+02  0.00000000000E+00 0.  1.
</event>
<event>
 5    1  0.1254921E-009  0.9118800E+02  0.7561462E-02  0.1125453E+00
         25   -1    0    0    0    0  0.00000000000E+00  0.00000000000E+00  0.99999998245E-14  0.12509000000E+03  0.12509000000E+03 0.  0.
        -13    1    3    3    0    0  0.28119541759E+02  0.10970100110E+02  0.50004009290E+02  0.58407737795E+02  0.10566000000E+00 0.  1.
         23    2    1    0    0    0  0.93854198670E+01 -0.10396818746E+02  0.25790379665E+02  0.95741684386E+02  0.91132576501E+02 0.  0.
         13    1    3    3    0    0 -0.18734121892E+02 -0.21366918856E+02 -0.24213629625E+02  0.37333946592E+02  0.10566000000E+00 0. -1.
         22    1    1    0    0    0 -0.93854198670E+01  0.10396818746E+02 -0.25790379665E+02  0.29348315614E+02  0.00000000000E+00 0.  1.
</event>
<event>
 5    1  0.1254921E-009  0.9118800E+02  0.7561462E-02  0.1125453E+00
         25   -1    0    0    0    0  0.00000000000E+00  0.00000000000E+00  0.99999998245E-14  0.12509000000E+03  0.12509000000E+03 0.  0.
        -13    1    3    3    0    0  0.23325174580E+02 -0.17231899248E+02  0.22213767747E+02  0.36530326613E+02  0.10566000000E+00 0. -1.
         23    2    1    0    0    0  0.47522187408E+00  0.28514522810E+02 -0.74065668456E+01  0.95625426707E+02  0.90972859434E+02 0.  0.
         13    1    3    3    0    0 -0.22849952706E+02  0.45746422058E+02 -0.29620334592E+02  0.59095100094E+02  0.10566000000E+00 0.  1.
         22    1    1    0    0    0 -0.47522187408E+00 -0.28514522810E+02  0.74065668456E+01  0.29464573293E+02  0.00000000000E+00 0.  1.
</event>
<event>
 5    1  0.1254921E-009  0.9118800E+02  0.7561462E-02  0.1125453E+00
         25   -1    0    0    0    0  0.00000000000E+00  0.00000000000E+00  0.99999998245E-14  0.12509000000E+03  0.12509000000E+03 0.  0.
        -13    1    3    3    0    0  0.36089989087E+02  0.19960862035E+02 -0.61064432743E+01  0.41692003298E+02  0.10566000000E+00 0.  1.
         23    2    1    0    0    0 -0.75126350672E+01 -0.38295698779E+01 -0.27907372131E+02  0.95936497460E+02  0.91399588809E+02 0.  0.
         13    1    3    3    0    0 -0.43602624155E+02 -0.23790431913E+02 -0.21800928857E+02  0.54244494161E+02  0.10566000000E+00 0. -1.
         22    1    1    0    0    0  0.75126350672E+01  0.38295698779E+01  0.27907372131E+02  0.29153502540E+02  0.00000000000E+00 0. -1.
</event>
<event>
 5    1  0.1254921E-009  0.9118800E+02  0.7561462E-02  0.1125453E+00
         25   -1    0    0    0    0  0.00000000000E+00  0.00000000000E+00  0.99999998245E-14  0.12509000000E+03  0.12509000000E+03 0.  0.
        -13    1    3    3    0    0  0.72758428439E+01  0.69871305797E+01 -0.58131395262E+02  0.59000238660E+02  0.10566000000E+00 0.  1.
         23    2    1    0    0    0 -0.10358766249E+02  0.89021212271E+01 -0.27051180876E+02  0.94786234767E+02  0.89811536641E+02 0.  0.
         13    1    3    3    0    0 -0.17634609093E+02  0.19149906473E+01  0.31080214386E+02  0.35785996107E+02  0.10566000000E+00 0. -1.
         22    1    1    0    0    0  0.10358766249E+02 -0.89021212271E+01  0.27051180876E+02  0.30303765233E+02  0.00000000000E+00 0.  1.
</event>
<event>
 5    1  0.1254921E-009  0.9118800E+02  0.7561462E-02  0.1125453E+00
         25   -1    0    0    0    0  0.00000000000E+00  0.00000000000E+00  0.99999998245E-14  0.12509000000E+03  0.12509000000E+03 0.  0.
        -13    1    3    3    0    0  0.20082250710E+02 -0.26860930976E+02  0.12424613145E+02  0.35765745935E+02  0.10566000000E+00 0.  1.
         23    2    1    0    0    0 -0.26975345698E+02  0.96925170680E+01  0.11960537160E+01  0.96401244238E+02  0.92033446005E+02 0.  0.
         13    1    3    3    0    0 -0.47057596408E+02  0.36553448044E+02 -0.11228559429E+02  0.60635498303E+02  0.10566000000E+00 0. -1.
         22    1    1    0    0    0  0.26975345698E+02 -0.96925170680E+01 -0.11960537160E+01  0.28688755762E+02  0.00000000000E+00 0. -1.
</event>
<event>
 5    1  0.1254921E-009  0.9118800E+02  0.7561462E-02  0.1125453E+00
         25   -1    0    0    0    0  0.00000000000E+00  0.00000000000E+00  0.99999998245E-14  0.12509000000E+03  0.12509000000E+03 0.  0.
        -13    1    3    3    0    0  0.57923416331E+02  0.17703519448E+02 -0.30803346527E+00  0.60569322342E+02  0.10566000000E+00 0. -1.
         23    2    1    0    0    0  0.20726260707E+02  0.17474239258E+02  0.24532918095E+01  0.97869684770E+02  0.94008136008E+02 0.  0.
         13    1    3    3    0    0 -0.37197155624E+02 -0.22928018921E+00  0.27613252748E+01  0.37300362428E+02  0.10566000000E+00 0.  1.
         22    1    1    0    0    0 -0.20726260707E+02 -0.17474239258E+02 -0.24532918095E+01  0.27220315230E+02  0.00000000000E+00 0. -1.
</event>
<event>
 5    1  0.1254921E-009  0.9118800E+02  0.7561462E-02  0.1125453E+00
         25   -1    0    0    0    0  0.00000000000E+00  0.00000000000E+00  0.99999998245E-14  0.12509000000E+03  0.12509000000E+03 0.  0.
        -13    1    3    3    0    0  0.46853731560E+01  0.51906706676E+02  0.26340394811E+02  0.58395945770E+02  0.10566000000E+00 0. -1.
         23    2    1    0    0    0  0.13929820954E+02  0.17002592515E+02  0.20615793789E+02  0.94954655011E+02  0.90045807736E+02 0.  0.
         13    1    3    3    0    0  0.92444477978E+01 -0.34904114162E+02 -0.57246010217E+01  0.36558709241E+02  0.10566000000E+00 0.  1.
         22    1    1    0    0    0 -0.13929820954E+02 -0.17002592515E+02 -0.20615793789E+02  0.30135344989E+02  0.00000000000E+00 0. -1.
</event>
<event>
 5    1  0.1254921E-009  0.9118800E+02  0.7561462E-02  0.1125453E+00
         25   -1    0    0    0    0  0.00000000000E+00  0.00000000000E+00  0.99999998245E-14  0.12509000000E+03  0.12509000000E+03 0.  0.
        -13    1    3    3    0    0  0.89271230003E+01  0.23310275882E+02  0.23932055775E+02  0.34580586236E+02  0.10566000000E+00 0.  1.
         23    2    1    0    0    0 -0.23174763503E+02 -0.26224428956E+01 -0.19644172189E+02  0.94596715967E+02  0.89547184772E+02 0.  0.
         13    1    3    3    0    0 -0.32101886503E+02 -0.25932718777E+02 -0.43576227964E+02  0.60016129731E+02  0.10566000000E+00 0. -1.
         22    1    1    0    0    0  0.23174763503E+02  0.26224428956E+01  0.19644172189E+02  0.30493284033E+02  0.00000000000E+00 0. -1.
</event>
<event>
 5    1  0.1254921E-009  0.9118800E+02  0.7561462E-02  0.1125453E+00
         25   -1    0    0    0    0  0.00000000000E+00  0.00000000000E+00  0.99999998245E-14  0.12509000000E+03  0.12509000000E+03 0.  0.
        -13    1    3    3    0    0  0.63984027280E+01  0.41809211311E+02 -0.33296525686E+02  0.53829541098E+02  0.10566000000E+00 0. -1.
         23    2    1    0    0    0 -0.65705366091E+01  0.25457402121E+01 -0.28819883762E+02  0.95421187341E+02  0.90691590288E+02 0.  0.
         13    1    3    3    0    0 -0.12968939337E+02 -0.39263471099E+02  0.44766419249E+01  0.41591646244E+02  0.10566000000E+00 0.  1.
         22    1    1    0    0    0  0.65705366091E+01 -0.25457402121E+01  0.28819883762E+02  0.29668812659E+02  0.00000000000E+00 0. -1.
</event>
<event>
 5    1  0.1254921E-009  0.9118800E+02  0.7561462E-02  0.1125453E+00
         25   -1    0    0    0    0  0.00000000000E+00  0.00000000000E+00  0.99999998245E-14  0.12509000000E+03  0.12509000000E+03 0.  0.
        -13    1    3    3    0    0 -0.63119253280E+01  0.56237557720E+01  0.48790758535E+02  0.49517838329E+02  0.10566000000E+00 0. -1.
         23    2    1    0    0    0 -0.10381282222E+02 -0.21872404308E+02  0.66811379046E+01  0.99974054976E+02  0.96767768259E+02 0.  0.
         13    1    3    3    0    0 -0.40693568938E+01 -0.27496160080E+02 -0.42109620630E+02  0.50456216647E+02  0.10566000000E+00 0.  1.
         22    1    1    0    0    0  0.10381282222E+02  0.21872404308E+02 -0.66811379046E+01  0.25115945024E+02  0.00000000000E+00 0. -1.
</event>
<event>
 5    1  0.1254921E-009  0.9118800E+02  0.7561462E-02  0.1125453E+00
         25   -1    0    0    0    0  0.00000000000E+00  0.00000000000E+00  0.99999998245E-14  0.12509000000E+03  0.12509000000E+03 0.  0.
        -13    1    3    3    0    0  0.24926135004E+02 -0.34391460250E+02  0.31727664133E+02  0.53016418020E+02  0.10566000000E+00 0. -1.
         23    2    1    0    0    0  0.59544450409E+01 -0.28697919992E+02 -0.55781593102E+01  0.95254754251E+02  0.90461739528E+02 0.  0.
         13    1    3    3    0    0 -0.18971689963E+02  0.56935402571E+01 -0.37305823443E+02  0.42238336230E+02  0.10566000000E+00 0.  1.
         22    1    1    0    0    0 -0.59544450409E+01  0.28697919992E+02  0.55781593102E+01  0.29835245749E+02  0.00000000000E+00 0.  1.
</event>
<event>
 5    1  0.1254921E-009  0.9118800E+02  0.7561462E-02  0.1125453E+00
         25   -1    0    0    0    0  0.00000000000E+00  0.00000000000E+00  0.99999998245E-14  0.12509000000E+03  0.12509000000E+03 0.  0.
        -13    1    3    3    0    0  0.39761849837E+02 -0.16359846895E+01 -0.30589157050E+02  0.50193513938E+02  0.10566000000E+00 0.  1.
         23    2    1    0    0    0  0.16503576609E+01  0.21240649259E+02 -0.19957564517E+02  0.95897650955E+02  0.91346407789E+02 0.  0.
         13    1    3    3    0    0 -0.38111492176E+02  0.22876633948E+02  0.10631592534E+02  0.45704137017E+02  0.10566000000E+00 0. -1.
         22    1    1    0    0    0 -0.16503576609E+01 -0.21240649259E+02  0.19957564517E+02  0.29192349045E+02  0.00000000000E+00 0. -1.
</event>
<event>
 5    1  0.1254921E-009  0.9118800E+02  0.7561462E-02  0.1125453E+00
         25   -1    0    0    0    0  0.00000000000E+00  0.00000000000E+00  0.99999998245E-14  0.12509000000E+03  0.12509000000E+03 0.  0.
        -13    1    3    3    0    0 -0.21537258982E+02  0.38694749806E+02 -0.23845357357E+02  0.50296614384E+02  0.10566000000E+00 0.  1.
         23    2    1    0    0    0 -0.31840887382E+02  0.39280585467E+01 -0.13288779171E+01  0.92980224701E+02  0.87259867727E+02 0.  0.
         13    1    3    3    0    0 -0.10303628400E+02 -0.34766691259E+02  0.22516479440E+02  0.42683610317E+02  0.10566000000E+00 0. -1.
         22    1    1    0    0    0  0.31840887382E+02 -0.39280585467E+01  0.13288779171E+01  0.32109775299E+02  0.00000000000E+00 0.  1.
</event>
<event>
 5    1  0.1254921E-009  0.9118800E+02  0.7561462E-02  0.1125453E+00
         25   -1    0    0    0    0  0.00000000000E+00  0.00000000000E+00  0.99999998245E-14  0.12509000000E+03  0.12509000000E+03 0.  0.
        -13    1    3    3    0    0  0.23114513926E+02  0.13542431694E+02 -0.30119039222E+02  0.40309377295E+02  0.10566000000E+00 0.  1.
         23    2    1    0    0    0 -0.65388733615E+00 -0.28633505826E+02 -0.18082010021E+01  0.96392006771E+02  0.92020889769E+02 0.  0.
         13    1    3    3    0    0 -0.23768401262E+02 -0.42175937520E+02  0.28310838220E+02  0.56082629476E+02  0.10566000000E+00 0. -1.
         22    1    1    0    0    0  0.65388733615E+00  0.28633505826E+02  0.18082010021E+01  0.28697993229E+02  0.00000000000E+00 0.  1.
</event>
<event>
 5    1  0.1254921E-009  0.9118800E+02  0.7561462E-02  0.1125453E+00
         25   -1    0    0    0    0  0.00000000000E+00  0.00000000000E+00  0.99999998245E-14  0.12509000000E+03  0.12509000000E+03 0.  0.
        -13    1    3    3    0    0  0.10555770991E+02  0.22634114674E+02 -0.30590371201E+02  0.39490624489E+02  0.10566000000E+00 0.  1.
         23    2    1    0    0    0 -0.48914851664E+01  0.16466478044E+02  0.23443560252E+02  0.96026757862E+02  0.91523036345E+02 0.  0.
         13    1    3    3    0    0 -0.15447256158E+02 -0.61676366302E+01  0.54033931453E+02  0.56536133373E+02  0.10566000000E+00 0. -1.
         22    1    1    0    0    0  0.48914851664E+01 -0.16466478044E+02 -0.23443560252E+02  0.29063242138E+02  0.00000000000E+00 0. -1.
</event>
<event>
 5    1  0.1254921E-009  0.9118800E+02  0.7561462E-02  0.1125453E+00
         25   -1    0    0    0    0  0.00000000000E+00  0.00000000000E+00  0.99999998245E-14  0.12509000000E+03  0.12509000000E+03 0.  0.
        -13    1    3    3    0    0 -0.11279546704E+02 -0.40290212208E+02  0.11510658978E+02  0.43393960499E+02  0.10566000000E+00 0.  1.
         23    2    1    0    0    0 -0.33099590406E+02  0.20748329772E+01  0.63023113244E+01  0.91331935112E+02  0.84864099750E+02 0.  0.
         13    1    3    3    0    0 -0.21820043702E+02  0.42365045185E+02 -0.52083476541E+01  0.47937974613E+02  0.10566000000E+00 0. -1.
         22    1    1    0    0    0  0.33099590406E+02 -0.20748329772E+01 -0.63023113244E+01  0.33758064888E+02  0.00000000000E+00 0. -1.
</event>
<event>
 5    1  0.1254921E-009  0.9118800E+02  0.7561462E-02  0.1125453E+00
         25   -1    0    0    0    0  0.00000000000E+00  0.00000000000E+00  0.99999998245E-14  0.12509000000E+03  0.12509000000E+03 0.  0.
        -13    1    3    3    0    0  0.44471753294E+01 -0.15173686265E+01 -0.38068338455E+02  0.38357389546E+02  0.10566000000E+00 0.  1.
         23    2    1    0    0    0 -0.25059884342E+02  0.16202513246E+02  0.63798698702E+01  0.94574070090E+02  0.89515544768E+02 0.  0.
         13    1    3    3    0    0 -0.29507059672E+02  0.17719881872E+02  0.44448208326E+02  0.56216680544E+02  0.10566000000E+00 0. -1.
         22    1    1    0    0    0  0.25059884342E+02 -0.16202513246E+02 -0.63798698702E+01  0.30515929910E+02  0.00000000000E+00 0. -1.
</event>
<event>
 5    1  0.1254921E-009  0.9118800E+02  0.7561462E-02  0.1125453E+00
         25   -1    0    0    0    0  0.00000000000E+00  0.00000000000E+00  0.99999998245E-14  0.12509000000E+03  0.12509000000E+03 0.  0.
        -13    1    3    3    0    0  0.51218967628E+02  0.18707792749E+02  0.12522603361E+02  0.55948109114E+02  0.10566000000E+00 0. -1.
         23    2    1    0    0    0  0.13268705440E+02  0.25981711896E+02  0.79049156482E+01  0.94864256196E+02  0.89920139652E+02 0.  0.
         13    1    3    3    0    0 -0.37950262188E+02  0.72739191466E+01 -0.46176877126E+01  0.38916147082E+02  0.10566000000E+00 0.  1.
         22    1    1    0    0    0 -0.13268705440E+02 -0.25981711896E+02 -0.79049156482E+01  0.30225743804E+02  0.00000000000E+00 0.  1.
</event>
<event>
 5    1  0.1254921E-009  0.9118800E+02  0.7561462E-02  0.1125453E+00
         25   -1    0    0    0    0  0.00000000000E+00  0.00000000000E+00  0.99999998245E-14  0.12509000000E+03  0.12509000000E+03 0.  0.
        -13    1    3    3    0    0  0.33780519054E+02  0.81243372712E+00  0.10533174610E+01  0.33806865543E+02  0.10566000000E+00 0.  1.
         23    2    1    0    0    0 -0.16571511593E+02 -0.20572263095E+02 -0.19510842650E+02  0.92249385112E+02  0.86205818059E+02 0.  0.
         13    1    3    3    0    0 -0.50352030647E+02 -0.21384696822E+02 -0.20564160111E+02  0.58442519569E+02  0.10566000000E+00 0. -1.
         22    1    1    0    0    0  0.16571511593E+02  0.20572263095E+02  0.19510842650E+02  0.32840614888E+02  0.00000000000E+00 0. -1.
</event>
<event>
 5    1  0.1254921E-009  0.9118800E+02  0.7561462E-02  0.1125453E+00
         25   -1    0    0    0    0  0.00000000000E+00  0.00000000000E+00  0.99999998245E-14  0.12509000000E+03  0.12509000000E+03 0.  0.
        -13    1    3    3    0    0 -0.33072728986E+02 -0.45387708916E+02  0.55902658067E+01  0.56436794373E+02  0.10566000000E+00 0.  1.
         23    2    1    0    0    0 -0.26868659181E+02 -0.50837667293E+01 -0.90514901630E+00  0.97729648667E+02  0.93821614799E+02 0.  0.
         13    1    3    3    0    0  0.62040698058E+01  0.40303942187E+02 -0.64954148230E+01  0.41292854294E+02  0.10566000000E+00 0. -1.
         22    1    1    0    0    0  0.26868659181E+02  0.50837667293E+01  0.90514901630E+00  0.27360351333E+02  0.00000000000E+00 0.  1.
</event>
<event>
 5    1  0.1254921E-009  0.9118800E+02  0.7561462E-02  0.1125453E+00
         25   -1    0    0    0    0  0.00000000000E+00  0.00000000000E+00  0.99999998245E-14  0.12509000000E+03  0.12509000000E+03 0.  0.
        -13    1    3    3    0    0  0.79530700557E+01 -0.33998035983E+02 -0.98882149965E+01  0.36289195828E+02  0.10566000000E+00 0.  1.
         23    2    1    0    0    0  0.50479467478E+01  0.24242790536E+02 -0.17027410291E+02  0.95037922525E+02  0.90161407250E+02 0.  0.
         13    1    3    3    0    0 -0.29051233079E+01  0.58240826519E+02 -0.71391952950E+01  0.58748726697E+02  0.10566000000E+00 0. -1.
         22    1    1    0    0    0 -0.50479467478E+01 -0.24242790536E+02  0.17027410291E+02  0.30052077475E+02  0.00000000000E+00 0. -1.
</event>
<event>
 5    1  0.1254921E-009  0.9118800E+02  0.7561462E-02  0.1125453E+00
         25   -1    0    0    0    0  0.00000000000E+00  0.00000000000E+00  0.99999998245E-14  0.12509000000E+03  0.12509000000E+03 0.  0.
        -13    1    3    3    0    0 -0.19699047288E+01 -0.42353872626E+01  0.37214245205E+02  0.37506402655E+02  0.10566000000E+00 0.  1.
         23    2    1    0    0    0  0.14595802131E+01 -0.24248447765E+02 -0.17027623349E+02  0.95424236056E+02  0.90695795253E+02 0.  0.
         13    1    3    3    0    0  0.34294849419E+01 -0.20013060503E+02 -0.54241868554E+02  0.57917833402E+02  0.10566000000E+00 0. -1.
         22    1    1    0    0    0 -0.14595802131E+01  0.24248447765E+02  0.17027623349E+02  0.29665763944E+02  0.00000000000E+00 0. -1.
</event>
<event>
 5    1  0.1254921E-009  0.9118800E+02  0.7561462E-02  0.1125453E+00
         25   -1    0    0    0    0  0.00000000000E+00  0.00000000000E+00  0.99999998245E-14  0.12509000000E+03  0.12509000000E+03 0.  0.
        -13    1    3    3    0    0 -0.24210361706E+02 -0.47126541982E+02  0.13327222570E+02  0.54632212096E+02  0.10566000000E+00 0. -1.
         23    2    1    0    0    0 -0.21418268436E+02 -0.22618928508E+02 -0.13556561427E+02  0.91117385921E+02  0.84547261988E+02 0.  0.
         13    1    3    3    0    0  0.27920932700E+01  0.24507613474E+02 -0.26883783997E+02  0.36485173825E+02  0.10566000000E+00 0.  1.
         22    1    1    0    0    0  0.21418268436E+02  0.22618928508E+02  0.13556561427E+02  0.33972614079E+02  0.00000000000E+00 0. -1.
</event>
<event>
 5    1  0.1254921E-009  0.9118800E+02  0.7561462E-02  0.1125453E+00
         25   -1    0    0    0    0  0.00000000000E+00  0.00000000000E+00  0.99999998245E-14  0.12509000000E+03  0.12509000000E+03 0.  0.
        -13    1    3    3    0    0  0.15656444381E+02 -0.50084577571E+02  0.11841825319E+02  0.53794322674E+02  0.10566000000E+00 0.  1.
         23    2    1    0    0    0 -0.15401671229E+02 -0.21524247546E+02  0.12098498542E+02  0.95988825178E+02  0.91471176788E+02 0.  0.
         13    1    3    3    0    0 -0.31058115610E+02  0.28560330025E+02  0.25667322363E+00  0.42194502503E+02  0.10566000000E+00 0. -1.
         22    1    1    0    0    0  0.15401671229E+02  0.21524247546E+02 -0.12098498542E+02  0.29101174822E+02  0.00000000000E+00 0.  1.
</event>
<event>
 5    1  0.1254921E-009  0.9118800E+02  0.7561462E-02  0.1125453E+00
         25   -1    0    0    0    0  0.00000000000E+00  0.00000000000E+00  0.99999998245E-14  0.12509000000E+03  0.12509000000E+03 0.  0.
        -13    1    3    3    0    0 -0.83688448175E+01  0.95093737001E+00  0.27277723787E+02  0.28548681660E+02  0.10566000000E+00 0.  1.
         23    2    1    0    0    0  0.36183179534E+02  0.61592503093E+01 -0.10194522735E+02  0.86996862307E+02  0.78213597999E+02 0.  0.
         13    1    3    3    0    0  0.44552024351E+02  0.52083129393E+01 -0.37472246522E+02  0.58448180647E+02  0.10566000000E+00 0. -1.
         22    1    1    0    0    0 -0.36183179534E+02 -0.61592503093E+01  0.10194522735E+02  0.38093137693E+02  0.00000000000E+00 0. -1.
</event>
<event>
 5    1  0.1254921E-009  0.9118800E+02  0.7561462E-02  0.1125453E+00
         25   -1    0    0    0    0  0.00000000000E+00  0.00000000000E+00  0.99999998245E-14  0.12509000000E+03  0.12509000000E+03 0.  0.
        -13    1    3    3    0    0  0.45819439888E+02 -0.24195853673E+02  0.17880914393E+02  0.54814219598E+02  0.10566000000E+00 0. -1.
         23    2    1    0    0    0  0.13396650094E+02 -0.10007128731E+01  0.26298662171E+02  0.95558808152E+02  0.90881211058E+02 0.  0.
         13    1    3    3    0    0 -0.32422789794E+02  0.23195140800E+02  0.84177477779E+01  0.40744588554E+02  0.10566000000E+00 0.  1.
         22    1    1    0    0    0 -0.13396650094E+02  0.10007128731E+01 -0.26298662171E+02  0.29531191848E+02  0.00000000000E+00 0. -1.
</event>
<event>
 5    1  0.1254921E-009  0.9118800E+02  0.7561462E-02  0.1125453E+00
         25   -1    0    0    0    0  0.00000000000E+00  0.00000000000E+00  0.99999998245E-14  0.12509000000E+03  0.12509000000E+03 0.  0.
        -13    1    3    3    0    0  0.92102732155E+01  0.25482348113E+02  0.31871176448E+02  0.41832550129E+02  0.10566000000E+00 0.  1.
         23    2    1    0    0    0  0.28667330591E+02 -0.46661895533E+01 -0.74907869648E+01  0.95094982789E+02  0.90240537976E+02 0.  0.
         13    1    3    3    0    0  0.19457057375E+02 -0.30148537666E+02 -0.39361963413E+02  0.53262432660E+02  0.10566000000E+00 0. -1.
         22    1    1    0    0    0 -0.28667330591E+02  0.46661895533E+01  0.74907869648E+01  0.29995017211E+02  0.00000000000E+00 0. -1.
</event>
<event>
 5    1  0.1254921E-009  0.9118800E+02  0.7561462E-02  0.1125453E+00
         25   -1    0    0    0    0  0.00000000000E+00  0.00000000000E+00  0.99999998245E-14  0.12509000000E+03  0.12509000000E+03 0.  0.
        -13    1    3    3    0    0  0.58483026076E+01  0.32942185555E+02  0.39381607815E+02  0.51675065851E+02  0.10566000000E+00 0. -1.
         23    2    1    0    0    0  0.15990807614E+02 -0.70566492693E+01  0.23299981597E+02  0.95962841376E+02  0.91435636136E+02 0.  0.
         13    1    3    3    0    0  0.10142505007E+02 -0.39998834825E+02 -0.16081626218E+02  0.44287775525E+02  0.10566000000E+00 0.  1.
         22    1    1    0    0    0 -0.15990807614E+02  0.70566492693E+01 -0.23299981597E+02  0.29127158624E+02  0.00000000000E+00 0. -1.
</event>
<event>
 5    1  0.1254921E-009  0.9118800E+02  0.7561462E-02  0.1125453E+00
         25   -1    0    0    0    0  0.00000000000E+00  0.00000000000E+00  0.99999998245E-14  0.12509000000E+03  0.12509000000E+03 0.  0.
        -13    1    3    3    0    0  0.27707253528E+02  0.16876252571E+02  0.20969897616E+02  0.38629620357E+02  0.10566000000E+00 0. -1.
         23    2    1    0    0    0  0.55662121161E+01  0.28967166494E+01 -0.29200820726E+02  0.95222599448E+02  0.90417265110E+02 0.  0.
         13    1    3    3    0    0 -0.22141041411E+02 -0.13979535922E+02 -0.50170718342E+02  0.56592979091E+02  0.10566000000E+00 0.  1.
         22    1    1    0    0    0 -0.55662121161E+01 -0.28967166494E+01  0.29200820726E+02  0.29867400552E+02  0.00000000000E+00 0.  1.
</event>
<event>
 5    1  0.1254921E-009  0.9118800E+02  0.7561462E-02  0.1125453E+00
         25   -1    0    0    0    0  0.00000000000E+00  0.00000000000E+00  0.99999998245E-14  0.12509000000E+03  0.12509000000E+03 0.  0.
        -13    1    3    3    0    0 -0.17685636800E+02 -0.30565590732E+02 -0.26659516708E+02  0.44246786109E+02  0.10566000000E+00 0.  1.
         23    2    1    0    0    0 -0.85237929275E+01  0.17800607858E+02 -0.24647690266E+02  0.93514292226E+02  0.88022142265E+02 0.  0.
         13    1    3    3    0    0  0.91618438720E+01  0.48366198591E+02  0.20118264419E+01  0.49267506116E+02  0.10566000000E+00 0. -1.
         22    1    1    0    0    0  0.85237929275E+01 -0.17800607858E+02  0.24647690266E+02  0.31575707774E+02  0.00000000000E+00 0. -1.
</event>
<event>
 5    1  0.1254921E-009  0.9118800E+02  0.7561462E-02  0.1125453E+00
         25   -1    0    0    0    0  0.00000000000E+00  0.00000000000E+00  0.99999998245E-14  0.12509000000E+03  0.12509000000E+03 0.  0.
        -13    1    3    3    0    0  0.22857733513E+02  0.12106584823E+02 -0.26108428060E+02  0.36751959910E+02  0.10566000000E+00 0. -1.
         23    2    1    0    0    0  0.45403085941E+02  0.15913754779E+02  0.64619398699E+01  0.76546777290E+02  0.59185848329E+02 0.  0.
         13    1    3    3    0    0  0.22545352428E+02  0.38071699560E+01  0.32570367930E+02  0.39794817380E+02  0.10566000000E+00 0.  1.
         22    1    1    0    0    0 -0.45403085941E+02 -0.15913754779E+02 -0.64619398699E+01  0.48543222710E+02  0.00000000000E+00 0.  1.
</event>
<event>
 5    1  0.1254921E-009  0.9118800E+02  0.7561462E-02  0.1125453E+00
         25   -1    0    0    0    0  0.00000000000E+00  0.00000000000E+00  0.99999998245E-14  0.12509000000E+03  0.12509000000E+03 0.  0.
        -13    1    3    3    0    0  0.12479809248E+02  0.43807988048E+01 -0.50043705236E+02  0.51762154464E+02  0.10566000000E+00 0. -1.
         23    2    1    0    0    0 -0.19939142650E+02  0.67731535022E+01 -0.20902555103E+02  0.95419108071E+02  0.90688722327E+02 0.  0.
         13    1    3    3    0    0 -0.32418951898E+02  0.23923546973E+01  0.29141150132E+02  0.43656953607E+02  0.10566000000E+00 0.  1.
         22    1    1    0    0    0  0.19939142650E+02 -0.67731535022E+01  0.20902555103E+02  0.29670891929E+02  0.00000000000E+00 0.  1.
</event>
<event>
 5    1  0.1254921E-009  0.9118800E+02  0.7561462E-02  0.1125453E+00
         25   -1    0    0    0    0  0.00000000000E+00  0.00000000000E+00  0.99999998245E-14  0.12509000000E+03  0.12509000000E+03 0.  0.
        -13    1    3    3    0    0  0.10783972029E+02 -0.80309329513E+01 -0.38254889818E+02  0.40549200927E+02  0.10566000000E+00 0.  1.
         23    2    1    0    0    0  0.14229760719E+02  0.27958650279E+02  0.71896934646E+00  0.93710243270E+02  0.88300173054E+02 0.  0.
         13    1    3    3    0    0  0.34457886902E+01  0.35989583230E+02  0.38973859165E+02  0.53161042343E+02  0.10566000000E+00 0. -1.
         22    1    1    0    0    0 -0.14229760719E+02 -0.27958650279E+02 -0.71896934646E+00  0.31379756730E+02  0.00000000000E+00 0. -1.
</event>
<event>
 5    1  0.1254921E-009  0.9118800E+02  0.7561462E-02  0.1125453E+00
         25   -1    0    0    0    0  0.00000000000E+00  0.00000000000E+00  0.99999998245E-14  0.12509000000E+03  0.12509000000E+03 0.  0.
        -13    1    3    3    0    0  0.33562890554E+02 -0.47226901663E+02 -0.22149531132E+01  0.57980729940E+02  0.10566000000E+00 0.  1.
         23    2    1    0    0    0  0.15420190332E+02 -0.19608131800E+02  0.15745513041E+02  0.95591147760E+02  0.90925712791E+02 0.  0.
         13    1    3    3    0    0 -0.18142700221E+02  0.27618769863E+02  0.17960466155E+02  0.37610417820E+02  0.10566000000E+00 0. -1.
         22    1    1    0    0    0 -0.15420190332E+02  0.19608131800E+02 -0.15745513041E+02  0.29498852240E+02  0.00000000000E+00 0.  1.
</event>
<event>
 5    1  0.1254921E-009  0.9118800E+02  0.7561462E-02  0.1125453E+00
         25   -1    0    0    0    0  0.00000000000E+00  0.00000000000E+00  0.99999998245E-14  0.12509000000E+03  0.12509000000E+03 0.  0.
        -13    1    3    3    0    0 -0.34247705773E+02  0.27163685678E+01  0.31771279258E+02  0.46794330411E+02  0.10566000000E+00 0.  1.
         23    2    1    0    0    0 -0.20460133287E+01 -0.27170758739E+02  0.16108756343E+02  0.93436748478E+02  0.87911874250E+02 0.  0.
         13    1    3    3    0    0  0.32201692444E+02 -0.29887127307E+02 -0.15662522915E+02  0.46642418066E+02  0.10566000000E+00 0. -1.
         22    1    1    0    0    0  0.20460133287E+01  0.27170758739E+02 -0.16108756343E+02  0.31653251522E+02  0.00000000000E+00 0.  1.
</event>
<event>
 5    1  0.1254921E-009  0.9118800E+02  0.7561462E-02  0.1125453E+00
         25   -1    0    0    0    0  0.00000000000E+00  0.00000000000E+00  0.99999998245E-14  0.12509000000E+03  0.12509000000E+03 0.  0.
        -13    1    3    3    0    0  0.24345337292E+02 -0.27752675541E+02 -0.37059803327E+01  0.37103259990E+02  0.10566000000E+00 0.  1.
         23    2    1    0    0    0 -0.63159288996E+01  0.16514614643E+02 -0.24541414986E+02  0.94842611614E+02  0.89890024327E+02 0.  0.
         13    1    3    3    0    0 -0.30661266192E+02  0.44267290184E+02 -0.20835434653E+02  0.57739351624E+02  0.10566000000E+00 0. -1.
         22    1    1    0    0    0  0.63159288996E+01 -0.16514614643E+02  0.24541414986E+02  0.30247388386E+02  0.00000000000E+00 0. -1.
</event>
<event>
 5    1  0.1254921E-009  0.9118800E+02  0.7561462E-02  0.1125453E+00
         25   -1    0    0    0    0  0.00000000000E+00  0.00000000000E+00  0.99999998245E-14  0.12509000000E+03  0.12509000000E+03 0.  0.
        -13    1    3    3    0    0 -0.20641218548E+02 -0.36208269044E+02 -0.29086112690E+02  0.50824322581E+02  0.10566000000E+00 0. -1.
         23    2    1    0    0    0 -0.24102865534E+02 -0.11161528620E+02  0.94347169408E+01  0.96902383360E+02  0.92712082109E+02 0.  0.
         13    1    3    3    0    0 -0.34616469860E+01  0.25046740424E+02  0.38520829631E+02  0.46078060779E+02  0.10566000000E+00 0.  1.
         22    1    1    0    0    0  0.24102865534E+02  0.11161528620E+02 -0.94347169408E+01  0.28187616640E+02  0.00000000000E+00 0.  1.
</event>
<event>
 5    1  0.1254921E-009  0.9118800E+02  0.7561462E-02  0.1125453E+00
         25   -1    0    0    0    0  0.00000000000E+00  0.00000000000E+00  0.99999998245E-14  0.12509000000E+03  0.12509000000E+03 0.  0.
        -13    1    3    3    0    0 -0.15196469578E+02  0.64828937749E+01  0.40610767286E+02  0.43842971876E+02  0.10566000000E+00 0. -1.
         23    2    1    0    0    0 -0.46778584862E+01  0.25516470952E+02 -0.86935830299E+01  0.97730339260E+02  0.93822535545E+02 0.  0.
         13    1    3    3    0    0  0.10518611092E+02  0.19033577178E+02 -0.49304350316E+02  0.53887367384E+02  0.10566000000E+00 0.  1.
         22    1    1    0    0    0  0.46778584862E+01 -0.25516470952E+02  0.86935830299E+01  0.27359660740E+02  0.00000000000E+00 0.  1.
</event>
<event>
 5    1  0.1254921E-009  0.9118800E+02  0.7561462E-02  0.1125453E+00
         25   -1    0    0    0    0  0.00000000000E+00  0.00000000000E+00  0.99999998245E-14  0.12509000000E+03  0.12509000000E+03 0.  0.
        -13    1    3    3    0    0  0.11145911213E+02  0.45761063034E+02  0.87770004074E+01  0.47909843738E+02  0.10566000000E+00 0. -1.
         23    2    1    0    0    0 -0.24040007358E+02  0.15397913383E+02  0.11138811948E+02  0.94445411213E+02  0.89335574533E+02 0.  0.
         13    1    3    3    0    0 -0.35185918571E+02 -0.30363149651E+02  0.23618115409E+01  0.46535567475E+02  0.10566000000E+00 0.  1.
         22    1    1    0    0    0  0.24040007358E+02 -0.15397913383E+02 -0.11138811948E+02  0.30644588787E+02  0.00000000000E+00 0. -1.
</event>
<event>
 5    1  0.1254921E-009  0.9118800E+02  0.7561462E-02  0.1125453E+00
         25   -1    0    0    0    0  0.00000000000E+00  0.00000000000E+00  0.99999998245E-14  0.12509000000E+03  0.12509000000E+03 0.  0.
        -13    1    3    3    0    0  0.27071981538E+02  0.27920741180E+02 -0.12429954118E+02  0.40828603892E+02  0.10566000000E+00 0.  1.
         23    2    1    0    0    0 -0.22152704321E+02  0.12999229203E+02  0.10748745079E+02  0.97246548537E+02  0.93175283273E+02 0.  0.
         13    1    3    3    0    0 -0.49224685858E+02 -0.14921511977E+02  0.23178699196E+02  0.56417944645E+02  0.10566000000E+00 0. -1.
         22    1    1    0    0    0  0.22152704321E+02 -0.12999229203E+02 -0.10748745079E+02  0.27843451463E+02  0.00000000000E+00 0. -1.
</event>
<event>
 5    1  0.1254921E-009  0.9118800E+02  0.7561462E-02  0.1125453E+00
         25   -1    0    0    0    0  0.00000000000E+00  0.00000000000E+00  0.99999998245E-14  0.12509000000E+03  0.12509000000E+03 0.  0.
        -13    1    3    3    0    0 -0.40504536399E+02 -0.32459687894E+02  0.48203678043E+01  0.52129606913E+02  0.10566000000E+00 0.  1.
         23    2    1    0    0    0 -0.88086060649E+01 -0.10668309988E+02  0.25705245961E+02  0.95898150988E+02  0.91347092532E+02 0.  0.
         13    1    3    3    0    0  0.31695930334E+02  0.21791377906E+02  0.20884878157E+02  0.43768544075E+02  0.10566000000E+00 0. -1.
         22    1    1    0    0    0  0.88086060649E+01  0.10668309988E+02 -0.25705245961E+02  0.29191849012E+02  0.00000000000E+00 0.  1.
</event>
<event>
 5    1  0.1254921E-009  0.9118800E+02  0.7561462E-02  0.1125453E+00
         25   -1    0    0    0    0  0.00000000000E+00  0.00000000000E+00  0.99999998245E-14  0.12509000000E+03  0.12509000000E+03 0.  0.
        -13    1    3    3    0    0  0.49069721050E+02  0.35781210950E+02  0.11552358124E+02  0.61819096752E+02  0.10566000000E+00 0. -1.
         23    2    1    0    0    0  0.19917003212E+02  0.16144178533E+02  0.11553248511E+02  0.96968850156E+02  0.92801717828E+02 0.  0.
         13    1    3    3    0    0 -0.29152717838E+02 -0.19637032418E+02  0.89038711859E-03  0.35149753404E+02  0.10566000000E+00 0.  1.
         22    1    1    0    0    0 -0.19917003212E+02 -0.16144178533E+02 -0.11553248511E+02  0.28121149844E+02  0.00000000000E+00 0. -1.
</event>
<event>
 5    1  0.1254921E-009  0.9118800E+02  0.7561462E-02  0.1125453E+00
         25   -1    0    0    0    0  0.00000000000E+00  0.00000000000E+00  0.99999998245E-14  0.12509000000E+03  0.12509000000E+03 0.  0.
        -13    1    3    3    0    0  0.42999073194E+02 -0.11947556257E+02 -0.42425470326E+02  0.61575937610E+02  0.10566000000E+00 0. -1.
         23    2    1    0    0    0  0.23127807102E+02 -0.14299651985E+02 -0.26073017145E+02  0.87418024590E+02  0.78884303204E+02 0.  0.
         13    1    3    3    0    0 -0.19871266092E+02 -0.23520957278E+01  0.16352453182E+02  0.25842086980E+02  0.10566000000E+00 0.  1.
         22    1    1    0    0    0 -0.23127807102E+02  0.14299651985E+02  0.26073017145E+02  0.37671975410E+02  0.00000000000E+00 0. -1.
</event>
<event>
 5    1  0.1254921E-009  0.9118800E+02  0.7561462E-02  0.1125453E+00
         25   -1    0    0    0    0  0.00000000000E+00  0.00000000000E+00  0.99999998245E-14  0.12509000000E+03  0.12509000000E+03 0.  0.
        -13    1    3    3    0    0  0.21465662644E+02  0.20788093280E+02  0.37687707296E+02  0.48096714443E+02  0.10566000000E+00 0.  1.
         23    2    1    0    0    0 -0.19863058106E+02  0.16020858060E+02  0.13489833339E+02  0.96225063246E+02  0.91793672020E+02 0.  0.
         13    1    3    3    0    0 -0.41328720750E+02 -0.47672352195E+01 -0.24197873957E+02  0.48128348803E+02  0.10566000000E+00 0. -1.
         22    1    1    0    0    0  0.19863058106E+02 -0.16020858060E+02 -0.13489833339E+02  0.28864936754E+02  0.00000000000E+00 0.  1.
</event>
<event>
 5    1  0.1254921E-009  0.9118800E+02  0.7561462E-02  0.1125453E+00
         25   -1    0    0    0    0  0.00000000000E+00  0.00000000000E+00  0.99999998245E-14  0.12509000000E+03  0.12509000000E+03 0.  0.
        -13    1    3    3    0    0 -0.21556826458E+02  0.23615879275E+02 -0.80436519065E+01  0.32971472835E+02  0.10566000000E+00 0.  1.
         23    2    1    0    0    0  0.22156372178E+02 -0.18602334193E+02  0.64538473323E+01  0.95448748156E+02  0.90729596680E+02 0.  0.
         13    1    3    3    0    0  0.43713198636E+02 -0.42218213467E+02  0.14497499239E+02  0.62477275321E+02  0.10566000000E+00 0. -1.
         22    1    1    0    0    0 -0.22156372178E+02  0.18602334193E+02 -0.64538473323E+01  0.29641251844E+02  0.00000000000E+00 0. -1.
</event>
<event>
 5    1  0.1254921E-009  0.9118800E+02  0.7561462E-02  0.1125453E+00
         25   -1    0    0    0    0  0.00000000000E+00  0.00000000000E+00  0.99999998245E-14  0.12509000000E+03  0.12509000000E+03 0.  0.
        -13    1    3    3    0    0 -0.53566647484E+02  0.31579021795E+01  0.74498722998E+01  0.54174438900E+02  0.10566000000E+00 0. -1.
         23    2    1    0    0    0 -0.18382780154E+02  0.21819275792E+02 -0.54604377382E+01  0.96041354892E+02  0.91542984804E+02 0.  0.
         13    1    3    3    0    0  0.35183867329E+02  0.18661373613E+02 -0.12910310038E+02  0.41866915992E+02  0.10566000000E+00 0.  1.
         22    1    1    0    0    0  0.18382780154E+02 -0.21819275792E+02  0.54604377382E+01  0.29048645108E+02  0.00000000000E+00 0. -1.
</event>
<event>
 5    1  0.1254921E-009  0.9118800E+02  0.7561462E-02  0.1125453E+00
         25   -1    0    0    0    0  0.00000000000E+00  0.00000000000E+00  0.99999998245E-14  0.12509000000E+03  0.12509000000E+03 0.  0.
        -13    1    3    3    0    0 -0.73492373215E+01 -0.38461220517E+02  0.30908910926E+02  0.49886357970E+02  0.10566000000E+00 0.  1.
         23    2    1    0    0    0  0.43839065085E+01 -0.27344708679E+02 -0.11372529367E+02  0.95151961434E+02  0.90319486333E+02 0.  0.
         13    1    3    3    0    0  0.11733143830E+02  0.11116511838E+02 -0.42281440293E+02  0.45265603463E+02  0.10566000000E+00 0. -1.
         22    1    1    0    0    0 -0.43839065085E+01  0.27344708679E+02  0.11372529367E+02  0.29938038566E+02  0.00000000000E+00 0.  1.
</event>
<event>
 5    1  0.1254921E-009  0.9118800E+02  0.7561462E-02  0.1125453E+00
         25   -1    0    0    0    0  0.00000000000E+00  0.00000000000E+00  0.99999998245E-14  0.12509000000E+03  0.12509000000E+03 0.  0.
        -13    1    3    3    0    0  0.39346120077E+02 -0.35984904525E+02  0.32091047904E+02  0.62232443616E+02  0.10566000000E+00 0.  1.
         23    2    1    0    0    0  0.15284366360E+02 -0.19716096239E+02  0.13402550819E+02  0.96771019185E+02  0.92534671771E+02 0.  0.
         13    1    3    3    0    0 -0.24061753717E+02  0.16268808286E+02 -0.18688497085E+02  0.34538575569E+02  0.10566000000E+00 0. -1.
         22    1    1    0    0    0 -0.15284366360E+02  0.19716096239E+02 -0.13402550819E+02  0.28318980815E+02  0.00000000000E+00 0.  1.
</event>
<event>
 5    1  0.1254921E-009  0.9118800E+02  0.7561462E-02  0.1125453E+00
         25   -1    0    0    0    0  0.00000000000E+00  0.00000000000E+00  0.99999998245E-14  0.12509000000E+03  0.12509000000E+03 0.  0.
        -13    1    3    3    0    0  0.29945469269E+02  0.24726675615E+02 -0.48465371072E+02  0.62105096199E+02  0.10566000000E+00 0. -1.
         23    2    1    0    0    0  0.14184687524E+02  0.17114788026E+02 -0.22152840611E+02  0.93707366642E+02  0.88296097799E+02 0.  0.
         13    1    3    3    0    0 -0.15760781745E+02 -0.76118875885E+01  0.26312530461E+02  0.31602270443E+02  0.10566000000E+00 0.  1.
         22    1    1    0    0    0 -0.14184687524E+02 -0.17114788026E+02  0.22152840611E+02  0.31382633358E+02  0.00000000000E+00 0. -1.
</event>
<event>
 5    1  0.1254921E-009  0.9118800E+02  0.7561462E-02  0.1125453E+00
         25   -1    0    0    0    0  0.00000000000E+00  0.00000000000E+00  0.99999998245E-14  0.12509000000E+03  0.12509000000E+03 0.  0.
        -13    1    3    3    0    0 -0.21983228861E+02 -0.23076570161E+02  0.26287668824E+02  0.41313958147E+02  0.10566000000E+00 0.  1.
         23    2    1    0    0    0 -0.13342480041E+02  0.40982629486E-02 -0.24177343223E+02  0.97475407558E+02  0.93482026951E+02 0.  0.
         13    1    3    3    0    0  0.86407488202E+01  0.23080668423E+02 -0.50465012047E+02  0.56161449411E+02  0.10566000000E+00 0. -1.
         22    1    1    0    0    0  0.13342480041E+02 -0.40982629486E-02  0.24177343223E+02  0.27614592442E+02  0.00000000000E+00 0. -1.
</event>
<event>
 5    1  0.1254921E-009  0.9118800E+02  0.7561462E-02  0.1125453E+00
         25   -1    0    0    0    0  0.00000000000E+00  0.00000000000E+00  0.99999998245E-14  0.12509000000E+03  0.12509000000E+03 0.  0.
        -13    1    3    3    0    0  0.55727510993E+02 -0.22136664320E+02 -0.93036617631E+01  0.60680776816E+02  0.10566000000E+00 0.  1.
         23    2    1    0    0    0  0.17710038166E+02 -0.17323419552E+02  0.77110305639E+00  0.10030409843E+03  0.97193473262E+02 0.  0.
         13    1    3    3    0    0 -0.38017472827E+02  0.48132447677E+01  0.10074764819E+02  0.39623321612E+02  0.10566000000E+00 0. -1.
         22    1    1    0    0    0 -0.17710038166E+02  0.17323419552E+02 -0.77110305639E+00  0.24785901572E+02  0.00000000000E+00 0.  1.
</event>
<event>
 5    1  0.1254921E-009  0.9118800E+02  0.7561462E-02  0.1125453E+00
         25   -1    0    0    0    0  0.00000000000E+00  0.00000000000E+00  0.99999998245E-14  0.12509000000E+03  0.12509000000E+03 0.  0.
        -13    1    3    3    0    0 -0.21101003977E+02  0.48286484984E+02  0.23181071940E+02  0.57569178049E+02  0.10566000000E+00 0.  1.
         23    2    1    0    0    0 -0.17357749877E+02  0.27176961757E+02 -0.44446793077E+01  0.92537981548E+02  0.86623577181E+02 0.  0.
         13    1    3    3    0    0  0.37432541004E+01 -0.21109523227E+02 -0.27625751247E+02  0.34968803499E+02  0.10566000000E+00 0. -1.
         22    1    1    0    0    0  0.17357749877E+02 -0.27176961757E+02  0.44446793077E+01  0.32552018452E+02  0.00000000000E+00 0.  1.
</event>
<event>
 5    1  0.1254921E-009  0.9118800E+02  0.7561462E-02  0.1125453E+00
         25   -1    0    0    0    0  0.00000000000E+00  0.00000000000E+00  0.99999998245E-14  0.12509000000E+03  0.12509000000E+03 0.  0.
        -13    1    3    3    0    0 -0.33865065553E+02  0.76378968454E+01 -0.23145752916E+02  0.41724299577E+02  0.10566000000E+00 0. -1.
         23    2    1    0    0    0 -0.19505793055E+01  0.32460651952E+02 -0.27648460201E+02  0.82405857320E+02  0.70489639554E+02 0.  0.
         13    1    3    3    0    0  0.31914486247E+02  0.24822755107E+02 -0.45027072853E+01  0.40681557744E+02  0.10566000000E+00 0.  1.
         22    1    1    0    0    0  0.19505793055E+01 -0.32460651952E+02  0.27648460201E+02  0.42684142680E+02  0.00000000000E+00 0.  1.
</event>
<event>
 5    1  0.1254921E-009  0.9118800E+02  0.7561462E-02  0.1125453E+00
         25   -1    0    0    0    0  0.00000000000E+00  0.00000000000E+00  0.99999998245E-14  0.12509000000E+03  0.12509000000E+03 0.  0.
        -13    1    3    3    0    0 -0.52292046436E+01 -0.51775266874E+02  0.32805092811E+01  0.52142072707E+02  0.10566000000E+00 0.  1.
         23    2    1    0    0    0  0.25499540234E+01 -0.25161976876E+02 -0.23409627111E+02  0.90627876047E+02  0.83819889820E+02 0.  0.
         13    1    3    3    0    0  0.77791586670E+01  0.26613289997E+02 -0.26690136392E+02  0.38485803340E+02  0.10566000000E+00 0. -1.
         22    1    1    0    0    0 -0.25499540234E+01  0.25161976876E+02  0.23409627111E+02  0.34462123953E+02  0.00000000000E+00 0.  1.
</event>
<event>
 5    1  0.1254921E-009  0.9118800E+02  0.7561462E-02  0.1125453E+00
         25   -1    0    0    0    0  0.00000000000E+00  0.00000000000E+00  0.99999998245E-14  0.12509000000E+03  0.12509000000E+03 0.  0.
        -13    1    3    3    0    0  0.10096145265E+02  0.10431863670E+02  0.41219605031E+02  0.43701520932E+02  0.10566000000E+00 0.  1.
         23    2    1    0    0    0 -0.12918042046E+02  0.25159977801E+02 -0.39908269223E+01  0.96527314678E+02  0.92204639180E+02 0.  0.
         13    1    3    3    0    0 -0.23014187311E+02  0.14728114131E+02 -0.45210431953E+02  0.52825793746E+02  0.10566000000E+00 0. -1.
         22    1    1    0    0    0  0.12918042046E+02 -0.25159977801E+02  0.39908269223E+01  0.28562685322E+02  0.00000000000E+00 0. -1.
</event>
<event>
 5    1  0.1254921E-009  0.9118800E+02  0.7561462E-02  0.1125453E+00
         25   -1    0    0    0    0  0.00000000000E+00  0.00000000000E+00  0.99999998245E-14  0.12509000000E+03  0.12509000000E+03 0.  0.
        -13    1    3    3    0    0 -0.48372053905E+02 -0.34186560238E+02  0.13083100275E+02  0.60660985623E+02  0.10566000000E+00 0.  1.
         23    2    1    0    0    0 -0.16602197278E+02 -0.23408309949E+02  0.82129509331E+00  0.96380133146E+02  0.92004747761E+02 0.  0.
         13    1    3    3    0    0  0.31769856627E+02  0.10778250290E+02 -0.12261805182E+02  0.35719147523E+02  0.10566000000E+00 0. -1.
         22    1    1    0    0    0  0.16602197278E+02  0.23408309949E+02 -0.82129509331E+00  0.28709866854E+02  0.00000000000E+00 0.  1.
</event>
<event>
 5    1  0.1254921E-009  0.9118800E+02  0.7561462E-02  0.1125453E+00
         25   -1    0    0    0    0  0.00000000000E+00  0.00000000000E+00  0.99999998245E-14  0.12509000000E+03  0.12509000000E+03 0.  0.
        -13    1    3    3    0    0 -0.22955553465E+02  0.23975811714E+01  0.28544002166E+02  0.36707997140E+02  0.10566000000E+00 0.  1.
         23    2    1    0    0    0  0.15943021884E+02  0.20229452289E+02 -0.12903936408E+02  0.96281628621E+02  0.91870723021E+02 0.  0.
         13    1    3    3    0    0  0.38898575349E+02  0.17831871118E+02 -0.41447938574E+02  0.59573631480E+02  0.10566000000E+00 0. -1.
         22    1    1    0    0    0 -0.15943021884E+02 -0.20229452289E+02  0.12903936408E+02  0.28808371379E+02  0.00000000000E+00 0.  1.
</event>
<event>
 5    1  0.1254921E-009  0.9118800E+02  0.7561462E-02  0.1125453E+00
         25   -1    0    0    0    0  0.00000000000E+00  0.00000000000E+00  0.99999998245E-14  0.12509000000E+03  0.12509000000E+03 0.  0.
        -13    1    3    3    0    0 -0.42421452036E+02 -0.15360705866E+02  0.70482167734E+01  0.45664202623E+02  0.10566000000E+00 0. -1.
         23    2    1    0    0    0 -0.14185744376E+02  0.25591951331E+02  0.60342376511E+00  0.95823168318E+02  0.91244354071E+02 0.  0.
         13    1    3    3    0    0  0.28235707660E+02  0.40952657198E+02 -0.64447930083E+01  0.50158965695E+02  0.10566000000E+00 0.  1.
         22    1    1    0    0    0  0.14185744376E+02 -0.25591951331E+02 -0.60342376511E+00  0.29266831682E+02  0.00000000000E+00 0. -1.
</event>
<event>
 5    1  0.1254921E-009  0.9118800E+02  0.7561462E-02  0.1125453E+00
         25   -1    0    0    0    0  0.00000000000E+00  0.00000000000E+00  0.99999998245E-14  0.12509000000E+03  0.12509000000E+03 0.  0.
        -13    1    3    3    0    0  0.20730321540E+02  0.13306049530E+02  0.26675791927E+02  0.36309864007E+02  0.10566000000E+00 0. -1.
         23    2    1    0    0    0 -0.54519777311E+01 -0.28640690579E+02 -0.56587152428E+01  0.95390938125E+02  0.90649858247E+02 0.  0.
         13    1    3    3    0    0 -0.26182299271E+02 -0.41946740110E+02 -0.32334507170E+02  0.59081074118E+02  0.10566000000E+00 0.  1.
         22    1    1    0    0    0  0.54519777311E+01  0.28640690579E+02  0.56587152428E+01  0.29699061875E+02  0.00000000000E+00 0.  1.
</event>
<event>
 5    1  0.1254921E-009  0.9118800E+02  0.7561462E-02  0.1125453E+00
         25   -1    0    0    0    0  0.00000000000E+00  0.00000000000E+00  0.99999998245E-14  0.12509000000E+03  0.12509000000E+03 0.  0.
        -13    1    3    3    0    0 -0.25256617114E+02  0.10932317241E+02 -0.32232494231E+02  0.42383453336E+02  0.10566000000E+00 0.  1.
         23    2    1    0    0    0  0.22507925710E+02 -0.70478631946E+01 -0.18155279109E+02  0.95326041008E+02  0.90560260817E+02 0.  0.
         13    1    3    3    0    0  0.47764542825E+02 -0.17980180435E+02  0.14077215122E+02  0.52942587671E+02  0.10566000000E+00 0. -1.
         22    1    1    0    0    0 -0.22507925710E+02  0.70478631946E+01  0.18155279109E+02  0.29763958992E+02  0.00000000000E+00 0. -1.
</event>
<event>
 5    1  0.1254921E-009  0.9118800E+02  0.7561462E-02  0.1125453E+00
         25   -1    0    0    0    0  0.00000000000E+00  0.00000000000E+00  0.99999998245E-14  0.12509000000E+03  0.12509000000E+03 0.  0.
        -13    1    3    3    0    0  0.34838578688E+02  0.74029385442E+01  0.47053722385E+02  0.59013507084E+02  0.10566000000E+00 0.  1.
         23    2    1    0    0    0  0.40261975869E+01 -0.39279328105E+01  0.27058115342E+02  0.97453420453E+02  0.93452600975E+02 0.  0.
         13    1    3    3    0    0 -0.30812381101E+02 -0.11330871355E+02 -0.19995607042E+02  0.38439913369E+02  0.10566000000E+00 0. -1.
         22    1    1    0    0    0 -0.40261975869E+01  0.39279328105E+01 -0.27058115342E+02  0.27636579547E+02  0.00000000000E+00 0.  1.
</event>
<event>
 5    1  0.1254921E-009  0.9118800E+02  0.7561462E-02  0.1125453E+00
         25   -1    0    0    0    0  0.00000000000E+00  0.00000000000E+00  0.99999998245E-14  0.12509000000E+03  0.12509000000E+03 0.  0.
        -13    1    3    3    0    0  0.28214649552E+02 -0.13758133565E+02 -0.14697274427E+02  0.34660838537E+02  0.10566000000E+00 0. -1.
         23    2    1    0    0    0 -0.26944237187E+02  0.51067815390E+01  0.68706797424E+01  0.96818505958E+02  0.92598842976E+02 0.  0.
         13    1    3    3    0    0 -0.55158886738E+02  0.18864915104E+02  0.21567954169E+02  0.62157667420E+02  0.10566000000E+00 0.  1.
         22    1    1    0    0    0  0.26944237187E+02 -0.51067815390E+01 -0.68706797424E+01  0.28271494042E+02  0.00000000000E+00 0.  1.
</event>
<event>
 5    1  0.1254921E-009  0.9118800E+02  0.7561462E-02  0.1125453E+00
         25   -1    0    0    0    0  0.00000000000E+00  0.00000000000E+00  0.99999998245E-14  0.12509000000E+03  0.12509000000E+03 0.  0.
        -13    1    3    3    0    0 -0.43190587271E+02 -0.23435293748E+02 -0.22486498095E+02  0.54039740770E+02  0.10566000000E+00 0.  1.
         23    2    1    0    0    0 -0.29499158692E+02  0.93303308958E+01 -0.45700375062E+01  0.93814759298E+02  0.88448111236E+02 0.  0.
         13    1    3    3    0    0  0.13691428579E+02  0.32765624644E+02  0.17916460589E+02  0.39775018528E+02  0.10566000000E+00 0. -1.
         22    1    1    0    0    0  0.29499158692E+02 -0.93303308958E+01  0.45700375062E+01  0.31275240702E+02  0.00000000000E+00 0.  1.
</event>
<event>
 5    1  0.1254921E-009  0.9118800E+02  0.7561462E-02  0.1125453E+00
         25   -1    0    0    0    0  0.00000000000E+00  0.00000000000E+00  0.99999998245E-14  0.12509000000E+03  0.12509000000E+03 0.  0.
        -13    1    3    3    0    0  0.19967053883E+02 -0.22411151128E+02 -0.42184823299E+02  0.51773674936E+02  0.10566000000E+00 0.  1.
         23    2    1    0    0    0  0.24149713113E+02 -0.18178128807E+02  0.48780119740E+00  0.94859370493E+02  0.89913342781E+02 0.  0.
         13    1    3    3    0    0  0.41826592307E+01  0.42330223210E+01  0.42672624496E+02  0.43085695557E+02  0.10566000000E+00 0. -1.
         22    1    1    0    0    0 -0.24149713113E+02  0.18178128807E+02 -0.48780119740E+00  0.30230629507E+02  0.00000000000E+00 0.  1.
</event>
<event>
 5    1  0.1254921E-009  0.9118800E+02  0.7561462E-02  0.1125453E+00
         25   -1    0    0    0    0  0.00000000000E+00  0.00000000000E+00  0.99999998245E-14  0.12509000000E+03  0.12509000000E+03 0.  0.
        -13    1    3    3    0    0  0.37502862840E+02  0.65289166116E+01 -0.22554367193E+02  0.44247057719E+02  0.10566000000E+00 0.  1.
         23    2    1    0    0    0  0.12040698285E+02  0.18455494972E+02  0.20052930141E+02  0.95295642865E+02  0.90518262422E+02 0.  0.
         13    1    3    3    0    0 -0.25462164555E+02  0.11926578361E+02  0.42607297334E+02  0.51048585146E+02  0.10566000000E+00 0. -1.
         22    1    1    0    0    0 -0.12040698285E+02 -0.18455494972E+02 -0.20052930141E+02  0.29794357135E+02  0.00000000000E+00 0. -1.
</event>
<event>
 5    1  0.1254921E-009  0.9118800E+02  0.7561462E-02  0.1125453E+00
         25   -1    0    0    0    0  0.00000000000E+00  0.00000000000E+00  0.99999998245E-14  0.12509000000E+03  0.12509000000E+03 0.  0.
        -13    1    3    3    0    0  0.49967532969E+01 -0.11093492224E+02 -0.31628609316E+02  0.33888245817E+02  0.10566000000E+00 0.  1.
         23    2    1    0    0    0  0.10239969938E+01  0.86219614389E+00  0.29124892183E+02  0.95934360808E+02  0.91396664529E+02 0.  0.
         13    1    3    3    0    0 -0.39727563031E+01  0.11955688368E+02  0.60753501499E+02  0.62046114991E+02  0.10566000000E+00 0. -1.
         22    1    1    0    0    0 -0.10239969938E+01 -0.86219614389E+00 -0.29124892183E+02  0.29155639192E+02  0.00000000000E+00 0. -1.
</event>
<event>
 5    1  0.1254921E-009  0.9118800E+02  0.7561462E-02  0.1125453E+00
         25   -1    0    0    0    0  0.00000000000E+00  0.00000000000E+00  0.99999998245E-14  0.12509000000E+03  0.12509000000E+03 0.  0.
        -13    1    3    3    0    0 -0.30563650529E+02 -0.18847831975E+02 -0.16649342112E+02  0.39580162463E+02  0.10566000000E+00 0.  1.
         23    2    1    0    0    0 -0.11993032183E+02  0.27557869095E+02 -0.18851920437E+02  0.89612346834E+02  0.82290393309E+02 0.  0.
         13    1    3    3    0    0  0.18570618346E+02  0.46405701071E+02 -0.22025783249E+01  0.50032184371E+02  0.10566000000E+00 0. -1.
         22    1    1    0    0    0  0.11993032183E+02 -0.27557869095E+02  0.18851920437E+02  0.35477653166E+02  0.00000000000E+00 0.  1.
</event>
<event>
 5    1  0.1254921E-009  0.9118800E+02  0.7561462E-02  0.1125453E+00
         25   -1    0    0    0    0  0.00000000000E+00  0.00000000000E+00  0.99999998245E-14  0.12509000000E+03  0.12509000000E+03 0.  0.
        -13    1    3    3    0    0 -0.18188998708E+02 -0.18012647162E+02  0.24060195554E+02  0.35131172851E+02  0.10566000000E+00 0.  1.
         23    2    1    0    0    0  0.22742403415E+02  0.18905089141E+02 -0.58378765735E+00  0.95510275246E+02  0.90814385210E+02 0.  0.
         13    1    3    3    0    0  0.40931402123E+02  0.36917736303E+02 -0.24643983211E+02  0.60379102395E+02  0.10566000000E+00 0. -1.
         22    1    1    0    0    0 -0.22742403415E+02 -0.18905089141E+02  0.58378765735E+00  0.29579724754E+02  0.00000000000E+00 0. -1.
</event>
<event>
 5    1  0.1254921E-009  0.9118800E+02  0.7561462E-02  0.1125453E+00
         25   -1    0    0    0    0  0.00000000000E+00  0.00000000000E+00  0.99999998245E-14  0.12509000000E+03  0.12509000000E+03 0.  0.
        -13    1    3    3    0    0  0.30980553601E+02 -0.13302606653E+01  0.53764893367E+02  0.62066409737E+02  0.10566000000E+00 0.  1.
         23    2    1    0    0    0  0.12100915629E+02  0.39107318480E+01  0.27082236104E+02  0.95170549887E+02  0.90345227161E+02 0.  0.
         13    1    3    3    0    0 -0.18879637972E+02  0.52409925133E+01 -0.26682657262E+02  0.33104140150E+02  0.10566000000E+00 0. -1.
         22    1    1    0    0    0 -0.12100915629E+02 -0.39107318480E+01 -0.27082236104E+02  0.29919450113E+02  0.00000000000E+00 0.  1.
</event>
<event>
 5    1  0.1254921E-009  0.9118800E+02  0.7561462E-02  0.1125453E+00
         25   -1    0    0    0    0  0.00000000000E+00  0.00000000000E+00  0.99999998245E-14  0.12509000000E+03  0.12509000000E+03 0.  0.
        -13    1    3    3    0    0 -0.46858438279E+02  0.16867577554E+01 -0.28519897873E+02  0.54881273021E+02  0.10566000000E+00 0.  1.
         23    2    1    0    0    0 -0.49850955869E+01  0.74186907095E+01 -0.26421875044E+02  0.97197283554E+02  0.93109120389E+02 0.  0.
         13    1    3    3    0    0  0.41873342692E+02  0.57319329541E+01  0.20980228289E+01  0.42316010533E+02  0.10566000000E+00 0. -1.
         22    1    1    0    0    0  0.49850955869E+01 -0.74186907095E+01  0.26421875044E+02  0.27892716446E+02  0.00000000000E+00 0.  1.
</event>
<event>
 5    1  0.1254921E-009  0.9118800E+02  0.7561462E-02  0.1125453E+00
         25   -1    0    0    0    0  0.00000000000E+00  0.00000000000E+00  0.99999998245E-14  0.12509000000E+03  0.12509000000E+03 0.  0.
        -13    1    3    3    0    0  0.14464648437E+02 -0.46236920278E+02 -0.15678049771E+02  0.50920440492E+02  0.10566000000E+00 0.  1.
         23    2    1    0    0    0  0.22150559743E+02 -0.18519313829E+01 -0.18664757201E+02  0.96065008904E+02  0.91575301405E+02 0.  0.
         13    1    3    3    0    0  0.76859113059E+01  0.44384988895E+02 -0.29867074291E+01  0.45144568412E+02  0.10566000000E+00 0. -1.
         22    1    1    0    0    0 -0.22150559743E+02  0.18519313829E+01  0.18664757201E+02  0.29024991096E+02  0.00000000000E+00 0.  1.
</event>
<event>
 5    1  0.1254921E-009  0.9118800E+02  0.7561462E-02  0.1125453E+00
         25   -1    0    0    0    0  0.00000000000E+00  0.00000000000E+00  0.99999998245E-14  0.12509000000E+03  0.12509000000E+03 0.  0.
        -13    1    3    3    0    0 -0.18687111770E+00  0.51805648341E+02 -0.33026911875E+02  0.61438165604E+02  0.10566000000E+00 0.  1.
         23    2    1    0    0    0  0.81424100845E+01  0.22338048803E+02 -0.13696528759E+02  0.97651301665E+02  0.93717098496E+02 0.  0.
         13    1    3    3    0    0  0.83292812022E+01 -0.29467599538E+02  0.19330383116E+02  0.36213136060E+02  0.10566000000E+00 0. -1.
         22    1    1    0    0    0 -0.81424100845E+01 -0.22338048803E+02  0.13696528759E+02  0.27438698335E+02  0.00000000000E+00 0.  1.
</event>
<event>
 5    1  0.1254921E-009  0.9118800E+02  0.7561462E-02  0.1125453E+00
         25   -1    0    0    0    0  0.00000000000E+00  0.00000000000E+00  0.99999998245E-14  0.12509000000E+03  0.12509000000E+03 0.  0.
        -13    1    3    3    0    0 -0.38489278076E+02  0.73822833604E+01 -0.28212020208E+02  0.48289252248E+02  0.10566000000E+00 0.  1.
         23    2    1    0    0    0  0.61757181726E+01  0.20516070288E+02 -0.20418805731E+02  0.95493103837E+02  0.90790729802E+02 0.  0.
         13    1    3    3    0    0  0.44664996248E+02  0.13133786928E+02  0.77932144769E+01  0.47203851589E+02  0.10566000000E+00 0. -1.
         22    1    1    0    0    0 -0.61757181726E+01 -0.20516070288E+02  0.20418805731E+02  0.29596896163E+02  0.00000000000E+00 0.  1.
</event>
<event>
 5    1  0.1254921E-009  0.9118800E+02  0.7561462E-02  0.1125453E+00
         25   -1    0    0    0    0  0.00000000000E+00  0.00000000000E+00  0.99999998245E-14  0.12509000000E+03  0.12509000000E+03 0.  0.
        -13    1    3    3    0    0  0.38214377923E+02  0.23198562234E+02 -0.50575112030E+01  0.44990016152E+02  0.10566000000E+00 0.  1.
         23    2    1    0    0    0 -0.10811978111E+02  0.27284643853E+02  0.53040628261E+01  0.95265785956E+02  0.90476992824E+02 0.  0.
         13    1    3    3    0    0 -0.49026356034E+02  0.40860816189E+01  0.10361574029E+02  0.50275769804E+02  0.10566000000E+00 0. -1.
         22    1    1    0    0    0  0.10811978111E+02 -0.27284643853E+02 -0.53040628261E+01  0.29824214044E+02  0.00000000000E+00 0.  1.
</event>
<event>
 5    1  0.1254921E-009  0.9118800E+02  0.7561462E-02  0.1125453E+00
         25   -1    0    0    0    0  0.00000000000E+00  0.00000000000E+00  0.99999998245E-14  0.12509000000E+03  0.12509000000E+03 0.  0.
        -13    1    3    3    0    0  0.47656319708E+02  0.12546768128E+02 -0.24291634084E+02  0.54942159123E+02  0.10566000000E+00 0.  1.
         23    2    1    0    0    0  0.28526240866E+02 -0.27974700477E+01  0.78502654605E+01  0.95371337102E+02  0.90622806270E+02 0.  0.
         13    1    3    3    0    0 -0.19130078842E+02 -0.15344238176E+02  0.32141899545E+02  0.40429177979E+02  0.10566000000E+00 0. -1.
         22    1    1    0    0    0 -0.28526240866E+02  0.27974700477E+01 -0.78502654605E+01  0.29718662898E+02  0.00000000000E+00 0.  1.
</event>
<event>
 5    1  0.1254921E-009  0.9118800E+02  0.7561462E-02  0.1125453E+00
         25   -1    0    0    0    0  0.00000000000E+00  0.00000000000E+00  0.99999998245E-14  0.12509000000E+03  0.12509000000E+03 0.  0.
        -13    1    3    3    0    0 -0.46308019627E+02 -0.18379721066E+02 -0.22763342495E+01  0.49874238740E+02  0.10566000000E+00 0.  1.
         23    2    1    0    0    0 -0.21458615814E+02  0.19050441946E+02  0.65407258729E+01  0.95659189173E+02  0.91019271845E+02 0.  0.
         13    1    3    3    0    0  0.24849403813E+02  0.37430163012E+02  0.88170601223E+01  0.45784950433E+02  0.10566000000E+00 0. -1.
         22    1    1    0    0    0  0.21458615814E+02 -0.19050441946E+02 -0.65407258729E+01  0.29430810827E+02  0.00000000000E+00 0.  1.
</event>
<event>
 5    1  0.1254921E-009  0.9118800E+02  0.7561462E-02  0.1125453E+00
         25   -1    0    0    0    0  0.00000000000E+00  0.00000000000E+00  0.99999998245E-14  0.12509000000E+03  0.12509000000E+03 0.  0.
        -13    1    3    3    0    0 -0.23234371311E+01 -0.33980546852E+02  0.16913976755E+02  0.38028537945E+02  0.10566000000E+00 0.  1.
         23    2    1    0    0    0  0.65610301669E+01  0.23470150808E+02  0.15556459335E+02  0.96178090294E+02  0.91729638230E+02 0.  0.
         13    1    3    3    0    0  0.88844672980E+01  0.57450697661E+02 -0.13575174195E+01  0.58149552349E+02  0.10566000000E+00 0. -1.
         22    1    1    0    0    0 -0.65610301669E+01 -0.23470150808E+02 -0.15556459335E+02  0.28911909706E+02  0.00000000000E+00 0.  1.
</event>
<event>
 5    1  0.1254921E-009  0.9118800E+02  0.7561462E-02  0.1125453E+00
         25   -1    0    0    0    0  0.00000000000E+00  0.00000000000E+00  0.99999998245E-14  0.12509000000E+03  0.12509000000E+03 0.  0.
        -13    1    3    3    0    0  0.67217838446E+01 -0.27736918824E+02  0.28570749266E+02  0.40383386702E+02  0.10566000000E+00 0.  1.
         23    2    1    0    0    0  0.16459491198E+02  0.22831055373E+02  0.80781109547E+01  0.95808131608E+02  0.91223737403E+02 0.  0.
         13    1    3    3    0    0  0.97377073531E+01  0.50567974197E+02 -0.20492638311E+02  0.55424744906E+02  0.10566000000E+00 0. -1.
         22    1    1    0    0    0 -0.16459491198E+02 -0.22831055373E+02 -0.80781109547E+01  0.29281868392E+02  0.00000000000E+00 0. -1.
</event>
<event>
 5    1  0.1254921E-009  0.9118800E+02  0.7561462E-02  0.1125453E+00
         25   -1    0    0    0    0  0.00000000000E+00  0.00000000000E+00  0.99999998245E-14  0.12509000000E+03  0.12509000000E+03 0.  0.
        -13    1    3    3    0    0  0.30480166099E+02 -0.41969400675E+02  0.21475203393E+02  0.56139706476E+02  0.10566000000E+00 0. -1.
         23    2    1    0    0    0 -0.44523618820E+01 -0.27220657794E+02  0.98793942773E+01  0.95791703662E+02  0.91201207898E+02 0.  0.
         13    1    3    3    0    0 -0.34932527981E+02  0.14748742881E+02 -0.11595809116E+02  0.39651997185E+02  0.10566000000E+00 0.  1.
         22    1    1    0    0    0  0.44523618820E+01  0.27220657794E+02 -0.98793942773E+01  0.29298296338E+02  0.00000000000E+00 0. -1.
</event>
<event>
 5    1  0.1254921E-009  0.9118800E+02  0.7561462E-02  0.1125453E+00
         25   -1    0    0    0    0  0.00000000000E+00  0.00000000000E+00  0.99999998245E-14  0.12509000000E+03  0.12509000000E+03 0.  0.
        -13    1    3    3    0    0  0.13174936388E+02 -0.43635046545E+02  0.44345435020E+01  0.45795988644E+02  0.10566000000E+00 0.  1.
         23    2    1    0    0    0  0.41863852365E+00 -0.66708114921E+01 -0.27815435446E+02  0.96482773060E+02  0.92144191700E+02 0.  0.
         13    1    3    3    0    0 -0.12756297865E+02  0.36964235052E+02 -0.32249978948E+02  0.50686784416E+02  0.10566000000E+00 0. -1.
         22    1    1    0    0    0 -0.41863852365E+00  0.66708114921E+01  0.27815435446E+02  0.28607226940E+02  0.00000000000E+00 0. -1.
</event>
<event>
 5    1  0.1254921E-009  0.9118800E+02  0.7561462E-02  0.1125453E+00
         25   -1    0    0    0    0  0.00000000000E+00  0.00000000000E+00  0.99999998245E-14  0.12509000000E+03  0.12509000000E+03 0.  0.
        -13    1    3    3    0    0  0.27754877663E+02 -0.95972558604E+01 -0.29991782580E+02  0.41975692257E+02  0.10566000000E+00 0. -1.
         23    2    1    0    0    0 -0.22472712193E+02 -0.14532200427E+02 -0.13802753482E+02  0.94978147745E+02  0.90078437502E+02 0.  0.
         13    1    3    3    0    0 -0.50227589855E+02 -0.49349445669E+01  0.16189029097E+02  0.53002455487E+02  0.10566000000E+00 0.  1.
         22    1    1    0    0    0  0.22472712193E+02  0.14532200427E+02  0.13802753482E+02  0.30111852255E+02  0.00000000000E+00 0.  1.
</event>
<event>
 5    1  0.1254921E-009  0.9118800E+02  0.7561462E-02  0.1125453E+00
         25   -1    0    0    0    0  0.00000000000E+00  0.00000000000E+00  0.99999998245E-14  0.12509000000E+03  0.12509000000E+03 0.  0.
        -13    1    3    3    0    0 -0.16533096294E+02  0.42783466803E+02 -0.41589709270E+01  0.46055146379E+02  0.10566000000E+00 0. -1.
         23    2    1    0    0    0 -0.28790788454E+02  0.80585609755E+01  0.19101858161E+02  0.89611402367E+02  0.82288957608E+02 0.  0.
         13    1    3    3    0    0 -0.12257692160E+02 -0.34724905828E+02  0.23260829088E+02  0.43556255988E+02  0.10566000000E+00 0.  1.
         22    1    1    0    0    0  0.28790788454E+02 -0.80585609755E+01 -0.19101858161E+02  0.35478597633E+02  0.00000000000E+00 0.  1.
</event>
<event>
 5    1  0.1254921E-009  0.9118800E+02  0.7561462E-02  0.1125453E+00
         25   -1    0    0    0    0  0.00000000000E+00  0.00000000000E+00  0.99999998245E-14  0.12509000000E+03  0.12509000000E+03 0.  0.
        -13    1    3    3    0    0 -0.11075621144E+01 -0.28630957872E+02 -0.21407683603E+02  0.35766723694E+02  0.10566000000E+00 0. -1.
         23    2    1    0    0    0  0.18367612505E+02 -0.12952965756E+01  0.25617677098E+02  0.93541428523E+02  0.88060697748E+02 0.  0.
         13    1    3    3    0    0  0.19475174619E+02  0.27335661297E+02  0.47025360701E+02  0.57774704829E+02  0.10566000000E+00 0.  1.
         22    1    1    0    0    0 -0.18367612505E+02  0.12952965756E+01 -0.25617677098E+02  0.31548571477E+02  0.00000000000E+00 0.  1.
</event>
<event>
 5    1  0.1254921E-009  0.9118800E+02  0.7561462E-02  0.1125453E+00
         25   -1    0    0    0    0  0.00000000000E+00  0.00000000000E+00  0.99999998245E-14  0.12509000000E+03  0.12509000000E+03 0.  0.
        -13    1    3    3    0    0  0.36867115159E+02 -0.37017902817E+02 -0.18792620908E+02  0.55521915256E+02  0.10566000000E+00 0.  1.
         23    2    1    0    0    0 -0.45114326425E+00 -0.28645849704E+02 -0.97995450653E+01  0.94810975594E+02  0.89845989193E+02 0.  0.
         13    1    3    3    0    0 -0.37318258423E+02  0.83720531136E+01  0.89930758426E+01  0.39289060338E+02  0.10566000000E+00 0. -1.
         22    1    1    0    0    0  0.45114326425E+00  0.28645849704E+02  0.97995450653E+01  0.30279024406E+02  0.00000000000E+00 0.  1.
</event>
<event>
 5    1  0.1254921E-009  0.9118800E+02  0.7561462E-02  0.1125453E+00
         25   -1    0    0    0    0  0.00000000000E+00  0.00000000000E+00  0.99999998245E-14  0.12509000000E+03  0.12509000000E+03 0.  0.
        -13    1    3    3    0    0 -0.19646032232E+02 -0.43362948982E+02  0.20850465877E+02  0.51971771359E+02  0.10566000000E+00 0.  1.
         23    2    1    0    0    0 -0.25048012264E+02 -0.11722223404E+02 -0.92028730699E+01  0.95943708424E+02  0.91409457243E+02 0.  0.
         13    1    3    3    0    0 -0.54019800320E+01  0.31640725578E+02 -0.30053338947E+02  0.43971937065E+02  0.10566000000E+00 0. -1.
         22    1    1    0    0    0  0.25048012264E+02  0.11722223404E+02  0.92028730699E+01  0.29146291576E+02  0.00000000000E+00 0.  1.
</event>
<event>
 5    1  0.1254921E-009  0.9118800E+02  0.7561462E-02  0.1125453E+00
         25   -1    0    0    0    0  0.00000000000E+00  0.00000000000E+00  0.99999998245E-14  0.12509000000E+03  0.12509000000E+03 0.  0.
        -13    1    3    3    0    0  0.31627609456E+02 -0.54022771270E+01  0.15377674479E+02  0.35580532803E+02  0.10566000000E+00 0. -1.
         23    2    1    0    0    0 -0.14344921795E+02 -0.19178463049E+02 -0.18919943693E+02  0.94568622318E+02  0.89507931668E+02 0.  0.
         13    1    3    3    0    0 -0.45972531252E+02 -0.13776185922E+02 -0.34297618173E+02  0.58988089515E+02  0.10566000000E+00 0.  1.
         22    1    1    0    0    0  0.14344921795E+02  0.19178463049E+02  0.18919943693E+02  0.30521377682E+02  0.00000000000E+00 0.  1.
</event>
<event>
 5    1  0.1254921E-009  0.9118800E+02  0.7561462E-02  0.1125453E+00
         25   -1    0    0    0    0  0.00000000000E+00  0.00000000000E+00  0.99999998245E-14  0.12509000000E+03  0.12509000000E+03 0.  0.
        -13    1    3    3    0    0  0.20813647037E+01 -0.45522445949E+02 -0.27293454358E+02  0.53118442927E+02  0.10566000000E+00 0.  1.
         23    2    1    0    0    0  0.15358835872E+02 -0.17246406594E+02  0.83676768928E+01  0.10052680810E+03  0.97479683782E+02 0.  0.
         13    1    3    3    0    0  0.13277471169E+02  0.28276039354E+02  0.35661131251E+02  0.47408365172E+02  0.10566000000E+00 0. -1.
         22    1    1    0    0    0 -0.15358835872E+02  0.17246406594E+02 -0.83676768928E+01  0.24563191901E+02  0.00000000000E+00 0.  1.
</event>
<event>
 5    1  0.1254921E-009  0.9118800E+02  0.7561462E-02  0.1125453E+00
         25   -1    0    0    0    0  0.00000000000E+00  0.00000000000E+00  0.99999998245E-14  0.12509000000E+03  0.12509000000E+03 0.  0.
        -13    1    3    3    0    0  0.20852726901E+02 -0.41459074048E+01 -0.25117774875E+02  0.32908031636E+02  0.10566000000E+00 0. -1.
         23    2    1    0    0    0 -0.26177155327E+02  0.15172226746E+02  0.82579962597E+01  0.93727053268E+02  0.88323983644E+02 0.  0.
         13    1    3    3    0    0 -0.47029882229E+02  0.19318134150E+02  0.33375771135E+02  0.60819021633E+02  0.10566000000E+00 0.  1.
         22    1    1    0    0    0  0.26177155327E+02 -0.15172226746E+02 -0.82579962597E+01  0.31362946732E+02  0.00000000000E+00 0.  1.
</event>
<event>
 5    1  0.1254921E-009  0.9118800E+02  0.7561462E-02  0.1125453E+00
         25   -1    0    0    0    0  0.00000000000E+00  0.00000000000E+00  0.99999998245E-14  0.12509000000E+03  0.12509000000E+03 0.  0.
        -13    1    3    3    0    0  0.99501061845E+01 -0.25422975162E+02  0.37320898628E+02  0.46240598154E+02  0.10566000000E+00 0.  1.
         23    2    1    0    0    0 -0.22787320923E+02 -0.25141323613E+02  0.79130292172E+01  0.90248011262E+02  0.83251062200E+02 0.  0.
         13    1    3    3    0    0 -0.32737427107E+02  0.28165154931E+00 -0.29407869410E+02  0.44007413108E+02  0.10566000000E+00 0. -1.
         22    1    1    0    0    0  0.22787320923E+02  0.25141323613E+02 -0.79130292172E+01  0.34841988738E+02  0.00000000000E+00 0.  1.
</event>
<event>
 5    1  0.1254921E-009  0.9118800E+02  0.7561462E-02  0.1125453E+00
         25   -1    0    0    0    0  0.00000000000E+00  0.00000000000E+00  0.99999998245E-14  0.12509000000E+03  0.12509000000E+03 0.  0.
        -13    1    3    3    0    0 -0.15693013794E+01  0.52590606440E+02  0.15927244276E+02  0.54972018944E+02  0.10566000000E+00 0. -1.
         23    2    1    0    0    0 -0.21533862781E+02  0.18099170908E+02  0.98491586214E+01  0.95285752662E+02  0.90504593811E+02 0.  0.
         13    1    3    3    0    0 -0.19964561402E+02 -0.34491435532E+02 -0.60780856543E+01  0.40313733718E+02  0.10566000000E+00 0.  1.
         22    1    1    0    0    0  0.21533862781E+02 -0.18099170908E+02 -0.98491586214E+01  0.29804247338E+02  0.00000000000E+00 0. -1.
</event>
<event>
 5    1  0.1254921E-009  0.9118800E+02  0.7561462E-02  0.1125453E+00
         25   -1    0    0    0    0  0.00000000000E+00  0.00000000000E+00  0.99999998245E-14  0.12509000000E+03  0.12509000000E+03 0.  0.
        -13    1    3    3    0    0  0.26202327524E+02  0.17343251293E+02  0.15930636156E+02  0.35229911516E+02  0.10566000000E+00 0.  1.
         23    2    1    0    0    0 -0.19948634096E+02  0.56625794277E+01 -0.21072240215E+02  0.95525627595E+02  0.90835529456E+02 0.  0.
         13    1    3    3    0    0 -0.46150961620E+02 -0.11680671865E+02 -0.37002876370E+02  0.60295716078E+02  0.10566000000E+00 0. -1.
         22    1    1    0    0    0  0.19948634096E+02 -0.56625794277E+01  0.21072240215E+02  0.29564372405E+02  0.00000000000E+00 0. -1.
</event>
<event>
 5    1  0.1254921E-009  0.9118800E+02  0.7561462E-02  0.1125453E+00
         25   -1    0    0    0    0  0.00000000000E+00  0.00000000000E+00  0.99999998245E-14  0.12509000000E+03  0.12509000000E+03 0.  0.
        -13    1    3    3    0    0  0.26500452153E+02  0.17013875549E+02 -0.87063490042E+01  0.32673500004E+02  0.10566000000E+00 0. -1.
         23    2    1    0    0    0 -0.20914289691E+02 -0.16880209377E+02  0.13461800501E+02  0.95030574612E+02  0.90151212174E+02 0.  0.
         13    1    3    3    0    0 -0.47414741844E+02 -0.33894084927E+02  0.22168149505E+02  0.62357074608E+02  0.10566000000E+00 0.  1.
         22    1    1    0    0    0  0.20914289691E+02  0.16880209377E+02 -0.13461800501E+02  0.30059425388E+02  0.00000000000E+00 0.  1.
</event>
<event>
 5    1  0.1254921E-009  0.9118800E+02  0.7561462E-02  0.1125453E+00
         25   -1    0    0    0    0  0.00000000000E+00  0.00000000000E+00  0.99999998245E-14  0.12509000000E+03  0.12509000000E+03 0.  0.
        -13    1    3    3    0    0  0.46921929162E+02 -0.13482551261E+02  0.30469670924E+02  0.57548750074E+02  0.10566000000E+00 0.  1.
         23    2    1    0    0    0  0.27628051112E+02  0.11625225486E+01 -0.11899030648E+01  0.97411912345E+02  0.93397024206E+02 0.  0.
         13    1    3    3    0    0 -0.19293878050E+02  0.14645073810E+02 -0.31659573988E+02  0.39863162271E+02  0.10566000000E+00 0. -1.
         22    1    1    0    0    0 -0.27628051112E+02 -0.11625225486E+01  0.11899030648E+01  0.27678087655E+02  0.00000000000E+00 0.  1.
</event>
<event>
 5    1  0.1254921E-009  0.9118800E+02  0.7561462E-02  0.1125453E+00
         25   -1    0    0    0    0  0.00000000000E+00  0.00000000000E+00  0.99999998245E-14  0.12509000000E+03  0.12509000000E+03 0.  0.
        -13    1    3    3    0    0 -0.49386800264E+00 -0.43555079464E+02 -0.23567983962E+02  0.49525244924E+02  0.10566000000E+00 0.  1.
         23    2    1    0    0    0  0.26757929760E+02 -0.99957443656E+01 -0.92201063132E+01  0.95074802667E+02  0.90212560275E+02 0.  0.
         13    1    3    3    0    0  0.27251797763E+02  0.33559335098E+02  0.14347877649E+02  0.45549557743E+02  0.10566000000E+00 0. -1.
         22    1    1    0    0    0 -0.26757929760E+02  0.99957443656E+01  0.92201063132E+01  0.30015197333E+02  0.00000000000E+00 0.  1.
</event>
<event>
 5    1  0.1254921E-009  0.9118800E+02  0.7561462E-02  0.1125453E+00
         25   -1    0    0    0    0  0.00000000000E+00  0.00000000000E+00  0.99999998245E-14  0.12509000000E+03  0.12509000000E+03 0.  0.
        -13    1    3    3    0    0 -0.23054262448E+02  0.16673318294E+02  0.51455881894E+01  0.28913436355E+02  0.10566000000E+00 0. -1.
         23    2    1    0    0    0  0.29371329087E+02  0.86141552011E+01  0.25020602206E+02  0.85556353862E+02  0.75874768595E+02 0.  0.
         13    1    3    3    0    0  0.52425591535E+02 -0.80591630930E+01  0.19875014017E+02  0.56642917508E+02  0.10566000000E+00 0.  1.
         22    1    1    0    0    0 -0.29371329087E+02 -0.86141552011E+01 -0.25020602206E+02  0.39533646138E+02  0.00000000000E+00 0.  1.
</event>
<event>
 5    1  0.1254921E-009  0.9118800E+02  0.7561462E-02  0.1125453E+00
         25   -1    0    0    0    0  0.00000000000E+00  0.00000000000E+00  0.99999998245E-14  0.12509000000E+03  0.12509000000E+03 0.  0.
        -13    1    3    3    0    0  0.51905564051E+02 -0.15421808058E+02  0.22436444842E+02  0.58612498364E+02  0.10566000000E+00 0.  1.
         23    2    1    0    0    0  0.23069837954E+02  0.66458356933E+01  0.17767520925E+02  0.95222469886E+02  0.90417085863E+02 0.  0.
         13    1    3    3    0    0 -0.28835726097E+02  0.22067643751E+02 -0.46689239168E+01  0.36609971522E+02  0.10566000000E+00 0. -1.
         22    1    1    0    0    0 -0.23069837954E+02 -0.66458356933E+01 -0.17767520925E+02  0.29867530114E+02  0.00000000000E+00 0.  1.
</event>
<event>
 5    1  0.1254921E-009  0.9118800E+02  0.7561462E-02  0.1125453E+00
         25   -1    0    0    0    0  0.00000000000E+00  0.00000000000E+00  0.99999998245E-14  0.12509000000E+03  0.12509000000E+03 0.  0.
        -13    1    3    3    0    0 -0.42918635878E+02 -0.25980528947E+02 -0.33674313448E+02  0.60423238412E+02  0.10566000000E+00 0.  1.
         23    2    1    0    0    0 -0.25194961903E+02 -0.13002652425E+02 -0.54004855142E+01  0.96227908615E+02  0.91797549407E+02 0.  0.
         13    1    3    3    0    0  0.17723673976E+02  0.12977876522E+02  0.28273827934E+02  0.35804670202E+02  0.10566000000E+00 0. -1.
         22    1    1    0    0    0  0.25194961903E+02  0.13002652425E+02  0.54004855142E+01  0.28862091385E+02  0.00000000000E+00 0.  1.
</event>
<event>
 5    1  0.1254921E-009  0.9118800E+02  0.7561462E-02  0.1125453E+00
         25   -1    0    0    0    0  0.00000000000E+00  0.00000000000E+00  0.99999998245E-14  0.12509000000E+03  0.12509000000E+03 0.  0.
        -13    1    3    3    0    0  0.28944706067E+02 -0.48194969449E+02  0.11934333864E+02  0.57471650215E+02  0.10566000000E+00 0.  1.
         23    2    1    0    0    0  0.10985646167E+02 -0.24960562433E+02 -0.11941351552E+02  0.95319041406E+02  0.90550591820E+02 0.  0.
         13    1    3    3    0    0 -0.17959059900E+02  0.23234407016E+02 -0.23875685416E+02  0.37847391192E+02  0.10566000000E+00 0. -1.
         22    1    1    0    0    0 -0.10985646167E+02  0.24960562433E+02  0.11941351552E+02  0.29770958594E+02  0.00000000000E+00 0.  1.
</event>
<event>
 5    1  0.1254921E-009  0.9118800E+02  0.7561462E-02  0.1125453E+00
         25   -1    0    0    0    0  0.00000000000E+00  0.00000000000E+00  0.99999998245E-14  0.12509000000E+03  0.12509000000E+03 0.  0.
        -13    1    3    3    0    0 -0.59310497543E+01  0.35295739125E+02 -0.48835874558E+02  0.60546844339E+02  0.10566000000E+00 0.  1.
         23    2    1    0    0    0  0.72336015134E+01  0.10900238717E+02 -0.23952121077E+02  0.97798164242E+02  0.93912920464E+02 0.  0.
         13    1    3    3    0    0  0.13164651268E+02 -0.24395500409E+02  0.24883753481E+02  0.37251319903E+02  0.10566000000E+00 0. -1.
         22    1    1    0    0    0 -0.72336015134E+01 -0.10900238717E+02  0.23952121077E+02  0.27291835758E+02  0.00000000000E+00 0.  1.
</event>
<event>
 5    1  0.1254921E-009  0.9118800E+02  0.7561462E-02  0.1125453E+00
         25   -1    0    0    0    0  0.00000000000E+00  0.00000000000E+00  0.99999998245E-14  0.12509000000E+03  0.12509000000E+03 0.  0.
        -13    1    3    3    0    0 -0.52409772919E+02 -0.21833814398E+02 -0.31065294972E+01  0.56860895510E+02  0.10566000000E+00 0.  1.
         23    2    1    0    0    0 -0.17731349942E+02 -0.10600400621E+02 -0.19364508840E+02  0.96774748514E+02  0.92539713006E+02 0.  0.
         13    1    3    3    0    0  0.34678422977E+02  0.11233413777E+02 -0.16257979343E+02  0.39913853004E+02  0.10566000000E+00 0. -1.
         22    1    1    0    0    0  0.17731349942E+02  0.10600400621E+02  0.19364508840E+02  0.28315251486E+02  0.00000000000E+00 0.  1.
</event>
<event>
 5    1  0.1254921E-009  0.9118800E+02  0.7561462E-02  0.1125453E+00
         25   -1    0    0    0    0  0.00000000000E+00  0.00000000000E+00  0.99999998245E-14  0.12509000000E+03  0.12509000000E+03 0.  0.
        -13    1    3    3    0    0  0.32491265675E+02  0.46075535847E+00 -0.21927482870E+02  0.39201024346E+02  0.10566000000E+00 0. -1.
         23    2    1    0    0    0  0.71504516484E+00 -0.27153555626E+02  0.13986770046E+02  0.94537477861E+02  0.89464395774E+02 0.  0.
         13    1    3    3    0    0 -0.31776220511E+02 -0.27614310984E+02  0.35914252916E+02  0.55336453515E+02  0.10566000000E+00 0.  1.
         22    1    1    0    0    0 -0.71504516484E+00  0.27153555626E+02 -0.13986770046E+02  0.30552522139E+02  0.00000000000E+00 0.  1.
</event>
<event>
 5    1  0.1254921E-009  0.9118800E+02  0.7561462E-02  0.1125453E+00
         25   -1    0    0    0    0  0.00000000000E+00  0.00000000000E+00  0.99999998245E-14  0.12509000000E+03  0.12509000000E+03 0.  0.
        -13    1    3    3    0    0  0.21513459695E+02 -0.51868645116E+02 -0.25493149224E+02  0.61669255838E+02  0.10566000000E+00 0.  1.
         23    2    1    0    0    0  0.14619975863E+02 -0.25641986952E+02 -0.62562164310E+01  0.94917240214E+02  0.89993816770E+02 0.  0.
         13    1    3    3    0    0 -0.68934838319E+01  0.26226658164E+02  0.19236932793E+02  0.33247984377E+02  0.10566000000E+00 0. -1.
         22    1    1    0    0    0 -0.14619975863E+02  0.25641986952E+02  0.62562164310E+01  0.30172759786E+02  0.00000000000E+00 0.  1.
</event>
<event>
 5    1  0.1254921E-009  0.9118800E+02  0.7561462E-02  0.1125453E+00
         25   -1    0    0    0    0  0.00000000000E+00  0.00000000000E+00  0.99999998245E-14  0.12509000000E+03  0.12509000000E+03 0.  0.
        -13    1    3    3    0    0  0.28654190534E+02  0.16629681115E+02 -0.28753890731E+02  0.43868055865E+02  0.10566000000E+00 0.  1.
         23    2    1    0    0    0 -0.17837999469E+02  0.22640202828E+02 -0.14229679977E+02  0.92945687884E+02  0.87210343967E+02 0.  0.
         13    1    3    3    0    0 -0.46492190003E+02  0.60105217137E+01  0.14524210754E+02  0.49077632019E+02  0.10566000000E+00 0. -1.
         22    1    1    0    0    0  0.17837999469E+02 -0.22640202828E+02  0.14229679977E+02  0.32144312116E+02  0.00000000000E+00 0.  1.
</event>
<event>
 5    1  0.1254921E-009  0.9118800E+02  0.7561462E-02  0.1125453E+00
         25   -1    0    0    0    0  0.00000000000E+00  0.00000000000E+00  0.99999998245E-14  0.12509000000E+03  0.12509000000E+03 0.  0.
        -13    1    3    3    0    0 -0.24649313788E+02 -0.26471221919E+02 -0.84749638648E+01  0.37150375996E+02  0.10566000000E+00 0. -1.
         23    2    1    0    0    0  0.16540240511E+02  0.14096912076E+01  0.23527993128E+02  0.96295326081E+02  0.91889371414E+02 0.  0.
         13    1    3    3    0    0  0.41189554299E+02  0.27880913127E+02  0.32002956993E+02  0.59144950084E+02  0.10566000000E+00 0.  1.
         22    1    1    0    0    0 -0.16540240511E+02 -0.14096912076E+01 -0.23527993128E+02  0.28794673919E+02  0.00000000000E+00 0.  1.
</event>
<event>
 5    1  0.1254921E-009  0.9118800E+02  0.7561462E-02  0.1125453E+00
         25   -1    0    0    0    0  0.00000000000E+00  0.00000000000E+00  0.99999998245E-14  0.12509000000E+03  0.12509000000E+03 0.  0.
        -13    1    3    3    0    0  0.39130169109E+01  0.56568192945E+02 -0.25807961890E+02  0.62300354857E+02  0.10566000000E+00 0. -1.
         23    2    1    0    0    0  0.16678933124E+01  0.25317479696E+02 -0.15839493334E+02  0.95179363174E+02  0.90357429019E+02 0.  0.
         13    1    3    3    0    0 -0.22451235985E+01 -0.31250713248E+02  0.99684685565E+01  0.32879008317E+02  0.10566000000E+00 0.  1.
         22    1    1    0    0    0 -0.16678933124E+01 -0.25317479696E+02  0.15839493334E+02  0.29910636826E+02  0.00000000000E+00 0. -1.
</event>
<event>
 5    1  0.1254921E-009  0.9118800E+02  0.7561462E-02  0.1125453E+00
         25   -1    0    0    0    0  0.00000000000E+00  0.00000000000E+00  0.99999998245E-14  0.12509000000E+03  0.12509000000E+03 0.  0.
        -13    1    3    3    0    0 -0.78622163182E+01 -0.39393767844E+02 -0.12866521010E+02  0.42181061122E+02  0.10566000000E+00 0. -1.
         23    2    1    0    0    0  0.11150970954E+02 -0.89661724724E+01  0.26208369182E+02  0.95230076739E+02  0.90427609160E+02 0.  0.
         13    1    3    3    0    0  0.19013187272E+02  0.30427595372E+02  0.39074890192E+02  0.53049015617E+02  0.10566000000E+00 0.  1.
         22    1    1    0    0    0 -0.11150970954E+02  0.89661724724E+01 -0.26208369182E+02  0.29859923261E+02  0.00000000000E+00 0.  1.
</event>
<event>
 5    1  0.1254921E-009  0.9118800E+02  0.7561462E-02  0.1125453E+00
         25   -1    0    0    0    0  0.00000000000E+00  0.00000000000E+00  0.99999998245E-14  0.12509000000E+03  0.12509000000E+03 0.  0.
        -13    1    3    3    0    0  0.99003249702E+01  0.39815070117E+02 -0.24703222052E+02  0.47890673275E+02  0.10566000000E+00 0.  1.
         23    2    1    0    0    0 -0.24909559090E+02  0.17498086982E+02 -0.32456806081E+01  0.94476218387E+02  0.89378701132E+02 0.  0.
         13    1    3    3    0    0 -0.34809884060E+02 -0.22316983135E+02  0.21457541443E+02  0.46585545112E+02  0.10566000000E+00 0. -1.
         22    1    1    0    0    0  0.24909559090E+02 -0.17498086982E+02  0.32456806081E+01  0.30613781613E+02  0.00000000000E+00 0. -1.
</event>
<event>
 5    1  0.1254921E-009  0.9118800E+02  0.7561462E-02  0.1125453E+00
         25   -1    0    0    0    0  0.00000000000E+00  0.00000000000E+00  0.99999998245E-14  0.12509000000E+03  0.12509000000E+03 0.  0.
        -13    1    3    3    0    0 -0.16546910725E+02 -0.24592226852E+01  0.30933800800E+02  0.35167587730E+02  0.10566000000E+00 0.  1.
         23    2    1    0    0    0 -0.83388483036E+00  0.15647797709E+02 -0.24751870960E+02  0.95794880047E+02  0.91205564469E+02 0.  0.
         13    1    3    3    0    0  0.15713025895E+02  0.18107020394E+02 -0.55685671760E+02  0.60627292317E+02  0.10566000000E+00 0. -1.
         22    1    1    0    0    0  0.83388483036E+00 -0.15647797709E+02  0.24751870960E+02  0.29295119953E+02  0.00000000000E+00 0. -1.
</event>
<event>
 5    1  0.1254921E-009  0.9118800E+02  0.7561462E-02  0.1125453E+00
         25   -1    0    0    0    0  0.00000000000E+00  0.00000000000E+00  0.99999998245E-14  0.12509000000E+03  0.12509000000E+03 0.  0.
        -13    1    3    3    0    0  0.39566111131E+02 -0.15033630627E+02 -0.27588838728E+02  0.50523681440E+02  0.10566000000E+00 0. -1.
         23    2    1    0    0    0  0.26146431400E+02  0.26185623679E+01  0.12234397086E+02  0.96104258404E+02  0.91628899739E+02 0.  0.
         13    1    3    3    0    0 -0.13419679731E+02  0.17652192995E+02  0.39823235814E+02  0.45580576963E+02  0.10566000000E+00 0.  1.
         22    1    1    0    0    0 -0.26146431400E+02 -0.26185623679E+01 -0.12234397086E+02  0.28985741596E+02  0.00000000000E+00 0. -1.
</event>
<event>
 5    1  0.1254921E-009  0.9118800E+02  0.7561462E-02  0.1125453E+00
         25   -1    0    0    0    0  0.00000000000E+00  0.00000000000E+00  0.99999998245E-14  0.12509000000E+03  0.12509000000E+03 0.  0.
        -13    1    3    3    0    0 -0.58931661381E+01  0.14311536859E+02 -0.26370627187E+02  0.30577289558E+02  0.10566000000E+00 0.  1.
         23    2    1    0    0    0  0.12974911937E+02 -0.78788775774E+01  0.28556418518E+02  0.92749714129E+02  0.86928794889E+02 0.  0.
         13    1    3    3    0    0  0.18868078075E+02 -0.22190414437E+02  0.54927045705E+02  0.62172424571E+02  0.10566000000E+00 0. -1.
         22    1    1    0    0    0 -0.12974911937E+02  0.78788775774E+01 -0.28556418518E+02  0.32340285871E+02  0.00000000000E+00 0. -1.
</event>
<event>
 5    1  0.1254921E-009  0.9118800E+02  0.7561462E-02  0.1125453E+00
         25   -1    0    0    0    0  0.00000000000E+00  0.00000000000E+00  0.99999998245E-14  0.12509000000E+03  0.12509000000E+03 0.  0.
        -13    1    3    3    0    0 -0.36540223680E+02  0.28072577088E+02 -0.35149956821E+02  0.57955052924E+02  0.10566000000E+00 0.  1.
         23    2    1    0    0    0 -0.58831568748E+01  0.25424105418E+02 -0.12555975338E+02  0.96130559608E+02  0.91664798602E+02 0.  0.
         13    1    3    3    0    0  0.30657066805E+02 -0.26484716697E+01  0.22593981483E+02  0.38175506684E+02  0.10566000000E+00 0. -1.
         22    1    1    0    0    0  0.58831568748E+01 -0.25424105418E+02  0.12555975338E+02  0.28959440392E+02  0.00000000000E+00 0.  1.
</event>
<event>
 5    1  0.1254921E-009  0.9118800E+02  0.7561462E-02  0.1125453E+00
         25   -1    0    0    0    0  0.00000000000E+00  0.00000000000E+00  0.99999998245E-14  0.12509000000E+03  0.12509000000E+03 0.  0.
        -13    1    3    3    0    0  0.32313606542E+02 -0.38558747277E+02 -0.37142042252E+02  0.62533899815E+02  0.10566000000E+00 0. -1.
         23    2    1    0    0    0  0.15262269391E+02 -0.18037365956E+02 -0.16422890480E+02  0.96315101749E+02  0.91916288304E+02 0.  0.
         13    1    3    3    0    0 -0.17051337151E+02  0.20521381321E+02  0.20719151772E+02  0.33781201935E+02  0.10566000000E+00 0.  1.
         22    1    1    0    0    0 -0.15262269391E+02  0.18037365956E+02  0.16422890480E+02  0.28774898251E+02  0.00000000000E+00 0. -1.
</event>
<event>
 5    1  0.1254921E-009  0.9118800E+02  0.7561462E-02  0.1125453E+00
         25   -1    0    0    0    0  0.00000000000E+00  0.00000000000E+00  0.99999998245E-14  0.12509000000E+03  0.12509000000E+03 0.  0.
        -13    1    3    3    0    0  0.12094704619E+02  0.39043975425E+02 -0.53769776414E+01  0.41226653386E+02  0.10566000000E+00 0.  1.
         23    2    1    0    0    0 -0.12012361580E+02 -0.45781287506E+01 -0.26715329875E+02  0.95442657051E+02  0.90721198411E+02 0.  0.
         13    1    3    3    0    0 -0.24107066199E+02 -0.43622104175E+02 -0.21338352233E+02  0.54216003666E+02  0.10566000000E+00 0. -1.
         22    1    1    0    0    0  0.12012361580E+02  0.45781287506E+01  0.26715329875E+02  0.29647342949E+02  0.00000000000E+00 0. -1.
</event>
<event>
 5    1  0.1254921E-009  0.9118800E+02  0.7561462E-02  0.1125453E+00
         25   -1    0    0    0    0  0.00000000000E+00  0.00000000000E+00  0.99999998245E-14  0.12509000000E+03  0.12509000000E+03 0.  0.
        -13    1    3    3    0    0 -0.42324766205E+01 -0.46711899029E+02 -0.21488553062E+01  0.46952573011E+02  0.10566000000E+00 0. -1.
         23    2    1    0    0    0 -0.13150102253E+01 -0.42662684727E+01 -0.27999913243E+02  0.96736421034E+02  0.92487889555E+02 0.  0.
         13    1    3    3    0    0  0.29174663952E+01  0.42445630556E+02 -0.25851057937E+02  0.49783848023E+02  0.10566000000E+00 0.  1.
         22    1    1    0    0    0  0.13150102253E+01  0.42662684727E+01  0.27999913243E+02  0.28353578966E+02  0.00000000000E+00 0.  1.
</event>
<event>
 5    1  0.1254921E-009  0.9118800E+02  0.7561462E-02  0.1125453E+00
         25   -1    0    0    0    0  0.00000000000E+00  0.00000000000E+00  0.99999998245E-14  0.12509000000E+03  0.12509000000E+03 0.  0.
        -13    1    3    3    0    0 -0.58906163622E+01  0.29976791768E+02  0.17023438654E+02  0.34973075837E+02  0.10566000000E+00 0. -1.
         23    2    1    0    0    0 -0.86231866684E+01 -0.21143367110E+02 -0.17157063283E+02  0.96528379921E+02  0.92206084336E+02 0.  0.
         13    1    3    3    0    0 -0.27325703061E+01 -0.51120158878E+02 -0.34180501937E+02  0.61555304084E+02  0.10566000000E+00 0.  1.
         22    1    1    0    0    0  0.86231866684E+01  0.21143367110E+02  0.17157063283E+02  0.28561620079E+02  0.00000000000E+00 0.  1.
</event>
<event>
 5    1  0.1254921E-009  0.9118800E+02  0.7561462E-02  0.1125453E+00
         25   -1    0    0    0    0  0.00000000000E+00  0.00000000000E+00  0.99999998245E-14  0.12509000000E+03  0.12509000000E+03 0.  0.
        -13    1    3    3    0    0 -0.29488552523E+02 -0.45611951072E+02 -0.14749396410E+02  0.56281263925E+02  0.10566000000E+00 0.  1.
         23    2    1    0    0    0 -0.97284759006E+01 -0.44209346060E+02 -0.18035986312E+02  0.76362119638E+02  0.58794276855E+02 0.  0.
         13    1    3    3    0    0  0.19760076622E+02  0.14026050121E+01 -0.32865899017E+01  0.20080855713E+02  0.10566000000E+00 0. -1.
         22    1    1    0    0    0  0.97284759006E+01  0.44209346060E+02  0.18035986312E+02  0.48727880362E+02  0.00000000000E+00 0.  1.
</event>
<event>
 5    1  0.1254921E-009  0.9118800E+02  0.7561462E-02  0.1125453E+00
         25   -1    0    0    0    0  0.00000000000E+00  0.00000000000E+00  0.99999998245E-14  0.12509000000E+03  0.12509000000E+03 0.  0.
        -13    1    3    3    0    0 -0.27841827062E+02  0.11407930523E+02 -0.53621155213E+02  0.61486158307E+02  0.10566000000E+00 0. -1.
         23    2    1    0    0    0 -0.88513407074E+01 -0.61022764143E-01 -0.29644831441E+02  0.94151900717E+02  0.88923643770E+02 0.  0.
         13    1    3    3    0    0  0.18990486355E+02 -0.11468953287E+02  0.23976323772E+02  0.32665742410E+02  0.10566000000E+00 0.  1.
         22    1    1    0    0    0  0.88513407074E+01  0.61022764143E-01  0.29644831441E+02  0.30938099283E+02  0.00000000000E+00 0. -1.
</event>
<event>
 5    1  0.1254921E-009  0.9118800E+02  0.7561462E-02  0.1125453E+00
         25   -1    0    0    0    0  0.00000000000E+00  0.00000000000E+00  0.99999998245E-14  0.12509000000E+03  0.12509000000E+03 0.  0.
        -13    1    3    3    0    0  0.32525313344E+02 -0.28279844053E+02 -0.12230895547E+02  0.44802361073E+02  0.10566000000E+00 0.  1.
         23    2    1    0    0    0  0.20999119377E+02  0.18726104228E+02  0.56389691005E+01  0.96394565404E+02  0.92024367820E+02 0.  0.
         13    1    3    3    0    0 -0.11526193967E+02  0.47005948280E+02  0.17869864648E+02  0.51592204330E+02  0.10566000000E+00 0. -1.
         22    1    1    0    0    0 -0.20999119377E+02 -0.18726104228E+02 -0.56389691005E+01  0.28695434596E+02  0.00000000000E+00 0. -1.
</event>
<event>
 5    1  0.1254921E-009  0.9118800E+02  0.7561462E-02  0.1125453E+00
         25   -1    0    0    0    0  0.00000000000E+00  0.00000000000E+00  0.99999998245E-14  0.12509000000E+03  0.12509000000E+03 0.  0.
        -13    1    3    3    0    0  0.15942740130E+02 -0.24169069858E+02  0.21463625104E+02  0.36041826636E+02  0.10566000000E+00 0.  1.
         23    2    1    0    0    0 -0.18853736864E+02  0.21584076996E+02  0.37762392722E+01  0.96183326782E+02  0.91736778853E+02 0.  0.
         13    1    3    3    0    0 -0.34796476993E+02  0.45753146854E+02 -0.17687385832E+02  0.60141500146E+02  0.10566000000E+00 0. -1.
         22    1    1    0    0    0  0.18853736864E+02 -0.21584076996E+02 -0.37762392722E+01  0.28906673218E+02  0.00000000000E+00 0.  1.
</event>
<event>
 5    1  0.1254921E-009  0.9118800E+02  0.7561462E-02  0.1125453E+00
         25   -1    0    0    0    0  0.00000000000E+00  0.00000000000E+00  0.99999998245E-14  0.12509000000E+03  0.12509000000E+03 0.  0.
        -13    1    3    3    0    0  0.41227022279E+00  0.14664543664E+02 -0.32796575233E+02  0.35928335873E+02  0.10566000000E+00 0. -1.
         23    2    1    0    0    0 -0.17126856227E+02  0.10380796702E+02  0.23011284282E+02  0.94584109607E+02  0.89529572999E+02 0.  0.
         13    1    3    3    0    0 -0.17539126450E+02 -0.42837469623E+01  0.55807859514E+02  0.58655773734E+02  0.10566000000E+00 0.  1.
         22    1    1    0    0    0  0.17126856227E+02 -0.10380796702E+02 -0.23011284282E+02  0.30505890393E+02  0.00000000000E+00 0.  1.
</event>
<event>
 5    1  0.1254921E-009  0.9118800E+02  0.7561462E-02  0.1125453E+00
         25   -1    0    0    0    0  0.00000000000E+00  0.00000000000E+00  0.99999998245E-14  0.12509000000E+03  0.12509000000E+03 0.  0.
        -13    1    3    3    0    0 -0.31091362764E+02 -0.40194273380E+02  0.29981198546E+02  0.59001151525E+02  0.10566000000E+00 0. -1.
         23    2    1    0    0    0 -0.14846165009E+02 -0.75325273098E+01  0.23869491934E+02  0.95988449726E+02  0.91470663343E+02 0.  0.
         13    1    3    3    0    0  0.16245197755E+02  0.32661746070E+02 -0.61117066114E+01  0.36987298200E+02  0.10566000000E+00 0.  1.
         22    1    1    0    0    0  0.14846165009E+02  0.75325273098E+01 -0.23869491934E+02  0.29101550274E+02  0.00000000000E+00 0. -1.
</event>
<event>
 5    1  0.1254921E-009  0.9118800E+02  0.7561462E-02  0.1125453E+00
         25   -1    0    0    0    0  0.00000000000E+00  0.00000000000E+00  0.99999998245E-14  0.12509000000E+03  0.12509000000E+03 0.  0.
        -13    1    3    3    0    0 -0.49928707633E+02 -0.13351672604E+02  0.23871381867E+02  0.56929755344E+02  0.10566000000E+00 0. -1.
         23    2    1    0    0    0 -0.20984918169E+02 -0.81597717111E+01 -0.88271873326E+01  0.10090595772E+03  0.97965016214E+02 0.  0.
         13    1    3    3    0    0  0.28943789465E+02  0.51919008926E+01 -0.32698569200E+02  0.43976202373E+02  0.10566000000E+00 0.  1.
         22    1    1    0    0    0  0.20984918169E+02  0.81597717111E+01  0.88271873326E+01  0.24184042283E+02  0.00000000000E+00 0. -1.
</event>
<event>
 5    1  0.1254921E-009  0.9118800E+02  0.7561462E-02  0.1125453E+00
         25   -1    0    0    0    0  0.00000000000E+00  0.00000000000E+00  0.99999998245E-14  0.12509000000E+03  0.12509000000E+03 0.  0.
        -13    1    3    3    0    0 -0.18884079497E+02 -0.52728626366E+02 -0.16540892924E+01  0.56032701811E+02  0.10566000000E+00 0. -1.
         23    2    1    0    0    0 -0.17388485538E+02 -0.19044130328E+02  0.16645343179E+02  0.94396258312E+02  0.89266722829E+02 0.  0.
         13    1    3    3    0    0  0.14955939589E+01  0.33684496038E+02  0.18299432471E+02  0.38363556501E+02  0.10566000000E+00 0.  1.
         22    1    1    0    0    0  0.17388485538E+02  0.19044130328E+02 -0.16645343179E+02  0.30693741688E+02  0.00000000000E+00 0. -1.
</event>
<event>
 5    1  0.1254921E-009  0.9118800E+02  0.7561462E-02  0.1125453E+00
         25   -1    0    0    0    0  0.00000000000E+00  0.00000000000E+00  0.99999998245E-14  0.12509000000E+03  0.12509000000E+03 0.  0.
        -13    1    3    3    0    0 -0.58983990643E+02  0.99669301460E+00  0.74751138131E+01  0.59464216464E+02  0.10566000000E+00 0.  1.
         23    2    1    0    0    0 -0.26944746594E+02 -0.13236608178E+02  0.14691303203E+01  0.95033627814E+02  0.90155448569E+02 0.  0.
         13    1    3    3    0    0  0.32039244049E+02 -0.14233301193E+02 -0.60059834928E+01  0.35569411351E+02  0.10566000000E+00 0. -1.
         22    1    1    0    0    0  0.26944746594E+02  0.13236608178E+02 -0.14691303203E+01  0.30056372186E+02  0.00000000000E+00 0.  1.
</event>
<event>
 5    1  0.1254921E-009  0.9118800E+02  0.7561462E-02  0.1125453E+00
         25   -1    0    0    0    0  0.00000000000E+00  0.00000000000E+00  0.99999998245E-14  0.12509000000E+03  0.12509000000E+03 0.  0.
        -13    1    3    3    0    0 -0.32983700725E+02 -0.41332090290E+02  0.58836608544E+01  0.53206154064E+02  0.10566000000E+00 0. -1.
         23    2    1    0    0    0 -0.78189095027E+01 -0.21898089741E+02 -0.20166837845E+02  0.94310737034E+02  0.89146800790E+02 0.  0.
         13    1    3    3    0    0  0.25164791222E+02  0.19434000549E+02 -0.26050498699E+02  0.41104582970E+02  0.10566000000E+00 0.  1.
         22    1    1    0    0    0  0.78189095027E+01  0.21898089741E+02  0.20166837845E+02  0.30779262966E+02  0.00000000000E+00 0. -1.
</event>
<event>
 5    1  0.1254921E-009  0.9118800E+02  0.7561462E-02  0.1125453E+00
         25   -1    0    0    0    0  0.00000000000E+00  0.00000000000E+00  0.99999998245E-14  0.12509000000E+03  0.12509000000E+03 0.  0.
        -13    1    3    3    0    0  0.22676658390E+02  0.10011245822E+02 -0.43223713100E+02  0.49827265797E+02  0.10566000000E+00 0.  1.
         23    2    1    0    0    0 -0.18695637132E+01  0.27777147311E+02 -0.83528253607E+01  0.96023956707E+02  0.91519207759E+02 0.  0.
         13    1    3    3    0    0 -0.24546222103E+02  0.17765901489E+02  0.34870887739E+02  0.46196690910E+02  0.10566000000E+00 0. -1.
         22    1    1    0    0    0  0.18695637132E+01 -0.27777147311E+02  0.83528253607E+01  0.29066043293E+02  0.00000000000E+00 0. -1.
</event>
<event>
 5    1  0.1254921E-009  0.9118800E+02  0.7561462E-02  0.1125453E+00
         25   -1    0    0    0    0  0.00000000000E+00  0.00000000000E+00  0.99999998245E-14  0.12509000000E+03  0.12509000000E+03 0.  0.
        -13    1    3    3    0    0 -0.52250895259E+01  0.11841936832E+02 -0.42721208013E+02  0.44639061444E+02  0.10566000000E+00 0. -1.
         23    2    1    0    0    0 -0.28011075203E+02  0.99689709397E+01  0.24401175078E+01  0.95257888290E+02  0.90466073157E+02 0.  0.
         13    1    3    3    0    0 -0.22785985677E+02 -0.18729658918E+01  0.45161325521E+02  0.50618826846E+02  0.10566000000E+00 0.  1.
         22    1    1    0    0    0  0.28011075203E+02 -0.99689709397E+01 -0.24401175078E+01  0.29832111710E+02  0.00000000000E+00 0.  1.
</event>
<event>
 5    1  0.1254921E-009  0.9118800E+02  0.7561462E-02  0.1125453E+00
         25   -1    0    0    0    0  0.00000000000E+00  0.00000000000E+00  0.99999998245E-14  0.12509000000E+03  0.12509000000E+03 0.  0.
        -13    1    3    3    0    0  0.87133171560E+01  0.43697759003E+02  0.33645636852E+02  0.55834183804E+02  0.10566000000E+00 0. -1.
         23    2    1    0    0    0  0.10803996014E+02  0.26892727260E+02 -0.27511656358E+01  0.95977905920E+02  0.91456243106E+02 0.  0.
         13    1    3    3    0    0  0.20906788583E+01 -0.16805031743E+02 -0.36396802488E+02  0.40143722116E+02  0.10566000000E+00 0.  1.
         22    1    1    0    0    0 -0.10803996014E+02 -0.26892727260E+02  0.27511656358E+01  0.29112094080E+02  0.00000000000E+00 0. -1.
</event>
<event>
 5    1  0.1254921E-009  0.9118800E+02  0.7561462E-02  0.1125453E+00
         25   -1    0    0    0    0  0.00000000000E+00  0.00000000000E+00  0.99999998245E-14  0.12509000000E+03  0.12509000000E+03 0.  0.
        -13    1    3    3    0    0  0.12141799057E+02 -0.17555889617E+02 -0.31986135179E+02  0.38454603786E+02  0.10566000000E+00 0.  1.
         23    2    1    0    0    0 -0.19655493074E+02  0.21330804001E+02 -0.44323190261E+01  0.95747419008E+02  0.91140447593E+02 0.  0.
         13    1    3    3    0    0 -0.31797292131E+02  0.38886693618E+02  0.27553816153E+02  0.57292815222E+02  0.10566000000E+00 0. -1.
         22    1    1    0    0    0  0.19655493074E+02 -0.21330804001E+02  0.44323190261E+01  0.29342580992E+02  0.00000000000E+00 0. -1.
</event>
<event>
 5    1  0.1254921E-009  0.9118800E+02  0.7561462E-02  0.1125453E+00
         25   -1    0    0    0    0  0.00000000000E+00  0.00000000000E+00  0.99999998245E-14  0.12509000000E+03  0.12509000000E+03 0.  0.
        -13    1    3    3    0    0 -0.78574344866E+01  0.13746632018E+02 -0.39206436439E+02  0.42283152565E+02  0.10566000000E+00 0.  1.
         23    2    1    0    0    0  0.48629343705E+01  0.26506873388E+02  0.11270102904E+02  0.95879082744E+02  0.91320976894E+02 0.  0.
         13    1    3    3    0    0  0.12720368857E+02  0.12760241369E+02  0.50476539343E+02  0.53595930179E+02  0.10566000000E+00 0. -1.
         22    1    1    0    0    0 -0.48629343705E+01 -0.26506873388E+02 -0.11270102904E+02  0.29210917256E+02  0.00000000000E+00 0. -1.
</event>
<event>
 5    1  0.1254921E-009  0.9118800E+02  0.7561462E-02  0.1125453E+00
         25   -1    0    0    0    0  0.00000000000E+00  0.00000000000E+00  0.99999998245E-14  0.12509000000E+03  0.12509000000E+03 0.  0.
        -13    1    3    3    0    0 -0.49678471402E+02  0.14281286697E+02 -0.32317801316E+02  0.60961931699E+02  0.10566000000E+00 0.  1.
         23    2    1    0    0    0 -0.28633299529E+02  0.43638956483E+01 -0.71076029192E+01  0.95266729784E+02  0.90478297714E+02 0.  0.
         13    1    3    3    0    0  0.21045171873E+02 -0.99173910492E+01  0.25210198397E+02  0.34304798084E+02  0.10566000000E+00 0. -1.
         22    1    1    0    0    0  0.28633299529E+02 -0.43638956483E+01  0.71076029192E+01  0.29823270216E+02  0.00000000000E+00 0.  1.
</event>
<event>
 5    1  0.1254921E-009  0.9118800E+02  0.7561462E-02  0.1125453E+00
         25   -1    0    0    0    0  0.00000000000E+00  0.00000000000E+00  0.99999998245E-14  0.12509000000E+03  0.12509000000E+03 0.  0.
        -13    1    3    3    0    0  0.13680375299E+02  0.19674382913E+02  0.33654958975E+02  0.41314663728E+02  0.10566000000E+00 0. -1.
         23    2    1    0    0    0 -0.63698849260E+01 -0.23638997575E+02 -0.14520753715E+01  0.10056478515E+03  0.97528405349E+02 0.  0.
         13    1    3    3    0    0 -0.20050260225E+02 -0.43313380488E+02 -0.35107034346E+02  0.59250121426E+02  0.10566000000E+00 0.  1.
         22    1    1    0    0    0  0.63698849260E+01  0.23638997575E+02  0.14520753715E+01  0.24525214846E+02  0.00000000000E+00 0.  1.
</event>
<event>
 5    1  0.1254921E-009  0.9118800E+02  0.7561462E-02  0.1125453E+00
         25   -1    0    0    0    0  0.00000000000E+00  0.00000000000E+00  0.99999998245E-14  0.12509000000E+03  0.12509000000E+03 0.  0.
        -13    1    3    3    0    0  0.30515943248E+02 -0.92657523072E+01 -0.64981932455E+01  0.32547114121E+02  0.10566000000E+00 0.  1.
         23    2    1    0    0    0 -0.25861502713E+02  0.57927194927E+01  0.14882778561E+02  0.94694769792E+02  0.89684053246E+02 0.  0.
         13    1    3    3    0    0 -0.56377445961E+02  0.15058471800E+02  0.21380971806E+02  0.62147655671E+02  0.10566000000E+00 0. -1.
         22    1    1    0    0    0  0.25861502713E+02 -0.57927194927E+01 -0.14882778561E+02  0.30395230208E+02  0.00000000000E+00 0. -1.
</event>
<event>
 5    1  0.1254921E-009  0.9118800E+02  0.7561462E-02  0.1125453E+00
         25   -1    0    0    0    0  0.00000000000E+00  0.00000000000E+00  0.99999998245E-14  0.12509000000E+03  0.12509000000E+03 0.  0.
        -13    1    3    3    0    0  0.39188414795E+02  0.93553740535E+01  0.99484102837E+01  0.41499842277E+02  0.10566000000E+00 0. -1.
         23    2    1    0    0    0 -0.22601149537E+01 -0.26872156832E+02  0.93362285745E+01  0.96552549230E+02  0.92238867439E+02 0.  0.
         13    1    3    3    0    0 -0.41448529749E+02 -0.36227530886E+02 -0.61218170915E+00  0.55052706953E+02  0.10566000000E+00 0.  1.
         22    1    1    0    0    0  0.22601149537E+01  0.26872156832E+02 -0.93362285745E+01  0.28537450770E+02  0.00000000000E+00 0.  1.
</event>
<event>
 5    1  0.1254921E-009  0.9118800E+02  0.7561462E-02  0.1125453E+00
         25   -1    0    0    0    0  0.00000000000E+00  0.00000000000E+00  0.99999998245E-14  0.12509000000E+03  0.12509000000E+03 0.  0.
        -13    1    3    3    0    0 -0.43469374562E+01 -0.35831677267E+02 -0.15674933029E+02  0.39351234421E+02  0.10566000000E+00 0.  1.
         23    2    1    0    0    0 -0.25781604480E+02  0.14140411307E+02 -0.10164438551E+01  0.95667635724E+02  0.91030879406E+02 0.  0.
         13    1    3    3    0    0 -0.21434667024E+02  0.49972088573E+02  0.14658489174E+02  0.56316401303E+02  0.10566000000E+00 0. -1.
         22    1    1    0    0    0  0.25781604480E+02 -0.14140411307E+02  0.10164438551E+01  0.29422364276E+02  0.00000000000E+00 0. -1.
</event>
<event>
 5    1  0.1254921E-009  0.9118800E+02  0.7561462E-02  0.1125453E+00
         25   -1    0    0    0    0  0.00000000000E+00  0.00000000000E+00  0.99999998245E-14  0.12509000000E+03  0.12509000000E+03 0.  0.
        -13    1    3    3    0    0 -0.38328874562E+02  0.16567926757E+02 -0.58915969109E+01  0.42170142286E+02  0.10566000000E+00 0. -1.
         23    2    1    0    0    0  0.55309960905E+01 -0.53847768386E+01 -0.28054983559E+02  0.95992408315E+02  0.91476076721E+02 0.  0.
         13    1    3    3    0    0  0.43859870652E+02 -0.21952703596E+02 -0.22163386648E+02  0.53822266029E+02  0.10566000000E+00 0.  1.
         22    1    1    0    0    0 -0.55309960905E+01  0.53847768386E+01  0.28054983559E+02  0.29097591685E+02  0.00000000000E+00 0.  1.
</event>
<event>
 5    1  0.1254921E-009  0.9118800E+02  0.7561462E-02  0.1125453E+00
         25   -1    0    0    0    0  0.00000000000E+00  0.00000000000E+00  0.99999998245E-14  0.12509000000E+03  0.12509000000E+03 0.  0.
        -13    1    3    3    0    0 -0.39782577493E+02 -0.35594110187E+02  0.46296100612E+01  0.53582073545E+02  0.10566000000E+00 0.  1.
         23    2    1    0    0    0 -0.24370410315E+02 -0.18515294600E+01 -0.15854029502E+02  0.95957624338E+02  0.91428498603E+02 0.  0.
         13    1    3    3    0    0  0.15412167178E+02  0.33742580727E+02 -0.20483639563E+02  0.42375550793E+02  0.10566000000E+00 0. -1.
         22    1    1    0    0    0  0.24370410315E+02  0.18515294600E+01  0.15854029502E+02  0.29132375662E+02  0.00000000000E+00 0.  1.
</event>
<event>
 5    1  0.1254921E-009  0.9118800E+02  0.7561462E-02  0.1125453E+00
         25   -1    0    0    0    0  0.00000000000E+00  0.00000000000E+00  0.99999998245E-14  0.12509000000E+03  0.12509000000E+03 0.  0.
        -13    1    3    3    0    0  0.75916478618E+01  0.88893803665E+01 -0.34105857228E+02  0.36053777359E+02  0.10566000000E+00 0. -1.
         23    2    1    0    0    0  0.24456604593E+02  0.17910443102E+02  0.16798773153E+02  0.90432991188E+02  0.83528543837E+02 0.  0.
         13    1    3    3    0    0  0.16864956731E+02  0.90210627353E+01  0.50904630381E+02  0.54379213829E+02  0.10566000000E+00 0.  1.
         22    1    1    0    0    0 -0.24456604593E+02 -0.17910443102E+02 -0.16798773153E+02  0.34657008812E+02  0.00000000000E+00 0.  1.
</event>
<event>
 5    1  0.1254921E-009  0.9118800E+02  0.7561462E-02  0.1125453E+00
         25   -1    0    0    0    0  0.00000000000E+00  0.00000000000E+00  0.99999998245E-14  0.12509000000E+03  0.12509000000E+03 0.  0.
        -13    1    3    3    0    0 -0.31236694457E+02  0.56919368356E+01 -0.14515493784E+02  0.34911888368E+02  0.10566000000E+00 0. -1.
         23    2    1    0    0    0  0.25939669032E+02  0.13032366433E+02  0.47139325717E+01  0.95680304922E+02  0.91048287108E+02 0.  0.
         13    1    3    3    0    0  0.57176363489E+02  0.73404295975E+01  0.19229426355E+02  0.60768416554E+02  0.10566000000E+00 0.  1.
         22    1    1    0    0    0 -0.25939669032E+02 -0.13032366433E+02 -0.47139325717E+01  0.29409695078E+02  0.00000000000E+00 0.  1.
</event>
<event>
 5    1  0.1254921E-009  0.9118800E+02  0.7561462E-02  0.1125453E+00
         25   -1    0    0    0    0  0.00000000000E+00  0.00000000000E+00  0.99999998245E-14  0.12509000000E+03  0.12509000000E+03 0.  0.
        -13    1    3    3    0    0  0.11137257596E+02  0.34580170336E+02 -0.23171293479E+02  0.43089983671E+02  0.10566000000E+00 0. -1.
         23    2    1    0    0    0  0.23012766016E+02 -0.25669218348E+01  0.14870738850E+02  0.97570636611E+02  0.93609367946E+02 0.  0.
         13    1    3    3    0    0  0.11875508420E+02 -0.37147092171E+02  0.38042032329E+02  0.54480652940E+02  0.10566000000E+00 0.  1.
         22    1    1    0    0    0 -0.23012766016E+02  0.25669218348E+01 -0.14870738850E+02  0.27519363389E+02  0.00000000000E+00 0. -1.
</event>
<event>
 5    1  0.1254921E-009  0.9118800E+02  0.7561462E-02  0.1125453E+00
         25   -1    0    0    0    0  0.00000000000E+00  0.00000000000E+00  0.99999998245E-14  0.12509000000E+03  0.12509000000E+03 0.  0.
        -13    1    3    3    0    0 -0.28127358792E+02  0.31128182207E+02  0.16041084043E+01  0.41984477703E+02  0.10566000000E+00 0.  1.
         23    2    1    0    0    0  0.79262398398E+01  0.57579881071E+01 -0.28224928481E+02  0.95213147877E+02  0.90404188155E+02 0.  0.
         13    1    3    3    0    0  0.36053598632E+02 -0.25370194100E+02 -0.29829036885E+02  0.53228670174E+02  0.10566000000E+00 0. -1.
         22    1    1    0    0    0 -0.79262398398E+01 -0.57579881071E+01  0.28224928481E+02  0.29876852123E+02  0.00000000000E+00 0. -1.
</event>
<event>
 5    1  0.1254921E-009  0.9118800E+02  0.7561462E-02  0.1125453E+00
         25   -1    0    0    0    0  0.00000000000E+00  0.00000000000E+00  0.99999998245E-14  0.12509000000E+03  0.12509000000E+03 0.  0.
        -13    1    3    3    0    0 -0.14021358837E+02  0.53771170019E+00  0.29449206504E+02  0.32621382025E+02  0.10566000000E+00 0. -1.
         23    2    1    0    0    0 -0.12579104950E+02  0.33652643124E+02 -0.13356939298E+02  0.86760610519E+02  0.77834834359E+02 0.  0.
         13    1    3    3    0    0  0.14422538869E+01  0.33114931424E+02 -0.42806145801E+02  0.54139228494E+02  0.10566000000E+00 0.  1.
         22    1    1    0    0    0  0.12579104950E+02 -0.33652643124E+02  0.13356939298E+02  0.38329389481E+02  0.00000000000E+00 0.  1.
</event>
<event>
 5    1  0.1254921E-009  0.9118800E+02  0.7561462E-02  0.1125453E+00
         25   -1    0    0    0    0  0.00000000000E+00  0.00000000000E+00  0.99999998245E-14  0.12509000000E+03  0.12509000000E+03 0.  0.
        -13    1    3    3    0    0  0.18542338326E+02  0.42082206911E+02  0.11533232559E+02  0.47410516412E+02  0.10566000000E+00 0.  1.
         23    2    1    0    0    0 -0.16593612860E+02  0.11329223985E+02  0.22034322101E+02  0.95270364618E+02  0.90483322884E+02 0.  0.
         13    1    3    3    0    0 -0.35135951187E+02 -0.30752982927E+02  0.10501089543E+02  0.47859848206E+02  0.10566000000E+00 0. -1.
         22    1    1    0    0    0  0.16593612860E+02 -0.11329223985E+02 -0.22034322101E+02  0.29819635382E+02  0.00000000000E+00 0.  1.
</event>
<event>
 5    1  0.1254921E-009  0.9118800E+02  0.7561462E-02  0.1125453E+00
         25   -1    0    0    0    0  0.00000000000E+00  0.00000000000E+00  0.99999998245E-14  0.12509000000E+03  0.12509000000E+03 0.  0.
        -13    1    3    3    0    0 -0.26813830842E+02 -0.24134783156E+02 -0.20132000529E+01  0.36132166015E+02  0.10566000000E+00 0.  1.
         23    2    1    0    0    0  0.19433977866E+02  0.15782840328E+02  0.95233384828E+01  0.98304341144E+02  0.94584734325E+02 0.  0.
         13    1    3    3    0    0  0.46247808707E+02  0.39917623484E+02  0.11536538536E+02  0.62172175129E+02  0.10566000000E+00 0. -1.
         22    1    1    0    0    0 -0.19433977866E+02 -0.15782840328E+02 -0.95233384828E+01  0.26785658856E+02  0.00000000000E+00 0. -1.
</event>
<event>
 5    1  0.1254921E-009  0.9118800E+02  0.7561462E-02  0.1125453E+00
         25   -1    0    0    0    0  0.00000000000E+00  0.00000000000E+00  0.99999998245E-14  0.12509000000E+03  0.12509000000E+03 0.  0.
        -13    1    3    3    0    0 -0.32015785578E+02 -0.18634587120E+02  0.35851936167E+02  0.51552214834E+02  0.10566000000E+00 0. -1.
         23    2    1    0    0    0  0.95995433790E+01 -0.17212956592E+02  0.22270610571E+02  0.95350847306E+02  0.90594519035E+02 0.  0.
         13    1    3    3    0    0  0.41615328957E+02  0.14216305285E+01 -0.13581325596E+02  0.43798632473E+02  0.10566000000E+00 0.  1.
         22    1    1    0    0    0 -0.95995433790E+01  0.17212956592E+02 -0.22270610571E+02  0.29739152694E+02  0.00000000000E+00 0. -1.
</event>
<event>
 5    1  0.1254921E-009  0.9118800E+02  0.7561462E-02  0.1125453E+00
         25   -1    0    0    0    0  0.00000000000E+00  0.00000000000E+00  0.99999998245E-14  0.12509000000E+03  0.12509000000E+03 0.  0.
        -13    1    3    3    0    0  0.34423529701E+02 -0.15141186239E+02  0.28890366874E+02  0.47422561930E+02  0.10566000000E+00 0.  1.
         23    2    1    0    0    0  0.17130826872E+02 -0.21019706680E+02 -0.14384907408E+02  0.94394416289E+02  0.89264141553E+02 0.  0.
         13    1    3    3    0    0 -0.17292702829E+02 -0.58785204409E+01 -0.43275274282E+02  0.46971854359E+02  0.10566000000E+00 0. -1.
         22    1    1    0    0    0 -0.17130826872E+02  0.21019706680E+02  0.14384907408E+02  0.30695583711E+02  0.00000000000E+00 0. -1.
</event>
<event>
 5    1  0.1254921E-009  0.9118800E+02  0.7561462E-02  0.1125453E+00
         25   -1    0    0    0    0  0.00000000000E+00  0.00000000000E+00  0.99999998245E-14  0.12509000000E+03  0.12509000000E+03 0.  0.
        -13    1    3    3    0    0 -0.40555904048E+02  0.21339518271E+02 -0.15673639480E+02  0.48433774701E+02  0.10566000000E+00 0. -1.
         23    2    1    0    0    0 -0.55880569118E+00  0.49662252899E+01 -0.30544451977E+02  0.94139407049E+02  0.88906067034E+02 0.  0.
         13    1    3    3    0    0  0.39997098357E+02 -0.16373292981E+02 -0.14870812497E+02  0.45705632348E+02  0.10566000000E+00 0.  1.
         22    1    1    0    0    0  0.55880569118E+00 -0.49662252899E+01  0.30544451977E+02  0.30950592951E+02  0.00000000000E+00 0. -1.
</event>
<event>
 5    1  0.1254921E-009  0.9118800E+02  0.7561462E-02  0.1125453E+00
         25   -1    0    0    0    0  0.00000000000E+00  0.00000000000E+00  0.99999998245E-14  0.12509000000E+03  0.12509000000E+03 0.  0.
        -13    1    3    3    0    0  0.23182242533E+02  0.29562110234E+02  0.61941483521E+01  0.38075101684E+02  0.10566000000E+00 0. -1.
         23    2    1    0    0    0 -0.16590878269E+02 -0.82408888165E+01  0.23087698052E+02  0.95489133601E+02  0.90785259510E+02 0.  0.
         13    1    3    3    0    0 -0.39773120802E+02 -0.37802999051E+02  0.16893549700E+02  0.57414031918E+02  0.10566000000E+00 0.  1.
         22    1    1    0    0    0  0.16590878269E+02  0.82408888165E+01 -0.23087698052E+02  0.29600866399E+02  0.00000000000E+00 0.  1.
</event>
<event>
 5    1  0.1254921E-009  0.9118800E+02  0.7561462E-02  0.1125453E+00
         25   -1    0    0    0    0  0.00000000000E+00  0.00000000000E+00  0.99999998245E-14  0.12509000000E+03  0.12509000000E+03 0.  0.
        -13    1    3    3    0    0 -0.50114202356E+02  0.19410607570E+02  0.20427730230E+02  0.57493549989E+02  0.10566000000E+00 0.  1.
         23    2    1    0    0    0 -0.28718896303E+02 -0.52549198293E+01  0.21892881637E+00  0.95893474229E+02  0.91340687991E+02 0.  0.
         13    1    3    3    0    0  0.21395306053E+02 -0.24665527400E+02 -0.20208801413E+02  0.38399924240E+02  0.10566000000E+00 0. -1.
         22    1    1    0    0    0  0.28718896303E+02  0.52549198293E+01 -0.21892881637E+00  0.29196525771E+02  0.00000000000E+00 0. -1.
</event>
<event>
 5    1  0.1254921E-009  0.9118800E+02  0.7561462E-02  0.1125453E+00
         25   -1    0    0    0    0  0.00000000000E+00  0.00000000000E+00  0.99999998245E-14  0.12509000000E+03  0.12509000000E+03 0.  0.
        -13    1    3    3    0    0  0.30352450136E+02 -0.34966179581E+02 -0.24648561596E+02  0.52454434479E+02  0.10566000000E+00 0. -1.
         23    2    1    0    0    0  0.29631767562E+02  0.26324483390E+01 -0.48655348451E+01  0.94946263296E+02  0.90034149363E+02 0.  0.
         13    1    3    3    0    0 -0.72068257358E+00  0.37598627920E+02  0.19783026751E+02  0.42491828818E+02  0.10566000000E+00 0.  1.
         22    1    1    0    0    0 -0.29631767562E+02 -0.26324483390E+01  0.48655348451E+01  0.30143736704E+02  0.00000000000E+00 0. -1.
</event>
<event>
 5    1  0.1254921E-009  0.9118800E+02  0.7561462E-02  0.1125453E+00
         25   -1    0    0    0    0  0.00000000000E+00  0.00000000000E+00  0.99999998245E-14  0.12509000000E+03  0.12509000000E+03 0.  0.
        -13    1    3    3    0    0  0.25982642862E+02 -0.48352993854E+02 -0.25235255137E+02  0.60414725114E+02  0.10566000000E+00 0.  1.
         23    2    1    0    0    0  0.18026811640E+02 -0.10488302356E+02 -0.90464051089E+01  0.10235659133E+03  0.99800119838E+02 0.  0.
         13    1    3    3    0    0 -0.79558312220E+01  0.37864691498E+02  0.16188850028E+02  0.41941866219E+02  0.10566000000E+00 0. -1.
         22    1    1    0    0    0 -0.18026811640E+02  0.10488302356E+02  0.90464051089E+01  0.22733408667E+02  0.00000000000E+00 0.  1.
</event>
<event>
 5    1  0.1254921E-009  0.9118800E+02  0.7561462E-02  0.1125453E+00
         25   -1    0    0    0    0  0.00000000000E+00  0.00000000000E+00  0.99999998245E-14  0.12509000000E+03  0.12509000000E+03 0.  0.
        -13    1    3    3    0    0  0.50574399184E+02  0.17809234808E+02  0.69137436898E+01  0.54062461220E+02  0.10566000000E+00 0. -1.
         23    2    1    0    0    0  0.20233515538E+02 -0.51519836166E+01  0.21784845290E+02  0.94915216314E+02  0.89991003536E+02 0.  0.
         13    1    3    3    0    0 -0.30340883646E+02 -0.22961218425E+02  0.14871101600E+02  0.40852755094E+02  0.10566000000E+00 0.  1.
         22    1    1    0    0    0 -0.20233515538E+02  0.51519836166E+01 -0.21784845290E+02  0.30174783686E+02  0.00000000000E+00 0.  1.
</event>
<event>
 5    1  0.1254921E-009  0.9118800E+02  0.7561462E-02  0.1125453E+00
         25   -1    0    0    0    0  0.00000000000E+00  0.00000000000E+00  0.99999998245E-14  0.12509000000E+03  0.12509000000E+03 0.  0.
        -13    1    3    3    0    0  0.31924861090E+02 -0.97058657199E+01  0.20484868589E+02  0.39154075014E+02  0.10566000000E+00 0.  1.
         23    2    1    0    0    0 -0.87331102431E+01 -0.81460725029E+01 -0.23288962377E+02  0.98917467063E+02  0.95392158010E+02 0.  0.
         13    1    3    3    0    0 -0.40657971333E+02  0.15597932170E+01 -0.43773830966E+02  0.59763392050E+02  0.10566000000E+00 0. -1.
         22    1    1    0    0    0  0.87331102431E+01  0.81460725029E+01  0.23288962377E+02  0.26172532937E+02  0.00000000000E+00 0. -1.
</event>
<event>
 5    1  0.1254921E-009  0.9118800E+02  0.7561462E-02  0.1125453E+00
         25   -1    0    0    0    0  0.00000000000E+00  0.00000000000E+00  0.99999998245E-14  0.12509000000E+03  0.12509000000E+03 0.  0.
        -13    1    3    3    0    0  0.26307376736E+02  0.52511830164E+02 -0.32366809150E+01  0.58822254677E+02  0.10566000000E+00 0.  1.
         23    2    1    0    0    0  0.30824315562E+01  0.26913414314E+02  0.10528376009E+02  0.96026621743E+02  0.91522850303E+02 0.  0.
         13    1    3    3    0    0 -0.23224945180E+02 -0.25598415850E+02  0.13765056924E+02  0.37204367066E+02  0.10566000000E+00 0. -1.
         22    1    1    0    0    0 -0.30824315562E+01 -0.26913414314E+02 -0.10528376009E+02  0.29063378257E+02  0.00000000000E+00 0.  1.
</event>
<event>
 5    1  0.1254921E-009  0.9118800E+02  0.7561462E-02  0.1125453E+00
         25   -1    0    0    0    0  0.00000000000E+00  0.00000000000E+00  0.99999998245E-14  0.12509000000E+03  0.12509000000E+03 0.  0.
        -13    1    3    3    0    0 -0.46246921834E+02  0.15413256109E+02  0.70825117366E+01  0.49259713555E+02  0.10566000000E+00 0. -1.
         23    2    1    0    0    0 -0.19419524302E+02 -0.17768588710E+02 -0.12192382560E+02  0.96081469162E+02  0.91597783025E+02 0.  0.
         13    1    3    3    0    0  0.26827397532E+02 -0.33181844819E+02 -0.19274894297E+02  0.46821755607E+02  0.10566000000E+00 0.  1.
         22    1    1    0    0    0  0.19419524302E+02  0.17768588710E+02  0.12192382560E+02  0.29008530838E+02  0.00000000000E+00 0.  1.
</event>
<event>
 5    1  0.1254921E-009  0.9118800E+02  0.7561462E-02  0.1125453E+00
         25   -1    0    0    0    0  0.00000000000E+00  0.00000000000E+00  0.99999998245E-14  0.12509000000E+03  0.12509000000E+03 0.  0.
        -13    1    3    3    0    0 -0.24877657849E+01 -0.21152297724E+02  0.32500735088E+02  0.38857658485E+02  0.10566000000E+00 0.  1.
         23    2    1    0    0    0 -0.16078873385E+02 -0.11049930399E+02 -0.21856970993E+02  0.95792247320E+02  0.91201953567E+02 0.  0.
         13    1    3    3    0    0 -0.13591107600E+02  0.10102367325E+02 -0.54357706081E+02  0.56934588835E+02  0.10566000000E+00 0. -1.
         22    1    1    0    0    0  0.16078873385E+02  0.11049930399E+02  0.21856970993E+02  0.29297752680E+02  0.00000000000E+00 0. -1.
</event>
<event>
 5    1  0.1254921E-009  0.9118800E+02  0.7561462E-02  0.1125453E+00
         25   -1    0    0    0    0  0.00000000000E+00  0.00000000000E+00  0.99999998245E-14  0.12509000000E+03  0.12509000000E+03 0.  0.
        -13    1    3    3    0    0 -0.19719174566E+02  0.44522066919E+02 -0.31261643357E+02  0.57865030871E+02  0.10566000000E+00 0.  1.
         23    2    1    0    0    0 -0.17818219547E+02  0.82758114587E+01 -0.22530880212E+02  0.95196546431E+02  0.90381214233E+02 0.  0.
         13    1    3    3    0    0  0.19009550193E+01 -0.36246255460E+02  0.87307631450E+01  0.37331515560E+02  0.10566000000E+00 0. -1.
         22    1    1    0    0    0  0.17818219547E+02 -0.82758114587E+01  0.22530880212E+02  0.29893453569E+02  0.00000000000E+00 0.  1.
</event>
<event>
 5    1  0.1254921E-009  0.9118800E+02  0.7561462E-02  0.1125453E+00
         25   -1    0    0    0    0  0.00000000000E+00  0.00000000000E+00  0.99999998245E-14  0.12509000000E+03  0.12509000000E+03 0.  0.
        -13    1    3    3    0    0  0.49734030540E+00  0.31090185152E+02  0.33191863561E+02  0.45481402033E+02  0.10566000000E+00 0. -1.
         23    2    1    0    0    0  0.20444109699E+02  0.19020875548E+02 -0.10704092205E+02  0.95184600523E+02  0.90364679266E+02 0.  0.
         13    1    3    3    0    0  0.19946769393E+02 -0.12069309604E+02 -0.43895955766E+02  0.49703198490E+02  0.10566000000E+00 0.  1.
         22    1    1    0    0    0 -0.20444109699E+02 -0.19020875548E+02  0.10704092205E+02  0.29905399477E+02  0.00000000000E+00 0.  1.
</event>
<event>
 5    1  0.1254921E-009  0.9118800E+02  0.7561462E-02  0.1125453E+00
         25   -1    0    0    0    0  0.00000000000E+00  0.00000000000E+00  0.99999998245E-14  0.12509000000E+03  0.12509000000E+03 0.  0.
        -13    1    3    3    0    0 -0.18869468172E+02  0.14863771019E+02 -0.25015666233E+02  0.34681165481E+02  0.10566000000E+00 0. -1.
         23    2    1    0    0    0  0.15116418270E+02  0.11069020354E+02  0.24121514833E+02  0.94546968214E+02  0.89477664295E+02 0.  0.
         13    1    3    3    0    0  0.33985886441E+02 -0.37947506658E+01  0.49137181065E+02  0.59865802733E+02  0.10566000000E+00 0.  1.
         22    1    1    0    0    0 -0.15116418270E+02 -0.11069020354E+02 -0.24121514833E+02  0.30543031786E+02  0.00000000000E+00 0.  1.
</event>
<event>
 5    1  0.1254921E-009  0.9118800E+02  0.7561462E-02  0.1125453E+00
         25   -1    0    0    0    0  0.00000000000E+00  0.00000000000E+00  0.99999998245E-14  0.12509000000E+03  0.12509000000E+03 0.  0.
        -13    1    3    3    0    0 -0.17462172596E+02 -0.28827815406E+02  0.96342932692E+01  0.35054260564E+02  0.10566000000E+00 0.  1.
         23    2    1    0    0    0 -0.12053987834E+01  0.24466924220E+02 -0.15416866479E+02  0.96145861749E+02  0.91685678230E+02 0.  0.
         13    1    3    3    0    0  0.16256773812E+02  0.53294739627E+02 -0.25051159748E+02  0.61091601186E+02  0.10566000000E+00 0. -1.
         22    1    1    0    0    0  0.12053987834E+01 -0.24466924220E+02  0.15416866479E+02  0.28944138251E+02  0.00000000000E+00 0. -1.
</event>
<event>
 5    1  0.1254921E-009  0.9118800E+02  0.7561462E-02  0.1125453E+00
         25   -1    0    0    0    0  0.00000000000E+00  0.00000000000E+00  0.99999998245E-14  0.12509000000E+03  0.12509000000E+03 0.  0.
        -13    1    3    3    0    0  0.42833273918E+02 -0.27195883752E+02 -0.17415432050E+02  0.53643395541E+02  0.10566000000E+00 0.  1.
         23    2    1    0    0    0  0.27641910996E+02  0.84635036436E+01  0.10842143376E+00  0.96181214265E+02  0.91733898232E+02 0.  0.
         13    1    3    3    0    0 -0.15191362922E+02  0.35659387396E+02  0.17523853484E+02  0.42537818724E+02  0.10566000000E+00 0. -1.
         22    1    1    0    0    0 -0.27641910996E+02 -0.84635036436E+01 -0.10842143376E+00  0.28908785735E+02  0.00000000000E+00 0.  1.
</event>
<event>
 5    1  0.1254921E-009  0.9118800E+02  0.7561462E-02  0.1125453E+00
         25   -1    0    0    0    0  0.00000000000E+00  0.00000000000E+00  0.99999998245E-14  0.12509000000E+03  0.12509000000E+03 0.  0.
        -13    1    3    3    0    0  0.55110731632E+02  0.10838047739E+02 -0.22502159938E+02  0.60506316907E+02  0.10566000000E+00 0. -1.
         23    2    1    0    0    0  0.20667572240E+02  0.91787463974E+01 -0.19691810894E+02  0.95103914160E+02  0.90252917651E+02 0.  0.
         13    1    3    3    0    0 -0.34443159392E+02 -0.16593013413E+01  0.28103490433E+01  0.34597597252E+02  0.10566000000E+00 0.  1.
         22    1    1    0    0    0 -0.20667572240E+02 -0.91787463974E+01  0.19691810894E+02  0.29986085840E+02  0.00000000000E+00 0. -1.
</event>
<event>
 5    1  0.1254921E-009  0.9118800E+02  0.7561462E-02  0.1125453E+00
         25   -1    0    0    0    0  0.00000000000E+00  0.00000000000E+00  0.99999998245E-14  0.12509000000E+03  0.12509000000E+03 0.  0.
        -13    1    3    3    0    0  0.29255992783E+02  0.25257981854E+02 -0.50882926624E+01  0.38984364139E+02  0.10566000000E+00 0.  1.
         23    2    1    0    0    0 -0.24332592269E+02  0.14900369821E+02  0.86649026495E+01  0.95270935540E+02  0.90484112161E+02 0.  0.
         13    1    3    3    0    0 -0.53588585051E+02 -0.10357612033E+02  0.13753195312E+02  0.56286571402E+02  0.10566000000E+00 0. -1.
         22    1    1    0    0    0  0.24332592269E+02 -0.14900369821E+02 -0.86649026495E+01  0.29819064460E+02  0.00000000000E+00 0. -1.
</event>
<event>
 5    1  0.1254921E-009  0.9118800E+02  0.7561462E-02  0.1125453E+00
         25   -1    0    0    0    0  0.00000000000E+00  0.00000000000E+00  0.99999998245E-14  0.12509000000E+03  0.12509000000E+03 0.  0.
        -13    1    3    3    0    0  0.28505918792E+02 -0.18478402275E+01 -0.23504382922E+02  0.36992824984E+02  0.10566000000E+00 0. -1.
         23    2    1    0    0    0 -0.20026739708E+02 -0.21068406863E+02  0.35820437911E+01  0.95802133762E+02  0.91215512521E+02 0.  0.
         13    1    3    3    0    0 -0.48532658500E+02 -0.19220566636E+02  0.27086426713E+02  0.58809308778E+02  0.10566000000E+00 0.  1.
         22    1    1    0    0    0  0.20026739708E+02  0.21068406863E+02 -0.35820437911E+01  0.29287866238E+02  0.00000000000E+00 0.  1.
</event>
<event>
 5    1  0.1254921E-009  0.9118800E+02  0.7561462E-02  0.1125453E+00
         25   -1    0    0    0    0  0.00000000000E+00  0.00000000000E+00  0.99999998245E-14  0.12509000000E+03  0.12509000000E+03 0.  0.
        -13    1    3    3    0    0 -0.12148251361E+02  0.32126860097E+01  0.32070483212E+02  0.34444570255E+02  0.10566000000E+00 0.  1.
         23    2    1    0    0    0  0.40231949253E+01  0.24717832039E+02 -0.19989696384E+02  0.93047133717E+02  0.87355731428E+02 0.  0.
         13    1    3    3    0    0  0.16171446286E+02  0.21505146029E+02 -0.52060179596E+02  0.58602563462E+02  0.10566000000E+00 0. -1.
         22    1    1    0    0    0 -0.40231949253E+01 -0.24717832039E+02  0.19989696384E+02  0.32042866283E+02  0.00000000000E+00 0. -1.
</event>
<event>
 5    1  0.1254921E-009  0.9118800E+02  0.7561462E-02  0.1125453E+00
         25   -1    0    0    0    0  0.00000000000E+00  0.00000000000E+00  0.99999998245E-14  0.12509000000E+03  0.12509000000E+03 0.  0.
        -13    1    3    3    0    0  0.21477264335E+02  0.21368791641E+02  0.17316682386E+02  0.34896658757E+02  0.10566000000E+00 0. -1.
         23    2    1    0    0    0 -0.23749917734E+02 -0.11118610019E+02 -0.10127995010E+02  0.96978465640E+02  0.92814677901E+02 0.  0.
         13    1    3    3    0    0 -0.45227182069E+02 -0.32487401659E+02 -0.27444677396E+02  0.62081806883E+02  0.10566000000E+00 0.  1.
         22    1    1    0    0    0  0.23749917734E+02  0.11118610019E+02  0.10127995010E+02  0.28111534360E+02  0.00000000000E+00 0.  1.
</event>
<event>
 5    1  0.1254921E-009  0.9118800E+02  0.7561462E-02  0.1125453E+00
         25   -1    0    0    0    0  0.00000000000E+00  0.00000000000E+00  0.99999998245E-14  0.12509000000E+03  0.12509000000E+03 0.  0.
        -13    1    3    3    0    0 -0.25611563264E+02  0.54878431243E+02  0.47181593410E+00  0.60562597061E+02  0.10566000000E+00 0. -1.
         23    2    1    0    0    0 -0.81656291107E+01  0.26443981290E+02 -0.10209574356E+02  0.95590897408E+02  0.90925368371E+02 0.  0.
         13    1    3    3    0    0  0.17445934153E+02 -0.28434449953E+02 -0.10681390290E+02  0.35028300346E+02  0.10566000000E+00 0.  1.
         22    1    1    0    0    0  0.81656291107E+01 -0.26443981290E+02  0.10209574356E+02  0.29499102592E+02  0.00000000000E+00 0. -1.
</event>
<event>
 5    1  0.1254921E-009  0.9118800E+02  0.7561462E-02  0.1125453E+00
         25   -1    0    0    0    0  0.00000000000E+00  0.00000000000E+00  0.99999998245E-14  0.12509000000E+03  0.12509000000E+03 0.  0.
        -13    1    3    3    0    0  0.12567850949E+02 -0.18649621429E+02 -0.42729793963E+02  0.48286703275E+02  0.10566000000E+00 0.  1.
         23    2    1    0    0    0  0.18128701527E+01  0.21782081630E+02 -0.12415257742E+02  0.99952693002E+02  0.96740150068E+02 0.  0.
         13    1    3    3    0    0 -0.10754980796E+02  0.40431703059E+02  0.30314536222E+02  0.51665989728E+02  0.10566000000E+00 0. -1.
         22    1    1    0    0    0 -0.18128701527E+01 -0.21782081630E+02  0.12415257742E+02  0.25137306998E+02  0.00000000000E+00 0. -1.
</event>
<event>
 5    1  0.1254921E-009  0.9118800E+02  0.7561462E-02  0.1125453E+00
         25   -1    0    0    0    0  0.00000000000E+00  0.00000000000E+00  0.99999998245E-14  0.12509000000E+03  0.12509000000E+03 0.  0.
        -13    1    3    3    0    0  0.42439107019E+02 -0.36703752135E+02  0.69993507182E+01  0.56544188913E+02  0.10566000000E+00 0.  1.
         23    2    1    0    0    0  0.15939692438E+02 -0.93251305780E+01  0.20988515350E+02  0.97133790817E+02  0.93023780221E+02 0.  0.
         13    1    3    3    0    0 -0.26499414582E+02  0.27378621557E+02  0.13989164632E+02  0.40589601903E+02  0.10566000000E+00 0. -1.
         22    1    1    0    0    0 -0.15939692438E+02  0.93251305780E+01 -0.20988515350E+02  0.27956209183E+02  0.00000000000E+00 0.  1.
</event>
<event>
 5    1  0.1254921E-009  0.9118800E+02  0.7561462E-02  0.1125453E+00
         25   -1    0    0    0    0  0.00000000000E+00  0.00000000000E+00  0.99999998245E-14  0.12509000000E+03  0.12509000000E+03 0.  0.
        -13    1    3    3    0    0  0.13439581292E+02  0.31636078820E+02  0.46381594227E+02  0.57729778066E+02  0.10566000000E+00 0.  1.
         23    2    1    0    0    0 -0.59497712194E+01  0.38858051316E+01  0.27899903454E+02  0.96299309285E+02  0.91894793634E+02 0.  0.
         13    1    3    3    0    0 -0.19389352512E+02 -0.27750273689E+02 -0.18481690773E+02  0.38569531220E+02  0.10566000000E+00 0. -1.
         22    1    1    0    0    0  0.59497712194E+01 -0.38858051316E+01 -0.27899903454E+02  0.28790690715E+02  0.00000000000E+00 0.  1.
</event>
<event>
 5    1  0.1254921E-009  0.9118800E+02  0.7561462E-02  0.1125453E+00
         25   -1    0    0    0    0  0.00000000000E+00  0.00000000000E+00  0.99999998245E-14  0.12509000000E+03  0.12509000000E+03 0.  0.
        -13    1    3    3    0    0 -0.84722266434E+01  0.21455249536E+02 -0.27796183235E+02  0.36121258608E+02  0.10566000000E+00 0.  1.
         23    2    1    0    0    0 -0.15194982884E+02 -0.17456411302E+02  0.17397957061E+02  0.96136542343E+02  0.91672962554E+02 0.  0.
         13    1    3    3    0    0 -0.67227562410E+01 -0.38911660838E+02  0.45194140296E+02  0.60015283735E+02  0.10566000000E+00 0. -1.
         22    1    1    0    0    0  0.15194982884E+02  0.17456411302E+02 -0.17397957061E+02  0.28953457657E+02  0.00000000000E+00 0. -1.
</event>
<event>
 5    1  0.1254921E-009  0.9118800E+02  0.7561462E-02  0.1125453E+00
         25   -1    0    0    0    0  0.00000000000E+00  0.00000000000E+00  0.99999998245E-14  0.12509000000E+03  0.12509000000E+03 0.  0.
        -13    1    3    3    0    0  0.15974255875E+02  0.15151624030E+02  0.40843961800E+02  0.46400311864E+02  0.10566000000E+00 0.  1.
         23    2    1    0    0    0  0.28597589470E+02 -0.13241808559E+01 -0.43504842344E+01  0.96133095962E+02  0.91668259762E+02 0.  0.
         13    1    3    3    0    0  0.12623333595E+02 -0.16475804886E+02 -0.45194446035E+02  0.49732784098E+02  0.10566000000E+00 0. -1.
         22    1    1    0    0    0 -0.28597589470E+02  0.13241808559E+01  0.43504842344E+01  0.28956904038E+02  0.00000000000E+00 0. -1.
</event>
<event>
 5    1  0.1254921E-009  0.9118800E+02  0.7561462E-02  0.1125453E+00
         25   -1    0    0    0    0  0.00000000000E+00  0.00000000000E+00  0.99999998245E-14  0.12509000000E+03  0.12509000000E+03 0.  0.
        -13    1    3    3    0    0  0.31834808340E+02 -0.31266581239E+02 -0.26979543757E+02  0.52143658002E+02  0.10566000000E+00 0. -1.
         23    2    1    0    0    0  0.11499963301E+02 -0.27094444855E+02  0.95381300809E+01  0.94149185154E+02  0.88919823671E+02 0.  0.
         13    1    3    3    0    0 -0.20334845039E+02  0.41721363843E+01  0.36517673837E+02  0.42005527152E+02  0.10566000000E+00 0.  1.
         22    1    1    0    0    0 -0.11499963301E+02  0.27094444855E+02 -0.95381300809E+01  0.30940814846E+02  0.00000000000E+00 0. -1.
</event>
<event>
 5    1  0.1254921E-009  0.9118800E+02  0.7561462E-02  0.1125453E+00
         25   -1    0    0    0    0  0.00000000000E+00  0.00000000000E+00  0.99999998245E-14  0.12509000000E+03  0.12509000000E+03 0.  0.
        -13    1    3    3    0    0  0.35233393069E+02  0.58301652391E+01 -0.20327373635E+02  0.41092530912E+02  0.10566000000E+00 0. -1.
         23    2    1    0    0    0 -0.17503226929E+02  0.19020490478E+02 -0.13639601441E+02  0.95863629401E+02  0.91299806700E+02 0.  0.
         13    1    3    3    0    0 -0.52736619997E+02  0.13190325239E+02  0.66877721946E+01  0.54771098488E+02  0.10566000000E+00 0.  1.
         22    1    1    0    0    0  0.17503226929E+02 -0.19020490478E+02  0.13639601441E+02  0.29226370599E+02  0.00000000000E+00 0.  1.
</event>
<event>
 5    1  0.1254921E-009  0.9118800E+02  0.7561462E-02  0.1125453E+00
         25   -1    0    0    0    0  0.00000000000E+00  0.00000000000E+00  0.99999998245E-14  0.12509000000E+03  0.12509000000E+03 0.  0.
        -13    1    3    3    0    0  0.14928825481E+02 -0.44899675053E+02 -0.30747976441E+02  0.56429601003E+02  0.10566000000E+00 0.  1.
         23    2    1    0    0    0  0.37152294308E+01 -0.33788157250E+02  0.11747220711E+00  0.91097996532E+02  0.84518569985E+02 0.  0.
         13    1    3    3    0    0 -0.11213596050E+02  0.11111517803E+02  0.30865448648E+02  0.34668395529E+02  0.10566000000E+00 0. -1.
         22    1    1    0    0    0 -0.37152294308E+01  0.33788157250E+02 -0.11747220711E+00  0.33992003468E+02  0.00000000000E+00 0.  1.
</event>
<event>
 5    1  0.1254921E-009  0.9118800E+02  0.7561462E-02  0.1125453E+00
         25   -1    0    0    0    0  0.00000000000E+00  0.00000000000E+00  0.99999998245E-14  0.12509000000E+03  0.12509000000E+03 0.  0.
        -13    1    3    3    0    0  0.10957859938E+02  0.50709416059E+02 -0.16318045586E+02  0.54385745809E+02  0.10566000000E+00 0.  1.
         23    2    1    0    0    0 -0.38360703909E+01  0.13493272522E+02 -0.25962990068E+02  0.95579651092E+02  0.90909895007E+02 0.  0.
         13    1    3    3    0    0 -0.14793930329E+02 -0.37216143537E+02 -0.96449444821E+01  0.41193905282E+02  0.10566000000E+00 0. -1.
         22    1    1    0    0    0  0.38360703909E+01 -0.13493272522E+02  0.25962990068E+02  0.29510348908E+02  0.00000000000E+00 0.  1.
</event>
<event>
 5    1  0.1254921E-009  0.9118800E+02  0.7561462E-02  0.1125453E+00
         25   -1    0    0    0    0  0.00000000000E+00  0.00000000000E+00  0.99999998245E-14  0.12509000000E+03  0.12509000000E+03 0.  0.
        -13    1    3    3    0    0 -0.32491118734E+02 -0.15050776616E+02  0.50234027125E+01  0.36158600805E+02  0.10566000000E+00 0. -1.
         23    2    1    0    0    0  0.80027559847E+01  0.27763568612E+02  0.78228065082E+01  0.95155803049E+02  0.90324806708E+02 0.  0.
         13    1    3    3    0    0  0.40493874718E+02  0.42814345228E+02  0.27994037956E+01  0.58997202244E+02  0.10566000000E+00 0.  1.
         22    1    1    0    0    0 -0.80027559847E+01 -0.27763568612E+02 -0.78228065082E+01  0.29934196951E+02  0.00000000000E+00 0.  1.
</event>
<event>
 5    1  0.1254921E-009  0.9118800E+02  0.7561462E-02  0.1125453E+00
         25   -1    0    0    0    0  0.00000000000E+00  0.00000000000E+00  0.99999998245E-14  0.12509000000E+03  0.12509000000E+03 0.  0.
        -13    1    3    3    0    0 -0.27996750788E+02 -0.25261932459E+02 -0.20305611510E+01  0.37763972631E+02  0.10566000000E+00 0. -1.
         23    2    1    0    0    0 -0.49278401063E+01  0.18666341293E+02  0.24395373849E+02  0.93979709570E+02  0.88681089531E+02 0.  0.
         13    1    3    3    0    0  0.23068910682E+02  0.43928273753E+02  0.26425935000E+02  0.56215736939E+02  0.10566000000E+00 0.  1.
         22    1    1    0    0    0  0.49278401063E+01 -0.18666341293E+02 -0.24395373849E+02  0.31110290430E+02  0.00000000000E+00 0. -1.
</event>
<event>
 5    1  0.1254921E-009  0.9118800E+02  0.7561462E-02  0.1125453E+00
         25   -1    0    0    0    0  0.00000000000E+00  0.00000000000E+00  0.99999998245E-14  0.12509000000E+03  0.12509000000E+03 0.  0.
        -13    1    3    3    0    0 -0.41644192793E+02  0.93294379566E+01  0.15031533081E+02  0.45246385013E+02  0.10566000000E+00 0.  1.
         23    2    1    0    0    0  0.10132122643E+01  0.26627502979E+02 -0.87309444104E+01  0.97049316979E+02  0.92910117974E+02 0.  0.
         13    1    3    3    0    0  0.42657405057E+02  0.17298065022E+02 -0.23762477491E+02  0.51802931966E+02  0.10566000000E+00 0. -1.
         22    1    1    0    0    0 -0.10132122643E+01 -0.26627502979E+02  0.87309444104E+01  0.28040683021E+02  0.00000000000E+00 0. -1.
</event>
<event>
 5    1  0.1254921E-009  0.9118800E+02  0.7561462E-02  0.1125453E+00
         25   -1    0    0    0    0  0.00000000000E+00  0.00000000000E+00  0.99999998245E-14  0.12509000000E+03  0.12509000000E+03 0.  0.
        -13    1    3    3    0    0 -0.15706806948E+02  0.60083150357E+02  0.43020204167E+01  0.62251162921E+02  0.10566000000E+00 0. -1.
         23    2    1    0    0    0 -0.10494614123E+02  0.24208579591E+02  0.51854764723E+00  0.98699449739E+02  0.95105837022E+02 0.  0.
         13    1    3    3    0    0  0.52121928251E+01 -0.35874570766E+02 -0.37834727695E+01  0.36448286818E+02  0.10566000000E+00 0.  1.
         22    1    1    0    0    0  0.10494614123E+02 -0.24208579591E+02 -0.51854764723E+00  0.26390550261E+02  0.00000000000E+00 0. -1.
</event>
<event>
 5    1  0.1254921E-009  0.9118800E+02  0.7561462E-02  0.1125453E+00
         25   -1    0    0    0    0  0.00000000000E+00  0.00000000000E+00  0.99999998245E-14  0.12509000000E+03  0.12509000000E+03 0.  0.
        -13    1    3    3    0    0 -0.18483188811E+02 -0.28739139236E+02 -0.35500651416E+00  0.34171678131E+02  0.10566000000E+00 0. -1.
         23    2    1    0    0    0  0.23900601775E+01  0.28895693813E+02 -0.50887592814E+01  0.95652456291E+02  0.91010018212E+02 0.  0.
         13    1    3    3    0    0  0.20873248988E+02  0.57634833049E+02 -0.47337527672E+01  0.61480778160E+02  0.10566000000E+00 0.  1.
         22    1    1    0    0    0 -0.23900601775E+01 -0.28895693813E+02  0.50887592814E+01  0.29437543709E+02  0.00000000000E+00 0.  1.
</event>
<event>
 5    1  0.1254921E-009  0.9118800E+02  0.7561462E-02  0.1125453E+00
         25   -1    0    0    0    0  0.00000000000E+00  0.00000000000E+00  0.99999998245E-14  0.12509000000E+03  0.12509000000E+03 0.  0.
        -13    1    3    3    0    0 -0.83482439828E+00 -0.36344366530E+02 -0.28904707445E+02  0.46444624950E+02  0.10566000000E+00 0. -1.
         23    2    1    0    0    0 -0.30153545716E+02 -0.70016115492E+01 -0.70020987283E+01  0.93352194938E+02  0.87791480393E+02 0.  0.
         13    1    3    3    0    0 -0.29318721318E+02  0.29342754981E+02  0.21902608717E+02  0.46907569988E+02  0.10566000000E+00 0.  1.
         22    1    1    0    0    0  0.30153545716E+02  0.70016115492E+01  0.70020987283E+01  0.31737805062E+02  0.00000000000E+00 0. -1.
</event>
<event>
 5    1  0.1254921E-009  0.9118800E+02  0.7561462E-02  0.1125453E+00
         25   -1    0    0    0    0  0.00000000000E+00  0.00000000000E+00  0.99999998245E-14  0.12509000000E+03  0.12509000000E+03 0.  0.
        -13    1    3    3    0    0  0.31444599168E+02  0.98257078878E+01  0.46257863798E+01  0.33267347595E+02  0.10566000000E+00 0.  1.
         23    2    1    0    0    0 -0.23654900586E+02 -0.10610528739E+02 -0.14892731065E+02  0.95191319754E+02  0.90373980083E+02 0.  0.
         13    1    3    3    0    0 -0.55099499754E+02 -0.20436236627E+02 -0.19518517445E+02  0.61923972159E+02  0.10566000000E+00 0. -1.
         22    1    1    0    0    0  0.23654900586E+02  0.10610528739E+02  0.14892731065E+02  0.29898680246E+02  0.00000000000E+00 0. -1.
</event>
<event>
 5    1  0.1254921E-009  0.9118800E+02  0.7561462E-02  0.1125453E+00
         25   -1    0    0    0    0  0.00000000000E+00  0.00000000000E+00  0.99999998245E-14  0.12509000000E+03  0.12509000000E+03 0.  0.
        -13    1    3    3    0    0 -0.27194668021E+02  0.27437307350E+02 -0.12485364000E+02  0.40598661082E+02  0.10566000000E+00 0.  1.
         23    2    1    0    0    0  0.16906899805E+02  0.19277997971E+02  0.17047285601E+02  0.94298858203E+02  0.89130130961E+02 0.  0.
         13    1    3    3    0    0  0.44101567827E+02 -0.81593093783E+01  0.29532649601E+02  0.53700197121E+02  0.10566000000E+00 0. -1.
         22    1    1    0    0    0 -0.16906899805E+02 -0.19277997971E+02 -0.17047285601E+02  0.30791141797E+02  0.00000000000E+00 0. -1.
</event>
<event>
 5    1  0.1254921E-009  0.9118800E+02  0.7561462E-02  0.1125453E+00
         25   -1    0    0    0    0  0.00000000000E+00  0.00000000000E+00  0.99999998245E-14  0.12509000000E+03  0.12509000000E+03 0.  0.
        -13    1    3    3    0    0  0.47152940223E+02  0.12065892237E+02 -0.29082508825E+02  0.56699109436E+02  0.10566000000E+00 0.  1.
         23    2    1    0    0    0  0.28477720933E+02  0.66847536280E+01  0.44941200013E+01  0.95495006586E+02  0.90793351341E+02 0.  0.
         13    1    3    3    0    0 -0.18675219291E+02 -0.53811386089E+01  0.33576628827E+02  0.38795897150E+02  0.10566000000E+00 0. -1.
         22    1    1    0    0    0 -0.28477720933E+02 -0.66847536280E+01 -0.44941200013E+01  0.29594993414E+02  0.00000000000E+00 0.  1.
</event>
<event>
 5    1  0.1254921E-009  0.9118800E+02  0.7561462E-02  0.1125453E+00
         25   -1    0    0    0    0  0.00000000000E+00  0.00000000000E+00  0.99999998245E-14  0.12509000000E+03  0.12509000000E+03 0.  0.
        -13    1    3    3    0    0  0.39906941290E+02  0.23883191250E+02 -0.54735954986E+01  0.46828860750E+02  0.10566000000E+00 0. -1.
         23    2    1    0    0    0  0.20625874200E+01  0.16654130971E+02  0.24326141503E+02  0.95537072807E+02  0.90851289341E+02 0.  0.
         13    1    3    3    0    0 -0.37844353870E+02 -0.72290602787E+01  0.29799737001E+02  0.48708212057E+02  0.10566000000E+00 0.  1.
         22    1    1    0    0    0 -0.20625874200E+01 -0.16654130971E+02 -0.24326141503E+02  0.29552927193E+02  0.00000000000E+00 0.  1.
</event>
<event>
 5    1  0.1254921E-009  0.9118800E+02  0.7561462E-02  0.1125453E+00
         25   -1    0    0    0    0  0.00000000000E+00  0.00000000000E+00  0.99999998245E-14  0.12509000000E+03  0.12509000000E+03 0.  0.
        -13    1    3    3    0    0 -0.98902990578E+00 -0.47384296141E+02  0.37462020183E+02  0.60412447568E+02  0.10566000000E+00 0.  1.
         23    2    1    0    0    0  0.95046485986E+01 -0.25425045389E+02  0.12735870650E+02  0.95107110226E+02  0.90257347270E+02 0.  0.
         13    1    3    3    0    0  0.10493678504E+02  0.21959250751E+02 -0.24726149534E+02  0.34694662658E+02  0.10566000000E+00 0. -1.
         22    1    1    0    0    0 -0.95046485986E+01  0.25425045389E+02 -0.12735870650E+02  0.29982889774E+02  0.00000000000E+00 0.  1.
</event>
<event>
 5    1  0.1254921E-009  0.9118800E+02  0.7561462E-02  0.1125453E+00
         25   -1    0    0    0    0  0.00000000000E+00  0.00000000000E+00  0.99999998245E-14  0.12509000000E+03  0.12509000000E+03 0.  0.
        -13    1    3    3    0    0  0.88587554115E+01  0.30331095423E+02 -0.14221648338E+02  0.34651397410E+02  0.10566000000E+00 0. -1.
         23    2    1    0    0    0  0.18060639153E+01 -0.70913170714E+01  0.30692843900E+02  0.93536881116E+02  0.88054237931E+02 0.  0.
         13    1    3    3    0    0 -0.70526914962E+01 -0.37422412494E+02  0.44914492238E+02  0.58885483706E+02  0.10566000000E+00 0.  1.
         22    1    1    0    0    0 -0.18060639153E+01  0.70913170714E+01 -0.30692843900E+02  0.31553118884E+02  0.00000000000E+00 0.  1.
</event>
<event>
 5    1  0.1254921E-009  0.9118800E+02  0.7561462E-02  0.1125453E+00
         25   -1    0    0    0    0  0.00000000000E+00  0.00000000000E+00  0.99999998245E-14  0.12509000000E+03  0.12509000000E+03 0.  0.
        -13    1    3    3    0    0 -0.20873009269E+02 -0.76468945681E+01 -0.11426162725E+02  0.24994516821E+02  0.10566000000E+00 0. -1.
         23    2    1    0    0    0  0.50133212005E+01 -0.35562874345E+02  0.27811309654E+02  0.79666213656E+02  0.65447576216E+02 0.  0.
         13    1    3    3    0    0  0.25886330469E+02 -0.27915979777E+02  0.39237472379E+02  0.54671696835E+02  0.10566000000E+00 0.  1.
         22    1    1    0    0    0 -0.50133212005E+01  0.35562874345E+02 -0.27811309654E+02  0.45423786344E+02  0.00000000000E+00 0.  1.
</event>
<event>
 4    1  0.1254921E-009  0.9118800E+02  0.7561462E-02  0.1125453E+00
         25   -1    0    0    0    0  0.00000000000E+00  0.00000000000E+00  0.99999998245E-14  0.12509000000E+03  0.12509000000E+03 0.  0.
        -13    1    1    0    0    0  0.17472408612E+02 -0.51471741689E+02 -0.27831109235E+02  0.61067233936E+02  0.10566000000E+00 0.  1.
         13    1    1    0    0    0  0.27209636809E+01  0.42316453466E+01  0.69172834285E+01  0.85539721626E+01  0.10566000000E+00 0. -1.
         22    1    1    0    0    0 -0.20193372293E+02  0.47240096343E+02  0.20913825807E+02  0.55468793902E+02  0.00000000000E+00 0.  1.
</event>
<event>
 5    1  0.1254921E-009  0.9118800E+02  0.7561462E-02  0.1125453E+00
         25   -1    0    0    0    0  0.00000000000E+00  0.00000000000E+00  0.99999998245E-14  0.12509000000E+03  0.12509000000E+03 0.  0.
        -13    1    3    3    0    0  0.33602718142E+02 -0.30447905110E+02 -0.21267639467E+01  0.45395505075E+02  0.10566000000E+00 0. -1.
         23    2    1    0    0    0 -0.13863375326E+02 -0.18930114756E+02 -0.16611178728E+02  0.96341544757E+02  0.91952267875E+02 0.  0.
         13    1    3    3    0    0 -0.47466093468E+02  0.11517790354E+02 -0.14484414782E+02  0.50946039683E+02  0.10566000000E+00 0.  1.
         22    1    1    0    0    0  0.13863375326E+02  0.18930114756E+02  0.16611178728E+02  0.28748455243E+02  0.00000000000E+00 0. -1.
</event>
<event>
 5    1  0.1254921E-009  0.9118800E+02  0.7561462E-02  0.1125453E+00
         25   -1    0    0    0    0  0.00000000000E+00  0.00000000000E+00  0.99999998245E-14  0.12509000000E+03  0.12509000000E+03 0.  0.
        -13    1    3    3    0    0 -0.77758524937E+01 -0.13717542926E+02 -0.35699841545E+02  0.39027230446E+02  0.10566000000E+00 0.  1.
         23    2    1    0    0    0  0.26406929600E+02  0.14162879048E+02 -0.10734078388E+01  0.95105582743E+02  0.90255230268E+02 0.  0.
         13    1    3    3    0    0  0.34182782094E+02  0.27880421975E+02  0.34626433706E+02  0.56078352297E+02  0.10566000000E+00 0. -1.
         22    1    1    0    0    0 -0.26406929600E+02 -0.14162879048E+02  0.10734078388E+01  0.29984417257E+02  0.00000000000E+00 0. -1.
</event>
<event>
 5    1  0.1254921E-009  0.9118800E+02  0.7561462E-02  0.1125453E+00
         25   -1    0    0    0    0  0.00000000000E+00  0.00000000000E+00  0.99999998245E-14  0.12509000000E+03  0.12509000000E+03 0.  0.
        -13    1    3    3    0    0  0.29703486946E+02 -0.15719271651E+02  0.56069644904E-03  0.33606603552E+02  0.10566000000E+00 0.  1.
         23    2    1    0    0    0 -0.29399677630E+02  0.28176802496E+01  0.52871640798E+00  0.95550874966E+02  0.90870291070E+02 0.  0.
         13    1    3    3    0    0 -0.59103164575E+02  0.18536951900E+02  0.52815571153E+00  0.61944271414E+02  0.10566000000E+00 0. -1.
         22    1    1    0    0    0  0.29399677630E+02 -0.28176802496E+01 -0.52871640798E+00  0.29539125034E+02  0.00000000000E+00 0. -1.
</event>
<event>
 5    1  0.1254921E-009  0.9118800E+02  0.7561462E-02  0.1125453E+00
         25   -1    0    0    0    0  0.00000000000E+00  0.00000000000E+00  0.99999998245E-14  0.12509000000E+03  0.12509000000E+03 0.  0.
        -13    1    3    3    0    0  0.28532736729E+02 -0.20987451801E+02  0.47631518576E+02  0.59357922169E+02  0.10566000000E+00 0.  1.
         23    2    1    0    0    0  0.14301210983E+02  0.37928376995E+01  0.25911687318E+02  0.95251672415E+02  0.90457477882E+02 0.  0.
         13    1    3    3    0    0 -0.14231525746E+02  0.24780289501E+02 -0.21719831258E+02  0.35893750246E+02  0.10566000000E+00 0. -1.
         22    1    1    0    0    0 -0.14301210983E+02 -0.37928376995E+01 -0.25911687318E+02  0.29838327585E+02  0.00000000000E+00 0.  1.
</event>
<event>
 5    1  0.1254921E-009  0.9118800E+02  0.7561462E-02  0.1125453E+00
         25   -1    0    0    0    0  0.00000000000E+00  0.00000000000E+00  0.99999998245E-14  0.12509000000E+03  0.12509000000E+03 0.  0.
        -13    1    3    3    0    0 -0.11529989822E+02 -0.16789968028E+02 -0.27842805912E+02  0.34497488267E+02  0.10566000000E+00 0. -1.
         23    2    1    0    0    0  0.21262224532E+02  0.93669870219E+01  0.17301523119E+02  0.96121649336E+02  0.91652638429E+02 0.  0.
         13    1    3    3    0    0  0.32792214354E+02  0.26156955050E+02  0.45144329031E+02  0.61624161069E+02  0.10566000000E+00 0.  1.
         22    1    1    0    0    0 -0.21262224532E+02 -0.93669870219E+01 -0.17301523119E+02  0.28968350664E+02  0.00000000000E+00 0.  1.
</event>
<event>
 5    1  0.1254921E-009  0.9118800E+02  0.7561462E-02  0.1125453E+00
         25   -1    0    0    0    0  0.00000000000E+00  0.00000000000E+00  0.99999998245E-14  0.12509000000E+03  0.12509000000E+03 0.  0.
        -13    1    3    3    0    0 -0.49681543099E+02 -0.18742683685E+02  0.97441070638E+01  0.53986134358E+02  0.10566000000E+00 0.  1.
         23    2    1    0    0    0 -0.23168745273E+02 -0.31143072194E+01 -0.18127982024E+02  0.95507684349E+02  0.90810816374E+02 0.  0.
         13    1    3    3    0    0  0.26512797826E+02  0.15628376465E+02 -0.27872089088E+02  0.41521549991E+02  0.10566000000E+00 0. -1.
         22    1    1    0    0    0  0.23168745273E+02  0.31143072194E+01  0.18127982024E+02  0.29582315651E+02  0.00000000000E+00 0. -1.
</event>
<event>
 5    1  0.1254921E-009  0.9118800E+02  0.7561462E-02  0.1125453E+00
         25   -1    0    0    0    0  0.00000000000E+00  0.00000000000E+00  0.99999998245E-14  0.12509000000E+03  0.12509000000E+03 0.  0.
        -13    1    3    3    0    0 -0.87586359080E+00  0.12706445230E+02 -0.37065074707E+02  0.39192496916E+02  0.10566000000E+00 0.  1.
         23    2    1    0    0    0 -0.23597350466E+02  0.83749495346E+01  0.14815374362E+02  0.95995841716E+02  0.91480771644E+02 0.  0.
         13    1    3    3    0    0 -0.22721486875E+02 -0.43314956957E+01  0.51880449070E+02  0.56803344800E+02  0.10566000000E+00 0. -1.
         22    1    1    0    0    0  0.23597350466E+02 -0.83749495346E+01 -0.14815374362E+02  0.29094158284E+02  0.00000000000E+00 0. -1.
</event>
<event>
 5    1  0.1254921E-009  0.9118800E+02  0.7561462E-02  0.1125453E+00
         25   -1    0    0    0    0  0.00000000000E+00  0.00000000000E+00  0.99999998245E-14  0.12509000000E+03  0.12509000000E+03 0.  0.
        -13    1    3    3    0    0 -0.59129469278E+01  0.21457486848E+02 -0.36278097464E+02  0.42561698777E+02  0.10566000000E+00 0.  1.
         23    2    1    0    0    0 -0.29547198607E+02 -0.57214643013E+01  0.17547753589E+01  0.94942838677E+02  0.90029391202E+02 0.  0.
         13    1    3    3    0    0 -0.23634251679E+02 -0.27178951149E+02  0.38032872823E+02  0.52381139900E+02  0.10566000000E+00 0. -1.
         22    1    1    0    0    0  0.29547198607E+02  0.57214643013E+01 -0.17547753589E+01  0.30147161323E+02  0.00000000000E+00 0. -1.
</event>
<event>
 5    1  0.1254921E-009  0.9118800E+02  0.7561462E-02  0.1125453E+00
         25   -1    0    0    0    0  0.00000000000E+00  0.00000000000E+00  0.99999998245E-14  0.12509000000E+03  0.12509000000E+03 0.  0.
        -13    1    3    3    0    0  0.49527187023E+02  0.28737821761E+02 -0.59514892557E+01  0.57569401963E+02  0.10566000000E+00 0.  1.
         23    2    1    0    0    0  0.12107057990E+02  0.23872241272E+02 -0.11946926390E+02  0.95777992108E+02  0.91182399429E+02 0.  0.
         13    1    3    3    0    0 -0.37420129033E+02 -0.48655804896E+01 -0.59954371338E+01  0.38208590145E+02  0.10566000000E+00 0. -1.
         22    1    1    0    0    0 -0.12107057990E+02 -0.23872241272E+02  0.11946926390E+02  0.29312007892E+02  0.00000000000E+00 0.  1.
</event>
<event>
 5    1  0.1254921E-009  0.9118800E+02  0.7561462E-02  0.1125453E+00
         25   -1    0    0    0    0  0.00000000000E+00  0.00000000000E+00  0.99999998245E-14  0.12509000000E+03  0.12509000000E+03 0.  0.
        -13    1    3    3    0    0 -0.23194119352E+02  0.21479500901E+02  0.10926638506E+02  0.33447551847E+02  0.10566000000E+00 0. -1.
         23    2    1    0    0    0  0.30863745524E+02 -0.31759812365E+01  0.85348416846E+01  0.92910796045E+02  0.87160282552E+02 0.  0.
         13    1    3    3    0    0  0.54057864877E+02 -0.24655482138E+02 -0.23917968211E+01  0.59463244198E+02  0.10566000000E+00 0.  1.
         22    1    1    0    0    0 -0.30863745524E+02  0.31759812365E+01 -0.85348416846E+01  0.32179203955E+02  0.00000000000E+00 0.  1.
</event>
<event>
 5    1  0.1254921E-009  0.9118800E+02  0.7561462E-02  0.1125453E+00
         25   -1    0    0    0    0  0.00000000000E+00  0.00000000000E+00  0.99999998245E-14  0.12509000000E+03  0.12509000000E+03 0.  0.
        -13    1    3    3    0    0  0.38659672015E+01 -0.33737358887E+02  0.46382309116E+02  0.57484648820E+02  0.10566000000E+00 0.  1.
         23    2    1    0    0    0  0.13754592743E+02 -0.25337809148E+01  0.24565688111E+02  0.96821963287E+02  0.92603513298E+02 0.  0.
         13    1    3    3    0    0  0.98886255417E+01  0.31203577972E+02 -0.21816621005E+02  0.39337314467E+02  0.10566000000E+00 0. -1.
         22    1    1    0    0    0 -0.13754592743E+02  0.25337809148E+01 -0.24565688111E+02  0.28268036713E+02  0.00000000000E+00 0.  1.
</event>
<event>
 5    1  0.1254921E-009  0.9118800E+02  0.7561462E-02  0.1125453E+00
         25   -1    0    0    0    0  0.00000000000E+00  0.00000000000E+00  0.99999998245E-14  0.12509000000E+03  0.12509000000E+03 0.  0.
        -13    1    3    3    0    0  0.45623168919E+01  0.43869895630E+02 -0.29848655349E+02  0.53257261178E+02  0.10566000000E+00 0.  1.
         23    2    1    0    0    0  0.23455278721E+02  0.10048731757E+02 -0.55853594034E+01  0.98968680174E+02  0.95459291354E+02 0.  0.
         13    1    3    3    0    0  0.18892961829E+02 -0.33821163873E+02  0.24263295945E+02  0.45711418996E+02  0.10566000000E+00 0. -1.
         22    1    1    0    0    0 -0.23455278721E+02 -0.10048731757E+02  0.55853594034E+01  0.26121319826E+02  0.00000000000E+00 0. -1.
</event>
<event>
 5    1  0.1254921E-009  0.9118800E+02  0.7561462E-02  0.1125453E+00
         25   -1    0    0    0    0  0.00000000000E+00  0.00000000000E+00  0.99999998245E-14  0.12509000000E+03  0.12509000000E+03 0.  0.
        -13    1    3    3    0    0  0.42485797552E+02  0.15329889716E+02  0.30708984974E+02  0.54617775811E+02  0.10566000000E+00 0.  1.
         23    2    1    0    0    0  0.14364247068E+02  0.25794559166E+02  0.30816043583E+01  0.95405203187E+02  0.90669540825E+02 0.  0.
         13    1    3    3    0    0 -0.28121550483E+02  0.10464669449E+02 -0.27627380616E+02  0.40787427377E+02  0.10566000000E+00 0. -1.
         22    1    1    0    0    0 -0.14364247068E+02 -0.25794559166E+02 -0.30816043583E+01  0.29684796813E+02  0.00000000000E+00 0.  1.
</event>
<event>
 5    1  0.1254921E-009  0.9118800E+02  0.7561462E-02  0.1125453E+00
         25   -1    0    0    0    0  0.00000000000E+00  0.00000000000E+00  0.99999998245E-14  0.12509000000E+03  0.12509000000E+03 0.  0.
        -13    1    3    3    0    0 -0.29495175696E+02  0.24836477488E+02  0.29798257075E+02  0.48731543091E+02  0.10566000000E+00 0.  1.
         23    2    1    0    0    0 -0.25385528093E+02 -0.12579006573E+02 -0.31220001727E-01  0.96758790749E+02  0.92518139679E+02 0.  0.
         13    1    3    3    0    0  0.41096476029E+01 -0.37415484061E+02 -0.29829477076E+02  0.48027247658E+02  0.10566000000E+00 0. -1.
         22    1    1    0    0    0  0.25385528093E+02  0.12579006573E+02  0.31220001727E-01  0.28331209251E+02  0.00000000000E+00 0. -1.
</event>
<event>
 5    1  0.1254921E-009  0.9118800E+02  0.7561462E-02  0.1125453E+00
         25   -1    0    0    0    0  0.00000000000E+00  0.00000000000E+00  0.99999998245E-14  0.12509000000E+03  0.12509000000E+03 0.  0.
        -13    1    3    3    0    0 -0.42569986155E+02 -0.15610659547E+00 -0.12197723148E+02  0.44283447297E+02  0.10566000000E+00 0.  1.
         23    2    1    0    0    0 -0.12226828843E+01 -0.91137092183E+01  0.23637303738E+02  0.99727098408E+02  0.96448003503E+02 0.  0.
         13    1    3    3    0    0  0.41347303271E+02 -0.89576026228E+01  0.35835026886E+02  0.55443651111E+02  0.10566000000E+00 0. -1.
         22    1    1    0    0    0  0.12226828843E+01  0.91137092183E+01 -0.23637303738E+02  0.25362901592E+02  0.00000000000E+00 0. -1.
</event>
<event>
 5    1  0.1254921E-009  0.9118800E+02  0.7561462E-02  0.1125453E+00
         25   -1    0    0    0    0  0.00000000000E+00  0.00000000000E+00  0.99999998245E-14  0.12509000000E+03  0.12509000000E+03 0.  0.
        -13    1    3    3    0    0 -0.41867985034E+02  0.41211153521E+02  0.13846552823E+02  0.60357481181E+02  0.10566000000E+00 0.  1.
         23    2    1    0    0    0 -0.16709765662E+02  0.16624851192E+02  0.17512604983E+02  0.95725169353E+02  0.91109904888E+02 0.  0.
         13    1    3    3    0    0  0.25158219372E+02 -0.24586302330E+02  0.36660521597E+01  0.35367688173E+02  0.10566000000E+00 0. -1.
         22    1    1    0    0    0  0.16709765662E+02 -0.16624851192E+02 -0.17512604983E+02  0.29364830647E+02  0.00000000000E+00 0.  1.
</event>
<event>
 5    1  0.1254921E-009  0.9118800E+02  0.7561462E-02  0.1125453E+00
         25   -1    0    0    0    0  0.00000000000E+00  0.00000000000E+00  0.99999998245E-14  0.12509000000E+03  0.12509000000E+03 0.  0.
        -13    1    3    3    0    0  0.14472508417E+02 -0.35423982535E+02  0.44439773512E+02  0.58644835001E+02  0.10566000000E+00 0.  1.
         23    2    1    0    0    0  0.61243760002E+01 -0.29074289806E+01  0.28475539000E+02  0.95818555792E+02  0.91238030383E+02 0.  0.
         13    1    3    3    0    0 -0.83481324164E+01  0.32516553554E+02 -0.15964234512E+02  0.37173720791E+02  0.10566000000E+00 0. -1.
         22    1    1    0    0    0 -0.61243760002E+01  0.29074289806E+01 -0.28475539000E+02  0.29271444208E+02  0.00000000000E+00 0.  1.
</event>
<event>
 5    1  0.1254921E-009  0.9118800E+02  0.7561462E-02  0.1125453E+00
         25   -1    0    0    0    0  0.00000000000E+00  0.00000000000E+00  0.99999998245E-14  0.12509000000E+03  0.12509000000E+03 0.  0.
        -13    1    3    3    0    0 -0.30074560113E+02 -0.30220490369E+02  0.30487716161E+02  0.52414398832E+02  0.10566000000E+00 0.  1.
         23    2    1    0    0    0 -0.61787467560E+00  0.69915161094E+01  0.23718735986E+02  0.10035456988E+03  0.97258409362E+02 0.  0.
         13    1    3    3    0    0  0.29456685438E+02  0.37212006478E+02 -0.67689801750E+01  0.47940171044E+02  0.10566000000E+00 0. -1.
         22    1    1    0    0    0  0.61787467560E+00 -0.69915161094E+01 -0.23718735986E+02  0.24735430124E+02  0.00000000000E+00 0. -1.
</event>
<event>
 5    1  0.1254921E-009  0.9118800E+02  0.7561462E-02  0.1125453E+00
         25   -1    0    0    0    0  0.00000000000E+00  0.00000000000E+00  0.99999998245E-14  0.12509000000E+03  0.12509000000E+03 0.  0.
        -13    1    3    3    0    0 -0.10620001712E+02  0.41424995023E+02  0.96399555260E+01  0.43837821064E+02  0.10566000000E+00 0. -1.
         23    2    1    0    0    0 -0.28955756211E+02 -0.58101152700E+01 -0.68885844782E+00  0.95549049048E+02  0.90867777516E+02 0.  0.
         13    1    3    3    0    0 -0.18335754499E+02 -0.47235110293E+02 -0.10328813974E+02  0.51711227984E+02  0.10566000000E+00 0.  1.
         22    1    1    0    0    0  0.28955756211E+02  0.58101152700E+01  0.68885844782E+00  0.29540950952E+02  0.00000000000E+00 0.  1.
</event>
<event>
 5    1  0.1254921E-009  0.9118800E+02  0.7561462E-02  0.1125453E+00
         25   -1    0    0    0    0  0.00000000000E+00  0.00000000000E+00  0.99999998245E-14  0.12509000000E+03  0.12509000000E+03 0.  0.
        -13    1    3    3    0    0 -0.28719584029E+02  0.33460474817E+02  0.15823933026E+02  0.46848969063E+02  0.10566000000E+00 0.  1.
         23    2    1    0    0    0 -0.11982659033E+02  0.60954728085E+01 -0.23754917084E+02  0.97794670877E+02  0.93908267261E+02 0.  0.
         13    1    3    3    0    0  0.16736924997E+02 -0.27365002008E+02 -0.39578850111E+02  0.50945701814E+02  0.10566000000E+00 0. -1.
         22    1    1    0    0    0  0.11982659033E+02 -0.60954728085E+01  0.23754917084E+02  0.27295329123E+02  0.00000000000E+00 0. -1.
</event>
<event>
 5    1  0.1254921E-009  0.9118800E+02  0.7561462E-02  0.1125453E+00
         25   -1    0    0    0    0  0.00000000000E+00  0.00000000000E+00  0.99999998245E-14  0.12509000000E+03  0.12509000000E+03 0.  0.
        -13    1    3    3    0    0 -0.11108327303E+02  0.47849970843E+02  0.23884229311E+02  0.54621261602E+02  0.10566000000E+00 0.  1.
         23    2    1    0    0    0  0.15238638060E+02  0.76422915710E+01  0.12299618012E+02  0.10406855111E+03  0.10192331439E+03 0.  0.
         13    1    3    3    0    0  0.26346965363E+02 -0.40207679272E+02 -0.11584611299E+02  0.49447289504E+02  0.10566000000E+00 0. -1.
         22    1    1    0    0    0 -0.15238638060E+02 -0.76422915710E+01 -0.12299618012E+02  0.21021448894E+02  0.00000000000E+00 0.  1.
</event>
<event>
 5    1  0.1254921E-009  0.9118800E+02  0.7561462E-02  0.1125453E+00
         25   -1    0    0    0    0  0.00000000000E+00  0.00000000000E+00  0.99999998245E-14  0.12509000000E+03  0.12509000000E+03 0.  0.
        -13    1    3    3    0    0  0.46010469106E+02 -0.40096261323E+02  0.95168154777E+01  0.61767745469E+02  0.10566000000E+00 0. -1.
         23    2    1    0    0    0  0.26776987712E+02 -0.14214202337E+02  0.34673539264E+01  0.94576508521E+02  0.89518952193E+02 0.  0.
         13    1    3    3    0    0 -0.19233481395E+02  0.25882058986E+02 -0.60494615514E+01  0.32808763052E+02  0.10566000000E+00 0.  1.
         22    1    1    0    0    0 -0.26776987712E+02  0.14214202337E+02 -0.34673539264E+01  0.30513491479E+02  0.00000000000E+00 0. -1.
</event>
<event>
 5    1  0.1254921E-009  0.9118800E+02  0.7561462E-02  0.1125453E+00
         25   -1    0    0    0    0  0.00000000000E+00  0.00000000000E+00  0.99999998245E-14  0.12509000000E+03  0.12509000000E+03 0.  0.
        -13    1    3    3    0    0 -0.30078917592E+02  0.28375280363E+02 -0.22666112289E+02  0.47155716828E+02  0.10566000000E+00 0.  1.
         23    2    1    0    0    0  0.15198717669E+02  0.21801823596E+02 -0.17659088370E+02  0.93181318847E+02  0.87547668439E+02 0.  0.
         13    1    3    3    0    0  0.45277635260E+02 -0.65734567675E+01  0.50070239197E+01  0.46025602019E+02  0.10566000000E+00 0. -1.
         22    1    1    0    0    0 -0.15198717669E+02 -0.21801823596E+02  0.17659088370E+02  0.31908681153E+02  0.00000000000E+00 0. -1.
</event>
<event>
 5    1  0.1254921E-009  0.9118800E+02  0.7561462E-02  0.1125453E+00
         25   -1    0    0    0    0  0.00000000000E+00  0.00000000000E+00  0.99999998245E-14  0.12509000000E+03  0.12509000000E+03 0.  0.
        -13    1    3    3    0    0  0.21121245853E+02  0.23992866441E+02 -0.51819999535E+01  0.32382540882E+02  0.10566000000E+00 0. -1.
         23    2    1    0    0    0 -0.18355147024E+02 -0.20261584498E+02  0.13554363162E+02  0.94575020246E+02  0.89516872516E+02 0.  0.
         13    1    3    3    0    0 -0.39476392878E+02 -0.44254450939E+02  0.18736363116E+02  0.62192479364E+02  0.10566000000E+00 0.  1.
         22    1    1    0    0    0  0.18355147024E+02  0.20261584498E+02 -0.13554363162E+02  0.30514979754E+02  0.00000000000E+00 0.  1.
</event>
<event>
 5    1  0.1254921E-009  0.9118800E+02  0.7561462E-02  0.1125453E+00
         25   -1    0    0    0    0  0.00000000000E+00  0.00000000000E+00  0.99999998245E-14  0.12509000000E+03  0.12509000000E+03 0.  0.
        -13    1    3    3    0    0  0.19721401093E+02  0.19083448103E+02  0.19281303204E+02  0.33539401751E+02  0.10566000000E+00 0.  1.
         23    2    1    0    0    0 -0.24641657489E+02 -0.99331032441E+01 -0.12902576294E+02  0.95554355452E+02  0.90875082101E+02 0.  0.
         13    1    3    3    0    0 -0.44363058582E+02 -0.29016551347E+02 -0.32183879498E+02  0.62014953700E+02  0.10566000000E+00 0. -1.
         22    1    1    0    0    0  0.24641657489E+02  0.99331032441E+01  0.12902576294E+02  0.29535644548E+02  0.00000000000E+00 0. -1.
</event>
<event>
 5    1  0.1254921E-009  0.9118800E+02  0.7561462E-02  0.1125453E+00
         25   -1    0    0    0    0  0.00000000000E+00  0.00000000000E+00  0.99999998245E-14  0.12509000000E+03  0.12509000000E+03 0.  0.
        -13    1    3    3    0    0  0.84041261178E+01  0.20058236712E+02 -0.22600529808E+02  0.31364905666E+02  0.10566000000E+00 0. -1.
         23    2    1    0    0    0 -0.21403229476E+02 -0.16493731927E+02  0.17183198083E+02  0.93068074367E+02  0.87385712478E+02 0.  0.
         13    1    3    3    0    0 -0.29807355593E+02 -0.36551968639E+02  0.39783727891E+02  0.61703168701E+02  0.10566000000E+00 0.  1.
         22    1    1    0    0    0  0.21403229476E+02  0.16493731927E+02 -0.17183198083E+02  0.32021925633E+02  0.00000000000E+00 0.  1.
</event>
<event>
 5    1  0.1254921E-009  0.9118800E+02  0.7561462E-02  0.1125453E+00
         25   -1    0    0    0    0  0.00000000000E+00  0.00000000000E+00  0.99999998245E-14  0.12509000000E+03  0.12509000000E+03 0.  0.
        -13    1    3    3    0    0  0.24398385723E+02  0.20388937365E+02 -0.78158687271E+01  0.32742769596E+02  0.10566000000E+00 0.  1.
         23    2    1    0    0    0 -0.13729183689E+02 -0.26061823564E+02  0.73667751299E+01  0.94725901000E+02  0.89727464091E+02 0.  0.
         13    1    3    3    0    0 -0.38127569413E+02 -0.46450760929E+02  0.15182643857E+02  0.61983131405E+02  0.10566000000E+00 0. -1.
         22    1    1    0    0    0  0.13729183689E+02  0.26061823564E+02 -0.73667751299E+01  0.30364099000E+02  0.00000000000E+00 0. -1.
</event>
<event>
 5    1  0.1254921E-009  0.9118800E+02  0.7561462E-02  0.1125453E+00
         25   -1    0    0    0    0  0.00000000000E+00  0.00000000000E+00  0.99999998245E-14  0.12509000000E+03  0.12509000000E+03 0.  0.
        -13    1    3    3    0    0  0.11263381084E+02  0.26910225226E+00  0.37284134418E+02  0.38949377566E+02  0.10566000000E+00 0. -1.
         23    2    1    0    0    0  0.33595164135E+02 -0.86538412946E+01 -0.73299335652E+01  0.89632251221E+02  0.82320644497E+02 0.  0.
         13    1    3    3    0    0  0.22331783051E+02 -0.89229435469E+01 -0.44614067983E+02  0.50682873654E+02  0.10566000000E+00 0.  1.
         22    1    1    0    0    0 -0.33595164135E+02  0.86538412946E+01  0.73299335652E+01  0.35457748779E+02  0.00000000000E+00 0.  1.
</event>
<event>
 5    1  0.1254921E-009  0.9118800E+02  0.7561462E-02  0.1125453E+00
         25   -1    0    0    0    0  0.00000000000E+00  0.00000000000E+00  0.99999998245E-14  0.12509000000E+03  0.12509000000E+03 0.  0.
        -13    1    3    3    0    0 -0.48090719703E+02  0.16152446915E+02 -0.30237501635E+01  0.50820990663E+02  0.10566000000E+00 0.  1.
         23    2    1    0    0    0 -0.49564561072E+01  0.28811866039E+02 -0.20048582953E+01  0.95786253847E+02  0.91193732720E+02 0.  0.
         13    1    3    3    0    0  0.43134263596E+02  0.12659419124E+02  0.10188918681E+01  0.44965263184E+02  0.10566000000E+00 0. -1.
         22    1    1    0    0    0  0.49564561072E+01 -0.28811866039E+02  0.20048582953E+01  0.29303746153E+02  0.00000000000E+00 0.  1.
</event>
<event>
 5    1  0.1254921E-009  0.9118800E+02  0.7561462E-02  0.1125453E+00
         25   -1    0    0    0    0  0.00000000000E+00  0.00000000000E+00  0.99999998245E-14  0.12509000000E+03  0.12509000000E+03 0.  0.
        -13    1    3    3    0    0  0.39462012295E+02 -0.16651257672E+02  0.15196814762E+02  0.45447432704E+02  0.10566000000E+00 0. -1.
         23    2    1    0    0    0  0.10645137605E+02  0.23471274440E+02 -0.50377089449E+01  0.98829798366E+02  0.95277126610E+02 0.  0.
         13    1    3    3    0    0 -0.28816874690E+02  0.40122532112E+02 -0.20234523707E+02  0.53382365662E+02  0.10566000000E+00 0.  1.
         22    1    1    0    0    0 -0.10645137605E+02 -0.23471274440E+02  0.50377089449E+01  0.26260201634E+02  0.00000000000E+00 0.  1.
</event>
<event>
 5    1  0.1254921E-009  0.9118800E+02  0.7561462E-02  0.1125453E+00
         25   -1    0    0    0    0  0.00000000000E+00  0.00000000000E+00  0.99999998245E-14  0.12509000000E+03  0.12509000000E+03 0.  0.
        -13    1    3    3    0    0  0.24520197189E+02  0.36124038250E+02 -0.38607926539E+02  0.58281809902E+02  0.10566000000E+00 0. -1.
         23    2    1    0    0    0  0.22937311488E+02  0.10840278562E+02 -0.70332388121E+01  0.98763238980E+02  0.95189700220E+02 0.  0.
         13    1    3    3    0    0 -0.15828857005E+01 -0.25283759689E+02  0.31574687727E+02  0.40481429078E+02  0.10566000000E+00 0.  1.
         22    1    1    0    0    0 -0.22937311488E+02 -0.10840278562E+02  0.70332388121E+01  0.26326761020E+02  0.00000000000E+00 0. -1.
</event>
<event>
 5    1  0.1254921E-009  0.9118800E+02  0.7561462E-02  0.1125453E+00
         25   -1    0    0    0    0  0.00000000000E+00  0.00000000000E+00  0.99999998245E-14  0.12509000000E+03  0.12509000000E+03 0.  0.
        -13    1    3    3    0    0 -0.76928962153E+01 -0.27983183087E+02  0.54819703902E+02  0.62027818660E+02  0.10566000000E+00 0.  1.
         23    2    1    0    0    0 -0.51611100869E+01 -0.17977928293E+02  0.23200624366E+02  0.95288793078E+02  0.90508795994E+02 0.  0.
         13    1    3    3    0    0  0.25317861284E+01  0.10005254794E+02 -0.31619079536E+02  0.33260974418E+02  0.10566000000E+00 0. -1.
         22    1    1    0    0    0  0.51611100869E+01  0.17977928293E+02 -0.23200624366E+02  0.29801206922E+02  0.00000000000E+00 0.  1.
</event>
<event>
 5    1  0.1254921E-009  0.9118800E+02  0.7561462E-02  0.1125453E+00
         25   -1    0    0    0    0  0.00000000000E+00  0.00000000000E+00  0.99999998245E-14  0.12509000000E+03  0.12509000000E+03 0.  0.
        -13    1    3    3    0    0 -0.30242045669E+02  0.61166196052E+01  0.26711335634E+01  0.30969993223E+02  0.10566000000E+00 0.  1.
         23    2    1    0    0    0  0.19704863009E+01  0.41527307647E+02  0.15810856096E+02  0.80610979472E+02  0.67229061753E+02 0.  0.
         13    1    3    3    0    0  0.32212531970E+02  0.35410688042E+02  0.13139722533E+02  0.49640986249E+02  0.10566000000E+00 0. -1.
         22    1    1    0    0    0 -0.19704863009E+01 -0.41527307647E+02 -0.15810856096E+02  0.44479020528E+02  0.00000000000E+00 0. -1.
</event>
<event>
 5    1  0.1254921E-009  0.9118800E+02  0.7561462E-02  0.1125453E+00
         25   -1    0    0    0    0  0.00000000000E+00  0.00000000000E+00  0.99999998245E-14  0.12509000000E+03  0.12509000000E+03 0.  0.
        -13    1    3    3    0    0  0.49270608561E+02  0.10367239392E+02  0.17249773870E+02  0.53222536422E+02  0.10566000000E+00 0.  1.
         23    2    1    0    0    0  0.22595241072E+02  0.13155838905E+02 -0.14824915756E+02  0.95033400998E+02  0.90155133862E+02 0.  0.
         13    1    3    3    0    0 -0.26675367489E+02  0.27885995129E+01 -0.32074689627E+02  0.41810864576E+02  0.10566000000E+00 0. -1.
         22    1    1    0    0    0 -0.22595241072E+02 -0.13155838905E+02  0.14824915756E+02  0.30056599002E+02  0.00000000000E+00 0.  1.
</event>
<event>
 5    1  0.1254921E-009  0.9118800E+02  0.7561462E-02  0.1125453E+00
         25   -1    0    0    0    0  0.00000000000E+00  0.00000000000E+00  0.99999998245E-14  0.12509000000E+03  0.12509000000E+03 0.  0.
        -13    1    3    3    0    0  0.32159919744E+02 -0.28857529246E+02  0.85598176172E+01  0.44048826021E+02  0.10566000000E+00 0. -1.
         23    2    1    0    0    0 -0.17153379524E+02 -0.20406001036E+02  0.15012452208E+02  0.94495604620E+02  0.89405829026E+02 0.  0.
         13    1    3    3    0    0 -0.49313299268E+02  0.84515282103E+01  0.64526345910E+01  0.50446778599E+02  0.10566000000E+00 0.  1.
         22    1    1    0    0    0  0.17153379524E+02  0.20406001036E+02 -0.15012452208E+02  0.30594395380E+02  0.00000000000E+00 0.  1.
</event>
<event>
 5    1  0.1254921E-009  0.9118800E+02  0.7561462E-02  0.1125453E+00
         25   -1    0    0    0    0  0.00000000000E+00  0.00000000000E+00  0.99999998245E-14  0.12509000000E+03  0.12509000000E+03 0.  0.
        -13    1    3    3    0    0  0.94129643151E+01  0.58706885135E+01 -0.24616305238E+02  0.27000787552E+02  0.10566000000E+00 0.  1.
         23    2    1    0    0    0 -0.71938498061E+01 -0.28704127358E+02  0.22615751792E+02  0.87845528846E+02  0.79559325705E+02 0.  0.
         13    1    3    3    0    0 -0.16606814121E+02 -0.34574815872E+02  0.47232057030E+02  0.60844741294E+02  0.10566000000E+00 0. -1.
         22    1    1    0    0    0  0.71938498061E+01  0.28704127358E+02 -0.22615751792E+02  0.37244471154E+02  0.00000000000E+00 0. -1.
</event>
<event>
 5    1  0.1254921E-009  0.9118800E+02  0.7561462E-02  0.1125453E+00
         25   -1    0    0    0    0  0.00000000000E+00  0.00000000000E+00  0.99999998245E-14  0.12509000000E+03  0.12509000000E+03 0.  0.
        -13    1    3    3    0    0  0.33656465352E+02 -0.36034806072E+02  0.29073942410E+02  0.57241332967E+02  0.10566000000E+00 0.  1.
         23    2    1    0    0    0  0.16020747231E+02  0.72841363811E+00  0.20763543932E+02  0.98854152675E+02  0.95309096188E+02 0.  0.
         13    1    3    3    0    0 -0.17635718121E+02  0.36763219710E+02 -0.83103984775E+01  0.41612819707E+02  0.10566000000E+00 0. -1.
         22    1    1    0    0    0 -0.16020747231E+02 -0.72841363811E+00 -0.20763543932E+02  0.26235847325E+02  0.00000000000E+00 0.  1.
</event>
<event>
 5    1  0.1254921E-009  0.9118800E+02  0.7561462E-02  0.1125453E+00
         25   -1    0    0    0    0  0.00000000000E+00  0.00000000000E+00  0.99999998245E-14  0.12509000000E+03  0.12509000000E+03 0.  0.
        -13    1    3    3    0    0  0.43357900286E+02  0.75272452367E+01  0.42786913177E+02  0.61378318984E+02  0.10566000000E+00 0.  1.
         23    2    1    0    0    0  0.14013342228E+02  0.62095773039E+01  0.25140272944E+02  0.95645714742E+02  0.91000751722E+02 0.  0.
         13    1    3    3    0    0 -0.29344558059E+02 -0.13176679328E+01 -0.17646640233E+02  0.34267395757E+02  0.10566000000E+00 0. -1.
         22    1    1    0    0    0 -0.14013342228E+02 -0.62095773039E+01 -0.25140272944E+02  0.29444285258E+02  0.00000000000E+00 0.  1.
</event>
<event>
 5    1  0.1254921E-009  0.9118800E+02  0.7561462E-02  0.1125453E+00
         25   -1    0    0    0    0  0.00000000000E+00  0.00000000000E+00  0.99999998245E-14  0.12509000000E+03  0.12509000000E+03 0.  0.
        -13    1    3    3    0    0  0.91410486057E+01  0.20107620211E+02  0.53744616554E+02  0.58106541222E+02  0.10566000000E+00 0. -1.
         23    2    1    0    0    0  0.92137927793E+00  0.23542162713E+02  0.16689745554E+02  0.96217349072E+02  0.91783159081E+02 0.  0.
         13    1    3    3    0    0 -0.82196693278E+01  0.34345425012E+01 -0.37054871001E+02  0.38110807850E+02  0.10566000000E+00 0.  1.
         22    1    1    0    0    0 -0.92137927793E+00 -0.23542162713E+02 -0.16689745554E+02  0.28872650928E+02  0.00000000000E+00 0. -1.
</event>
<event>
 5    1  0.1254921E-009  0.9118800E+02  0.7561462E-02  0.1125453E+00
         25   -1    0    0    0    0  0.00000000000E+00  0.00000000000E+00  0.99999998245E-14  0.12509000000E+03  0.12509000000E+03 0.  0.
        -13    1    3    3    0    0  0.28652147597E+02  0.35051126090E+01 -0.20680840276E+02  0.35509712684E+02  0.10566000000E+00 0.  1.
         23    2    1    0    0    0  0.22004810495E+02  0.16857374819E+02  0.27558376460E+02  0.86002318004E+02  0.76606473736E+02 0.  0.
         13    1    3    3    0    0 -0.66473371026E+01  0.13352262210E+02  0.48239216736E+02  0.50492605320E+02  0.10566000000E+00 0. -1.
         22    1    1    0    0    0 -0.22004810495E+02 -0.16857374819E+02 -0.27558376460E+02  0.39087681996E+02  0.00000000000E+00 0. -1.
</event>
<event>
 5    1  0.1254921E-009  0.9118800E+02  0.7561462E-02  0.1125453E+00
         25   -1    0    0    0    0  0.00000000000E+00  0.00000000000E+00  0.99999998245E-14  0.12509000000E+03  0.12509000000E+03 0.  0.
        -13    1    3    3    0    0 -0.20241682603E+02  0.34175618254E+02 -0.24813824336E+00  0.39721169851E+02  0.10566000000E+00 0.  1.
         23    2    1    0    0    0 -0.50705958706E+01 -0.18673020271E+02 -0.19153808751E+02  0.97863890874E+02  0.94000426163E+02 0.  0.
         13    1    3    3    0    0  0.15171086733E+02 -0.52848638525E+02 -0.18905670507E+02  0.58142721023E+02  0.10566000000E+00 0. -1.
         22    1    1    0    0    0  0.50705958706E+01  0.18673020271E+02  0.19153808751E+02  0.27226109126E+02  0.00000000000E+00 0. -1.
</event>
<event>
 5    1  0.1254921E-009  0.9118800E+02  0.7561462E-02  0.1125453E+00
         25   -1    0    0    0    0  0.00000000000E+00  0.00000000000E+00  0.99999998245E-14  0.12509000000E+03  0.12509000000E+03 0.  0.
        -13    1    3    3    0    0  0.44559739764E+02  0.19157225884E+02 -0.28442434298E+02  0.56227688412E+02  0.10566000000E+00 0. -1.
         23    2    1    0    0    0  0.79752327394E+01  0.24277280527E+02 -0.88200748694E+01  0.98056975608E+02  0.94257021265E+02 0.  0.
         13    1    3    3    0    0 -0.36584507024E+02  0.51200546434E+01  0.19622359428E+02  0.41829287196E+02  0.10566000000E+00 0.  1.
         22    1    1    0    0    0 -0.79752327394E+01 -0.24277280527E+02  0.88200748694E+01  0.27033024392E+02  0.00000000000E+00 0. -1.
</event>
<event>
 5    1  0.1254921E-009  0.9118800E+02  0.7561462E-02  0.1125453E+00
         25   -1    0    0    0    0  0.00000000000E+00  0.00000000000E+00  0.99999998245E-14  0.12509000000E+03  0.12509000000E+03 0.  0.
        -13    1    3    3    0    0 -0.13905532314E+02 -0.29334635204E+02  0.13752883915E+01  0.32492879738E+02  0.10566000000E+00 0. -1.
         23    2    1    0    0    0  0.15420459060E+02  0.20728966890E+02  0.18873708396E+02  0.93094726997E+02  0.87423856585E+02 0.  0.
         13    1    3    3    0    0  0.29325991374E+02  0.50063602093E+02  0.17498420004E+02  0.60601847259E+02  0.10566000000E+00 0.  1.
         22    1    1    0    0    0 -0.15420459060E+02 -0.20728966890E+02 -0.18873708396E+02  0.31995273003E+02  0.00000000000E+00 0.  1.
</event>
<event>
 5    1  0.1254921E-009  0.9118800E+02  0.7561462E-02  0.1125453E+00
         25   -1    0    0    0    0  0.00000000000E+00  0.00000000000E+00  0.99999998245E-14  0.12509000000E+03  0.12509000000E+03 0.  0.
        -13    1    3    3    0    0 -0.28730014882E+02  0.39590070761E+01  0.20054845053E+02  0.35260395153E+02  0.10566000000E+00 0.  1.
         23    2    1    0    0    0  0.28195303769E+02 -0.77646823698E+01  0.38833508184E+01  0.95588375291E+02  0.90921898519E+02 0.  0.
         13    1    3    3    0    0  0.56925318651E+02 -0.11723689446E+02 -0.16171494235E+02  0.60327980138E+02  0.10566000000E+00 0. -1.
         22    1    1    0    0    0 -0.28195303769E+02  0.77646823698E+01 -0.38833508184E+01  0.29501624709E+02  0.00000000000E+00 0. -1.
</event>
<event>
 5    1  0.1254921E-009  0.9118800E+02  0.7561462E-02  0.1125453E+00
         25   -1    0    0    0    0  0.00000000000E+00  0.00000000000E+00  0.99999998245E-14  0.12509000000E+03  0.12509000000E+03 0.  0.
        -13    1    3    3    0    0 -0.42685113630E+02 -0.18451101690E+02  0.34924184587E+02  0.58156443429E+02  0.10566000000E+00 0. -1.
         23    2    1    0    0    0 -0.61095014984E+01 -0.11918589281E+02  0.25183390925E+02  0.96566641896E+02  0.92257977268E+02 0.  0.
         13    1    3    3    0    0  0.36575612131E+02  0.65325124089E+01 -0.97407936619E+01  0.38410198468E+02  0.10566000000E+00 0.  1.
         22    1    1    0    0    0  0.61095014984E+01  0.11918589281E+02 -0.25183390925E+02  0.28523358104E+02  0.00000000000E+00 0. -1.
</event>
<event>
 5    1  0.1254921E-009  0.9118800E+02  0.7561462E-02  0.1125453E+00
         25   -1    0    0    0    0  0.00000000000E+00  0.00000000000E+00  0.99999998245E-14  0.12509000000E+03  0.12509000000E+03 0.  0.
        -13    1    3    3    0    0 -0.69054388336E+01 -0.39888618661E+02 -0.97325759396E+01  0.41635575925E+02  0.10566000000E+00 0. -1.
         23    2    1    0    0    0 -0.21528708604E+02 -0.25960734246E+02  0.25881967592E+02  0.82577398772E+02  0.70793400291E+02 0.  0.
         13    1    3    3    0    0 -0.14623269771E+02  0.13927884414E+02  0.35614543531E+02  0.40941822847E+02  0.10566000000E+00 0.  1.
         22    1    1    0    0    0  0.21528708604E+02  0.25960734246E+02 -0.25881967592E+02  0.42512601228E+02  0.00000000000E+00 0. -1.
</event>
<event>
 5    1  0.1254921E-009  0.9118800E+02  0.7561462E-02  0.1125453E+00
         25   -1    0    0    0    0  0.00000000000E+00  0.00000000000E+00  0.99999998245E-14  0.12509000000E+03  0.12509000000E+03 0.  0.
        -13    1    3    3    0    0  0.16520058646E+02  0.45762680396E+02 -0.75044020102E+01  0.49228675264E+02  0.10566000000E+00 0.  1.
         23    2    1    0    0    0 -0.21573101770E+02  0.20028492355E+02 -0.46455413585E+01  0.95288653042E+02  0.90508602453E+02 0.  0.
         13    1    3    3    0    0 -0.38093160416E+02 -0.25734188041E+02  0.28588606517E+01  0.46059977778E+02  0.10566000000E+00 0. -1.
         22    1    1    0    0    0  0.21573101770E+02 -0.20028492355E+02  0.46455413585E+01  0.29801346958E+02  0.00000000000E+00 0.  1.
</event>
<event>
 5    1  0.1254921E-009  0.9118800E+02  0.7561462E-02  0.1125453E+00
         25   -1    0    0    0    0  0.00000000000E+00  0.00000000000E+00  0.99999998245E-14  0.12509000000E+03  0.12509000000E+03 0.  0.
        -13    1    3    3    0    0  0.51049496081E+01  0.76822824260E-01  0.60569257146E+02  0.60784146679E+02  0.10566000000E+00 0. -1.
         23    2    1    0    0    0  0.11790607452E+02 -0.39205754987E+01  0.25300334087E+02  0.96903190297E+02  0.92713170847E+02 0.  0.
         13    1    3    3    0    0  0.66856578437E+01 -0.39973983230E+01 -0.35268923059E+02  0.36119043619E+02  0.10566000000E+00 0.  1.
         22    1    1    0    0    0 -0.11790607452E+02  0.39205754987E+01 -0.25300334087E+02  0.28186809703E+02  0.00000000000E+00 0. -1.
</event>
<event>
 5    1  0.1254921E-009  0.9118800E+02  0.7561462E-02  0.1125453E+00
         25   -1    0    0    0    0  0.00000000000E+00  0.00000000000E+00  0.99999998245E-14  0.12509000000E+03  0.12509000000E+03 0.  0.
        -13    1    3    3    0    0 -0.31652015161E+02 -0.41251703897E+02  0.52047518725E+01  0.52255657533E+02  0.10566000000E+00 0.  1.
         23    2    1    0    0    0 -0.12587912262E+02 -0.12221626655E+02  0.26730542122E+02  0.93115860835E+02  0.87454090606E+02 0.  0.
         13    1    3    3    0    0  0.19064102898E+02  0.29030077241E+02  0.21525790249E+02  0.40860203302E+02  0.10566000000E+00 0. -1.
         22    1    1    0    0    0  0.12587912262E+02  0.12221626655E+02 -0.26730542122E+02  0.31974139165E+02  0.00000000000E+00 0. -1.
</event>
<event>
 5    1  0.1254921E-009  0.9118800E+02  0.7561462E-02  0.1125453E+00
         25   -1    0    0    0    0  0.00000000000E+00  0.00000000000E+00  0.99999998245E-14  0.12509000000E+03  0.12509000000E+03 0.  0.
        -13    1    3    3    0    0  0.39812392370E+01  0.22032252283E+02  0.29044288057E+02  0.36672227085E+02  0.10566000000E+00 0.  1.
         23    2    1    0    0    0 -0.14694737568E+02  0.82298163924E+01 -0.24685647213E+02  0.95206118586E+02  0.90394461378E+02 0.  0.
         13    1    3    3    0    0 -0.18675976805E+02 -0.13802435891E+02 -0.53729935270E+02  0.58533891502E+02  0.10566000000E+00 0. -1.
         22    1    1    0    0    0  0.14694737568E+02 -0.82298163924E+01  0.24685647213E+02  0.29883881414E+02  0.00000000000E+00 0. -1.
</event>
<event>
 5    1  0.1254921E-009  0.9118800E+02  0.7561462E-02  0.1125453E+00
         25   -1    0    0    0    0  0.00000000000E+00  0.00000000000E+00  0.99999998245E-14  0.12509000000E+03  0.12509000000E+03 0.  0.
        -13    1    3    3    0    0  0.27604895047E+02 -0.12513213681E+02 -0.29908500947E+02  0.42580985664E+02  0.10566000000E+00 0.  1.
         23    2    1    0    0    0 -0.22414602473E+02 -0.14569975164E+02 -0.12445057967E+02  0.95601391214E+02  0.90939804013E+02 0.  0.
         13    1    3    3    0    0 -0.50019497520E+02 -0.20567614829E+01  0.17463442980E+02  0.53020405550E+02  0.10566000000E+00 0. -1.
         22    1    1    0    0    0  0.22414602473E+02  0.14569975164E+02  0.12445057967E+02  0.29488608786E+02  0.00000000000E+00 0.  1.
</event>
<event>
 5    1  0.1254921E-009  0.9118800E+02  0.7561462E-02  0.1125453E+00
         25   -1    0    0    0    0  0.00000000000E+00  0.00000000000E+00  0.99999998245E-14  0.12509000000E+03  0.12509000000E+03 0.  0.
        -13    1    3    3    0    0  0.31282521993E+01 -0.76473242331E+01  0.32931504058E+02  0.33952358583E+02  0.10566000000E+00 0. -1.
         23    2    1    0    0    0 -0.38841191716E+02  0.50515989923E+01  0.25302642825E+02  0.78459746299E+02  0.63099534303E+02 0.  0.
         13    1    3    3    0    0 -0.41969443915E+02  0.12698923225E+02 -0.76288612337E+01  0.44507387717E+02  0.10566000000E+00 0.  1.
         22    1    1    0    0    0  0.38841191716E+02 -0.50515989923E+01 -0.25302642825E+02  0.46630253701E+02  0.00000000000E+00 0. -1.
</event>
<event>
 5    1  0.1254921E-009  0.9118800E+02  0.7561462E-02  0.1125453E+00
         25   -1    0    0    0    0  0.00000000000E+00  0.00000000000E+00  0.99999998245E-14  0.12509000000E+03  0.12509000000E+03 0.  0.
        -13    1    3    3    0    0  0.34810430565E+01  0.39087992876E+02  0.46835246742E+01  0.39521328612E+02  0.10566000000E+00 0.  1.
         23    2    1    0    0    0 -0.18258848619E+02 -0.10875993657E+02  0.19773776067E+02  0.96061134868E+02  0.91570009398E+02 0.  0.
         13    1    3    3    0    0 -0.21739891676E+02 -0.49963986533E+02  0.15090251393E+02  0.56539806256E+02  0.10566000000E+00 0. -1.
         22    1    1    0    0    0  0.18258848619E+02  0.10875993657E+02 -0.19773776067E+02  0.29028865132E+02  0.00000000000E+00 0. -1.
</event>
<event>
 5    1  0.1254921E-009  0.9118800E+02  0.7561462E-02  0.1125453E+00
         25   -1    0    0    0    0  0.00000000000E+00  0.00000000000E+00  0.99999998245E-14  0.12509000000E+03  0.12509000000E+03 0.  0.
        -13    1    3    3    0    0  0.20724638703E+02 -0.55106506388E+02 -0.59850960953E+01  0.59178291923E+02  0.10566000000E+00 0. -1.
         23    2    1    0    0    0  0.13332039633E+02 -0.23796084318E+02  0.11143241385E+02  0.95625296740E+02  0.90972680725E+02 0.  0.
         13    1    3    3    0    0 -0.73925990707E+01  0.31310422070E+02  0.17128337480E+02  0.36447004816E+02  0.10566000000E+00 0.  1.
         22    1    1    0    0    0 -0.13332039633E+02  0.23796084318E+02 -0.11143241385E+02  0.29464703260E+02  0.00000000000E+00 0. -1.
</event>
<event>
 5    1  0.1254921E-009  0.9118800E+02  0.7561462E-02  0.1125453E+00
         25   -1    0    0    0    0  0.00000000000E+00  0.00000000000E+00  0.99999998245E-14  0.12509000000E+03  0.12509000000E+03 0.  0.
        -13    1    3    3    0    0  0.38809644523E+02 -0.29438138106E+02 -0.20906715491E+01  0.48756277080E+02  0.10566000000E+00 0.  1.
         23    2    1    0    0    0 -0.89768527478E+01 -0.24968823262E+02  0.70989236698E+01  0.97623279453E+02  0.93679688052E+02 0.  0.
         13    1    3    3    0    0 -0.47786497271E+02  0.44693148439E+01  0.91895952189E+01  0.48867002373E+02  0.10566000000E+00 0. -1.
         22    1    1    0    0    0  0.89768527478E+01  0.24968823262E+02 -0.70989236698E+01  0.27466720547E+02  0.00000000000E+00 0. -1.
</event>
<event>
 5    1  0.1254921E-009  0.9118800E+02  0.7561462E-02  0.1125453E+00
         25   -1    0    0    0    0  0.00000000000E+00  0.00000000000E+00  0.99999998245E-14  0.12509000000E+03  0.12509000000E+03 0.  0.
        -13    1    3    3    0    0 -0.29195872082E+02  0.64012744953E+01  0.19439782707E+02  0.35655176027E+02  0.10566000000E+00 0.  1.
         23    2    1    0    0    0  0.25463409102E+02 -0.87163911958E+01 -0.55191645343E+01  0.97615978530E+02  0.93669938661E+02 0.  0.
         13    1    3    3    0    0  0.54659281184E+02 -0.15117665691E+02 -0.24958947241E+02  0.61960802503E+02  0.10566000000E+00 0. -1.
         22    1    1    0    0    0 -0.25463409102E+02  0.87163911958E+01  0.55191645343E+01  0.27474021470E+02  0.00000000000E+00 0. -1.
</event>
<event>
 5    1  0.1254921E-009  0.9118800E+02  0.7561462E-02  0.1125453E+00
         25   -1    0    0    0    0  0.00000000000E+00  0.00000000000E+00  0.99999998245E-14  0.12509000000E+03  0.12509000000E+03 0.  0.
        -13    1    3    3    0    0  0.37637715785E+02 -0.28268617343E+01  0.16938961462E+02  0.41370622140E+02  0.10566000000E+00 0. -1.
         23    2    1    0    0    0  0.99715623419E+01 -0.18610903695E+02 -0.23924107048E+02  0.93181369664E+02  0.87547741047E+02 0.  0.
         13    1    3    3    0    0 -0.27666153443E+02 -0.15784041961E+02 -0.40863068509E+02  0.51810747524E+02  0.10566000000E+00 0.  1.
         22    1    1    0    0    0 -0.99715623419E+01  0.18610903695E+02  0.23924107048E+02  0.31908630336E+02  0.00000000000E+00 0. -1.
</event>
<event>
 5    1  0.1254921E-009  0.9118800E+02  0.7561462E-02  0.1125453E+00
         25   -1    0    0    0    0  0.00000000000E+00  0.00000000000E+00  0.99999998245E-14  0.12509000000E+03  0.12509000000E+03 0.  0.
        -13    1    3    3    0    0 -0.30932494726E+02 -0.76827097936E+01 -0.52357603386E+02  0.61295783347E+02  0.10566000000E+00 0.  1.
         23    2    1    0    0    0 -0.15228459251E+02  0.51936871618E+01 -0.24793004670E+02  0.95533724218E+02  0.90846678667E+02 0.  0.
         13    1    3    3    0    0  0.15704035475E+02  0.12876396955E+02  0.27564598715E+02  0.34237940871E+02  0.10566000000E+00 0. -1.
         22    1    1    0    0    0  0.15228459251E+02 -0.51936871618E+01  0.24793004670E+02  0.29556275782E+02  0.00000000000E+00 0.  1.
</event>
<event>
 5    1  0.1254921E-009  0.9118800E+02  0.7561462E-02  0.1125453E+00
         25   -1    0    0    0    0  0.00000000000E+00  0.00000000000E+00  0.99999998245E-14  0.12509000000E+03  0.12509000000E+03 0.  0.
        -13    1    3    3    0    0 -0.51755954334E+02 -0.33196055078E+00 -0.27925314139E+02  0.58810061559E+02  0.10566000000E+00 0.  1.
         23    2    1    0    0    0 -0.37840591437E+02 -0.12837751180E+01 -0.33347622574E+01  0.87081065811E+02  0.78348152145E+02 0.  0.
         13    1    3    3    0    0  0.13915362897E+02 -0.95181456720E+00  0.24590551881E+02  0.28271004251E+02  0.10566000000E+00 0. -1.
         22    1    1    0    0    0  0.37840591437E+02  0.12837751180E+01  0.33347622574E+01  0.38008934189E+02  0.00000000000E+00 0.  1.
</event>
<event>
 5    1  0.1254921E-009  0.9118800E+02  0.7561462E-02  0.1125453E+00
         25   -1    0    0    0    0  0.00000000000E+00  0.00000000000E+00  0.99999998245E-14  0.12509000000E+03  0.12509000000E+03 0.  0.
        -13    1    3    3    0    0 -0.35052848413E+02 -0.81493289457E+00  0.97092831080E+00  0.35075919992E+02  0.10566000000E+00 0.  1.
         23    2    1    0    0    0  0.14894551080E+02 -0.27859205870E+02  0.85093186314E+01  0.92373161719E+02  0.86385238894E+02 0.  0.
         13    1    3    3    0    0  0.49947399493E+02 -0.27044272975E+02  0.75383903206E+01  0.57297241727E+02  0.10566000000E+00 0. -1.
         22    1    1    0    0    0 -0.14894551080E+02  0.27859205870E+02 -0.85093186314E+01  0.32716838281E+02  0.00000000000E+00 0. -1.
</event>
<event>
 5    1  0.1254921E-009  0.9118800E+02  0.7561462E-02  0.1125453E+00
         25   -1    0    0    0    0  0.00000000000E+00  0.00000000000E+00  0.99999998245E-14  0.12509000000E+03  0.12509000000E+03 0.  0.
        -13    1    3    3    0    0 -0.53298065276E+01  0.66081997262E+00 -0.43793018969E+02  0.44121232929E+02  0.10566000000E+00 0. -1.
         23    2    1    0    0    0  0.28031368260E+02  0.67994131185E+01 -0.47239270898E+01  0.95861501708E+02  0.91296891498E+02 0.  0.
         13    1    3    3    0    0  0.33361174787E+02  0.61385931459E+01  0.39069091879E+02  0.51740268779E+02  0.10566000000E+00 0.  1.
         22    1    1    0    0    0 -0.28031368260E+02 -0.67994131185E+01  0.47239270898E+01  0.29228498292E+02  0.00000000000E+00 0.  1.
</event>
<event>
 5    1  0.1254921E-009  0.9118800E+02  0.7561462E-02  0.1125453E+00
         25   -1    0    0    0    0  0.00000000000E+00  0.00000000000E+00  0.99999998245E-14  0.12509000000E+03  0.12509000000E+03 0.  0.
        -13    1    3    3    0    0  0.68953240568E+01  0.26863904134E+02 -0.28019499844E+02  0.39424844638E+02  0.10566000000E+00 0.  1.
         23    2    1    0    0    0  0.23663074755E+02 -0.14746592801E+02  0.70069854928E+01  0.96341070424E+02  0.91951622599E+02 0.  0.
         13    1    3    3    0    0  0.16767750698E+02 -0.41610496935E+02  0.35026485337E+02  0.56916225786E+02  0.10566000000E+00 0. -1.
         22    1    1    0    0    0 -0.23663074755E+02  0.14746592801E+02 -0.70069854928E+01  0.28748929576E+02  0.00000000000E+00 0. -1.
</event>
<event>
 5    1  0.1254921E-009  0.9118800E+02  0.7561462E-02  0.1125453E+00
         25   -1    0    0    0    0  0.00000000000E+00  0.00000000000E+00  0.99999998245E-14  0.12509000000E+03  0.12509000000E+03 0.  0.
        -13    1    3    3    0    0 -0.29586510935E+02 -0.25768811266E+02  0.12175197610E+02  0.41080894151E+02  0.10566000000E+00 0.  1.
         23    2    1    0    0    0  0.16628331389E+02  0.49278759313E+01  0.21634361904E+02  0.97362198410E+02  0.93330416790E+02 0.  0.
         13    1    3    3    0    0  0.46214842325E+02  0.30696687197E+02  0.94591642940E+01  0.56281304259E+02  0.10566000000E+00 0. -1.
         22    1    1    0    0    0 -0.16628331389E+02 -0.49278759313E+01 -0.21634361904E+02  0.27727801590E+02  0.00000000000E+00 0. -1.
</event>
<event>
 5    1  0.1254921E-009  0.9118800E+02  0.7561462E-02  0.1125453E+00
         25   -1    0    0    0    0  0.00000000000E+00  0.00000000000E+00  0.99999998245E-14  0.12509000000E+03  0.12509000000E+03 0.  0.
        -13    1    3    3    0    0 -0.39885688791E+02 -0.26556321029E+02 -0.22506676057E+02  0.52940230337E+02  0.10566000000E+00 0. -1.
         23    2    1    0    0    0 -0.27583909404E+02  0.69555530069E+01  0.25105041893E+01  0.96532086790E+02  0.92211113067E+02 0.  0.
         13    1    3    3    0    0  0.12301779387E+02  0.33511874036E+02  0.25017180246E+02  0.43591856453E+02  0.10566000000E+00 0.  1.
         22    1    1    0    0    0  0.27583909404E+02 -0.69555530069E+01 -0.25105041893E+01  0.28557913210E+02  0.00000000000E+00 0. -1.
</event>
<event>
 5    1  0.1254921E-009  0.9118800E+02  0.7561462E-02  0.1125453E+00
         25   -1    0    0    0    0  0.00000000000E+00  0.00000000000E+00  0.99999998245E-14  0.12509000000E+03  0.12509000000E+03 0.  0.
        -13    1    3    3    0    0 -0.52933274304E+01  0.30299427782E+02  0.19948443963E+02  0.36660963159E+02  0.10566000000E+00 0.  1.
         23    2    1    0    0    0 -0.21360482980E+01 -0.27802868348E+02  0.47228992237E+01  0.96808062871E+02  0.92584734535E+02 0.  0.
         13    1    3    3    0    0  0.31572791323E+01 -0.58102296130E+02 -0.15225544739E+02  0.60147099712E+02  0.10566000000E+00 0. -1.
         22    1    1    0    0    0  0.21360482980E+01  0.27802868348E+02 -0.47228992237E+01  0.28281937129E+02  0.00000000000E+00 0. -1.
</event>
<event>
 5    1  0.1254921E-009  0.9118800E+02  0.7561462E-02  0.1125453E+00
         25   -1    0    0    0    0  0.00000000000E+00  0.00000000000E+00  0.99999998245E-14  0.12509000000E+03  0.12509000000E+03 0.  0.
        -13    1    3    3    0    0 -0.10719716779E+00  0.49429911384E+01  0.32488932476E+02  0.32863148816E+02  0.10566000000E+00 0. -1.
         23    2    1    0    0    0  0.14746576141E+02 -0.97779937282E+00 -0.26916472406E+02  0.94383093834E+02  0.89248273459E+02 0.  0.
         13    1    3    3    0    0  0.14853773309E+02 -0.59207905112E+01 -0.59405404882E+02  0.61519945018E+02  0.10566000000E+00 0.  1.
         22    1    1    0    0    0 -0.14746576141E+02  0.97779937282E+00  0.26916472406E+02  0.30706906166E+02  0.00000000000E+00 0.  1.
</event>
<event>
 5    1  0.1254921E-009  0.9118800E+02  0.7561462E-02  0.1125453E+00
         25   -1    0    0    0    0  0.00000000000E+00  0.00000000000E+00  0.99999998245E-14  0.12509000000E+03  0.12509000000E+03 0.  0.
        -13    1    3    3    0    0  0.27080999126E+02  0.20719633137E+02 -0.43085530016E+02  0.54945953189E+02  0.10566000000E+00 0. -1.
         23    2    1    0    0    0  0.28169490080E+02  0.61551631936E+01 -0.48828864955E+01  0.95845363127E+02  0.91274776620E+02 0.  0.
         13    1    3    3    0    0  0.10884909540E+01 -0.14564469944E+02  0.38202643520E+02  0.40899409938E+02  0.10566000000E+00 0.  1.
         22    1    1    0    0    0 -0.28169490080E+02 -0.61551631936E+01  0.48828864955E+01  0.29244636873E+02  0.00000000000E+00 0. -1.
</event>
<event>
 5    1  0.1254921E-009  0.9118800E+02  0.7561462E-02  0.1125453E+00
         25   -1    0    0    0    0  0.00000000000E+00  0.00000000000E+00  0.99999998245E-14  0.12509000000E+03  0.12509000000E+03 0.  0.
        -13    1    3    3    0    0  0.37434971398E+02 -0.28352915311E+02 -0.38774363448E+02  0.60899321138E+02  0.10566000000E+00 0.  1.
         23    2    1    0    0    0  0.24728755174E+02 -0.89080205021E+01 -0.12451827374E+02  0.96005430780E+02  0.91493882706E+02 0.  0.
         13    1    3    3    0    0 -0.12706216223E+02  0.19444894809E+02  0.26322536074E+02  0.35106109643E+02  0.10566000000E+00 0. -1.
         22    1    1    0    0    0 -0.24728755174E+02  0.89080205021E+01  0.12451827374E+02  0.29084569220E+02  0.00000000000E+00 0.  1.
</event>
<event>
 5    1  0.1254921E-009  0.9118800E+02  0.7561462E-02  0.1125453E+00
         25   -1    0    0    0    0  0.00000000000E+00  0.00000000000E+00  0.99999998245E-14  0.12509000000E+03  0.12509000000E+03 0.  0.
        -13    1    3    3    0    0  0.49707815087E+01  0.16840369094E+02  0.28463183606E+02  0.33443544744E+02  0.10566000000E+00 0.  1.
         23    2    1    0    0    0 -0.23602867861E+02 -0.13659021639E+02 -0.15187510282E+02  0.93875825144E+02  0.88534433045E+02 0.  0.
         13    1    3    3    0    0 -0.28573649369E+02 -0.30499390732E+02 -0.43650693888E+02  0.60432280400E+02  0.10566000000E+00 0. -1.
         22    1    1    0    0    0  0.23602867861E+02  0.13659021639E+02  0.15187510282E+02  0.31214174856E+02  0.00000000000E+00 0. -1.
</event>
<event>
 5    1  0.1254921E-009  0.9118800E+02  0.7561462E-02  0.1125453E+00
         25   -1    0    0    0    0  0.00000000000E+00  0.00000000000E+00  0.99999998245E-14  0.12509000000E+03  0.12509000000E+03 0.  0.
        -13    1    3    3    0    0  0.53301396983E+01 -0.31122035248E+02  0.26280400925E+02  0.41081164832E+02  0.10566000000E+00 0.  1.
         23    2    1    0    0    0 -0.21971589725E+02 -0.26471189018E+01 -0.15136003538E+02  0.98278498800E+02  0.94550551187E+02 0.  0.
         13    1    3    3    0    0 -0.27301729423E+02  0.28474916346E+02 -0.41416404462E+02  0.57197333968E+02  0.10566000000E+00 0. -1.
         22    1    1    0    0    0  0.21971589725E+02  0.26471189018E+01  0.15136003538E+02  0.26811501200E+02  0.00000000000E+00 0. -1.
</event>
<event>
 5    1  0.1254921E-009  0.9118800E+02  0.7561462E-02  0.1125453E+00
         25   -1    0    0    0    0  0.00000000000E+00  0.00000000000E+00  0.99999998245E-14  0.12509000000E+03  0.12509000000E+03 0.  0.
        -13    1    3    3    0    0  0.26745313733E+02 -0.19027977328E+02 -0.46628401937E+02  0.57022756502E+02  0.10566000000E+00 0. -1.
         23    2    1    0    0    0  0.11602386032E+02  0.88191705580E+01 -0.27284445455E+02  0.94157264998E+02  0.88931189451E+02 0.  0.
         13    1    3    3    0    0 -0.15142927701E+02  0.27847147886E+02  0.19343956483E+02  0.37134508495E+02  0.10566000000E+00 0.  1.
         22    1    1    0    0    0 -0.11602386032E+02 -0.88191705580E+01  0.27284445455E+02  0.30932735002E+02  0.00000000000E+00 0. -1.
</event>
<event>
 5    1  0.1254921E-009  0.9118800E+02  0.7561462E-02  0.1125453E+00
         25   -1    0    0    0    0  0.00000000000E+00  0.00000000000E+00  0.99999998245E-14  0.12509000000E+03  0.12509000000E+03 0.  0.
        -13    1    3    3    0    0 -0.80412702273E+01  0.34941230119E+02 -0.27759228428E+02  0.45344652563E+02  0.10566000000E+00 0. -1.
         23    2    1    0    0    0  0.47708290743E+01 -0.50101679987E+01 -0.36279556111E+02  0.88156698157E+02  0.80047077679E+02 0.  0.
         13    1    3    3    0    0  0.12812099302E+02 -0.39951398118E+02 -0.85203276829E+01  0.42812045594E+02  0.10566000000E+00 0.  1.
         22    1    1    0    0    0 -0.47708290743E+01  0.50101679987E+01  0.36279556111E+02  0.36933301843E+02  0.00000000000E+00 0.  1.
</event>
<event>
 5    1  0.1254921E-009  0.9118800E+02  0.7561462E-02  0.1125453E+00
         25   -1    0    0    0    0  0.00000000000E+00  0.00000000000E+00  0.99999998245E-14  0.12509000000E+03  0.12509000000E+03 0.  0.
        -13    1    3    3    0    0  0.34054088820E+02 -0.12559797924E+02  0.19146091272E+02  0.41036733109E+02  0.10566000000E+00 0. -1.
         23    2    1    0    0    0 -0.77428282948E+01  0.22153733844E+02  0.18224121288E+02  0.95377075036E+02  0.90630726205E+02 0.  0.
         13    1    3    3    0    0 -0.41796917114E+02  0.34713531768E+02 -0.92196998381E+00  0.54340341927E+02  0.10566000000E+00 0.  1.
         22    1    1    0    0    0  0.77428282948E+01 -0.22153733844E+02 -0.18224121288E+02  0.29712924964E+02  0.00000000000E+00 0.  1.
</event>
<event>
 5    1  0.1254921E-009  0.9118800E+02  0.7561462E-02  0.1125453E+00
         25   -1    0    0    0    0  0.00000000000E+00  0.00000000000E+00  0.99999998245E-14  0.12509000000E+03  0.12509000000E+03 0.  0.
        -13    1    3    3    0    0  0.18758278131E+01 -0.27618323378E+02 -0.48948701820E+01  0.28111588968E+02  0.10566000000E+00 0.  1.
         23    2    1    0    0    0 -0.15334058243E+02  0.31599156841E+02 -0.83208451030E-01  0.89966688953E+02  0.82827278974E+02 0.  0.
         13    1    3    3    0    0 -0.17209886057E+02  0.59217480218E+02  0.48116617310E+01  0.61855099985E+02  0.10566000000E+00 0. -1.
         22    1    1    0    0    0  0.15334058243E+02 -0.31599156841E+02  0.83208451030E-01  0.35123311047E+02  0.00000000000E+00 0. -1.
</event>
<event>
 5    1  0.1254921E-009  0.9118800E+02  0.7561462E-02  0.1125453E+00
         25   -1    0    0    0    0  0.00000000000E+00  0.00000000000E+00  0.99999998245E-14  0.12509000000E+03  0.12509000000E+03 0.  0.
        -13    1    3    3    0    0  0.35396075783E+02 -0.15089926451E+02  0.14235623812E+02  0.41027456789E+02  0.10566000000E+00 0.  1.
         23    2    1    0    0    0  0.68220144765E+01  0.29084703977E+02  0.13903349672E+01  0.95183597370E+02  0.90363290610E+02 0.  0.
         13    1    3    3    0    0 -0.28574061307E+02  0.44174630429E+02 -0.12845288845E+02  0.54156140581E+02  0.10566000000E+00 0. -1.
         22    1    1    0    0    0 -0.68220144765E+01 -0.29084703977E+02 -0.13903349672E+01  0.29906402630E+02  0.00000000000E+00 0. -1.
</event>
<event>
 5    1  0.1254921E-009  0.9118800E+02  0.7561462E-02  0.1125453E+00
         25   -1    0    0    0    0  0.00000000000E+00  0.00000000000E+00  0.99999998245E-14  0.12509000000E+03  0.12509000000E+03 0.  0.
        -13    1    3    3    0    0 -0.17159115490E+02 -0.23558949354E+02 -0.92722057429E+00  0.29160422512E+02  0.10566000000E+00 0.  1.
         23    2    1    0    0    0  0.12828281267E+02 -0.14497490057E+02 -0.40837290720E+02  0.79896788877E+02  0.65886800965E+02 0.  0.
         13    1    3    3    0    0  0.29987396757E+02  0.90614592969E+01 -0.39910070146E+02  0.50736366365E+02  0.10566000000E+00 0. -1.
         22    1    1    0    0    0 -0.12828281267E+02  0.14497490057E+02  0.40837290720E+02  0.45193211123E+02  0.00000000000E+00 0. -1.
</event>
<event>
 5    1  0.1254921E-009  0.9118800E+02  0.7561462E-02  0.1125453E+00
         25   -1    0    0    0    0  0.00000000000E+00  0.00000000000E+00  0.99999998245E-14  0.12509000000E+03  0.12509000000E+03 0.  0.
        -13    1    3    3    0    0  0.77338499562E+01 -0.19130734856E+02  0.30412546352E+02  0.36752300485E+02  0.10566000000E+00 0.  1.
         23    2    1    0    0    0 -0.20548089444E+02 -0.14410050085E+01 -0.19459964228E+02  0.96752909765E+02  0.92510187898E+02 0.  0.
         13    1    3    3    0    0 -0.28281939401E+02  0.17689729847E+02 -0.49872510580E+02  0.60000609280E+02  0.10566000000E+00 0. -1.
         22    1    1    0    0    0  0.20548089444E+02  0.14410050085E+01  0.19459964228E+02  0.28337090235E+02  0.00000000000E+00 0. -1.
</event>
<event>
 5    1  0.1254921E-009  0.9118800E+02  0.7561462E-02  0.1125453E+00
         25   -1    0    0    0    0  0.00000000000E+00  0.00000000000E+00  0.99999998245E-14  0.12509000000E+03  0.12509000000E+03 0.  0.
        -13    1    3    3    0    0 -0.59965515674E+01 -0.43141107947E+02 -0.21023245281E+02  0.48364261927E+02  0.10566000000E+00 0. -1.
         23    2    1    0    0    0 -0.19955843886E+02  0.31055609550E+01 -0.19976592606E+02  0.96683232036E+02  0.92415923361E+02 0.  0.
         13    1    3    3    0    0 -0.13959292318E+02  0.46246668902E+02  0.10466526756E+01  0.48318970109E+02  0.10566000000E+00 0.  1.
         22    1    1    0    0    0  0.19955843886E+02 -0.31055609550E+01  0.19976592606E+02  0.28406767964E+02  0.00000000000E+00 0. -1.
</event>
<event>
 5    1  0.1254921E-009  0.9118800E+02  0.7561462E-02  0.1125453E+00
         25   -1    0    0    0    0  0.00000000000E+00  0.00000000000E+00  0.99999998245E-14  0.12509000000E+03  0.12509000000E+03 0.  0.
        -13    1    3    3    0    0  0.39813814580E+02  0.40567865845E+01  0.32577245052E+02  0.51603153082E+02  0.10566000000E+00 0. -1.
         23    2    1    0    0    0 -0.46029597408E+00  0.18880316836E+02  0.22552566747E+02  0.95674077388E+02  0.91039730783E+02 0.  0.
         13    1    3    3    0    0 -0.40274110554E+02  0.14823530252E+02 -0.10024678305E+02  0.44070924306E+02  0.10566000000E+00 0.  1.
         22    1    1    0    0    0  0.46029597408E+00 -0.18880316836E+02 -0.22552566747E+02  0.29415922612E+02  0.00000000000E+00 0.  1.
</event>
<event>
 5    1  0.1254921E-009  0.9118800E+02  0.7561462E-02  0.1125453E+00
         25   -1    0    0    0    0  0.00000000000E+00  0.00000000000E+00  0.99999998245E-14  0.12509000000E+03  0.12509000000E+03 0.  0.
        -13    1    3    3    0    0 -0.33508516792E+02  0.19363833319E+02  0.86819577126E+01  0.39663160391E+02  0.10566000000E+00 0.  1.
         23    2    1    0    0    0  0.12965734051E+02 -0.12901744703E+02  0.20662602699E+02  0.97494557874E+02  0.93507648825E+02 0.  0.
         13    1    3    3    0    0  0.46474250843E+02 -0.32265578022E+02  0.11980644986E+02  0.57831397483E+02  0.10566000000E+00 0. -1.
         22    1    1    0    0    0 -0.12965734051E+02  0.12901744703E+02 -0.20662602699E+02  0.27595442126E+02  0.00000000000E+00 0. -1.
</event>
<event>
 5    1  0.1254921E-009  0.9118800E+02  0.7561462E-02  0.1125453E+00
         25   -1    0    0    0    0  0.00000000000E+00  0.00000000000E+00  0.99999998245E-14  0.12509000000E+03  0.12509000000E+03 0.  0.
        -13    1    3    3    0    0 -0.60205757560E+01 -0.36887930519E-01  0.52758229619E+02  0.53100759408E+02  0.10566000000E+00 0.  1.
         23    2    1    0    0    0 -0.15823019824E+02  0.84122395357E+01  0.26284510402E+00  0.10716786793E+03  0.10565864422E+03 0.  0.
         13    1    3    3    0    0 -0.98024440678E+01  0.84491274662E+01 -0.52495384515E+02  0.54067108523E+02  0.10566000000E+00 0. -1.
         22    1    1    0    0    0  0.15823019824E+02 -0.84122395357E+01 -0.26284510402E+00  0.17922132069E+02  0.00000000000E+00 0. -1.
</event>
<event>
 5    1  0.1254921E-009  0.9118800E+02  0.7561462E-02  0.1125453E+00
         25   -1    0    0    0    0  0.00000000000E+00  0.00000000000E+00  0.99999998245E-14  0.12509000000E+03  0.12509000000E+03 0.  0.
        -13    1    3    3    0    0  0.10402287493E+01 -0.27932856884E+02 -0.16637765523E+02  0.32529263367E+02  0.10566000000E+00 0. -1.
         23    2    1    0    0    0 -0.35533558004E+02  0.10761489784E+02 -0.12932532520E+01  0.87940088684E+02  0.79707862141E+02 0.  0.
         13    1    3    3    0    0 -0.36573786753E+02  0.38694346668E+02  0.15344512271E+02  0.55410825318E+02  0.10566000000E+00 0.  1.
         22    1    1    0    0    0  0.35533558004E+02 -0.10761489784E+02  0.12932532520E+01  0.37149911316E+02  0.00000000000E+00 0.  1.
</event>
<event>
 5    1  0.1254921E-009  0.9118800E+02  0.7561462E-02  0.1125453E+00
         25   -1    0    0    0    0  0.00000000000E+00  0.00000000000E+00  0.99999998245E-14  0.12509000000E+03  0.12509000000E+03 0.  0.
        -13    1    3    3    0    0 -0.19473869959E+02  0.33199240448E+02  0.73365843905E+01  0.39182366085E+02  0.10566000000E+00 0.  1.
         23    2    1    0    0    0  0.45665088993E+01  0.20393156775E+01 -0.30741729397E+02  0.93944121648E+02  0.88630876414E+02 0.  0.
         13    1    3    3    0    0  0.24040378858E+02 -0.31159924770E+02 -0.38078313788E+02  0.54761755563E+02  0.10566000000E+00 0. -1.
         22    1    1    0    0    0 -0.45665088993E+01 -0.20393156775E+01  0.30741729397E+02  0.31145878352E+02  0.00000000000E+00 0. -1.
</event>
<event>
 5    1  0.1254921E-009  0.9118800E+02  0.7561462E-02  0.1125453E+00
         25   -1    0    0    0    0  0.00000000000E+00  0.00000000000E+00  0.99999998245E-14  0.12509000000E+03  0.12509000000E+03 0.  0.
        -13    1    3    3    0    0  0.14349954446E+02  0.24330882731E+02  0.38416551475E+02  0.47683913832E+02  0.10566000000E+00 0. -1.
         23    2    1    0    0    0  0.29343603920E+02  0.36179877936E+01 -0.19413464797E+01  0.95460525607E+02  0.90745832941E+02 0.  0.
         13    1    3    3    0    0  0.14993649474E+02 -0.20712894938E+02 -0.40357897955E+02  0.47776611774E+02  0.10566000000E+00 0.  1.
         22    1    1    0    0    0 -0.29343603920E+02 -0.36179877936E+01  0.19413464797E+01  0.29629474393E+02  0.00000000000E+00 0.  1.
</event>
<event>
 5    1  0.1254921E-009  0.9118800E+02  0.7561462E-02  0.1125453E+00
         25   -1    0    0    0    0  0.00000000000E+00  0.00000000000E+00  0.99999998245E-14  0.12509000000E+03  0.12509000000E+03 0.  0.
        -13    1    3    3    0    0 -0.14240866835E+01 -0.87584243820E+01  0.39325307822E+02  0.40314129283E+02  0.10566000000E+00 0. -1.
         23    2    1    0    0    0 -0.29851219512E+02  0.47292548541E-01 -0.61019302661E+01  0.94621473684E+02  0.89581762576E+02 0.  0.
         13    1    3    3    0    0 -0.28427132828E+02  0.88057169306E+01 -0.45427238088E+02  0.54307344400E+02  0.10566000000E+00 0.  1.
         22    1    1    0    0    0  0.29851219512E+02 -0.47292548541E-01  0.61019302661E+01  0.30468526316E+02  0.00000000000E+00 0.  1.
</event>
<event>
 5    1  0.1254921E-009  0.9118800E+02  0.7561462E-02  0.1125453E+00
         25   -1    0    0    0    0  0.00000000000E+00  0.00000000000E+00  0.99999998245E-14  0.12509000000E+03  0.12509000000E+03 0.  0.
        -13    1    3    3    0    0 -0.23436618971E+02  0.24298882188E+02  0.23466949849E+01  0.33841231150E+02  0.10566000000E+00 0. -1.
         23    2    1    0    0    0 -0.22738608303E+02 -0.29463769720E+02 -0.22478508019E+01  0.87804468397E+02  0.79494740729E+02 0.  0.
         13    1    3    3    0    0  0.69801066776E+00 -0.53762651909E+02 -0.45945457869E+01  0.53963237247E+02  0.10566000000E+00 0.  1.
         22    1    1    0    0    0  0.22738608303E+02  0.29463769720E+02  0.22478508019E+01  0.37285531603E+02  0.00000000000E+00 0.  1.
</event>
<event>
 5    1  0.1254921E-009  0.9118800E+02  0.7561462E-02  0.1125453E+00
         25   -1    0    0    0    0  0.00000000000E+00  0.00000000000E+00  0.99999998245E-14  0.12509000000E+03  0.12509000000E+03 0.  0.
        -13    1    3    3    0    0 -0.42998999726E+01  0.44291176471E+02 -0.35831926559E+00  0.44500977627E+02  0.10566000000E+00 0.  1.
         23    2    1    0    0    0 -0.99668156508E+01  0.21487624410E+01 -0.28049749556E+02  0.95244681366E+02  0.90447809725E+02 0.  0.
         13    1    3    3    0    0 -0.56669156782E+01 -0.42142414030E+02 -0.27691430290E+02  0.50743703739E+02  0.10566000000E+00 0. -1.
         22    1    1    0    0    0  0.99668156508E+01 -0.21487624410E+01  0.28049749556E+02  0.29845318634E+02  0.00000000000E+00 0.  1.
</event>
<event>
 5    1  0.1254921E-009  0.9118800E+02  0.7561462E-02  0.1125453E+00
         25   -1    0    0    0    0  0.00000000000E+00  0.00000000000E+00  0.99999998245E-14  0.12509000000E+03  0.12509000000E+03 0.  0.
        -13    1    3    3    0    0 -0.20059327508E+02 -0.62789791065E+01 -0.29768548219E+02  0.36441457514E+02  0.10566000000E+00 0. -1.
         23    2    1    0    0    0  0.14462178917E+02  0.26277934555E+02  0.42055455975E+01  0.94801865735E+02  0.89833304902E+02 0.  0.
         13    1    3    3    0    0  0.34521506425E+02  0.32556913661E+02  0.33974093816E+02  0.58360408220E+02  0.10566000000E+00 0.  1.
         22    1    1    0    0    0 -0.14462178917E+02 -0.26277934555E+02 -0.42055455975E+01  0.30288134265E+02  0.00000000000E+00 0.  1.
</event>
<event>
 5    1  0.1254921E-009  0.9118800E+02  0.7561462E-02  0.1125453E+00
         25   -1    0    0    0    0  0.00000000000E+00  0.00000000000E+00  0.99999998245E-14  0.12509000000E+03  0.12509000000E+03 0.  0.
        -13    1    3    3    0    0  0.22928954740E+01  0.27800252237E+02  0.18466187889E+02  0.33453290620E+02  0.10566000000E+00 0.  1.
         23    2    1    0    0    0  0.52643559567E+01  0.22997410445E+00 -0.32870045464E+02  0.91800268542E+02  0.85551639866E+02 0.  0.
         13    1    3    3    0    0  0.29714604828E+01 -0.27570278132E+02 -0.51336233354E+02  0.58346977922E+02  0.10566000000E+00 0. -1.
         22    1    1    0    0    0 -0.52643559567E+01 -0.22997410445E+00  0.32870045464E+02  0.33289731458E+02  0.00000000000E+00 0. -1.
</event>
<event>
 5    1  0.1254921E-009  0.9118800E+02  0.7561462E-02  0.1125453E+00
         25   -1    0    0    0    0  0.00000000000E+00  0.00000000000E+00  0.99999998245E-14  0.12509000000E+03  0.12509000000E+03 0.  0.
        -13    1    3    3    0    0  0.29566384915E+00  0.30546702718E+01 -0.39009801387E+02  0.39130476560E+02  0.10566000000E+00 0.  1.
         23    2    1    0    0    0 -0.26228338949E+02  0.24782871786E+01  0.11624469648E+02  0.96294237014E+02  0.91887888843E+02 0.  0.
         13    1    3    3    0    0 -0.26524002799E+02 -0.57638309322E+00  0.50634271034E+02  0.57163760453E+02  0.10566000000E+00 0. -1.
         22    1    1    0    0    0  0.26228338949E+02 -0.24782871786E+01 -0.11624469648E+02  0.28795762986E+02  0.00000000000E+00 0. -1.
</event>
<event>
 5    1  0.1254921E-009  0.9118800E+02  0.7561462E-02  0.1125453E+00
         25   -1    0    0    0    0  0.00000000000E+00  0.00000000000E+00  0.99999998245E-14  0.12509000000E+03  0.12509000000E+03 0.  0.
        -13    1    3    3    0    0  0.28943654412E+01 -0.22031432243E+02 -0.24536954743E+02  0.33103393634E+02  0.10566000000E+00 0.  1.
         23    2    1    0    0    0 -0.75465261906E+01  0.18238866315E+02  0.22005742851E+02  0.95528893451E+02  0.90840026770E+02 0.  0.
         13    1    3    3    0    0 -0.10440891632E+02  0.40270298557E+02  0.46542697595E+02  0.62425499817E+02  0.10566000000E+00 0. -1.
         22    1    1    0    0    0  0.75465261906E+01 -0.18238866315E+02 -0.22005742851E+02  0.29561106549E+02  0.00000000000E+00 0. -1.
</event>
<event>
 5    1  0.1254921E-009  0.9118800E+02  0.7561462E-02  0.1125453E+00
         25   -1    0    0    0    0  0.00000000000E+00  0.00000000000E+00  0.99999998245E-14  0.12509000000E+03  0.12509000000E+03 0.  0.
        -13    1    3    3    0    0 -0.40452550446E+02 -0.42297397811E+02  0.14425558383E+02  0.60279238531E+02  0.10566000000E+00 0. -1.
         23    2    1    0    0    0 -0.19257117701E+02 -0.29506312676E+02 -0.16839899190E+01  0.89815435623E+02  0.82598532579E+02 0.  0.
         13    1    3    3    0    0  0.21195432745E+02  0.12791085135E+02 -0.16109548302E+02  0.29536197092E+02  0.10566000000E+00 0.  1.
         22    1    1    0    0    0  0.19257117701E+02  0.29506312676E+02  0.16839899190E+01  0.35274564377E+02  0.00000000000E+00 0. -1.
</event>
<event>
 5    1  0.1254921E-009  0.9118800E+02  0.7561462E-02  0.1125453E+00
         25   -1    0    0    0    0  0.00000000000E+00  0.00000000000E+00  0.99999998245E-14  0.12509000000E+03  0.12509000000E+03 0.  0.
        -13    1    3    3    0    0  0.29663033664E+02 -0.98870922710E+01 -0.41706034718E+02  0.52125374393E+02  0.10566000000E+00 0.  1.
         23    2    1    0    0    0  0.52090273247E+01  0.19875228283E+02 -0.20358985407E+02  0.96165149927E+02  0.91711989995E+02 0.  0.
         13    1    3    3    0    0 -0.24454006339E+02  0.29762320554E+02  0.21347049311E+02  0.44039775534E+02  0.10566000000E+00 0. -1.
         22    1    1    0    0    0 -0.52090273247E+01 -0.19875228283E+02  0.20358985407E+02  0.28924850073E+02  0.00000000000E+00 0.  1.
</event>
<event>
 5    1  0.1254921E-009  0.9118800E+02  0.7561462E-02  0.1125453E+00
         25   -1    0    0    0    0  0.00000000000E+00  0.00000000000E+00  0.99999998245E-14  0.12509000000E+03  0.12509000000E+03 0.  0.
        -13    1    3    3    0    0  0.19954018181E+02 -0.39490011578E+02  0.20923287854E+02  0.48943017833E+02  0.10566000000E+00 0.  1.
         23    2    1    0    0    0 -0.77936563938E+01 -0.25092609824E+02 -0.13589484994E+02  0.95508684103E+02  0.90812193504E+02 0.  0.
         13    1    3    3    0    0 -0.27747674574E+02  0.14397401754E+02 -0.34512772847E+02  0.46565666270E+02  0.10566000000E+00 0. -1.
         22    1    1    0    0    0  0.77936563938E+01  0.25092609824E+02  0.13589484994E+02  0.29581315897E+02  0.00000000000E+00 0.  1.
</event>
<event>
 5    1  0.1254921E-009  0.9118800E+02  0.7561462E-02  0.1125453E+00
         25   -1    0    0    0    0  0.00000000000E+00  0.00000000000E+00  0.99999998245E-14  0.12509000000E+03  0.12509000000E+03 0.  0.
        -13    1    3    3    0    0 -0.25727093939E+02  0.16818620443E+02 -0.20279791461E+02  0.36824318892E+02  0.10566000000E+00 0. -1.
         23    2    1    0    0    0  0.59464260805E+01  0.11608846244E+02  0.27654644855E+02  0.94513789046E+02  0.89431267706E+02 0.  0.
         13    1    3    3    0    0  0.31673520019E+02 -0.52097741996E+01  0.47934436316E+02  0.57689470154E+02  0.10566000000E+00 0.  1.
         22    1    1    0    0    0 -0.59464260805E+01 -0.11608846244E+02 -0.27654644855E+02  0.30576210954E+02  0.00000000000E+00 0.  1.
</event>
<event>
 5    1  0.1254921E-009  0.9118800E+02  0.7561462E-02  0.1125453E+00
         25   -1    0    0    0    0  0.00000000000E+00  0.00000000000E+00  0.99999998245E-14  0.12509000000E+03  0.12509000000E+03 0.  0.
        -13    1    3    3    0    0 -0.87806409405E+01 -0.38520326778E+02 -0.27754048962E+01  0.39605924643E+02  0.10566000000E+00 0.  1.
         23    2    1    0    0    0  0.24408953188E+02  0.59858926336E+01 -0.14106539824E+02  0.96269480016E+02  0.91854180146E+02 0.  0.
         13    1    3    3    0    0  0.33189594128E+02  0.44506219412E+02 -0.11331134928E+02  0.56663555373E+02  0.10566000000E+00 0. -1.
         22    1    1    0    0    0 -0.24408953188E+02 -0.59858926336E+01  0.14106539824E+02  0.28820519984E+02  0.00000000000E+00 0. -1.
</event>
<event>
 5    1  0.1254921E-009  0.9118800E+02  0.7561462E-02  0.1125453E+00
         25   -1    0    0    0    0  0.00000000000E+00  0.00000000000E+00  0.99999998245E-14  0.12509000000E+03  0.12509000000E+03 0.  0.
        -13    1    3    3    0    0  0.58854235545E+01  0.43056668712E+02  0.88849021908E+01  0.44356144805E+02  0.10566000000E+00 0.  1.
         23    2    1    0    0    0  0.24339214508E+02  0.16335090293E+01 -0.15838024591E+02  0.96005489731E+02  0.91493963303E+02 0.  0.
         13    1    3    3    0    0  0.18453790954E+02 -0.41423159682E+02 -0.24722926782E+02  0.51649344926E+02  0.10566000000E+00 0. -1.
         22    1    1    0    0    0 -0.24339214508E+02 -0.16335090293E+01  0.15838024591E+02  0.29084510269E+02  0.00000000000E+00 0. -1.
</event>
<event>
 5    1  0.1254921E-009  0.9118800E+02  0.7561462E-02  0.1125453E+00
         25   -1    0    0    0    0  0.00000000000E+00  0.00000000000E+00  0.99999998245E-14  0.12509000000E+03  0.12509000000E+03 0.  0.
        -13    1    3    3    0    0  0.30102954485E+02  0.11158662724E+02  0.45638673887E+02  0.55799671511E+02  0.10566000000E+00 0.  1.
         23    2    1    0    0    0  0.16225843934E+01  0.21143077988E+02  0.13173469899E+02  0.10012596915E+03  0.96963946201E+02 0.  0.
         13    1    3    3    0    0 -0.28480370092E+02  0.99844152640E+01 -0.32465203988E+02  0.44326297643E+02  0.10566000000E+00 0. -1.
         22    1    1    0    0    0 -0.16225843934E+01 -0.21143077988E+02 -0.13173469899E+02  0.24964030846E+02  0.00000000000E+00 0.  1.
</event>
<event>
 5    1  0.1254921E-009  0.9118800E+02  0.7561462E-02  0.1125453E+00
         25   -1    0    0    0    0  0.00000000000E+00  0.00000000000E+00  0.99999998245E-14  0.12509000000E+03  0.12509000000E+03 0.  0.
        -13    1    3    3    0    0  0.41324224392E+02 -0.59223188570E+01  0.22473376846E+02  0.47411277278E+02  0.10566000000E+00 0.  1.
         23    2    1    0    0    0  0.25471284351E+02  0.15140350201E+02 -0.13921974199E+02  0.92351064521E+02  0.86353235156E+02 0.  0.
         13    1    3    3    0    0 -0.15852940041E+02  0.21062669058E+02 -0.36395351045E+02  0.44939787243E+02  0.10566000000E+00 0. -1.
         22    1    1    0    0    0 -0.25471284351E+02 -0.15140350201E+02  0.13921974199E+02  0.32738935479E+02  0.00000000000E+00 0.  1.
</event>
<event>
 5    1  0.1254921E-009  0.9118800E+02  0.7561462E-02  0.1125453E+00
         25   -1    0    0    0    0  0.00000000000E+00  0.00000000000E+00  0.99999998245E-14  0.12509000000E+03  0.12509000000E+03 0.  0.
        -13    1    3    3    0    0  0.26910200946E+02 -0.76238513151E+01  0.38456009155E-01  0.27969531043E+02  0.10566000000E+00 0. -1.
         23    2    1    0    0    0 -0.20798766313E+02 -0.22155160663E+02  0.26802985819E+02  0.84570376693E+02  0.74231453852E+02 0.  0.
         13    1    3    3    0    0 -0.47708967259E+02 -0.14531309348E+02  0.26764529810E+02  0.56600845650E+02  0.10566000000E+00 0.  1.
         22    1    1    0    0    0  0.20798766313E+02  0.22155160663E+02 -0.26802985819E+02  0.40519623307E+02  0.00000000000E+00 0.  1.
</event>
<event>
 5    1  0.1254921E-009  0.9118800E+02  0.7561462E-02  0.1125453E+00
         25   -1    0    0    0    0  0.00000000000E+00  0.00000000000E+00  0.99999998245E-14  0.12509000000E+03  0.12509000000E+03 0.  0.
        -13    1    3    3    0    0 -0.12802989618E+01 -0.37133716210E+02 -0.20568012115E+02  0.42468886627E+02  0.10566000000E+00 0.  1.
         23    2    1    0    0    0 -0.94712841753E+01  0.14260688726E+02 -0.25098630122E+02  0.94708859454E+02  0.89703703147E+02 0.  0.
         13    1    3    3    0    0 -0.81909852134E+01  0.51394404935E+02 -0.45306180072E+01  0.52239972827E+02  0.10566000000E+00 0. -1.
         22    1    1    0    0    0  0.94712841753E+01 -0.14260688726E+02  0.25098630122E+02  0.30381140546E+02  0.00000000000E+00 0.  1.
</event>
<event>
 5    1  0.1254921E-009  0.9118800E+02  0.7561462E-02  0.1125453E+00
         25   -1    0    0    0    0  0.00000000000E+00  0.00000000000E+00  0.99999998245E-14  0.12509000000E+03  0.12509000000E+03 0.  0.
        -13    1    3    3    0    0 -0.25114720201E+02 -0.34235404527E+01  0.53288185729E+02  0.59009420454E+02  0.10566000000E+00 0.  1.
         23    2    1    0    0    0 -0.24464717000E+02 -0.40445596123E+01  0.17664236626E+02  0.94644867451E+02  0.89614423163E+02 0.  0.
         13    1    3    3    0    0  0.65000320029E+00 -0.62101915966E+00 -0.35623949103E+02  0.35635446997E+02  0.10566000000E+00 0. -1.
         22    1    1    0    0    0  0.24464717000E+02  0.40445596123E+01 -0.17664236626E+02  0.30445132549E+02  0.00000000000E+00 0.  1.
</event>
<event>
 5    1  0.1254921E-009  0.9118800E+02  0.7561462E-02  0.1125453E+00
         25   -1    0    0    0    0  0.00000000000E+00  0.00000000000E+00  0.99999998245E-14  0.12509000000E+03  0.12509000000E+03 0.  0.
        -13    1    3    3    0    0 -0.34905004572E+02  0.31053344849E+02 -0.17623903324E+02  0.49932781846E+02  0.10566000000E+00 0.  1.
         23    2    1    0    0    0  0.12164740206E+02  0.20408912816E+02 -0.11862634192E+02  0.98533894928E+02  0.94887837646E+02 0.  0.
         13    1    3    3    0    0  0.47069744778E+02 -0.10644432033E+02  0.57612691327E+01  0.48601113082E+02  0.10566000000E+00 0. -1.
         22    1    1    0    0    0 -0.12164740206E+02 -0.20408912816E+02  0.11862634192E+02  0.26556105072E+02  0.00000000000E+00 0. -1.
</event>
<event>
 5    1  0.1254921E-009  0.9118800E+02  0.7561462E-02  0.1125453E+00
         25   -1    0    0    0    0  0.00000000000E+00  0.00000000000E+00  0.99999998245E-14  0.12509000000E+03  0.12509000000E+03 0.  0.
        -13    1    3    3    0    0 -0.20721564359E+02 -0.21963655617E+02  0.19313293286E+02  0.35844104942E+02  0.10566000000E+00 0.  1.
         23    2    1    0    0    0  0.51313562934E+01  0.57439970351E+01 -0.27763130742E+02  0.96278270653E+02  0.91866150741E+02 0.  0.
         13    1    3    3    0    0  0.25852920652E+02  0.27707652652E+02 -0.47076424029E+02  0.60434165710E+02  0.10566000000E+00 0. -1.
         22    1    1    0    0    0 -0.51313562934E+01 -0.57439970351E+01  0.27763130742E+02  0.28811729347E+02  0.00000000000E+00 0. -1.
</event>
<event>
 5    1  0.1254921E-009  0.9118800E+02  0.7561462E-02  0.1125453E+00
         25   -1    0    0    0    0  0.00000000000E+00  0.00000000000E+00  0.99999998245E-14  0.12509000000E+03  0.12509000000E+03 0.  0.
        -13    1    3    3    0    0  0.23955483878E+02  0.30474366532E+02 -0.37695613367E+02  0.54069609343E+02  0.10566000000E+00 0.  1.
         23    2    1    0    0    0  0.53688167516E+01  0.27168596540E+02  0.12691907553E+01  0.97366946842E+02  0.93336780857E+02 0.  0.
         13    1    3    3    0    0 -0.18586667127E+02 -0.33057699918E+01  0.38964804122E+02  0.43297337498E+02  0.10566000000E+00 0. -1.
         22    1    1    0    0    0 -0.53688167516E+01 -0.27168596540E+02 -0.12691907553E+01  0.27723053158E+02  0.00000000000E+00 0.  1.
</event>
<event>
 5    1  0.1254921E-009  0.9118800E+02  0.7561462E-02  0.1125453E+00
         25   -1    0    0    0    0  0.00000000000E+00  0.00000000000E+00  0.99999998245E-14  0.12509000000E+03  0.12509000000E+03 0.  0.
        -13    1    3    3    0    0  0.23671498958E+02  0.42517386037E+02  0.26520489353E+02  0.55420352740E+02  0.10566000000E+00 0.  1.
         23    2    1    0    0    0  0.22109814085E+02  0.23967411961E+01  0.18031705021E+02  0.96459061609E+02  0.92111996685E+02 0.  0.
         13    1    3    3    0    0 -0.15616848730E+01 -0.40120644841E+02 -0.84887843315E+01  0.41038708868E+02  0.10566000000E+00 0. -1.
         22    1    1    0    0    0 -0.22109814085E+02 -0.23967411961E+01 -0.18031705021E+02  0.28630938391E+02  0.00000000000E+00 0.  1.
</event>
<event>
 5    1  0.1254921E-009  0.9118800E+02  0.7561462E-02  0.1125453E+00
         25   -1    0    0    0    0  0.00000000000E+00  0.00000000000E+00  0.99999998245E-14  0.12509000000E+03  0.12509000000E+03 0.  0.
        -13    1    3    3    0    0 -0.33392691292E+01 -0.47102769486E+02 -0.17516605495E+02  0.50365307938E+02  0.10566000000E+00 0.  1.
         23    2    1    0    0    0 -0.18205305344E+02 -0.17604190194E+02  0.14112074116E+02  0.96098772173E+02  0.91621409737E+02 0.  0.
         13    1    3    3    0    0 -0.14866036215E+02  0.29498579292E+02  0.31628679611E+02  0.45733464235E+02  0.10566000000E+00 0. -1.
         22    1    1    0    0    0  0.18205305344E+02  0.17604190194E+02 -0.14112074116E+02  0.28991227827E+02  0.00000000000E+00 0. -1.
</event>
<event>
 5    1  0.1254921E-009  0.9118800E+02  0.7561462E-02  0.1125453E+00
         25   -1    0    0    0    0  0.00000000000E+00  0.00000000000E+00  0.99999998245E-14  0.12509000000E+03  0.12509000000E+03 0.  0.
        -13    1    3    3    0    0  0.33235823062E+02 -0.49839496634E+01  0.34236436416E+01  0.33781536209E+02  0.10566000000E+00 0.  1.
         23    2    1    0    0    0 -0.26986131384E+02  0.99118942147E+01 -0.31653848485E+01  0.96167403380E+02  0.91715063526E+02 0.  0.
         13    1    3    3    0    0 -0.60221954446E+02  0.14895843878E+02 -0.65890284901E+01  0.62385867171E+02  0.10566000000E+00 0. -1.
         22    1    1    0    0    0  0.26986131384E+02 -0.99118942147E+01  0.31653848485E+01  0.28922596620E+02  0.00000000000E+00 0. -1.
</event>
<event>
 5    1  0.1254921E-009  0.9118800E+02  0.7561462E-02  0.1125453E+00
         25   -1    0    0    0    0  0.00000000000E+00  0.00000000000E+00  0.99999998245E-14  0.12509000000E+03  0.12509000000E+03 0.  0.
        -13    1    3    3    0    0 -0.78801150986E+01 -0.60026593677E+01  0.44896987652E+02  0.45976937672E+02  0.10566000000E+00 0.  1.
         23    2    1    0    0    0  0.14031576441E+02  0.23056245691E+02  0.10271099985E+02  0.96211442250E+02  0.91775108401E+02 0.  0.
         13    1    3    3    0    0  0.21911691540E+02  0.29058905059E+02 -0.34625887667E+02  0.50234504578E+02  0.10566000000E+00 0. -1.
         22    1    1    0    0    0 -0.14031576441E+02 -0.23056245691E+02 -0.10271099985E+02  0.28878557750E+02  0.00000000000E+00 0.  1.
</event>
<event>
 5    1  0.1254921E-009  0.9118800E+02  0.7561462E-02  0.1125453E+00
         25   -1    0    0    0    0  0.00000000000E+00  0.00000000000E+00  0.99999998245E-14  0.12509000000E+03  0.12509000000E+03 0.  0.
        -13    1    3    3    0    0 -0.30015044498E+02  0.13895237425E+02 -0.28813284466E+02  0.43865670462E+02  0.10566000000E+00 0.  1.
         23    2    1    0    0    0 -0.16890947556E+02 -0.23559180849E+02  0.45912903009E+01  0.95740058633E+02  0.91130344940E+02 0.  0.
         13    1    3    3    0    0  0.13124096942E+02 -0.37454418274E+02  0.33404574767E+02  0.51874388171E+02  0.10566000000E+00 0. -1.
         22    1    1    0    0    0  0.16890947556E+02  0.23559180849E+02 -0.45912903009E+01  0.29349941367E+02  0.00000000000E+00 0.  1.
</event>
<event>
 5    1  0.1254921E-009  0.9118800E+02  0.7561462E-02  0.1125453E+00
         25   -1    0    0    0    0  0.00000000000E+00  0.00000000000E+00  0.99999998245E-14  0.12509000000E+03  0.12509000000E+03 0.  0.
        -13    1    3    3    0    0 -0.28684441380E+02  0.95052519274E+01  0.53327459088E+02  0.61294176300E+02  0.10566000000E+00 0.  1.
         23    2    1    0    0    0 -0.11664549733E+02 -0.42286636306E+01  0.25881384278E+02  0.96388268890E+02  0.92015808484E+02 0.  0.
         13    1    3    3    0    0  0.17019891647E+02 -0.13733915558E+02 -0.27446074810E+02  0.35094092590E+02  0.10566000000E+00 0. -1.
         22    1    1    0    0    0  0.11664549733E+02  0.42286636306E+01 -0.25881384278E+02  0.28701731110E+02  0.00000000000E+00 0.  1.
</event>
<event>
 5    1  0.1254921E-009  0.9118800E+02  0.7561462E-02  0.1125453E+00
         25   -1    0    0    0    0  0.00000000000E+00  0.00000000000E+00  0.99999998245E-14  0.12509000000E+03  0.12509000000E+03 0.  0.
        -13    1    3    3    0    0  0.30716466068E+02 -0.21127287466E+02 -0.30954545468E+02  0.48456770555E+02  0.10566000000E+00 0. -1.
         23    2    1    0    0    0  0.11850354592E+02 -0.22883789977E+02  0.12930601127E+02  0.96257740409E+02  0.91838191377E+02 0.  0.
         13    1    3    3    0    0 -0.18866111477E+02 -0.17565025105E+01  0.43885146595E+02  0.47800969854E+02  0.10566000000E+00 0.  1.
         22    1    1    0    0    0 -0.11850354592E+02  0.22883789977E+02 -0.12930601127E+02  0.28832259591E+02  0.00000000000E+00 0. -1.
</event>
<event>
 5    1  0.1254921E-009  0.9118800E+02  0.7561462E-02  0.1125453E+00
         25   -1    0    0    0    0  0.00000000000E+00  0.00000000000E+00  0.99999998245E-14  0.12509000000E+03  0.12509000000E+03 0.  0.
        -13    1    3    3    0    0  0.15499353210E+02 -0.14612359983E+02  0.31260243878E+02  0.37828098360E+02  0.10566000000E+00 0.  1.
         23    2    1    0    0    0  0.14516225532E+02  0.18529080184E+02 -0.16768364178E+02  0.96189729182E+02  0.91745508592E+02 0.  0.
         13    1    3    3    0    0 -0.98312767844E+00  0.33141440167E+02 -0.48028608056E+02  0.58361630822E+02  0.10566000000E+00 0. -1.
         22    1    1    0    0    0 -0.14516225532E+02 -0.18529080184E+02  0.16768364178E+02  0.28900270818E+02  0.00000000000E+00 0. -1.
</event>
<event>
 5    1  0.1254921E-009  0.9118800E+02  0.7561462E-02  0.1125453E+00
         25   -1    0    0    0    0  0.00000000000E+00  0.00000000000E+00  0.99999998245E-14  0.12509000000E+03  0.12509000000E+03 0.  0.
        -13    1    3    3    0    0 -0.33445077972E+02 -0.27892438701E+02 -0.80020235359E+01  0.44278718612E+02  0.10566000000E+00 0. -1.
         23    2    1    0    0    0  0.89082015797E+01 -0.15125894118E+02 -0.27374632914E+02  0.92570478856E+02  0.86670492673E+02 0.  0.
         13    1    3    3    0    0  0.42353279551E+02  0.12766544582E+02 -0.19372609378E+02  0.48291760244E+02  0.10566000000E+00 0.  1.
         22    1    1    0    0    0 -0.89082015797E+01  0.15125894118E+02  0.27374632914E+02  0.32519521144E+02  0.00000000000E+00 0. -1.
</event>
<event>
 5    1  0.1254921E-009  0.9118800E+02  0.7561462E-02  0.1125453E+00
         25   -1    0    0    0    0  0.00000000000E+00  0.00000000000E+00  0.99999998245E-14  0.12509000000E+03  0.12509000000E+03 0.  0.
        -13    1    3    3    0    0 -0.52484830361E+02  0.26682390773E+02 -0.19777965563E+02  0.62111081791E+02  0.10566000000E+00 0. -1.
         23    2    1    0    0    0 -0.28046338934E+02  0.10586767321E+02 -0.57379188076E+01  0.94567868977E+02  0.89506878846E+02 0.  0.
         13    1    3    3    0    0  0.24438491427E+02 -0.16095623452E+02  0.14040046755E+02  0.32456787186E+02  0.10566000000E+00 0.  1.
         22    1    1    0    0    0  0.28046338934E+02 -0.10586767321E+02  0.57379188076E+01  0.30522131023E+02  0.00000000000E+00 0. -1.
</event>
<event>
 5    1  0.1254921E-009  0.9118800E+02  0.7561462E-02  0.1125453E+00
         25   -1    0    0    0    0  0.00000000000E+00  0.00000000000E+00  0.99999998245E-14  0.12509000000E+03  0.12509000000E+03 0.  0.
        -13    1    3    3    0    0  0.18795242114E+02 -0.22171571968E+02  0.18652103550E+02  0.34536239815E+02  0.10566000000E+00 0.  1.
         23    2    1    0    0    0 -0.25812400808E+02 -0.77946507256E+00 -0.15793945098E+02  0.94818952727E+02  0.89857094840E+02 0.  0.
         13    1    3    3    0    0 -0.44607642922E+02  0.21392106895E+02 -0.34446048649E+02  0.60282712912E+02  0.10566000000E+00 0. -1.
         22    1    1    0    0    0  0.25812400808E+02  0.77946507256E+00  0.15793945098E+02  0.30271047273E+02  0.00000000000E+00 0. -1.
</event>
<event>
 5    1  0.1254921E-009  0.9118800E+02  0.7561462E-02  0.1125453E+00
         25   -1    0    0    0    0  0.00000000000E+00  0.00000000000E+00  0.99999998245E-14  0.12509000000E+03  0.12509000000E+03 0.  0.
        -13    1    3    3    0    0  0.86250568913E+01  0.20449274011E+02  0.25649802251E+02  0.33918843340E+02  0.10566000000E+00 0.  1.
         23    2    1    0    0    0 -0.90509428302E+01  0.69334483324E+01 -0.29540303459E+02  0.93425796230E+02  0.87896288892E+02 0.  0.
         13    1    3    3    0    0 -0.17675999722E+02 -0.13515825679E+02 -0.55190105711E+02  0.59506952890E+02  0.10566000000E+00 0. -1.
         22    1    1    0    0    0  0.90509428302E+01 -0.69334483324E+01  0.29540303459E+02  0.31664203770E+02  0.00000000000E+00 0. -1.
</event>
<event>
 5    1  0.1254921E-009  0.9118800E+02  0.7561462E-02  0.1125453E+00
         25   -1    0    0    0    0  0.00000000000E+00  0.00000000000E+00  0.99999998245E-14  0.12509000000E+03  0.12509000000E+03 0.  0.
        -13    1    3    3    0    0  0.26506092477E+02  0.12922302905E+02  0.45459899387E+02  0.54186460182E+02  0.10566000000E+00 0. -1.
         23    2    1    0    0    0  0.93148874622E+01 -0.15873244809E+02  0.26840789865E+02  0.92545337922E+02  0.86634199606E+02 0.  0.
         13    1    3    3    0    0 -0.17191205015E+02 -0.28795547714E+02 -0.18619109522E+02  0.38358877740E+02  0.10566000000E+00 0.  1.
         22    1    1    0    0    0 -0.93148874622E+01  0.15873244809E+02 -0.26840789865E+02  0.32544662078E+02  0.00000000000E+00 0. -1.
</event>
<event>
 5    1  0.1254921E-009  0.9118800E+02  0.7561462E-02  0.1125453E+00
         25   -1    0    0    0    0  0.00000000000E+00  0.00000000000E+00  0.99999998245E-14  0.12509000000E+03  0.12509000000E+03 0.  0.
        -13    1    3    3    0    0 -0.35441304885E+02 -0.31094077368E+02 -0.36611565890E+02  0.59693765673E+02  0.10566000000E+00 0. -1.
         23    2    1    0    0    0 -0.25191484752E+02 -0.14070372325E+02 -0.69270006349E+01  0.95415606676E+02  0.90683892605E+02 0.  0.
         13    1    3    3    0    0  0.10249820132E+02  0.17023705044E+02  0.29684565255E+02  0.35721841002E+02  0.10566000000E+00 0.  1.
         22    1    1    0    0    0  0.25191484752E+02  0.14070372325E+02  0.69270006349E+01  0.29674393324E+02  0.00000000000E+00 0. -1.
</event>
<event>
 5    1  0.1254921E-009  0.9118800E+02  0.7561462E-02  0.1125453E+00
         25   -1    0    0    0    0  0.00000000000E+00  0.00000000000E+00  0.99999998245E-14  0.12509000000E+03  0.12509000000E+03 0.  0.
        -13    1    3    3    0    0 -0.10883759991E+02 -0.29610400537E+02 -0.13363209851E+02  0.34261036077E+02  0.10566000000E+00 0.  1.
         23    2    1    0    0    0  0.12548066911E+02  0.19946104837E+02  0.16153898028E+02  0.96519919446E+02  0.92194605846E+02 0.  0.
         13    1    3    3    0    0  0.23431826902E+02  0.49556505374E+02  0.29517107879E+02  0.62258883369E+02  0.10566000000E+00 0. -1.
         22    1    1    0    0    0 -0.12548066911E+02 -0.19946104837E+02 -0.16153898028E+02  0.28570080554E+02  0.00000000000E+00 0. -1.
</event>
<event>
 5    1  0.1254921E-009  0.9118800E+02  0.7561462E-02  0.1125453E+00
         25   -1    0    0    0    0  0.00000000000E+00  0.00000000000E+00  0.99999998245E-14  0.12509000000E+03  0.12509000000E+03 0.  0.
        -13    1    3    3    0    0 -0.54096288173E+02  0.59939199433E+01 -0.27809054032E+01  0.54498440981E+02  0.10566000000E+00 0.  1.
         23    2    1    0    0    0 -0.20018922559E+02  0.78132255385E+01 -0.22552609128E+02  0.93938371917E+02  0.88622761107E+02 0.  0.
         13    1    3    3    0    0  0.34077365614E+02  0.18193055952E+01 -0.19771703725E+02  0.39439930936E+02  0.10566000000E+00 0. -1.
         22    1    1    0    0    0  0.20018922559E+02 -0.78132255385E+01  0.22552609128E+02  0.31151628083E+02  0.00000000000E+00 0.  1.
</event>
<event>
 5    1  0.1254921E-009  0.9118800E+02  0.7561462E-02  0.1125453E+00
         25   -1    0    0    0    0  0.00000000000E+00  0.00000000000E+00  0.99999998245E-14  0.12509000000E+03  0.12509000000E+03 0.  0.
        -13    1    3    3    0    0  0.22094906029E+02  0.41572946550E+02  0.12885371283E+02  0.48811256021E+02  0.10566000000E+00 0.  1.
         23    2    1    0    0    0 -0.11788627096E+02  0.16488568151E+02  0.25217395487E+02  0.92736304020E+02  0.86909495682E+02 0.  0.
         13    1    3    3    0    0 -0.33883533125E+02 -0.25084378399E+02  0.12332024203E+02  0.43925047998E+02  0.10566000000E+00 0. -1.
         22    1    1    0    0    0  0.11788627096E+02 -0.16488568151E+02 -0.25217395487E+02  0.32353695980E+02  0.00000000000E+00 0.  1.
</event>
<event>
 5    1  0.1254921E-009  0.9118800E+02  0.7561462E-02  0.1125453E+00
         25   -1    0    0    0    0  0.00000000000E+00  0.00000000000E+00  0.99999998245E-14  0.12509000000E+03  0.12509000000E+03 0.  0.
        -13    1    3    3    0    0 -0.29497396448E+02  0.79655420422E+01  0.19501318994E+02  0.36247191115E+02  0.10566000000E+00 0.  1.
         23    2    1    0    0    0 -0.16722811428E+01 -0.33595635359E+02 -0.34475673429E+01  0.91276556520E+02  0.84782432202E+02 0.  0.
         13    1    3    3    0    0  0.27825115305E+02 -0.41561177401E+02 -0.22948886337E+02  0.55029365405E+02  0.10566000000E+00 0. -1.
         22    1    1    0    0    0  0.16722811428E+01  0.33595635359E+02  0.34475673429E+01  0.33813443480E+02  0.00000000000E+00 0. -1.
</event>
<event>
 5    1  0.1254921E-009  0.9118800E+02  0.7561462E-02  0.1125453E+00
         25   -1    0    0    0    0  0.00000000000E+00  0.00000000000E+00  0.99999998245E-14  0.12509000000E+03  0.12509000000E+03 0.  0.
        -13    1    3    3    0    0 -0.16714167463E+02  0.33623149161E+02 -0.13768219136E+02  0.39993181615E+02  0.10566000000E+00 0.  1.
         23    2    1    0    0    0 -0.53479046736E+01 -0.20208389074E+02 -0.20969397486E+02  0.95480969211E+02  0.90774009370E+02 0.  0.
         13    1    3    3    0    0  0.11366262789E+02 -0.53831538235E+02 -0.72011783498E+01  0.55487787595E+02  0.10566000000E+00 0. -1.
         22    1    1    0    0    0  0.53479046736E+01  0.20208389074E+02  0.20969397486E+02  0.29609030789E+02  0.00000000000E+00 0. -1.
</event>
<event>
 5    1  0.1254921E-009  0.9118800E+02  0.7561462E-02  0.1125453E+00
         25   -1    0    0    0    0  0.00000000000E+00  0.00000000000E+00  0.99999998245E-14  0.12509000000E+03  0.12509000000E+03 0.  0.
        -13    1    3    3    0    0 -0.15199555678E+02 -0.31689548894E+02  0.47935582434E+02  0.59439761349E+02  0.10566000000E+00 0.  1.
         23    2    1    0    0    0  0.62836572691E+01 -0.17867651222E+02  0.24633122950E+02  0.94017052680E+02  0.88733748594E+02 0.  0.
         13    1    3    3    0    0  0.21483212947E+02  0.13821897672E+02 -0.23302459484E+02  0.34577291331E+02  0.10566000000E+00 0. -1.
         22    1    1    0    0    0 -0.62836572691E+01  0.17867651222E+02 -0.24633122950E+02  0.31072947320E+02  0.00000000000E+00 0.  1.
</event>
<event>
 5    1  0.1254921E-009  0.9118800E+02  0.7561462E-02  0.1125453E+00
         25   -1    0    0    0    0  0.00000000000E+00  0.00000000000E+00  0.99999998245E-14  0.12509000000E+03  0.12509000000E+03 0.  0.
        -13    1    3    3    0    0 -0.30708210413E+02  0.37513909842E+02 -0.57404842420E+01  0.48818561447E+02  0.10566000000E+00 0.  1.
         23    2    1    0    0    0 -0.20791996402E+02 -0.12749829249E+02  0.19372485545E+01  0.10062332486E+03  0.97603459541E+02 0.  0.
         13    1    3    3    0    0  0.99162140115E+01 -0.50263739091E+02  0.76777327965E+01  0.51804763417E+02  0.10566000000E+00 0. -1.
         22    1    1    0    0    0  0.20791996402E+02  0.12749829249E+02 -0.19372485545E+01  0.24466675136E+02  0.00000000000E+00 0.  1.
</event>
<event>
 5    1  0.1254921E-009  0.9118800E+02  0.7561462E-02  0.1125453E+00
         25   -1    0    0    0    0  0.00000000000E+00  0.00000000000E+00  0.99999998245E-14  0.12509000000E+03  0.12509000000E+03 0.  0.
        -13    1    3    3    0    0  0.23554476397E+01 -0.35299536424E+02 -0.24601880010E+02  0.43091403660E+02  0.10566000000E+00 0.  1.
         23    2    1    0    0    0 -0.18318422835E+02 -0.10984125386E+02  0.18574752077E+02  0.96783869209E+02  0.92552041029E+02 0.  0.
         13    1    3    3    0    0 -0.20673870474E+02  0.24315411037E+02  0.43176632087E+02  0.53692465549E+02  0.10566000000E+00 0. -1.
         22    1    1    0    0    0  0.18318422835E+02  0.10984125386E+02 -0.18574752077E+02  0.28306130791E+02  0.00000000000E+00 0.  1.
</event>
<event>
 5    1  0.1254921E-009  0.9118800E+02  0.7561462E-02  0.1125453E+00
         25   -1    0    0    0    0  0.00000000000E+00  0.00000000000E+00  0.99999998245E-14  0.12509000000E+03  0.12509000000E+03 0.  0.
        -13    1    3    3    0    0  0.13760378918E+02  0.24164069056E+02  0.19731152585E+02  0.34096624579E+02  0.10566000000E+00 0. -1.
         23    2    1    0    0    0 -0.13451480810E+02 -0.40389819414E+01 -0.26739342748E+02  0.94886553811E+02  0.89951153035E+02 0.  0.
         13    1    3    3    0    0 -0.27211859728E+02 -0.28203050998E+02 -0.46470495333E+02  0.60789929232E+02  0.10566000000E+00 0.  1.
         22    1    1    0    0    0  0.13451480810E+02  0.40389819414E+01  0.26739342748E+02  0.30203446189E+02  0.00000000000E+00 0.  1.
</event>
<event>
 5    1  0.1254921E-009  0.9118800E+02  0.7561462E-02  0.1125453E+00
         25   -1    0    0    0    0  0.00000000000E+00  0.00000000000E+00  0.99999998245E-14  0.12509000000E+03  0.12509000000E+03 0.  0.
        -13    1    3    3    0    0  0.21825037769E+02  0.27248440988E+02  0.38526425058E+02  0.51991406999E+02  0.10566000000E+00 0.  1.
         23    2    1    0    0    0 -0.11991666581E+02  0.10588902960E+01  0.25804405117E+02  0.96615649446E+02  0.92324401316E+02 0.  0.
         13    1    3    3    0    0 -0.33816704350E+02 -0.26189550692E+02 -0.12722019941E+02  0.44624242447E+02  0.10566000000E+00 0. -1.
         22    1    1    0    0    0  0.11991666581E+02 -0.10588902960E+01 -0.25804405117E+02  0.28474350554E+02  0.00000000000E+00 0. -1.
</event>
<event>
 5    1  0.1254921E-009  0.9118800E+02  0.7561462E-02  0.1125453E+00
         25   -1    0    0    0    0  0.00000000000E+00  0.00000000000E+00  0.99999998245E-14  0.12509000000E+03  0.12509000000E+03 0.  0.
        -13    1    3    3    0    0  0.12188115037E+02  0.48135002100E+02  0.14019368443E+02  0.51595372185E+02  0.10566000000E+00 0. -1.
         23    2    1    0    0    0 -0.91228312306E+01  0.10440630047E+02  0.25209298530E+02  0.96319502301E+02  0.91922276874E+02 0.  0.
         13    1    3    3    0    0 -0.21310946268E+02 -0.37694372053E+02  0.11189930087E+02  0.44724130116E+02  0.10566000000E+00 0.  1.
         22    1    1    0    0    0  0.91228312306E+01 -0.10440630047E+02 -0.25209298530E+02  0.28770497699E+02  0.00000000000E+00 0. -1.
</event>
<event>
 5    1  0.1254921E-009  0.9118800E+02  0.7561462E-02  0.1125453E+00
         25   -1    0    0    0    0  0.00000000000E+00  0.00000000000E+00  0.99999998245E-14  0.12509000000E+03  0.12509000000E+03 0.  0.
        -13    1    3    3    0    0  0.39454366547E+02  0.13065922288E+02  0.41981729521E+02  0.59074885886E+02  0.10566000000E+00 0. -1.
         23    2    1    0    0    0  0.13136243246E+02 -0.58322026343E+01  0.26408360092E+02  0.95023790446E+02  0.90141798261E+02 0.  0.
         13    1    3    3    0    0 -0.26318123301E+02 -0.18898124923E+02 -0.15573369428E+02  0.35948904560E+02  0.10566000000E+00 0.  1.
         22    1    1    0    0    0 -0.13136243246E+02  0.58322026343E+01 -0.26408360092E+02  0.30066209554E+02  0.00000000000E+00 0. -1.
</event>
<event>
 5    1  0.1254921E-009  0.9118800E+02  0.7561462E-02  0.1125453E+00
         25   -1    0    0    0    0  0.00000000000E+00  0.00000000000E+00  0.99999998245E-14  0.12509000000E+03  0.12509000000E+03 0.  0.
        -13    1    3    3    0    0 -0.30593765797E+02 -0.14980628800E+02 -0.39802687632E+02  0.52389529981E+02  0.10566000000E+00 0.  1.
         23    2    1    0    0    0 -0.26708714719E+02 -0.11692929876E+02  0.32601111784E+01  0.95752168180E+02  0.91146965584E+02 0.  0.
         13    1    3    3    0    0  0.38850510778E+01  0.32876989243E+01  0.43062798811E+02  0.43362638198E+02  0.10566000000E+00 0. -1.
         22    1    1    0    0    0  0.26708714719E+02  0.11692929876E+02 -0.32601111784E+01  0.29337831820E+02  0.00000000000E+00 0. -1.
</event>
<event>
 4    1  0.1254921E-009  0.9118800E+02  0.7561462E-02  0.1125453E+00
         25   -1    0    0    0    0  0.00000000000E+00  0.00000000000E+00  0.99999998245E-14  0.12509000000E+03  0.12509000000E+03 0.  0.
        -13    1    1    0    0    0 -0.21751391115E+02 -0.15709031721E+02 -0.16220998823E+01  0.26880086777E+02  0.10566000000E+00 0.  1.
         13    1    1    0    0    0 -0.28081748933E+02  0.11944522432E+02 -0.26889829318E+02  0.40673459701E+02  0.10566000000E+00 0. -1.
         22    1    1    0    0    0  0.49833140048E+02  0.37645092894E+01  0.28511929200E+02  0.57536453523E+02  0.00000000000E+00 0. -1.
</event>
<event>
 5    1  0.1254921E-009  0.9118800E+02  0.7561462E-02  0.1125453E+00
         25   -1    0    0    0    0  0.00000000000E+00  0.00000000000E+00  0.99999998245E-14  0.12509000000E+03  0.12509000000E+03 0.  0.
        -13    1    3    3    0    0 -0.27047159098E+02 -0.73143755634E+01  0.21357018141E+02  0.35230417157E+02  0.10566000000E+00 0.  1.
         23    2    1    0    0    0  0.33575202465E+01  0.75025555087E+01 -0.28472497096E+02  0.95454811925E+02  0.90737956486E+02 0.  0.
         13    1    3    3    0    0  0.30404679344E+02  0.14816931072E+02 -0.49829515237E+02  0.60224394768E+02  0.10566000000E+00 0. -1.
         22    1    1    0    0    0 -0.33575202465E+01 -0.75025555087E+01  0.28472497096E+02  0.29635188075E+02  0.00000000000E+00 0. -1.
</event>
<event>
 5    1  0.1254921E-009  0.9118800E+02  0.7561462E-02  0.1125453E+00
         25   -1    0    0    0    0  0.00000000000E+00  0.00000000000E+00  0.99999998245E-14  0.12509000000E+03  0.12509000000E+03 0.  0.
        -13    1    3    3    0    0  0.35782364727E+02  0.31601000783E+02 -0.20613169034E+02  0.51999180547E+02  0.10566000000E+00 0.  1.
         23    2    1    0    0    0 -0.63522184329E+01  0.26317689666E+02 -0.12662357923E+02  0.95201761903E+02  0.90388432295E+02 0.  0.
         13    1    3    3    0    0 -0.42134583160E+02 -0.52833111166E+01  0.79508111111E+01  0.43202581355E+02  0.10566000000E+00 0. -1.
         22    1    1    0    0    0  0.63522184329E+01 -0.26317689666E+02  0.12662357923E+02  0.29888238097E+02  0.00000000000E+00 0.  1.
</event>
<event>
 5    1  0.1254921E-009  0.9118800E+02  0.7561462E-02  0.1125453E+00
         25   -1    0    0    0    0  0.00000000000E+00  0.00000000000E+00  0.99999998245E-14  0.12509000000E+03  0.12509000000E+03 0.  0.
        -13    1    3    3    0    0 -0.28173574213E+02 -0.10570385734E+02 -0.24794332453E+01  0.30193411397E+02  0.10566000000E+00 0.  1.
         23    2    1    0    0    0 -0.25530671398E+02  0.27017571262E+02 -0.30382652632E+02  0.77080939190E+02  0.60304239209E+02 0.  0.
         13    1    3    3    0    0  0.26429028149E+01  0.37587956996E+02 -0.27903219386E+02  0.46887527793E+02  0.10566000000E+00 0. -1.
         22    1    1    0    0    0  0.25530671398E+02 -0.27017571262E+02  0.30382652632E+02  0.48009060810E+02  0.00000000000E+00 0. -1.
</event>
<event>
 5    1  0.1254921E-009  0.9118800E+02  0.7561462E-02  0.1125453E+00
         25   -1    0    0    0    0  0.00000000000E+00  0.00000000000E+00  0.99999998245E-14  0.12509000000E+03  0.12509000000E+03 0.  0.
        -13    1    3    3    0    0 -0.21911390112E+02 -0.35344856597E+02 -0.32624522841E+02  0.52855828053E+02  0.10566000000E+00 0. -1.
         23    2    1    0    0    0 -0.15470596508E+02  0.55708147190E+01 -0.25296992967E+02  0.94918636323E+02  0.89995757318E+02 0.  0.
         13    1    3    3    0    0  0.64407936040E+01  0.40915671316E+02  0.73275298733E+01  0.42062808270E+02  0.10566000000E+00 0.  1.
         22    1    1    0    0    0  0.15470596508E+02 -0.55708147190E+01  0.25296992967E+02  0.30171363677E+02  0.00000000000E+00 0. -1.
</event>
<event>
 5    1  0.1254921E-009  0.9118800E+02  0.7561462E-02  0.1125453E+00
         25   -1    0    0    0    0  0.00000000000E+00  0.00000000000E+00  0.99999998245E-14  0.12509000000E+03  0.12509000000E+03 0.  0.
        -13    1    3    3    0    0 -0.23358896523E+02 -0.21280147942E+02 -0.47589020889E+01  0.31955297781E+02  0.10566000000E+00 0.  1.
         23    2    1    0    0    0  0.21459303583E+02  0.20256032854E+02  0.82883807688E+01  0.94438640600E+02  0.89326093642E+02 0.  0.
         13    1    3    3    0    0  0.44818200106E+02  0.41536180796E+02  0.13047282858E+02  0.62483342819E+02  0.10566000000E+00 0. -1.
         22    1    1    0    0    0 -0.21459303583E+02 -0.20256032854E+02 -0.82883807688E+01  0.30651359400E+02  0.00000000000E+00 0. -1.
</event>
<event>
 5    1  0.1254921E-009  0.9118800E+02  0.7561462E-02  0.1125453E+00
         25   -1    0    0    0    0  0.00000000000E+00  0.00000000000E+00  0.99999998245E-14  0.12509000000E+03  0.12509000000E+03 0.  0.
        -13    1    3    3    0    0  0.73562672081E+01 -0.42007602139E+02  0.24547133636E+02  0.49206973474E+02  0.10566000000E+00 0. -1.
         23    2    1    0    0    0  0.17226185588E+02 -0.19183117751E+02 -0.14507262988E+02  0.95506319432E+02  0.90808936209E+02 0.  0.
         13    1    3    3    0    0  0.98699183798E+01  0.22824484388E+02 -0.39054396624E+02  0.46299345957E+02  0.10566000000E+00 0.  1.
         22    1    1    0    0    0 -0.17226185588E+02  0.19183117751E+02  0.14507262988E+02  0.29583680568E+02  0.00000000000E+00 0. -1.
</event>
<event>
 5    1  0.1254921E-009  0.9118800E+02  0.7561462E-02  0.1125453E+00
         25   -1    0    0    0    0  0.00000000000E+00  0.00000000000E+00  0.99999998245E-14  0.12509000000E+03  0.12509000000E+03 0.  0.
        -13    1    3    3    0    0 -0.20150822211E+02 -0.30782472042E+02  0.10492891568E+02  0.38258700426E+02  0.10566000000E+00 0.  1.
         23    2    1    0    0    0 -0.16497343256E+02  0.25076055067E+02  0.84555123257E+00  0.95061915994E+02  0.90194689662E+02 0.  0.
         13    1    3    3    0    0  0.36534789555E+01  0.55858527109E+02 -0.96473403352E+01  0.56803215568E+02  0.10566000000E+00 0. -1.
         22    1    1    0    0    0  0.16497343256E+02 -0.25076055067E+02 -0.84555123257E+00  0.30028084006E+02  0.00000000000E+00 0. -1.
</event>
<event>
 5    1  0.1254921E-009  0.9118800E+02  0.7561462E-02  0.1125453E+00
         25   -1    0    0    0    0  0.00000000000E+00  0.00000000000E+00  0.99999998245E-14  0.12509000000E+03  0.12509000000E+03 0.  0.
        -13    1    3    3    0    0 -0.15922342215E+02  0.51597312282E+02 -0.26226022717E+02  0.60030151157E+02  0.10566000000E+00 0.  1.
         23    2    1    0    0    0 -0.17379046223E+02  0.16885213123E+02 -0.15224017453E+02  0.96473354892E+02  0.92131405215E+02 0.  0.
         13    1    3    3    0    0 -0.14567040074E+01 -0.34712099159E+02  0.11002005264E+02  0.36443203735E+02  0.10566000000E+00 0. -1.
         22    1    1    0    0    0  0.17379046223E+02 -0.16885213123E+02  0.15224017453E+02  0.28616645108E+02  0.00000000000E+00 0.  1.
</event>
<event>
 5    1  0.1254921E-009  0.9118800E+02  0.7561462E-02  0.1125453E+00
         25   -1    0    0    0    0  0.00000000000E+00  0.00000000000E+00  0.99999998245E-14  0.12509000000E+03  0.12509000000E+03 0.  0.
        -13    1    3    3    0    0  0.22007695164E+02 -0.87802844266E+01 -0.29342158411E+02  0.37714791068E+02  0.10566000000E+00 0.  1.
         23    2    1    0    0    0  0.13201724916E+02  0.18390401766E+02  0.20101387691E+02  0.94815287698E+02  0.89851992612E+02 0.  0.
         13    1    3    3    0    0 -0.88059702482E+01  0.27170686192E+02  0.49443546102E+02  0.57100496630E+02  0.10566000000E+00 0. -1.
         22    1    1    0    0    0 -0.13201724916E+02 -0.18390401766E+02 -0.20101387691E+02  0.30274712302E+02  0.00000000000E+00 0. -1.
</event>
<event>
 5    1  0.1254921E-009  0.9118800E+02  0.7561462E-02  0.1125453E+00
         25   -1    0    0    0    0  0.00000000000E+00  0.00000000000E+00  0.99999998245E-14  0.12509000000E+03  0.12509000000E+03 0.  0.
        -13    1    3    3    0    0 -0.32514449898E+02 -0.28386070778E+02 -0.32129153906E+02  0.53807547437E+02  0.10566000000E+00 0.  1.
         23    2    1    0    0    0 -0.26126028791E+02 -0.14978326700E+02  0.56931427143E+01  0.94441484129E+02  0.89330075559E+02 0.  0.
         13    1    3    3    0    0  0.63884211076E+01  0.13407744078E+02  0.37822296620E+02  0.40633936693E+02  0.10566000000E+00 0. -1.
         22    1    1    0    0    0  0.26126028791E+02  0.14978326700E+02 -0.56931427143E+01  0.30648515871E+02  0.00000000000E+00 0.  1.
</event>
<event>
 5    1  0.1254921E-009  0.9118800E+02  0.7561462E-02  0.1125453E+00
         25   -1    0    0    0    0  0.00000000000E+00  0.00000000000E+00  0.99999998245E-14  0.12509000000E+03  0.12509000000E+03 0.  0.
        -13    1    3    3    0    0  0.30526638890E+02 -0.26429107158E+02  0.94758984824E+01  0.41475019026E+02  0.10566000000E+00 0. -1.
         23    2    1    0    0    0 -0.21378357445E+02 -0.40757005663E+01  0.15590333212E+02  0.98318672207E+02  0.94603685513E+02 0.  0.
         13    1    3    3    0    0 -0.51904996335E+02  0.22353406592E+02  0.61144347298E+01  0.56843653181E+02  0.10566000000E+00 0.  1.
         22    1    1    0    0    0  0.21378357445E+02  0.40757005663E+01 -0.15590333212E+02  0.26771327793E+02  0.00000000000E+00 0.  1.
</event>
<event>
 5    1  0.1254921E-009  0.9118800E+02  0.7561462E-02  0.1125453E+00
         25   -1    0    0    0    0  0.00000000000E+00  0.00000000000E+00  0.99999998245E-14  0.12509000000E+03  0.12509000000E+03 0.  0.
        -13    1    3    3    0    0  0.29048960876E+02  0.22230283939E+02 -0.42443387947E+02  0.56031062782E+02  0.10566000000E+00 0. -1.
         23    2    1    0    0    0 -0.46003052064E+00  0.24252775934E+02 -0.13916966069E+02  0.97124115191E+02  0.93010768401E+02 0.  0.
         13    1    3    3    0    0 -0.29508991396E+02  0.20224919946E+01  0.28526421878E+02  0.41093052409E+02  0.10566000000E+00 0.  1.
         22    1    1    0    0    0  0.46003052064E+00 -0.24252775934E+02  0.13916966069E+02  0.27965884809E+02  0.00000000000E+00 0. -1.
</event>
<event>
 5    1  0.1254921E-009  0.9118800E+02  0.7561462E-02  0.1125453E+00
         25   -1    0    0    0    0  0.00000000000E+00  0.00000000000E+00  0.99999998245E-14  0.12509000000E+03  0.12509000000E+03 0.  0.
        -13    1    3    3    0    0 -0.76867004984E+01 -0.20374369666E+02  0.47266683461E+02  0.52041818120E+02  0.10566000000E+00 0. -1.
         23    2    1    0    0    0  0.16461373333E+02  0.73166338240E+01  0.95306548897E+01  0.10471002637E+03  0.10270757663E+03 0.  0.
         13    1    3    3    0    0  0.24148073831E+02  0.27691003490E+02 -0.37736028571E+02  0.52668208251E+02  0.10566000000E+00 0.  1.
         22    1    1    0    0    0 -0.16461373333E+02 -0.73166338240E+01 -0.95306548897E+01  0.20379973629E+02  0.00000000000E+00 0.  1.
</event>
<event>
 5    1  0.1254921E-009  0.9118800E+02  0.7561462E-02  0.1125453E+00
         25   -1    0    0    0    0  0.00000000000E+00  0.00000000000E+00  0.99999998245E-14  0.12509000000E+03  0.12509000000E+03 0.  0.
        -13    1    3    3    0    0  0.25620219776E+01  0.33338868282E+02  0.66314298491E+01  0.34088577571E+02  0.10566000000E+00 0.  1.
         23    2    1    0    0    0 -0.10597076482E+02 -0.26867558857E+02  0.52688522165E+01  0.95731448391E+02  0.91118525331E+02 0.  0.
         13    1    3    3    0    0 -0.13159098460E+02 -0.60206427139E+02 -0.13625776326E+01  0.61642870820E+02  0.10566000000E+00 0. -1.
         22    1    1    0    0    0  0.10597076482E+02  0.26867558857E+02 -0.52688522165E+01  0.29358551609E+02  0.00000000000E+00 0. -1.
</event>
<event>
 5    1  0.1254921E-009  0.9118800E+02  0.7561462E-02  0.1125453E+00
         25   -1    0    0    0    0  0.00000000000E+00  0.00000000000E+00  0.99999998245E-14  0.12509000000E+03  0.12509000000E+03 0.  0.
        -13    1    3    3    0    0  0.13137904395E+02 -0.41635591108E+02  0.53429287562E+01  0.43985054627E+02  0.10566000000E+00 0.  1.
         23    2    1    0    0    0  0.20320965465E+02 -0.20593933738E+01  0.28216407425E+02  0.90256849317E+02  0.83264340880E+02 0.  0.
         13    1    3    3    0    0  0.71830610701E+01  0.39576197734E+02  0.22873478669E+02  0.46271794690E+02  0.10566000000E+00 0. -1.
         22    1    1    0    0    0 -0.20320965465E+02  0.20593933738E+01 -0.28216407425E+02  0.34833150683E+02  0.00000000000E+00 0.  1.
</event>
<event>
 5    1  0.1254921E-009  0.9118800E+02  0.7561462E-02  0.1125453E+00
         25   -1    0    0    0    0  0.00000000000E+00  0.00000000000E+00  0.99999998245E-14  0.12509000000E+03  0.12509000000E+03 0.  0.
        -13    1    3    3    0    0 -0.18220972818E+02  0.30255916905E+02 -0.30692670796E+02  0.46791832224E+02  0.10566000000E+00 0. -1.
         23    2    1    0    0    0 -0.41902111592E+01 -0.16056971952E+02 -0.24386621096E+02  0.95592686456E+02  0.90927829610E+02 0.  0.
         13    1    3    3    0    0  0.14030761659E+02 -0.46312888857E+02  0.63060497003E+01  0.48800854233E+02  0.10566000000E+00 0.  1.
         22    1    1    0    0    0  0.41902111592E+01  0.16056971952E+02  0.24386621096E+02  0.29497313544E+02  0.00000000000E+00 0.  1.
</event>
<event>
 5    1  0.1254921E-009  0.9118800E+02  0.7561462E-02  0.1125453E+00
         25   -1    0    0    0    0  0.00000000000E+00  0.00000000000E+00  0.99999998245E-14  0.12509000000E+03  0.12509000000E+03 0.  0.
        -13    1    3    3    0    0  0.23721169402E+02  0.12728282830E+02 -0.54202557915E+02  0.60519678701E+02  0.10566000000E+00 0.  1.
         23    2    1    0    0    0  0.17154404519E+02 -0.32982421230E+01 -0.22982834665E+02  0.96221978164E+02  0.91789467789E+02 0.  0.
         13    1    3    3    0    0 -0.65667648825E+01 -0.16026524953E+02  0.31219723250E+02  0.35702299462E+02  0.10566000000E+00 0. -1.
         22    1    1    0    0    0 -0.17154404519E+02  0.32982421230E+01  0.22982834665E+02  0.28868021836E+02  0.00000000000E+00 0.  1.
</event>
<event>
 5    1  0.1254921E-009  0.9118800E+02  0.7561462E-02  0.1125453E+00
         25   -1    0    0    0    0  0.00000000000E+00  0.00000000000E+00  0.99999998245E-14  0.12509000000E+03  0.12509000000E+03 0.  0.
        -13    1    3    3    0    0  0.17307194023E+02 -0.84808790551E+00 -0.32438317224E+02  0.36776538804E+02  0.10566000000E+00 0.  1.
         23    2    1    0    0    0  0.12340344348E+02  0.25266593352E+01  0.26356937817E+02  0.95877737556E+02  0.91319134259E+02 0.  0.
         13    1    3    3    0    0 -0.49668496748E+01  0.33747472407E+01  0.58795255040E+02  0.59101198752E+02  0.10566000000E+00 0. -1.
         22    1    1    0    0    0 -0.12340344348E+02 -0.25266593352E+01 -0.26356937817E+02  0.29212262444E+02  0.00000000000E+00 0. -1.
</event>
<event>
 5    1  0.1254921E-009  0.9118800E+02  0.7561462E-02  0.1125453E+00
         25   -1    0    0    0    0  0.00000000000E+00  0.00000000000E+00  0.99999998245E-14  0.12509000000E+03  0.12509000000E+03 0.  0.
        -13    1    3    3    0    0 -0.53687606824E+02 -0.20190002969E+01 -0.19671088526E+02  0.57213620551E+02  0.10566000000E+00 0.  1.
         23    2    1    0    0    0 -0.23955645658E+02 -0.17145623532E+02 -0.63047871742E+00  0.95624038814E+02  0.90970951026E+02 0.  0.
         13    1    3    3    0    0  0.29731961166E+02 -0.15126623235E+02  0.19040609809E+02  0.38410418264E+02  0.10566000000E+00 0. -1.
         22    1    1    0    0    0  0.23955645658E+02  0.17145623532E+02  0.63047871742E+00  0.29465961186E+02  0.00000000000E+00 0.  1.
</event>
<event>
 5    1  0.1254921E-009  0.9118800E+02  0.7561462E-02  0.1125453E+00
         25   -1    0    0    0    0  0.00000000000E+00  0.00000000000E+00  0.99999998245E-14  0.12509000000E+03  0.12509000000E+03 0.  0.
        -13    1    3    3    0    0  0.69164719582E+01  0.30266450847E+02  0.18269382192E+02  0.36023285815E+02  0.10566000000E+00 0.  1.
         23    2    1    0    0    0 -0.59865259691E+01 -0.27227174361E+02  0.97330627506E+01  0.95562216010E+02  0.90885901554E+02 0.  0.
         13    1    3    3    0    0 -0.12902997927E+02 -0.57493625208E+02 -0.85363194409E+01  0.59538930195E+02  0.10566000000E+00 0. -1.
         22    1    1    0    0    0  0.59865259691E+01  0.27227174361E+02 -0.97330627506E+01  0.29527783990E+02  0.00000000000E+00 0. -1.
</event>
<event>
 5    1  0.1254921E-009  0.9118800E+02  0.7561462E-02  0.1125453E+00
         25   -1    0    0    0    0  0.00000000000E+00  0.00000000000E+00  0.99999998245E-14  0.12509000000E+03  0.12509000000E+03 0.  0.
        -13    1    3    3    0    0  0.15191729325E+02  0.43177747480E+02 -0.26529771697E+01  0.45849274468E+02  0.10566000000E+00 0.  1.
         23    2    1    0    0    0 -0.22839746789E+02  0.19884548689E+02 -0.13787582685E+02  0.91816185277E+02  0.85574909480E+02 0.  0.
         13    1    3    3    0    0 -0.38031476114E+02 -0.23293198790E+02 -0.11134605516E+02  0.45966910809E+02  0.10566000000E+00 0. -1.
         22    1    1    0    0    0  0.22839746789E+02 -0.19884548689E+02  0.13787582685E+02  0.33273814723E+02  0.00000000000E+00 0.  1.
</event>
<event>
 5    1  0.1254921E-009  0.9118800E+02  0.7561462E-02  0.1125453E+00
         25   -1    0    0    0    0  0.00000000000E+00  0.00000000000E+00  0.99999998245E-14  0.12509000000E+03  0.12509000000E+03 0.  0.
        -13    1    3    3    0    0 -0.39084741854E+02  0.11392629603E+01  0.13870026693E+02  0.41488598077E+02  0.10566000000E+00 0. -1.
         23    2    1    0    0    0  0.42019841064E+00 -0.27488770195E+02 -0.10042620749E+02  0.95821189211E+02  0.91241640804E+02 0.  0.
         13    1    3    3    0    0  0.39504940264E+02 -0.28628033155E+02 -0.23912647442E+02  0.54332591134E+02  0.10566000000E+00 0.  1.
         22    1    1    0    0    0 -0.42019841064E+00  0.27488770195E+02  0.10042620749E+02  0.29268810789E+02  0.00000000000E+00 0.  1.
</event>
<event>
 5    1  0.1254921E-009  0.9118800E+02  0.7561462E-02  0.1125453E+00
         25   -1    0    0    0    0  0.00000000000E+00  0.00000000000E+00  0.99999998245E-14  0.12509000000E+03  0.12509000000E+03 0.  0.
        -13    1    3    3    0    0 -0.26085055287E+02 -0.17966920155E+02  0.48708101601E+02  0.58101038329E+02  0.10566000000E+00 0.  1.
         23    2    1    0    0    0 -0.15494574351E+02 -0.24602359593E+02  0.18929854796E+02  0.90395658466E+02  0.83472616678E+02 0.  0.
         13    1    3    3    0    0  0.10590480936E+02 -0.66354394379E+01 -0.29778246805E+02  0.32294620137E+02  0.10566000000E+00 0. -1.
         22    1    1    0    0    0  0.15494574351E+02  0.24602359593E+02 -0.18929854796E+02  0.34694341534E+02  0.00000000000E+00 0.  1.
</event>
<event>
 5    1  0.1254921E-009  0.9118800E+02  0.7561462E-02  0.1125453E+00
         25   -1    0    0    0    0  0.00000000000E+00  0.00000000000E+00  0.99999998245E-14  0.12509000000E+03  0.12509000000E+03 0.  0.
        -13    1    3    3    0    0 -0.47498440966E+01  0.52306200566E+01  0.46451852004E+02  0.46986233343E+02  0.10566000000E+00 0. -1.
         23    2    1    0    0    0  0.13477661252E+02  0.25695575584E+02  0.66311623687E+01  0.95326225512E+02  0.90560515671E+02 0.  0.
         13    1    3    3    0    0  0.18227505348E+02  0.20464955527E+02 -0.39820689635E+02  0.48339992170E+02  0.10566000000E+00 0.  1.
         22    1    1    0    0    0 -0.13477661252E+02 -0.25695575584E+02 -0.66311623687E+01  0.29763774488E+02  0.00000000000E+00 0. -1.
</event>
<event>
 5    1  0.1254921E-009  0.9118800E+02  0.7561462E-02  0.1125453E+00
         25   -1    0    0    0    0  0.00000000000E+00  0.00000000000E+00  0.99999998245E-14  0.12509000000E+03  0.12509000000E+03 0.  0.
        -13    1    3    3    0    0 -0.16009735390E+02  0.33670788093E+02  0.26483553882E+02  0.45732082703E+02  0.10566000000E+00 0. -1.
         23    2    1    0    0    0  0.24436405218E+02  0.94756603644E+01  0.21001625962E+01  0.98796717165E+02  0.95233684168E+02 0.  0.
         13    1    3    3    0    0  0.40446140608E+02 -0.24195127729E+02 -0.24383391286E+02  0.53064634462E+02  0.10566000000E+00 0.  1.
         22    1    1    0    0    0 -0.24436405218E+02 -0.94756603644E+01 -0.21001625962E+01  0.26293282835E+02  0.00000000000E+00 0.  1.
</event>
<event>
 5    1  0.1254921E-009  0.9118800E+02  0.7561462E-02  0.1125453E+00
         25   -1    0    0    0    0  0.00000000000E+00  0.00000000000E+00  0.99999998245E-14  0.12509000000E+03  0.12509000000E+03 0.  0.
        -13    1    3    3    0    0  0.75709024416E+01 -0.19961292939E+02 -0.23390843004E+02  0.31668825050E+02  0.10566000000E+00 0.  1.
         23    2    1    0    0    0 -0.12083374586E+02  0.25968363063E+02  0.13159035426E+02  0.93569783711E+02  0.88100967014E+02 0.  0.
         13    1    3    3    0    0 -0.19654277028E+02  0.45929656001E+02  0.36549878430E+02  0.61900958661E+02  0.10566000000E+00 0. -1.
         22    1    1    0    0    0  0.12083374586E+02 -0.25968363063E+02 -0.13159035426E+02  0.31520216289E+02  0.00000000000E+00 0. -1.
</event>
<event>
 5    1  0.1254921E-009  0.9118800E+02  0.7561462E-02  0.1125453E+00
         25   -1    0    0    0    0  0.00000000000E+00  0.00000000000E+00  0.99999998245E-14  0.12509000000E+03  0.12509000000E+03 0.  0.
        -13    1    3    3    0    0 -0.13224526309E+02 -0.20335642173E+02 -0.48534463317E+02  0.54258932280E+02  0.10566000000E+00 0.  1.
         23    2    1    0    0    0 -0.18146794735E+02 -0.26245499573E+02 -0.12968646332E+02  0.90647029822E+02  0.83848469401E+02 0.  0.
         13    1    3    3    0    0 -0.49222684266E+01 -0.59098574004E+01  0.35565816984E+02  0.36388097542E+02  0.10566000000E+00 0. -1.
         22    1    1    0    0    0  0.18146794735E+02  0.26245499573E+02  0.12968646332E+02  0.34442970178E+02  0.00000000000E+00 0.  1.
</event>
<event>
 5    1  0.1254921E-009  0.9118800E+02  0.7561462E-02  0.1125453E+00
         25   -1    0    0    0    0  0.00000000000E+00  0.00000000000E+00  0.99999998245E-14  0.12509000000E+03  0.12509000000E+03 0.  0.
        -13    1    3    3    0    0  0.14315031418E+02  0.31629910017E+02  0.94345307782E+01  0.35977671788E+02  0.10566000000E+00 0.  1.
         23    2    1    0    0    0 -0.16496174719E+02 -0.17729208458E+02  0.18167911987E+02  0.94815891609E+02  0.89852833359E+02 0.  0.
         13    1    3    3    0    0 -0.30811206137E+02 -0.49359118476E+02  0.87333812089E+01  0.58838219821E+02  0.10566000000E+00 0. -1.
         22    1    1    0    0    0  0.16496174719E+02  0.17729208458E+02 -0.18167911987E+02  0.30274108391E+02  0.00000000000E+00 0. -1.
</event>
<event>
 5    1  0.1254921E-009  0.9118800E+02  0.7561462E-02  0.1125453E+00
         25   -1    0    0    0    0  0.00000000000E+00  0.00000000000E+00  0.99999998245E-14  0.12509000000E+03  0.12509000000E+03 0.  0.
        -13    1    3    3    0    0 -0.25024616159E+01 -0.10904747368E+02  0.32657700146E+02  0.34521187294E+02  0.10566000000E+00 0.  1.
         23    2    1    0    0    0  0.29984776241E+02  0.11151092674E+02 -0.90884621453E+01  0.91832913263E+02  0.85599358293E+02 0.  0.
         13    1    3    3    0    0  0.32487237857E+02  0.22055840042E+02 -0.41746162291E+02  0.57311725970E+02  0.10566000000E+00 0. -1.
         22    1    1    0    0    0 -0.29984776241E+02 -0.11151092674E+02  0.90884621453E+01  0.33257086737E+02  0.00000000000E+00 0. -1.
</event>
<event>
 5    1  0.1254921E-009  0.9118800E+02  0.7561462E-02  0.1125453E+00
         25   -1    0    0    0    0  0.00000000000E+00  0.00000000000E+00  0.99999998245E-14  0.12509000000E+03  0.12509000000E+03 0.  0.
        -13    1    3    3    0    0  0.84922444285E+01  0.29749907260E+02  0.12396252302E+02  0.33329467931E+02  0.10566000000E+00 0. -1.
         23    2    1    0    0    0  0.93195380375E+01 -0.27966497262E+02 -0.79930248762E+01  0.94547125135E+02  0.89477883671E+02 0.  0.
         13    1    3    3    0    0  0.82729360899E+00 -0.57716404522E+02 -0.20389277178E+02  0.61217657204E+02  0.10566000000E+00 0.  1.
         22    1    1    0    0    0 -0.93195380375E+01  0.27966497262E+02  0.79930248762E+01  0.30542874865E+02  0.00000000000E+00 0.  1.
</event>
<event>
 5    1  0.1254921E-009  0.9118800E+02  0.7561462E-02  0.1125453E+00
         25   -1    0    0    0    0  0.00000000000E+00  0.00000000000E+00  0.99999998245E-14  0.12509000000E+03  0.12509000000E+03 0.  0.
        -13    1    3    3    0    0 -0.28423262173E+02 -0.79264802673E+01 -0.20035903381E+02  0.35667345154E+02  0.10566000000E+00 0.  1.
         23    2    1    0    0    0  0.23163977666E+02 -0.87339367552E+01  0.13195481419E+02  0.97036974451E+02  0.92893499063E+02 0.  0.
         13    1    3    3    0    0  0.51587239840E+02 -0.80745648789E+00  0.33231384800E+02  0.61369629297E+02  0.10566000000E+00 0. -1.
         22    1    1    0    0    0 -0.23163977666E+02  0.87339367552E+01 -0.13195481419E+02  0.28053025549E+02  0.00000000000E+00 0. -1.
</event>
<event>
 5    1  0.1254921E-009  0.9118800E+02  0.7561462E-02  0.1125453E+00
         25   -1    0    0    0    0  0.00000000000E+00  0.00000000000E+00  0.99999998245E-14  0.12509000000E+03  0.12509000000E+03 0.  0.
        -13    1    3    3    0    0 -0.51182557187E+02  0.73453507716E+01 -0.30855129570E+02  0.60213441381E+02  0.10566000000E+00 0.  1.
         23    2    1    0    0    0 -0.24515492604E+02  0.14859653141E+02 -0.10633030729E+02  0.94514192380E+02  0.89431831859E+02 0.  0.
         13    1    3    3    0    0  0.26667064582E+02  0.75143023695E+01  0.20222098841E+02  0.34300750999E+02  0.10566000000E+00 0. -1.
         22    1    1    0    0    0  0.24515492604E+02 -0.14859653141E+02  0.10633030729E+02  0.30575807620E+02  0.00000000000E+00 0.  1.
</event>
<event>
 5    1  0.1254921E-009  0.9118800E+02  0.7561462E-02  0.1125453E+00
         25   -1    0    0    0    0  0.00000000000E+00  0.00000000000E+00  0.99999998245E-14  0.12509000000E+03  0.12509000000E+03 0.  0.
        -13    1    3    3    0    0 -0.58511461720E+02 -0.13615380198E+02 -0.14201897675E+02  0.61730663306E+02  0.10566000000E+00 0.  1.
         23    2    1    0    0    0 -0.27332228864E+02 -0.10419296765E+02 -0.77355608822E+00  0.95828918872E+02  0.91252237361E+02 0.  0.
         13    1    3    3    0    0  0.31179232856E+02  0.31960834335E+01  0.13428341587E+02  0.34098255566E+02  0.10566000000E+00 0. -1.
         22    1    1    0    0    0  0.27332228864E+02  0.10419296765E+02  0.77355608822E+00  0.29261081128E+02  0.00000000000E+00 0.  1.
</event>
<event>
 5    1  0.1254921E-009  0.9118800E+02  0.7561462E-02  0.1125453E+00
         25   -1    0    0    0    0  0.00000000000E+00  0.00000000000E+00  0.99999998245E-14  0.12509000000E+03  0.12509000000E+03 0.  0.
        -13    1    3    3    0    0 -0.30073536008E+02 -0.73829129794E+01  0.28469494104E+02  0.42064809885E+02  0.10566000000E+00 0.  1.
         23    2    1    0    0    0 -0.15126330568E+02 -0.77992183332E+01 -0.23461564275E+02  0.96105889158E+02  0.91631125986E+02 0.  0.
         13    1    3    3    0    0  0.14947205440E+02 -0.41630535386E+00 -0.51931058379E+02  0.54041079273E+02  0.10566000000E+00 0. -1.
         22    1    1    0    0    0  0.15126330568E+02  0.77992183332E+01  0.23461564275E+02  0.28984110842E+02  0.00000000000E+00 0. -1.
</event>
<event>
 5    1  0.1254921E-009  0.9118800E+02  0.7561462E-02  0.1125453E+00
         25   -1    0    0    0    0  0.00000000000E+00  0.00000000000E+00  0.99999998245E-14  0.12509000000E+03  0.12509000000E+03 0.  0.
        -13    1    3    3    0    0 -0.41893216574E+01  0.73505917199E+01 -0.42202274366E+02  0.43042127506E+02  0.10566000000E+00 0.  1.
         23    2    1    0    0    0  0.13911055431E+02 -0.48214456874E+01  0.14884397471E+02  0.10415416733E+03  0.10202833666E+03 0.  0.
         13    1    3    3    0    0  0.18100377088E+02 -0.12172037407E+02  0.57086671837E+02  0.61112039819E+02  0.10566000000E+00 0. -1.
         22    1    1    0    0    0 -0.13911055431E+02  0.48214456874E+01 -0.14884397471E+02  0.20935832675E+02  0.00000000000E+00 0. -1.
</event>
<event>
 5    1  0.1254921E-009  0.9118800E+02  0.7561462E-02  0.1125453E+00
         25   -1    0    0    0    0  0.00000000000E+00  0.00000000000E+00  0.99999998245E-14  0.12509000000E+03  0.12509000000E+03 0.  0.
        -13    1    3    3    0    0  0.80055397326E+01 -0.33202857709E+02  0.21416461079E+02  0.40313699850E+02  0.10566000000E+00 0. -1.
         23    2    1    0    0    0  0.26308443730E+02  0.10896233056E+02 -0.68527370439E+01  0.95801399636E+02  0.91214505759E+02 0.  0.
         13    1    3    3    0    0  0.18302903997E+02  0.44099090764E+02 -0.28269198123E+02  0.55487699786E+02  0.10566000000E+00 0.  1.
         22    1    1    0    0    0 -0.26308443730E+02 -0.10896233056E+02  0.68527370439E+01  0.29288600364E+02  0.00000000000E+00 0.  1.
</event>
<event>
 5    1  0.1254921E-009  0.9118800E+02  0.7561462E-02  0.1125453E+00
         25   -1    0    0    0    0  0.00000000000E+00  0.00000000000E+00  0.99999998245E-14  0.12509000000E+03  0.12509000000E+03 0.  0.
        -13    1    3    3    0    0 -0.19638710634E+02  0.18709511229E+02  0.33453793376E+02  0.43068459702E+02  0.10566000000E+00 0.  1.
         23    2    1    0    0    0  0.11523315195E+02  0.27084826071E+02 -0.70192544621E+01  0.94830381205E+02  0.89873003010E+02 0.  0.
         13    1    3    3    0    0  0.31162025829E+02  0.83753148417E+01 -0.40473047838E+02  0.51761921504E+02  0.10566000000E+00 0. -1.
         22    1    1    0    0    0 -0.11523315195E+02 -0.27084826071E+02  0.70192544621E+01  0.30259618795E+02  0.00000000000E+00 0. -1.
</event>
<event>
 5    1  0.1254921E-009  0.9118800E+02  0.7561462E-02  0.1125453E+00
         25   -1    0    0    0    0  0.00000000000E+00  0.00000000000E+00  0.99999998245E-14  0.12509000000E+03  0.12509000000E+03 0.  0.
        -13    1    3    3    0    0  0.21288635291E+02 -0.24174651008E+02  0.46922774887E+02  0.56915531369E+02  0.10566000000E+00 0. -1.
         23    2    1    0    0    0  0.21088798482E+02  0.38099448623E+01  0.18971040368E+02  0.96469142677E+02  0.92125685967E+02 0.  0.
         13    1    3    3    0    0 -0.19983680869E+00  0.27984595870E+02 -0.27951734519E+02  0.39553611307E+02  0.10566000000E+00 0.  1.
         22    1    1    0    0    0 -0.21088798482E+02 -0.38099448623E+01 -0.18971040368E+02  0.28620857323E+02  0.00000000000E+00 0. -1.
</event>
<event>
 5    1  0.1254921E-009  0.9118800E+02  0.7561462E-02  0.1125453E+00
         25   -1    0    0    0    0  0.00000000000E+00  0.00000000000E+00  0.99999998245E-14  0.12509000000E+03  0.12509000000E+03 0.  0.
        -13    1    3    3    0    0 -0.16828532049E+01 -0.41103659130E+02 -0.32407611863E+02  0.52369907958E+02  0.10566000000E+00 0.  1.
         23    2    1    0    0    0 -0.24193118532E+02 -0.90298393392E+01 -0.14767789891E+02  0.95342183256E+02  0.90582555202E+02 0.  0.
         13    1    3    3    0    0 -0.22510265327E+02  0.32073819791E+02  0.17639821972E+02  0.42972275298E+02  0.10566000000E+00 0. -1.
         22    1    1    0    0    0  0.24193118532E+02  0.90298393392E+01  0.14767789891E+02  0.29747816744E+02  0.00000000000E+00 0.  1.
</event>
<event>
 5    1  0.1254921E-009  0.9118800E+02  0.7561462E-02  0.1125453E+00
         25   -1    0    0    0    0  0.00000000000E+00  0.00000000000E+00  0.99999998245E-14  0.12509000000E+03  0.12509000000E+03 0.  0.
        -13    1    3    3    0    0  0.45878094940E+02  0.34981251840E+02  0.15943031785E+01  0.57715167351E+02  0.10566000000E+00 0.  1.
         23    2    1    0    0    0  0.15955233554E+02  0.19116239706E+02  0.17017755620E+02  0.94930356358E+02  0.90012046158E+02 0.  0.
         13    1    3    3    0    0 -0.29922861387E+02 -0.15865012134E+02  0.15423452442E+02  0.37215189007E+02  0.10566000000E+00 0. -1.
         22    1    1    0    0    0 -0.15955233554E+02 -0.19116239706E+02 -0.17017755620E+02  0.30159643642E+02  0.00000000000E+00 0.  1.
</event>
<event>
 5    1  0.1254921E-009  0.9118800E+02  0.7561462E-02  0.1125453E+00
         25   -1    0    0    0    0  0.00000000000E+00  0.00000000000E+00  0.99999998245E-14  0.12509000000E+03  0.12509000000E+03 0.  0.
        -13    1    3    3    0    0 -0.41990689105E+02 -0.88979835860E+01  0.34501209590E+02  0.55070288819E+02  0.10566000000E+00 0.  1.
         23    2    1    0    0    0 -0.21472420743E+02  0.16665293018E+02  0.94966975985E+01  0.96297915858E+02  0.91892896839E+02 0.  0.
         13    1    3    3    0    0  0.20518268363E+02  0.25563276604E+02 -0.25004511991E+02  0.41227627039E+02  0.10566000000E+00 0. -1.
         22    1    1    0    0    0  0.21472420743E+02 -0.16665293018E+02 -0.94966975985E+01  0.28792084142E+02  0.00000000000E+00 0.  1.
</event>
<event>
 5    1  0.1254921E-009  0.9118800E+02  0.7561462E-02  0.1125453E+00
         25   -1    0    0    0    0  0.00000000000E+00  0.00000000000E+00  0.99999998245E-14  0.12509000000E+03  0.12509000000E+03 0.  0.
        -13    1    3    3    0    0  0.59037497475E+01 -0.23538280717E+02 -0.26631166885E+02  0.36029642434E+02  0.10566000000E+00 0.  1.
         23    2    1    0    0    0 -0.12905690582E+02  0.23881593002E+02  0.69050761035E+01  0.97079869517E+02  0.92951243432E+02 0.  0.
         13    1    3    3    0    0 -0.18809440329E+02  0.47419873719E+02  0.33536242988E+02  0.61050227083E+02  0.10566000000E+00 0. -1.
         22    1    1    0    0    0  0.12905690582E+02 -0.23881593002E+02 -0.69050761035E+01  0.28010130483E+02  0.00000000000E+00 0. -1.
</event>
<event>
 5    1  0.1254921E-009  0.9118800E+02  0.7561462E-02  0.1125453E+00
         25   -1    0    0    0    0  0.00000000000E+00  0.00000000000E+00  0.99999998245E-14  0.12509000000E+03  0.12509000000E+03 0.  0.
        -13    1    3    3    0    0  0.20039020832E+02 -0.11298506382E+02  0.27654230977E+02  0.35972020479E+02  0.10566000000E+00 0.  1.
         23    2    1    0    0    0 -0.18808144774E+02 -0.18179359997E+02 -0.15693912533E+02  0.94585339203E+02  0.89531290965E+02 0.  0.
         13    1    3    3    0    0 -0.38847165606E+02 -0.68808536152E+01 -0.43348143509E+02  0.58613318724E+02  0.10566000000E+00 0. -1.
         22    1    1    0    0    0  0.18808144774E+02  0.18179359997E+02  0.15693912533E+02  0.30504660797E+02  0.00000000000E+00 0. -1.
</event>
<event>
 5    1  0.1254921E-009  0.9118800E+02  0.7561462E-02  0.1125453E+00
         25   -1    0    0    0    0  0.00000000000E+00  0.00000000000E+00  0.99999998245E-14  0.12509000000E+03  0.12509000000E+03 0.  0.
        -13    1    3    3    0    0  0.20115803116E+02  0.29352806879E+02  0.70965629257E+01  0.36285054445E+02  0.10566000000E+00 0.  1.
         23    2    1    0    0    0  0.69834247868E+01 -0.16157655222E+02 -0.25729829596E+02  0.93915295910E+02  0.88590183603E+02 0.  0.
         13    1    3    3    0    0 -0.13132378330E+02 -0.45510462102E+02 -0.32826392522E+02  0.57630241465E+02  0.10566000000E+00 0. -1.
         22    1    1    0    0    0 -0.69834247868E+01  0.16157655222E+02  0.25729829596E+02  0.31174704090E+02  0.00000000000E+00 0. -1.
</event>
<event>
 5    1  0.1254921E-009  0.9118800E+02  0.7561462E-02  0.1125453E+00
         25   -1    0    0    0    0  0.00000000000E+00  0.00000000000E+00  0.99999998245E-14  0.12509000000E+03  0.12509000000E+03 0.  0.
        -13    1    3    3    0    0  0.32528630876E+02 -0.26897210420E+02  0.17493304540E+02  0.45690246474E+02  0.10566000000E+00 0.  1.
         23    2    1    0    0    0 -0.58966395619E+01 -0.26253507298E+02 -0.13429589644E+02  0.95017240207E+02  0.90132708020E+02 0.  0.
         13    1    3    3    0    0 -0.38425270438E+02  0.64370312204E+00 -0.30922894184E+02  0.49326993733E+02  0.10566000000E+00 0. -1.
         22    1    1    0    0    0  0.58966395619E+01  0.26253507298E+02  0.13429589644E+02  0.30072759793E+02  0.00000000000E+00 0.  1.
</event>
<event>
 5    1  0.1254921E-009  0.9118800E+02  0.7561462E-02  0.1125453E+00
         25   -1    0    0    0    0  0.00000000000E+00  0.00000000000E+00  0.99999998245E-14  0.12509000000E+03  0.12509000000E+03 0.  0.
        -13    1    3    3    0    0 -0.39685290528E+02 -0.10753911979E+02  0.71170095067E+01  0.41728070834E+02  0.10566000000E+00 0. -1.
         23    2    1    0    0    0  0.13913019876E+02 -0.21691092459E+02  0.12028942741E+02  0.96651099220E+02  0.92372419600E+02 0.  0.
         13    1    3    3    0    0  0.53598310404E+02 -0.10937180480E+02  0.49119332338E+01  0.54923028386E+02  0.10566000000E+00 0.  1.
         22    1    1    0    0    0 -0.13913019876E+02  0.21691092459E+02 -0.12028942741E+02  0.28438900780E+02  0.00000000000E+00 0.  1.
</event>
<event>
 5    1  0.1254921E-009  0.9118800E+02  0.7561462E-02  0.1125453E+00
         25   -1    0    0    0    0  0.00000000000E+00  0.00000000000E+00  0.99999998245E-14  0.12509000000E+03  0.12509000000E+03 0.  0.
        -13    1    3    3    0    0  0.17669412760E+02  0.59940391385E+01 -0.34081678095E+02  0.38854968772E+02  0.10566000000E+00 0.  1.
         23    2    1    0    0    0  0.14379637834E+02 -0.26658287412E+02  0.94405676494E+01  0.93363629431E+02  0.87807771359E+02 0.  0.
         13    1    3    3    0    0 -0.32897749260E+01 -0.32652326550E+02  0.43522245744E+02  0.54508660659E+02  0.10566000000E+00 0. -1.
         22    1    1    0    0    0 -0.14379637834E+02  0.26658287412E+02 -0.94405676494E+01  0.31726370569E+02  0.00000000000E+00 0. -1.
</event>
<event>
 5    1  0.1254921E-009  0.9118800E+02  0.7561462E-02  0.1125453E+00
         25   -1    0    0    0    0  0.00000000000E+00  0.00000000000E+00  0.99999998245E-14  0.12509000000E+03  0.12509000000E+03 0.  0.
        -13    1    3    3    0    0  0.26000140332E+02 -0.33083345822E+02 -0.13358959286E+01  0.42098822431E+02  0.10566000000E+00 0.  1.
         23    2    1    0    0    0  0.18609958489E+02  0.20450517322E+02  0.64463186486E+01  0.96697937063E+02  0.92435825276E+02 0.  0.
         13    1    3    3    0    0 -0.73901818430E+01  0.53533863144E+02  0.77822145773E+01  0.54599114632E+02  0.10566000000E+00 0. -1.
         22    1    1    0    0    0 -0.18609958489E+02 -0.20450517322E+02 -0.64463186486E+01  0.28392062937E+02  0.00000000000E+00 0. -1.
</event>
<event>
 5    1  0.1254921E-009  0.9118800E+02  0.7561462E-02  0.1125453E+00
         25   -1    0    0    0    0  0.00000000000E+00  0.00000000000E+00  0.99999998245E-14  0.12509000000E+03  0.12509000000E+03 0.  0.
        -13    1    3    3    0    0 -0.47592425792E+02 -0.19568251597E+02  0.61566081518E+01  0.51825384237E+02  0.10566000000E+00 0. -1.
         23    2    1    0    0    0 -0.59819853519E+01 -0.14036055304E+02  0.23358416804E+02  0.97189988659E+02  0.93099319346E+02 0.  0.
         13    1    3    3    0    0  0.41610440440E+02  0.55321962932E+01  0.17201808652E+02  0.45364604422E+02  0.10566000000E+00 0.  1.
         22    1    1    0    0    0  0.59819853519E+01  0.14036055304E+02 -0.23358416804E+02  0.27900011341E+02  0.00000000000E+00 0. -1.
</event>
<event>
 5    1  0.1254921E-009  0.9118800E+02  0.7561462E-02  0.1125453E+00
         25   -1    0    0    0    0  0.00000000000E+00  0.00000000000E+00  0.99999998245E-14  0.12509000000E+03  0.12509000000E+03 0.  0.
        -13    1    3    3    0    0  0.36653916020E+01 -0.41362257498E+02  0.25232700087E+02  0.48589831844E+02  0.10566000000E+00 0.  1.
         23    2    1    0    0    0  0.27669052281E+02 -0.10758375501E+02 -0.79956153463E+00  0.95392215634E+02  0.90651621097E+02 0.  0.
         13    1    3    3    0    0  0.24003660679E+02  0.30603881997E+02 -0.26032261622E+02  0.46802383790E+02  0.10566000000E+00 0. -1.
         22    1    1    0    0    0 -0.27669052281E+02  0.10758375501E+02  0.79956153463E+00  0.29697784366E+02  0.00000000000E+00 0.  1.
</event>
<event>
 5    1  0.1254921E-009  0.9118800E+02  0.7561462E-02  0.1125453E+00
         25   -1    0    0    0    0  0.00000000000E+00  0.00000000000E+00  0.99999998245E-14  0.12509000000E+03  0.12509000000E+03 0.  0.
        -13    1    3    3    0    0  0.56573408881E+00 -0.32914236132E+02  0.49752374755E+02  0.59657161791E+02  0.10566000000E+00 0. -1.
         23    2    1    0    0    0 -0.12598748803E+02 -0.17242178470E+02  0.19574022543E+02  0.96121680264E+02  0.91652680640E+02 0.  0.
         13    1    3    3    0    0 -0.13164482892E+02  0.15672057662E+02 -0.30178352212E+02  0.36464518473E+02  0.10566000000E+00 0.  1.
         22    1    1    0    0    0  0.12598748803E+02  0.17242178470E+02 -0.19574022543E+02  0.28968319736E+02  0.00000000000E+00 0. -1.
</event>
<event>
 5    1  0.1254921E-009  0.9118800E+02  0.7561462E-02  0.1125453E+00
         25   -1    0    0    0    0  0.00000000000E+00  0.00000000000E+00  0.99999998245E-14  0.12509000000E+03  0.12509000000E+03 0.  0.
        -13    1    3    3    0    0  0.24839529569E+01  0.20072286360E+02 -0.37711373464E+02  0.42792821297E+02  0.10566000000E+00 0. -1.
         23    2    1    0    0    0 -0.71248293784E+01 -0.25502315080E+02 -0.11689303929E+02  0.96145724323E+02  0.91685490734E+02 0.  0.
         13    1    3    3    0    0 -0.96087823352E+01 -0.45574601440E+02  0.26022069535E+02  0.53352903026E+02  0.10566000000E+00 0.  1.
         22    1    1    0    0    0  0.71248293784E+01  0.25502315080E+02  0.11689303929E+02  0.28944275677E+02  0.00000000000E+00 0. -1.
</event>
<event>
 5    1  0.1254921E-009  0.9118800E+02  0.7561462E-02  0.1125453E+00
         25   -1    0    0    0    0  0.00000000000E+00  0.00000000000E+00  0.99999998245E-14  0.12509000000E+03  0.12509000000E+03 0.  0.
        -13    1    3    3    0    0  0.32347358353E+02  0.21135133207E+02 -0.46788595389E+02  0.60681374989E+02  0.10566000000E+00 0.  1.
         23    2    1    0    0    0  0.13219407902E+02  0.19470065724E+02 -0.17252625023E+02  0.95909710852E+02  0.91362921149E+02 0.  0.
         13    1    3    3    0    0 -0.19127950451E+02 -0.16650674832E+01  0.29535970366E+02  0.35228335863E+02  0.10566000000E+00 0. -1.
         22    1    1    0    0    0 -0.13219407902E+02 -0.19470065724E+02  0.17252625023E+02  0.29180289148E+02  0.00000000000E+00 0.  1.
</event>
<event>
 5    1  0.1254921E-009  0.9118800E+02  0.7561462E-02  0.1125453E+00
         25   -1    0    0    0    0  0.00000000000E+00  0.00000000000E+00  0.99999998245E-14  0.12509000000E+03  0.12509000000E+03 0.  0.
        -13    1    3    3    0    0  0.24950071661E+02  0.14336092355E+02  0.99855337296E+01  0.30459016199E+02  0.10566000000E+00 0.  1.
         23    2    1    0    0    0 -0.20610453815E+02 -0.11914366253E+02 -0.22555138369E+02  0.92295531007E+02  0.86272752635E+02 0.  0.
         13    1    3    3    0    0 -0.45560525476E+02 -0.26250458609E+02 -0.32540672099E+02  0.61836514808E+02  0.10566000000E+00 0. -1.
         22    1    1    0    0    0  0.20610453815E+02  0.11914366253E+02  0.22555138369E+02  0.32794468993E+02  0.00000000000E+00 0. -1.
</event>
<event>
 5    1  0.1254921E-009  0.9118800E+02  0.7561462E-02  0.1125453E+00
         25   -1    0    0    0    0  0.00000000000E+00  0.00000000000E+00  0.99999998245E-14  0.12509000000E+03  0.12509000000E+03 0.  0.
        -13    1    3    3    0    0 -0.13602923318E+01 -0.37114360225E+02  0.68917365377E+01  0.37773447376E+02  0.10566000000E+00 0. -1.
         23    2    1    0    0    0  0.16478945808E+02  0.74191523658E+01 -0.24159287368E+02  0.94919308213E+02  0.89996691210E+02 0.  0.
         13    1    3    3    0    0  0.17839238140E+02  0.44533512591E+02 -0.31051023906E+02  0.57145860837E+02  0.10566000000E+00 0.  1.
         22    1    1    0    0    0 -0.16478945808E+02 -0.74191523658E+01  0.24159287368E+02  0.30170691787E+02  0.00000000000E+00 0.  1.
</event>
<event>
 5    1  0.1254921E-009  0.9118800E+02  0.7561462E-02  0.1125453E+00
         25   -1    0    0    0    0  0.00000000000E+00  0.00000000000E+00  0.99999998245E-14  0.12509000000E+03  0.12509000000E+03 0.  0.
        -13    1    3    3    0    0 -0.16005376422E+02 -0.24921653174E+02  0.17713709703E+02  0.34511556714E+02  0.10566000000E+00 0.  1.
         23    2    1    0    0    0  0.19503733836E+02  0.18425289372E+02 -0.92678197254E+01  0.96703746206E+02  0.92443686241E+02 0.  0.
         13    1    3    3    0    0  0.35509110258E+02  0.43346942547E+02 -0.26981529429E+02  0.62192189492E+02  0.10566000000E+00 0. -1.
         22    1    1    0    0    0 -0.19503733836E+02 -0.18425289372E+02  0.92678197254E+01  0.28386253794E+02  0.00000000000E+00 0. -1.
</event>
<event>
 5    1  0.1254921E-009  0.9118800E+02  0.7561462E-02  0.1125453E+00
         25   -1    0    0    0    0  0.00000000000E+00  0.00000000000E+00  0.99999998245E-14  0.12509000000E+03  0.12509000000E+03 0.  0.
        -13    1    3    3    0    0  0.30979337393E+02 -0.16177273273E+02 -0.45810456446E+02  0.57619724051E+02  0.10566000000E+00 0. -1.
         23    2    1    0    0    0  0.22318407938E+02 -0.86243813452E+00 -0.48001815449E+01  0.10224493762E+03  0.99660074217E+02 0.  0.
         13    1    3    3    0    0 -0.86609294544E+01  0.15314835138E+02  0.41010274901E+02  0.44625213566E+02  0.10566000000E+00 0.  1.
         22    1    1    0    0    0 -0.22318407938E+02  0.86243813452E+00  0.48001815449E+01  0.22845062383E+02  0.00000000000E+00 0. -1.
</event>
<event>
 5    1  0.1254921E-009  0.9118800E+02  0.7561462E-02  0.1125453E+00
         25   -1    0    0    0    0  0.00000000000E+00  0.00000000000E+00  0.99999998245E-14  0.12509000000E+03  0.12509000000E+03 0.  0.
        -13    1    3    3    0    0  0.13767223440E+02  0.47510401307E+02  0.16610428264E+02  0.52179422809E+02  0.10566000000E+00 0.  1.
         23    2    1    0    0    0  0.15261843881E+02  0.19668138521E+02 -0.16315390597E+02  0.95325062206E+02  0.90558908798E+02 0.  0.
         13    1    3    3    0    0  0.14946204415E+01 -0.27842262785E+02 -0.32925818861E+02  0.43145639397E+02  0.10566000000E+00 0. -1.
         22    1    1    0    0    0 -0.15261843881E+02 -0.19668138521E+02  0.16315390597E+02  0.29764937794E+02  0.00000000000E+00 0.  1.
</event>
<event>
 5    1  0.1254921E-009  0.9118800E+02  0.7561462E-02  0.1125453E+00
         25   -1    0    0    0    0  0.00000000000E+00  0.00000000000E+00  0.99999998245E-14  0.12509000000E+03  0.12509000000E+03 0.  0.
        -13    1    3    3    0    0 -0.36665728796E+02  0.22012146257E+02 -0.15358126709E+02  0.45439998581E+02  0.10566000000E+00 0.  1.
         23    2    1    0    0    0  0.10948214846E+02  0.89014261188E+01  0.15856930322E+02  0.10386404809E+03  0.10167201902E+03 0.  0.
         13    1    3    3    0    0  0.47613943642E+02 -0.13110720138E+02  0.31215057030E+02  0.58424049509E+02  0.10566000000E+00 0. -1.
         22    1    1    0    0    0 -0.10948214846E+02 -0.89014261188E+01 -0.15856930322E+02  0.21225951910E+02  0.00000000000E+00 0. -1.
</event>
<event>
 5    1  0.1254921E-009  0.9118800E+02  0.7561462E-02  0.1125453E+00
         25   -1    0    0    0    0  0.00000000000E+00  0.00000000000E+00  0.99999998245E-14  0.12509000000E+03  0.12509000000E+03 0.  0.
        -13    1    3    3    0    0 -0.88160482475E+01  0.21003045998E+02  0.47843634465E+02  0.52989387341E+02  0.10566000000E+00 0.  1.
         23    2    1    0    0    0  0.67140715450E+01 -0.12410395843E+02  0.25117236146E+02  0.96280761320E+02  0.91869542108E+02 0.  0.
         13    1    3    3    0    0  0.15530119793E+02 -0.33413441841E+02 -0.22726398319E+02  0.43291373979E+02  0.10566000000E+00 0. -1.
         22    1    1    0    0    0 -0.67140715450E+01  0.12410395843E+02 -0.25117236146E+02  0.28809238680E+02  0.00000000000E+00 0.  1.
</event>
<event>
 5    1  0.1254921E-009  0.9118800E+02  0.7561462E-02  0.1125453E+00
         25   -1    0    0    0    0  0.00000000000E+00  0.00000000000E+00  0.99999998245E-14  0.12509000000E+03  0.12509000000E+03 0.  0.
        -13    1    3    3    0    0 -0.35824787370E+02  0.21501613384E+02 -0.39135038458E+02  0.57247682638E+02  0.10566000000E+00 0. -1.
         23    2    1    0    0    0  0.24462076610E+01  0.15313281323E+02 -0.17739374438E+02  0.10152804078E+03  0.98756149898E+02 0.  0.
         13    1    3    3    0    0  0.38270995031E+02 -0.61883320613E+01  0.21395664020E+02  0.44280358143E+02  0.10566000000E+00 0.  1.
         22    1    1    0    0    0 -0.24462076610E+01 -0.15313281323E+02  0.17739374438E+02  0.23561959219E+02  0.00000000000E+00 0. -1.
</event>
<event>
 5    1  0.1254921E-009  0.9118800E+02  0.7561462E-02  0.1125453E+00
         25   -1    0    0    0    0  0.00000000000E+00  0.00000000000E+00  0.99999998245E-14  0.12509000000E+03  0.12509000000E+03 0.  0.
        -13    1    3    3    0    0 -0.52937232804E+01 -0.49465933174E+02  0.30620250848E+02  0.58416718300E+02  0.10566000000E+00 0.  1.
         23    2    1    0    0    0 -0.15724684051E+02 -0.24020035679E+02  0.51068460791E+01  0.95929964346E+02  0.91390647114E+02 0.  0.
         13    1    3    3    0    0 -0.10430960770E+02  0.25445897495E+02 -0.25513404769E+02  0.37513246046E+02  0.10566000000E+00 0. -1.
         22    1    1    0    0    0  0.15724684051E+02  0.24020035679E+02 -0.51068460791E+01  0.29160035654E+02  0.00000000000E+00 0.  1.
</event>
<event>
 5    1  0.1254921E-009  0.9118800E+02  0.7561462E-02  0.1125453E+00
         25   -1    0    0    0    0  0.00000000000E+00  0.00000000000E+00  0.99999998245E-14  0.12509000000E+03  0.12509000000E+03 0.  0.
        -13    1    3    3    0    0 -0.19649300709E+02 -0.39620869314E+02 -0.37611525479E+02  0.58056406334E+02  0.10566000000E+00 0.  1.
         23    2    1    0    0    0 -0.12487755709E+02 -0.26937302106E+02 -0.34433155581E+01  0.95199889438E+02  0.90385840925E+02 0.  0.
         13    1    3    3    0    0  0.71615450005E+01  0.12683567208E+02  0.34168209920E+02  0.37143483104E+02  0.10566000000E+00 0. -1.
         22    1    1    0    0    0  0.12487755709E+02  0.26937302106E+02  0.34433155581E+01  0.29890110562E+02  0.00000000000E+00 0.  1.
</event>
<event>
 5    1  0.1254921E-009  0.9118800E+02  0.7561462E-02  0.1125453E+00
         25   -1    0    0    0    0  0.00000000000E+00  0.00000000000E+00  0.99999998245E-14  0.12509000000E+03  0.12509000000E+03 0.  0.
        -13    1    3    3    0    0  0.40277948140E+02  0.92145443913E+01  0.80433833730E-01  0.41318743547E+02  0.10566000000E+00 0. -1.
         23    2    1    0    0    0 -0.27697987794E+01 -0.10829861728E+02 -0.26918110064E+02  0.95943090391E+02  0.91408611487E+02 0.  0.
         13    1    3    3    0    0 -0.43047746919E+02 -0.20044406120E+02 -0.26998543898E+02  0.54624346844E+02  0.10566000000E+00 0.  1.
         22    1    1    0    0    0  0.27697987794E+01  0.10829861728E+02  0.26918110064E+02  0.29146909609E+02  0.00000000000E+00 0.  1.
</event>
<event>
 5    1  0.1254921E-009  0.9118800E+02  0.7561462E-02  0.1125453E+00
         25   -1    0    0    0    0  0.00000000000E+00  0.00000000000E+00  0.99999998245E-14  0.12509000000E+03  0.12509000000E+03 0.  0.
        -13    1    3    3    0    0 -0.13947691931E+02  0.49768433377E+02 -0.19598316118E+02  0.55276941212E+02  0.10566000000E+00 0. -1.
         23    2    1    0    0    0  0.10874164749E+02  0.27879461038E+02  0.24831660307E+01  0.95062047684E+02  0.90194872302E+02 0.  0.
         13    1    3    3    0    0  0.24821856680E+02 -0.21888972339E+02  0.22081482149E+02  0.39785106472E+02  0.10566000000E+00 0.  1.
         22    1    1    0    0    0 -0.10874164749E+02 -0.27879461038E+02 -0.24831660307E+01  0.30027952316E+02  0.00000000000E+00 0. -1.
</event>
<event>
 5    1  0.1254921E-009  0.9118800E+02  0.7561462E-02  0.1125453E+00
         25   -1    0    0    0    0  0.00000000000E+00  0.00000000000E+00  0.99999998245E-14  0.12509000000E+03  0.12509000000E+03 0.  0.
        -13    1    3    3    0    0 -0.28561496005E+02  0.26561453822E+02 -0.21220167439E+02  0.44402438597E+02  0.10566000000E+00 0.  1.
         23    2    1    0    0    0 -0.21286307877E+02 -0.95753917048E+01  0.16003593457E+02  0.96789646064E+02  0.92559848489E+02 0.  0.
         13    1    3    3    0    0  0.72751881280E+01 -0.36136845527E+02  0.37223760896E+02  0.52387207467E+02  0.10566000000E+00 0. -1.
         22    1    1    0    0    0  0.21286307877E+02  0.95753917048E+01 -0.16003593457E+02  0.28300353936E+02  0.00000000000E+00 0.  1.
</event>
<event>
 5    1  0.1254921E-009  0.9118800E+02  0.7561462E-02  0.1125453E+00
         25   -1    0    0    0    0  0.00000000000E+00  0.00000000000E+00  0.99999998245E-14  0.12509000000E+03  0.12509000000E+03 0.  0.
        -13    1    3    3    0    0  0.88952886721E+01 -0.35770200082E+01 -0.58915123410E+02  0.59690235074E+02  0.10566000000E+00 0.  1.
         23    2    1    0    0    0 -0.21202348012E+01  0.10149909859E+02 -0.27504180207E+02  0.95696191219E+02  0.91070110460E+02 0.  0.
         13    1    3    3    0    0 -0.11015523473E+02  0.13726929867E+02  0.31410943203E+02  0.36005956145E+02  0.10566000000E+00 0. -1.
         22    1    1    0    0    0  0.21202348012E+01 -0.10149909859E+02  0.27504180207E+02  0.29393808781E+02  0.00000000000E+00 0.  1.
</event>
<event>
 5    1  0.1254921E-009  0.9118800E+02  0.7561462E-02  0.1125453E+00
         25   -1    0    0    0    0  0.00000000000E+00  0.00000000000E+00  0.99999998245E-14  0.12509000000E+03  0.12509000000E+03 0.  0.
        -13    1    3    3    0    0 -0.40562098236E+02 -0.79225904278E+00  0.27443617189E+01  0.40662687725E+02  0.10566000000E+00 0.  1.
         23    2    1    0    0    0  0.62468442356E+01 -0.25490114785E+02 -0.12893008000E+02  0.95849639709E+02  0.91280637391E+02 0.  0.
         13    1    3    3    0    0  0.46808942472E+02 -0.24697855742E+02 -0.15637369719E+02  0.55186951985E+02  0.10566000000E+00 0. -1.
         22    1    1    0    0    0 -0.62468442356E+01  0.25490114785E+02  0.12893008000E+02  0.29240360291E+02  0.00000000000E+00 0. -1.
</event>
<event>
 5    1  0.1254921E-009  0.9118800E+02  0.7561462E-02  0.1125453E+00
         25   -1    0    0    0    0  0.00000000000E+00  0.00000000000E+00  0.99999998245E-14  0.12509000000E+03  0.12509000000E+03 0.  0.
        -13    1    3    3    0    0  0.29193396630E+02 -0.16070926409E+02  0.68981195008E+01  0.34031225354E+02  0.10566000000E+00 0.  1.
         23    2    1    0    0    0 -0.11561441536E+02  0.23962970929E+02 -0.14200405692E+02  0.94931378879E+02  0.90013467147E+02 0.  0.
         13    1    3    3    0    0 -0.40754838166E+02  0.40033897338E+02 -0.21098525193E+02  0.60900153524E+02  0.10566000000E+00 0. -1.
         22    1    1    0    0    0  0.11561441536E+02 -0.23962970929E+02  0.14200405692E+02  0.30158621121E+02  0.00000000000E+00 0. -1.
</event>
<event>
 5    1  0.1254921E-009  0.9118800E+02  0.7561462E-02  0.1125453E+00
         25   -1    0    0    0    0  0.00000000000E+00  0.00000000000E+00  0.99999998245E-14  0.12509000000E+03  0.12509000000E+03 0.  0.
        -13    1    3    3    0    0  0.31363954017E+02  0.10977089262E+01 -0.84510730300E+01  0.32501298064E+02  0.10566000000E+00 0. -1.
         23    2    1    0    0    0 -0.29617216514E+02 -0.26547295652E+00  0.52303343161E+01  0.95013324868E+02  0.90127273982E+02 0.  0.
         13    1    3    3    0    0 -0.60981170531E+02 -0.13631818828E+01  0.13681407346E+02  0.62512026804E+02  0.10566000000E+00 0.  1.
         22    1    1    0    0    0  0.29617216514E+02  0.26547295652E+00 -0.52303343161E+01  0.30076675132E+02  0.00000000000E+00 0.  1.
</event>
<event>
 5    1  0.1254921E-009  0.9118800E+02  0.7561462E-02  0.1125453E+00
         25   -1    0    0    0    0  0.00000000000E+00  0.00000000000E+00  0.99999998245E-14  0.12509000000E+03  0.12509000000E+03 0.  0.
        -13    1    3    3    0    0  0.17359516647E+02  0.41006989869E+02  0.32020456167E+01  0.44645159833E+02  0.10566000000E+00 0.  1.
         23    2    1    0    0    0 -0.23368957956E+02  0.10790736068E+02 -0.10677048517E+02  0.97223397302E+02  0.93144197013E+02 0.  0.
         13    1    3    3    0    0 -0.40728474604E+02 -0.30216253801E+02 -0.13879094134E+02  0.52578237469E+02  0.10566000000E+00 0. -1.
         22    1    1    0    0    0  0.23368957956E+02 -0.10790736068E+02  0.10677048517E+02  0.27866602698E+02  0.00000000000E+00 0. -1.
</event>
<event>
 5    1  0.1254921E-009  0.9118800E+02  0.7561462E-02  0.1125453E+00
         25   -1    0    0    0    0  0.00000000000E+00  0.00000000000E+00  0.99999998245E-14  0.12509000000E+03  0.12509000000E+03 0.  0.
        -13    1    3    3    0    0 -0.28633292270E+02  0.31538014994E+01  0.23187834436E+02  0.36979706867E+02  0.10566000000E+00 0.  1.
         23    2    1    0    0    0  0.14838086684E+02  0.21837606920E+02 -0.12141122066E+02  0.96030462195E+02  0.91528099138E+02 0.  0.
         13    1    3    3    0    0  0.43471378954E+02  0.18683805420E+02 -0.35328956503E+02  0.59050755327E+02  0.10566000000E+00 0. -1.
         22    1    1    0    0    0 -0.14838086684E+02 -0.21837606920E+02  0.12141122066E+02  0.29059537805E+02  0.00000000000E+00 0. -1.
</event>
<event>
 5    1  0.1254921E-009  0.9118800E+02  0.7561462E-02  0.1125453E+00
         25   -1    0    0    0    0  0.00000000000E+00  0.00000000000E+00  0.99999998245E-14  0.12509000000E+03  0.12509000000E+03 0.  0.
        -13    1    3    3    0    0  0.13273959560E+02  0.26591495333E+02 -0.22905184828E+02  0.37522850139E+02  0.10566000000E+00 0.  1.
         23    2    1    0    0    0 -0.26756255131E+02  0.20465580090E+01  0.11662599924E+02  0.95830782216E+02  0.91254791627E+02 0.  0.
         13    1    3    3    0    0 -0.40030214691E+02 -0.24544937324E+02  0.34567784752E+02  0.58307932078E+02  0.10566000000E+00 0. -1.
         22    1    1    0    0    0  0.26756255131E+02 -0.20465580090E+01 -0.11662599924E+02  0.29259217784E+02  0.00000000000E+00 0. -1.
</event>
<event>
 5    1  0.1254921E-009  0.9118800E+02  0.7561462E-02  0.1125453E+00
         25   -1    0    0    0    0  0.00000000000E+00  0.00000000000E+00  0.99999998245E-14  0.12509000000E+03  0.12509000000E+03 0.  0.
        -13    1    3    3    0    0 -0.16068641831E+02 -0.45411773637E+02 -0.25208750459E+02  0.54368397980E+02  0.10566000000E+00 0. -1.
         23    2    1    0    0    0 -0.31804177809E+01 -0.27221569625E+02  0.98939593441E+01  0.95952063532E+02  0.91420890143E+02 0.  0.
         13    1    3    3    0    0  0.12888224050E+02  0.18190204013E+02  0.35102709803E+02  0.41583665552E+02  0.10566000000E+00 0.  1.
         22    1    1    0    0    0  0.31804177809E+01  0.27221569625E+02 -0.98939593441E+01  0.29137936468E+02  0.00000000000E+00 0. -1.
</event>
<event>
 5    1  0.1254921E-009  0.9118800E+02  0.7561462E-02  0.1125453E+00
         25   -1    0    0    0    0  0.00000000000E+00  0.00000000000E+00  0.99999998245E-14  0.12509000000E+03  0.12509000000E+03 0.  0.
        -13    1    3    3    0    0  0.18752732023E+02  0.18030983843E+01  0.28250022727E+02  0.33955722201E+02  0.10566000000E+00 0.  1.
         23    2    1    0    0    0 -0.22618252608E+02 -0.15340534047E+02 -0.12986177718E+02  0.94831808586E+02  0.89874989692E+02 0.  0.
         13    1    3    3    0    0 -0.41370984632E+02 -0.17143632431E+02 -0.41236200445E+02  0.60876086385E+02  0.10566000000E+00 0. -1.
         22    1    1    0    0    0  0.22618252608E+02  0.15340534047E+02  0.12986177718E+02  0.30258191414E+02  0.00000000000E+00 0. -1.
</event>
<event>
 5    1  0.1254921E-009  0.9118800E+02  0.7561462E-02  0.1125453E+00
         25   -1    0    0    0    0  0.00000000000E+00  0.00000000000E+00  0.99999998245E-14  0.12509000000E+03  0.12509000000E+03 0.  0.
        -13    1    3    3    0    0  0.23691050305E+02  0.49044515733E+02 -0.25914239135E+02  0.60317404968E+02  0.10566000000E+00 0. -1.
         23    2    1    0    0    0  0.12528353892E+02  0.15904151155E+02 -0.21488185129E+02  0.95566386140E+02  0.90891640894E+02 0.  0.
         13    1    3    3    0    0 -0.11162696412E+02 -0.33140364578E+02  0.44260540055E+01  0.35248981172E+02  0.10566000000E+00 0.  1.
         22    1    1    0    0    0 -0.12528353892E+02 -0.15904151155E+02  0.21488185129E+02  0.29523613860E+02  0.00000000000E+00 0. -1.
</event>
<event>
 5    1  0.1254921E-009  0.9118800E+02  0.7561462E-02  0.1125453E+00
         25   -1    0    0    0    0  0.00000000000E+00  0.00000000000E+00  0.99999998245E-14  0.12509000000E+03  0.12509000000E+03 0.  0.
        -13    1    3    3    0    0 -0.35785835233E+02 -0.61937305059E+01 -0.39223920411E+02  0.53455733063E+02  0.10566000000E+00 0. -1.
         23    2    1    0    0    0  0.52591836709E+01  0.73802707284E+01 -0.24241784877E+02  0.99209668802E+02  0.95774562598E+02 0.  0.
         13    1    3    3    0    0  0.41045018904E+02  0.13574001234E+02  0.14982135533E+02  0.45753935738E+02  0.10566000000E+00 0.  1.
         22    1    1    0    0    0 -0.52591836709E+01 -0.73802707284E+01  0.24241784877E+02  0.25880331198E+02  0.00000000000E+00 0. -1.
</event>
<event>
 5    1  0.1254921E-009  0.9118800E+02  0.7561462E-02  0.1125453E+00
         25   -1    0    0    0    0  0.00000000000E+00  0.00000000000E+00  0.99999998245E-14  0.12509000000E+03  0.12509000000E+03 0.  0.
        -13    1    3    3    0    0  0.29026410456E+02 -0.39974313880E+01 -0.27422617368E+02  0.40131322792E+02  0.10566000000E+00 0.  1.
         23    2    1    0    0    0 -0.17969265746E+02  0.18176576702E+02  0.12853570450E+01  0.99498310044E+02  0.96150814385E+02 0.  0.
         13    1    3    3    0    0 -0.46995676202E+02  0.22174008090E+02  0.28707974413E+02  0.59366987252E+02  0.10566000000E+00 0. -1.
         22    1    1    0    0    0  0.17969265746E+02 -0.18176576702E+02 -0.12853570450E+01  0.25591689956E+02  0.00000000000E+00 0. -1.
</event>
<event>
 5    1  0.1254921E-009  0.9118800E+02  0.7561462E-02  0.1125453E+00
         25   -1    0    0    0    0  0.00000000000E+00  0.00000000000E+00  0.99999998245E-14  0.12509000000E+03  0.12509000000E+03 0.  0.
        -13    1    3    3    0    0  0.29537639540E+02 -0.28027689350E+02  0.26941585861E+02  0.48825031824E+02  0.10566000000E+00 0. -1.
         23    2    1    0    0    0 -0.28623023810E+01  0.60681037741E+00  0.32533526277E+02  0.92425166833E+02  0.86460512018E+02 0.  0.
         13    1    3    3    0    0 -0.32399941921E+02  0.28634499728E+02  0.55919404166E+01  0.43600135009E+02  0.10566000000E+00 0.  1.
         22    1    1    0    0    0  0.28623023810E+01 -0.60681037741E+00 -0.32533526277E+02  0.32664833167E+02  0.00000000000E+00 0. -1.
</event>
<event>
 5    1  0.1254921E-009  0.9118800E+02  0.7561462E-02  0.1125453E+00
         25   -1    0    0    0    0  0.00000000000E+00  0.00000000000E+00  0.99999998245E-14  0.12509000000E+03  0.12509000000E+03 0.  0.
        -13    1    3    3    0    0 -0.67735948346E+01 -0.18509955381E+02  0.27824290168E+02  0.34098421116E+02  0.10566000000E+00 0.  1.
         23    2    1    0    0    0 -0.81751989951E+01  0.16491195263E+02 -0.22879424396E+02  0.95725711136E+02  0.91110648730E+02 0.  0.
         13    1    3    3    0    0 -0.14016041605E+01  0.35001150644E+02 -0.50703714564E+02  0.61627290020E+02  0.10566000000E+00 0. -1.
         22    1    1    0    0    0  0.81751989951E+01 -0.16491195263E+02  0.22879424396E+02  0.29364288864E+02  0.00000000000E+00 0. -1.
</event>
<event>
 5    1  0.1254921E-009  0.9118800E+02  0.7561462E-02  0.1125453E+00
         25   -1    0    0    0    0  0.00000000000E+00  0.00000000000E+00  0.99999998245E-14  0.12509000000E+03  0.12509000000E+03 0.  0.
        -13    1    3    3    0    0 -0.41375557172E+02  0.12910776321E+02  0.32616503128E+01  0.43465784282E+02  0.10566000000E+00 0. -1.
         23    2    1    0    0    0 -0.31206199040E+01 -0.13423372734E+02  0.26366973643E+02  0.95338655438E+02  0.90577683331E+02 0.  0.
         13    1    3    3    0    0  0.38254937268E+02 -0.26334149055E+02  0.23105323330E+02  0.51872871156E+02  0.10566000000E+00 0.  1.
         22    1    1    0    0    0  0.31206199040E+01  0.13423372734E+02 -0.26366973643E+02  0.29751344562E+02  0.00000000000E+00 0. -1.
</event>
<event>
 5    1  0.1254921E-009  0.9118800E+02  0.7561462E-02  0.1125453E+00
         25   -1    0    0    0    0  0.00000000000E+00  0.00000000000E+00  0.99999998245E-14  0.12509000000E+03  0.12509000000E+03 0.  0.
        -13    1    3    3    0    0  0.66178338745E+00  0.38301968458E+02  0.36349138780E+02  0.52808614819E+02  0.10566000000E+00 0. -1.
         23    2    1    0    0    0  0.21621460811E+02  0.23448445909E+02  0.58888503109E+01  0.92655516173E+02  0.86793138762E+02 0.  0.
         13    1    3    3    0    0  0.20959677423E+02 -0.14853522549E+02 -0.30460288469E+02  0.39846901354E+02  0.10566000000E+00 0.  1.
         22    1    1    0    0    0 -0.21621460811E+02 -0.23448445909E+02 -0.58888503109E+01  0.32434483827E+02  0.00000000000E+00 0. -1.
</event>
<event>
 5    1  0.1254921E-009  0.9118800E+02  0.7561462E-02  0.1125453E+00
         25   -1    0    0    0    0  0.00000000000E+00  0.00000000000E+00  0.99999998245E-14  0.12509000000E+03  0.12509000000E+03 0.  0.
        -13    1    3    3    0    0 -0.49184222667E+01  0.28003940067E+02  0.21672243756E+02  0.35750648250E+02  0.10566000000E+00 0.  1.
         23    2    1    0    0    0  0.26740571403E+02 -0.14680765710E+02 -0.31813355577E+01  0.94419102773E+02  0.89298729172E+02 0.  0.
         13    1    3    3    0    0  0.31658993669E+02 -0.42684705776E+02 -0.24853579314E+02  0.58668454523E+02  0.10566000000E+00 0. -1.
         22    1    1    0    0    0 -0.26740571403E+02  0.14680765710E+02  0.31813355577E+01  0.30670897227E+02  0.00000000000E+00 0. -1.
</event>
<event>
 5    1  0.1254921E-009  0.9118800E+02  0.7561462E-02  0.1125453E+00
         25   -1    0    0    0    0  0.00000000000E+00  0.00000000000E+00  0.99999998245E-14  0.12509000000E+03  0.12509000000E+03 0.  0.
        -13    1    3    3    0    0  0.19188450096E+02  0.27003262078E-01 -0.52971149554E+02  0.56339605922E+02  0.10566000000E+00 0.  1.
         23    2    1    0    0    0  0.24178668539E+02 -0.57535123828E+01 -0.12984982378E+02  0.97048589828E+02  0.92909138965E+02 0.  0.
         13    1    3    3    0    0  0.49902184431E+01 -0.57805156449E+01  0.39986167176E+02  0.40708983906E+02  0.10566000000E+00 0. -1.
         22    1    1    0    0    0 -0.24178668539E+02  0.57535123828E+01  0.12984982378E+02  0.28041410172E+02  0.00000000000E+00 0.  1.
</event>
<event>
 5    1  0.1254921E-009  0.9118800E+02  0.7561462E-02  0.1125453E+00
         25   -1    0    0    0    0  0.00000000000E+00  0.00000000000E+00  0.99999998245E-14  0.12509000000E+03  0.12509000000E+03 0.  0.
        -13    1    3    3    0    0 -0.44588941011E+02  0.16655916266E+02 -0.27541677358E+02  0.54992257299E+02  0.10566000000E+00 0.  1.
         23    2    1    0    0    0 -0.46107786596E+01  0.53738127059E+01 -0.27666069481E+02  0.96532189450E+02  0.92211252332E+02 0.  0.
         13    1    3    3    0    0  0.39978162351E+02 -0.11282103560E+02 -0.12439212363E+00  0.41539932151E+02  0.10566000000E+00 0. -1.
         22    1    1    0    0    0  0.46107786596E+01 -0.53738127059E+01  0.27666069481E+02  0.28557810550E+02  0.00000000000E+00 0.  1.
</event>
<event>
 5    1  0.1254921E-009  0.9118800E+02  0.7561462E-02  0.1125453E+00
         25   -1    0    0    0    0  0.00000000000E+00  0.00000000000E+00  0.99999998245E-14  0.12509000000E+03  0.12509000000E+03 0.  0.
        -13    1    3    3    0    0  0.34686773670E+02 -0.27099167264E+02 -0.36162193142E+02  0.56967117804E+02  0.10566000000E+00 0. -1.
         23    2    1    0    0    0  0.24461900053E+02  0.38880207654E+01 -0.19250216395E+02  0.93720076651E+02  0.88314102365E+02 0.  0.
         13    1    3    3    0    0 -0.10224873617E+02  0.30987188030E+02  0.16911976748E+02  0.36752958847E+02  0.10566000000E+00 0.  1.
         22    1    1    0    0    0 -0.24461900053E+02 -0.38880207654E+01  0.19250216395E+02  0.31369923349E+02  0.00000000000E+00 0. -1.
</event>
<event>
 5    1  0.1254921E-009  0.9118800E+02  0.7561462E-02  0.1125453E+00
         25   -1    0    0    0    0  0.00000000000E+00  0.00000000000E+00  0.99999998245E-14  0.12509000000E+03  0.12509000000E+03 0.  0.
        -13    1    3    3    0    0  0.35087661920E+02 -0.42703730954E+02  0.90271230978E+01  0.56002256846E+02  0.10566000000E+00 0.  1.
         23    2    1    0    0    0  0.27237026770E+02 -0.81558697700E+01  0.16509290009E+02  0.92212492559E+02  0.86152268040E+02 0.  0.
         13    1    3    3    0    0 -0.78506351509E+01  0.34547861184E+02  0.74821669110E+01  0.36210235713E+02  0.10566000000E+00 0. -1.
         22    1    1    0    0    0 -0.27237026770E+02  0.81558697700E+01 -0.16509290009E+02  0.32877507441E+02  0.00000000000E+00 0.  1.
</event>
<event>
 5    1  0.1254921E-009  0.9118800E+02  0.7561462E-02  0.1125453E+00
         25   -1    0    0    0    0  0.00000000000E+00  0.00000000000E+00  0.99999998245E-14  0.12509000000E+03  0.12509000000E+03 0.  0.
        -13    1    3    3    0    0 -0.12135601805E+01 -0.21151746551E+02 -0.27987207788E+02  0.35102194722E+02  0.10566000000E+00 0.  1.
         23    2    1    0    0    0 -0.21854212322E+02  0.15385724824E+02  0.14384775543E+02  0.94737917831E+02  0.89744215318E+02 0.  0.
         13    1    3    3    0    0 -0.20640652141E+02  0.36537471376E+02  0.42371983331E+02  0.59635723109E+02  0.10566000000E+00 0. -1.
         22    1    1    0    0    0  0.21854212322E+02 -0.15385724824E+02 -0.14384775543E+02  0.30352082169E+02  0.00000000000E+00 0. -1.
</event>
<event>
 5    1  0.1254921E-009  0.9118800E+02  0.7561462E-02  0.1125453E+00
         25   -1    0    0    0    0  0.00000000000E+00  0.00000000000E+00  0.99999998245E-14  0.12509000000E+03  0.12509000000E+03 0.  0.
        -13    1    3    3    0    0 -0.20779233440E+02  0.49745664205E+02 -0.21839598512E+02  0.58166888148E+02  0.10566000000E+00 0. -1.
         23    2    1    0    0    0 -0.20955667061E+02  0.18330326820E+02  0.13520941384E+01  0.97215835943E+02  0.93134041769E+02 0.  0.
         13    1    3    3    0    0 -0.17643362112E+00 -0.31415337385E+02  0.23191692651E+02  0.39048947795E+02  0.10566000000E+00 0.  1.
         22    1    1    0    0    0  0.20955667061E+02 -0.18330326820E+02 -0.13520941384E+01  0.27874164057E+02  0.00000000000E+00 0. -1.
</event>
<event>
 5    1  0.1254921E-009  0.9118800E+02  0.7561462E-02  0.1125453E+00
         25   -1    0    0    0    0  0.00000000000E+00  0.00000000000E+00  0.99999998245E-14  0.12509000000E+03  0.12509000000E+03 0.  0.
        -13    1    3    3    0    0  0.22122787038E+02 -0.26719442470E+02  0.42605686552E+02  0.54941805602E+02  0.10566000000E+00 0.  1.
         23    2    1    0    0    0 -0.84350665618E+01 -0.23436210838E+02  0.17149147474E+02  0.94849305805E+02  0.89899339409E+02 0.  0.
         13    1    3    3    0    0 -0.30557853600E+02  0.32832316322E+01 -0.25456539077E+02  0.39907500202E+02  0.10566000000E+00 0. -1.
         22    1    1    0    0    0  0.84350665618E+01  0.23436210838E+02 -0.17149147474E+02  0.30240694195E+02  0.00000000000E+00 0.  1.
</event>
<event>
 5    1  0.1254921E-009  0.9118800E+02  0.7561462E-02  0.1125453E+00
         25   -1    0    0    0    0  0.00000000000E+00  0.00000000000E+00  0.99999998245E-14  0.12509000000E+03  0.12509000000E+03 0.  0.
        -13    1    3    3    0    0  0.26760551409E+02 -0.54662693069E+01 -0.79211663911E+01  0.28438763209E+02  0.10566000000E+00 0. -1.
         23    2    1    0    0    0 -0.26194474109E+02  0.14282846555E+02  0.17598464331E+02  0.90451060547E+02  0.83555599619E+02 0.  0.
         13    1    3    3    0    0 -0.52955025518E+02  0.19749115862E+02  0.25519630722E+02  0.62012297338E+02  0.10566000000E+00 0.  1.
         22    1    1    0    0    0  0.26194474109E+02 -0.14282846555E+02 -0.17598464331E+02  0.34638939453E+02  0.00000000000E+00 0.  1.
</event>
<event>
 5    1  0.1254921E-009  0.9118800E+02  0.7561462E-02  0.1125453E+00
         25   -1    0    0    0    0  0.00000000000E+00  0.00000000000E+00  0.99999998245E-14  0.12509000000E+03  0.12509000000E+03 0.  0.
        -13    1    3    3    0    0  0.45851049798E+02 -0.40318610577E+02 -0.10794342733E+02  0.62003533169E+02  0.10566000000E+00 0.  1.
         23    2    1    0    0    0  0.18089223377E+02 -0.19752323026E+02 -0.98055394088E+01  0.96567677682E+02  0.92259381650E+02 0.  0.
         13    1    3    3    0    0 -0.27761826421E+02  0.20566287550E+02  0.98880332409E+00  0.34564144513E+02  0.10566000000E+00 0. -1.
         22    1    1    0    0    0 -0.18089223377E+02  0.19752323026E+02  0.98055394088E+01  0.28522322318E+02  0.00000000000E+00 0.  1.
</event>
<event>
 5    1  0.1254921E-009  0.9118800E+02  0.7561462E-02  0.1125453E+00
         25   -1    0    0    0    0  0.00000000000E+00  0.00000000000E+00  0.99999998245E-14  0.12509000000E+03  0.12509000000E+03 0.  0.
        -13    1    3    3    0    0 -0.32203270288E+02 -0.30850168425E+01  0.46921539975E+02  0.56993069963E+02  0.10566000000E+00 0. -1.
         23    2    1    0    0    0 -0.16935892926E+02 -0.18601705368E+02  0.14472302151E+02  0.96067673399E+02  0.91578940979E+02 0.  0.
         13    1    3    3    0    0  0.15267377361E+02 -0.15516688526E+02 -0.32449237824E+02  0.39074603436E+02  0.10566000000E+00 0.  1.
         22    1    1    0    0    0  0.16935892926E+02  0.18601705368E+02 -0.14472302151E+02  0.29022326601E+02  0.00000000000E+00 0. -1.
</event>
<event>
 5    1  0.1254921E-009  0.9118800E+02  0.7561462E-02  0.1125453E+00
         25   -1    0    0    0    0  0.00000000000E+00  0.00000000000E+00  0.99999998245E-14  0.12509000000E+03  0.12509000000E+03 0.  0.
        -13    1    3    3    0    0 -0.28995570509E+02  0.14589809227E+02 -0.46539495770E+02  0.56741003455E+02  0.10566000000E+00 0.  1.
         23    2    1    0    0    0  0.58441213996E+01  0.19356170038E+01 -0.24419897778E+02  0.99906041303E+02  0.96679808199E+02 0.  0.
         13    1    3    3    0    0  0.34839691909E+02 -0.12654192223E+02  0.22119597992E+02  0.43165037849E+02  0.10566000000E+00 0. -1.
         22    1    1    0    0    0 -0.58441213996E+01 -0.19356170038E+01  0.24419897778E+02  0.25183958697E+02  0.00000000000E+00 0.  1.
</event>
<event>
 5    1  0.1254921E-009  0.9118800E+02  0.7561462E-02  0.1125453E+00
         25   -1    0    0    0    0  0.00000000000E+00  0.00000000000E+00  0.99999998245E-14  0.12509000000E+03  0.12509000000E+03 0.  0.
        -13    1    3    3    0    0 -0.15144256291E+01 -0.57910417452E+02  0.14039946400E+02  0.59607392104E+02  0.10566000000E+00 0.  1.
         23    2    1    0    0    0 -0.77735347075E+01 -0.27944128270E+02 -0.49977697570E+01  0.95657367614E+02  0.91016768399E+02 0.  0.
         13    1    3    3    0    0 -0.62591090784E+01  0.29966289182E+02 -0.19037716157E+02  0.36049975511E+02  0.10566000000E+00 0. -1.
         22    1    1    0    0    0  0.77735347075E+01  0.27944128270E+02  0.49977697570E+01  0.29432632386E+02  0.00000000000E+00 0.  1.
</event>
<event>
 5    1  0.1254921E-009  0.9118800E+02  0.7561462E-02  0.1125453E+00
         25   -1    0    0    0    0  0.00000000000E+00  0.00000000000E+00  0.99999998245E-14  0.12509000000E+03  0.12509000000E+03 0.  0.
        -13    1    3    3    0    0  0.23456812467E+02 -0.13919310258E+02  0.54185348376E+02  0.60663270533E+02  0.10566000000E+00 0.  1.
         23    2    1    0    0    0  0.80782438039E+01  0.38393692834E+01  0.27279147881E+02  0.96381975189E+02  0.92007252175E+02 0.  0.
         13    1    3    3    0    0 -0.15378568663E+02  0.17758679542E+02 -0.26906200495E+02  0.35718704656E+02  0.10566000000E+00 0. -1.
         22    1    1    0    0    0 -0.80782438039E+01 -0.38393692834E+01 -0.27279147881E+02  0.28708024811E+02  0.00000000000E+00 0.  1.
</event>
<event>
 5    1  0.1254921E-009  0.9118800E+02  0.7561462E-02  0.1125453E+00
         25   -1    0    0    0    0  0.00000000000E+00  0.00000000000E+00  0.99999998245E-14  0.12509000000E+03  0.12509000000E+03 0.  0.
        -13    1    3    3    0    0  0.50568258298E+02  0.13883745807E+02 -0.32754682366E+02  0.61828695004E+02  0.10566000000E+00 0.  1.
         23    2    1    0    0    0  0.21346162236E+02  0.27570779358E+01 -0.20353410566E+02  0.95467011585E+02  0.90754773199E+02 0.  0.
         13    1    3    3    0    0 -0.29222096062E+02 -0.11126667871E+02  0.12401271800E+02  0.33638316582E+02  0.10566000000E+00 0. -1.
         22    1    1    0    0    0 -0.21346162236E+02 -0.27570779358E+01  0.20353410566E+02  0.29622988415E+02  0.00000000000E+00 0.  1.
</event>
<event>
 5    1  0.1254921E-009  0.9118800E+02  0.7561462E-02  0.1125453E+00
         25   -1    0    0    0    0  0.00000000000E+00  0.00000000000E+00  0.99999998245E-14  0.12509000000E+03  0.12509000000E+03 0.  0.
        -13    1    3    3    0    0 -0.79653183736E+01 -0.28300261100E+02 -0.24470426671E+02  0.38251327044E+02  0.10566000000E+00 0.  1.
         23    2    1    0    0    0 -0.22978035844E+02  0.19788711694E+02  0.10962736982E+01  0.94745559689E+02  0.89754866291E+02 0.  0.
         13    1    3    3    0    0 -0.15012717471E+02  0.48088972795E+02  0.25566700369E+02  0.56494232645E+02  0.10566000000E+00 0. -1.
         22    1    1    0    0    0  0.22978035844E+02 -0.19788711694E+02 -0.10962736982E+01  0.30344440311E+02  0.00000000000E+00 0.  1.
</event>
<event>
 5    1  0.1254921E-009  0.9118800E+02  0.7561462E-02  0.1125453E+00
         25   -1    0    0    0    0  0.00000000000E+00  0.00000000000E+00  0.99999998245E-14  0.12509000000E+03  0.12509000000E+03 0.  0.
        -13    1    3    3    0    0 -0.36418208769E+01 -0.42571170233E+02 -0.11428033555E+02  0.44228706846E+02  0.10566000000E+00 0. -1.
         23    2    1    0    0    0  0.26919421088E+02 -0.73021008734E+01  0.98378745087E+01  0.95513663449E+02  0.90819052086E+02 0.  0.
         13    1    3    3    0    0  0.30561241965E+02  0.35269069360E+02  0.21265908064E+02  0.51284956603E+02  0.10566000000E+00 0.  1.
         22    1    1    0    0    0 -0.26919421088E+02  0.73021008734E+01 -0.98378745087E+01  0.29576336551E+02  0.00000000000E+00 0. -1.
</event>
<event>
 5    1  0.1254921E-009  0.9118800E+02  0.7561462E-02  0.1125453E+00
         25   -1    0    0    0    0  0.00000000000E+00  0.00000000000E+00  0.99999998245E-14  0.12509000000E+03  0.12509000000E+03 0.  0.
        -13    1    3    3    0    0  0.34065381063E+02 -0.81306082607E+01  0.21963561021E+02  0.41339643859E+02  0.10566000000E+00 0.  1.
         23    2    1    0    0    0  0.24393683108E+01 -0.23521785535E+02 -0.18581859489E+02  0.95014920373E+02  0.90129488398E+02 0.  0.
         13    1    3    3    0    0 -0.31626012752E+02 -0.15391177274E+02 -0.40545420510E+02  0.53675276514E+02  0.10566000000E+00 0. -1.
         22    1    1    0    0    0 -0.24393683108E+01  0.23521785535E+02  0.18581859489E+02  0.30075079627E+02  0.00000000000E+00 0.  1.
</event>
<event>
 5    1  0.1254921E-009  0.9118800E+02  0.7561462E-02  0.1125453E+00
         25   -1    0    0    0    0  0.00000000000E+00  0.00000000000E+00  0.99999998245E-14  0.12509000000E+03  0.12509000000E+03 0.  0.
        -13    1    3    3    0    0 -0.44431954238E+02  0.33383291130E+02  0.15522332319E+02  0.57702657207E+02  0.10566000000E+00 0.  1.
         23    2    1    0    0    0 -0.29135462185E+02  0.14182584594E+01  0.12870716764E+01  0.95891658141E+02  0.91338200846E+02 0.  0.
         13    1    3    3    0    0  0.15296492053E+02 -0.31965032671E+02 -0.14235260643E+02  0.38189000934E+02  0.10566000000E+00 0. -1.
         22    1    1    0    0    0  0.29135462185E+02 -0.14182584594E+01 -0.12870716764E+01  0.29198341859E+02  0.00000000000E+00 0.  1.
</event>
<event>
 5    1  0.1254921E-009  0.9118800E+02  0.7561462E-02  0.1125453E+00
         25   -1    0    0    0    0  0.00000000000E+00  0.00000000000E+00  0.99999998245E-14  0.12509000000E+03  0.12509000000E+03 0.  0.
        -13    1    3    3    0    0  0.83062493361E+01  0.20576593006E+01  0.61189922508E+02  0.61785479851E+02  0.10566000000E+00 0. -1.
         23    2    1    0    0    0 -0.19391964881E+01 -0.22070513432E+01  0.31007405207E+02  0.93943720345E+02  0.88630310029E+02 0.  0.
         13    1    3    3    0    0 -0.10245445824E+02 -0.42647106437E+01 -0.30182517301E+02  0.32158240494E+02  0.10566000000E+00 0.  1.
         22    1    1    0    0    0  0.19391964881E+01  0.22070513432E+01 -0.31007405207E+02  0.31146279655E+02  0.00000000000E+00 0. -1.
</event>
<event>
 5    1  0.1254921E-009  0.9118800E+02  0.7561462E-02  0.1125453E+00
         25   -1    0    0    0    0  0.00000000000E+00  0.00000000000E+00  0.99999998245E-14  0.12509000000E+03  0.12509000000E+03 0.  0.
        -13    1    3    3    0    0  0.32823078452E+02 -0.97513774632E+01  0.68993909304E+01  0.34929308621E+02  0.10566000000E+00 0.  1.
         23    2    1    0    0    0 -0.24758122258E+02 -0.62385071245E+01 -0.13612584500E+02  0.96155832557E+02  0.91699280745E+02 0.  0.
         13    1    3    3    0    0 -0.57581200710E+02  0.35128703387E+01 -0.20511975430E+02  0.61226523936E+02  0.10566000000E+00 0. -1.
         22    1    1    0    0    0  0.24758122258E+02  0.62385071245E+01  0.13612584500E+02  0.28934167443E+02  0.00000000000E+00 0. -1.
</event>
<event>
 5    1  0.1254921E-009  0.9118800E+02  0.7561462E-02  0.1125453E+00
         25   -1    0    0    0    0  0.00000000000E+00  0.00000000000E+00  0.99999998245E-14  0.12509000000E+03  0.12509000000E+03 0.  0.
        -13    1    3    3    0    0 -0.17009567736E+02  0.17037915746E+01 -0.33918701001E+02  0.37983124436E+02  0.10566000000E+00 0. -1.
         23    2    1    0    0    0 -0.14331912896E+02 -0.16167782879E+02  0.20489408519E+02  0.95313888904E+02  0.90543473680E+02 0.  0.
         13    1    3    3    0    0  0.26776548403E+01 -0.17871574454E+02  0.54408109520E+02  0.57330764468E+02  0.10566000000E+00 0.  1.
         22    1    1    0    0    0  0.14331912896E+02  0.16167782879E+02 -0.20489408519E+02  0.29776111096E+02  0.00000000000E+00 0.  1.
</event>
<event>
 5    1  0.1254921E-009  0.9118800E+02  0.7561462E-02  0.1125453E+00
         25   -1    0    0    0    0  0.00000000000E+00  0.00000000000E+00  0.99999998245E-14  0.12509000000E+03  0.12509000000E+03 0.  0.
        -13    1    3    3    0    0 -0.27748316827E+02  0.24667380175E+02 -0.10863408995E+02  0.38684280405E+02  0.10566000000E+00 0. -1.
         23    2    1    0    0    0  0.26789213642E+02  0.10088752815E+02  0.13086229887E+01  0.96434156006E+02  0.92078168148E+02 0.  0.
         13    1    3    3    0    0  0.54537530468E+02 -0.14578627359E+02  0.12172031984E+02  0.57749875601E+02  0.10566000000E+00 0.  1.
         22    1    1    0    0    0 -0.26789213642E+02 -0.10088752815E+02 -0.13086229887E+01  0.28655843994E+02  0.00000000000E+00 0.  1.
</event>
<event>
 5    1  0.1254921E-009  0.9118800E+02  0.7561462E-02  0.1125453E+00
         25   -1    0    0    0    0  0.00000000000E+00  0.00000000000E+00  0.99999998245E-14  0.12509000000E+03  0.12509000000E+03 0.  0.
        -13    1    3    3    0    0  0.29088543164E+02  0.71447379540E+01 -0.25003192354E+02  0.39017450144E+02  0.10566000000E+00 0. -1.
         23    2    1    0    0    0  0.96040617210E+00  0.99647989342E+01  0.25943673137E+02  0.97281839801E+02  0.93222650581E+02 0.  0.
         13    1    3    3    0    0 -0.28128136992E+02  0.28200609802E+01  0.50946865492E+02  0.58264389656E+02  0.10566000000E+00 0.  1.
         22    1    1    0    0    0 -0.96040617210E+00 -0.99647989342E+01 -0.25943673137E+02  0.27808160199E+02  0.00000000000E+00 0.  1.
</event>
<event>
 5    1  0.1254921E-009  0.9118800E+02  0.7561462E-02  0.1125453E+00
         25   -1    0    0    0    0  0.00000000000E+00  0.00000000000E+00  0.99999998245E-14  0.12509000000E+03  0.12509000000E+03 0.  0.
        -13    1    3    3    0    0 -0.23035988547E+02  0.17487656571E+02  0.34100512685E+02  0.44713879614E+02  0.10566000000E+00 0.  1.
         23    2    1    0    0    0  0.15561739172E+02  0.25386128908E+02  0.25185609560E+01  0.95207456329E+02  0.90396312559E+02 0.  0.
         13    1    3    3    0    0  0.38597727719E+02  0.78984723365E+01 -0.31581951729E+02  0.50493576714E+02  0.10566000000E+00 0. -1.
         22    1    1    0    0    0 -0.15561739172E+02 -0.25386128908E+02 -0.25185609560E+01  0.29882543671E+02  0.00000000000E+00 0. -1.
</event>
<event>
 5    1  0.1254921E-009  0.9118800E+02  0.7561462E-02  0.1125453E+00
         25   -1    0    0    0    0  0.00000000000E+00  0.00000000000E+00  0.99999998245E-14  0.12509000000E+03  0.12509000000E+03 0.  0.
        -13    1    3    3    0    0 -0.22782961876E+02 -0.24064288585E+02  0.15446739240E+02  0.36561814153E+02  0.10566000000E+00 0.  1.
         23    2    1    0    0    0  0.18265265182E+02  0.19241398369E+02  0.10914650160E+02  0.96402356118E+02  0.92034957237E+02 0.  0.
         13    1    3    3    0    0  0.41048227059E+02  0.43305686954E+02 -0.45320890803E+01  0.59840541965E+02  0.10566000000E+00 0. -1.
         22    1    1    0    0    0 -0.18265265182E+02 -0.19241398369E+02 -0.10914650160E+02  0.28687643882E+02  0.00000000000E+00 0. -1.
</event>
<event>
 5    1  0.1254921E-009  0.9118800E+02  0.7561462E-02  0.1125453E+00
         25   -1    0    0    0    0  0.00000000000E+00  0.00000000000E+00  0.99999998245E-14  0.12509000000E+03  0.12509000000E+03 0.  0.
        -13    1    3    3    0    0  0.48896306401E+01 -0.42104691478E+02 -0.25961537247E+02  0.49706399111E+02  0.10566000000E+00 0.  1.
         23    2    1    0    0    0 -0.16531908730E+00  0.46364729030E+01 -0.27945438091E+02  0.96762068175E+02  0.92522570846E+02 0.  0.
         13    1    3    3    0    0 -0.50549497274E+01  0.46741164381E+02 -0.19839008440E+01  0.47055669064E+02  0.10566000000E+00 0. -1.
         22    1    1    0    0    0  0.16531908730E+00 -0.46364729030E+01  0.27945438091E+02  0.28327931825E+02  0.00000000000E+00 0. -1.
</event>
<event>
 5    1  0.1254921E-009  0.9118800E+02  0.7561462E-02  0.1125453E+00
         25   -1    0    0    0    0  0.00000000000E+00  0.00000000000E+00  0.99999998245E-14  0.12509000000E+03  0.12509000000E+03 0.  0.
        -13    1    3    3    0    0 -0.47348314901E+02 -0.11745310653E+02  0.20244655046E+02  0.52817350069E+02  0.10566000000E+00 0. -1.
         23    2    1    0    0    0 -0.25504568659E+02 -0.61491338696E+01 -0.15157286678E+02  0.94790854644E+02  0.89817971002E+02 0.  0.
         13    1    3    3    0    0  0.21843746242E+02  0.55961767838E+01 -0.35401941724E+02  0.41973504576E+02  0.10566000000E+00 0.  1.
         22    1    1    0    0    0  0.25504568659E+02  0.61491338696E+01  0.15157286678E+02  0.30299145356E+02  0.00000000000E+00 0. -1.
</event>
<event>
 5    1  0.1254921E-009  0.9118800E+02  0.7561462E-02  0.1125453E+00
         25   -1    0    0    0    0  0.00000000000E+00  0.00000000000E+00  0.99999998245E-14  0.12509000000E+03  0.12509000000E+03 0.  0.
        -13    1    3    3    0    0  0.22973051014E+01 -0.17382747684E+02 -0.53313923211E+02  0.56123284829E+02  0.10566000000E+00 0.  1.
         23    2    1    0    0    0  0.47563794309E+00  0.11242214069E+02 -0.29878389515E+02  0.93163024437E+02  0.87521525087E+02 0.  0.
         13    1    3    3    0    0 -0.18216671583E+01  0.28624961753E+02  0.23435533696E+02  0.37039739608E+02  0.10566000000E+00 0. -1.
         22    1    1    0    0    0 -0.47563794309E+00 -0.11242214069E+02  0.29878389515E+02  0.31926975563E+02  0.00000000000E+00 0.  1.
</event>
<event>
 5    1  0.1254921E-009  0.9118800E+02  0.7561462E-02  0.1125453E+00
         25   -1    0    0    0    0  0.00000000000E+00  0.00000000000E+00  0.99999998245E-14  0.12509000000E+03  0.12509000000E+03 0.  0.
        -13    1    3    3    0    0 -0.41973591928E+02  0.44192805845E+02 -0.41003227810E+01  0.61086907916E+02  0.10566000000E+00 0.  1.
         23    2    1    0    0    0 -0.14300867191E+02  0.25585408663E+02  0.42733587528E+01  0.95469238127E+02  0.90757842056E+02 0.  0.
         13    1    3    3    0    0  0.27672724738E+02 -0.18607397182E+02  0.83736815338E+01  0.34382330211E+02  0.10566000000E+00 0. -1.
         22    1    1    0    0    0  0.14300867191E+02 -0.25585408663E+02 -0.42733587528E+01  0.29620761873E+02  0.00000000000E+00 0.  1.
</event>
<event>
 5    1  0.1254921E-009  0.9118800E+02  0.7561462E-02  0.1125453E+00
         25   -1    0    0    0    0  0.00000000000E+00  0.00000000000E+00  0.99999998245E-14  0.12509000000E+03  0.12509000000E+03 0.  0.
        -13    1    3    3    0    0  0.26973607967E+02 -0.18293901284E+02 -0.50331488637E+02  0.59962590533E+02  0.10566000000E+00 0.  1.
         23    2    1    0    0    0  0.22991285977E+02 -0.38426769307E+01 -0.17869634005E+02  0.95718428433E+02  0.91100649423E+02 0.  0.
         13    1    3    3    0    0 -0.39823219899E+01  0.14451224353E+02  0.32461854632E+02  0.35755837900E+02  0.10566000000E+00 0. -1.
         22    1    1    0    0    0 -0.22991285977E+02  0.38426769307E+01  0.17869634005E+02  0.29371571567E+02  0.00000000000E+00 0.  1.
</event>
<event>
 5    1  0.1254921E-009  0.9118800E+02  0.7561462E-02  0.1125453E+00
         25   -1    0    0    0    0  0.00000000000E+00  0.00000000000E+00  0.99999998245E-14  0.12509000000E+03  0.12509000000E+03 0.  0.
        -13    1    3    3    0    0  0.41080533323E+02 -0.38276953101E+02 -0.14362229471E+01  0.56167688730E+02  0.10566000000E+00 0.  1.
         23    2    1    0    0    0  0.26455300643E+02 -0.54252434678E+00 -0.86002889862E+01  0.97266588357E+02  0.93202183318E+02 0.  0.
         13    1    3    3    0    0 -0.14625232680E+02  0.37734428755E+02 -0.71640660391E+01  0.41098899628E+02  0.10566000000E+00 0. -1.
         22    1    1    0    0    0 -0.26455300643E+02  0.54252434678E+00  0.86002889862E+01  0.27823411643E+02  0.00000000000E+00 0.  1.
</event>
<event>
 5    1  0.1254921E-009  0.9118800E+02  0.7561462E-02  0.1125453E+00
         25   -1    0    0    0    0  0.00000000000E+00  0.00000000000E+00  0.99999998245E-14  0.12509000000E+03  0.12509000000E+03 0.  0.
        -13    1    3    3    0    0  0.33922809742E+02  0.22507371822E+02 -0.42182040980E+02  0.58623157135E+02  0.10566000000E+00 0. -1.
         23    2    1    0    0    0  0.14426296323E+02  0.23893284227E+02 -0.11716387486E+02  0.94819869633E+02  0.89858371255E+02 0.  0.
         13    1    3    3    0    0 -0.19496513420E+02  0.13859124047E+01  0.30465653495E+02  0.36196712497E+02  0.10566000000E+00 0.  1.
         22    1    1    0    0    0 -0.14426296323E+02 -0.23893284227E+02  0.11716387486E+02  0.30270130367E+02  0.00000000000E+00 0. -1.
</event>
<event>
 5    1  0.1254921E-009  0.9118800E+02  0.7561462E-02  0.1125453E+00
         25   -1    0    0    0    0  0.00000000000E+00  0.00000000000E+00  0.99999998245E-14  0.12509000000E+03  0.12509000000E+03 0.  0.
        -13    1    3    3    0    0 -0.28043069377E+02 -0.16327317840E+02 -0.26234007183E+01  0.32555927929E+02  0.10566000000E+00 0. -1.
         23    2    1    0    0    0  0.25889518177E+02  0.75295392705E+01  0.15167137422E+02  0.94154532157E+02  0.88927345373E+02 0.  0.
         13    1    3    3    0    0  0.53932587555E+02  0.23856857110E+02  0.17790538141E+02  0.61598604228E+02  0.10566000000E+00 0.  1.
         22    1    1    0    0    0 -0.25889518177E+02 -0.75295392705E+01 -0.15167137422E+02  0.30935467843E+02  0.00000000000E+00 0.  1.
</event>
<event>
 5    1  0.1254921E-009  0.9118800E+02  0.7561462E-02  0.1125453E+00
         25   -1    0    0    0    0  0.00000000000E+00  0.00000000000E+00  0.99999998245E-14  0.12509000000E+03  0.12509000000E+03 0.  0.
        -13    1    3    3    0    0 -0.36884614168E+02 -0.12813497861E+02  0.46683343296E+02  0.60860547114E+02  0.10566000000E+00 0.  1.
         23    2    1    0    0    0 -0.18665485607E+02  0.42185307126E+01  0.21586236767E+02  0.96242782247E+02  0.91817815061E+02 0.  0.
         13    1    3    3    0    0  0.18219128561E+02  0.17032028574E+02 -0.25097106528E+02  0.35382235133E+02  0.10566000000E+00 0. -1.
         22    1    1    0    0    0  0.18665485607E+02 -0.42185307126E+01 -0.21586236767E+02  0.28847217753E+02  0.00000000000E+00 0.  1.
</event>
<event>
 5    1  0.1254921E-009  0.9118800E+02  0.7561462E-02  0.1125453E+00
         25   -1    0    0    0    0  0.00000000000E+00  0.00000000000E+00  0.99999998245E-14  0.12509000000E+03  0.12509000000E+03 0.  0.
        -13    1    3    3    0    0 -0.14082465622E+02 -0.49800264315E+02 -0.23027985524E+02  0.56645224381E+02  0.10566000000E+00 0.  1.
         23    2    1    0    0    0  0.91912352786E+01 -0.15457063320E+02 -0.19927998562E+02  0.98247408115E+02  0.94509409384E+02 0.  0.
         13    1    3    3    0    0  0.23273700900E+02  0.34343200995E+02  0.30999869615E+01  0.41602183733E+02  0.10566000000E+00 0. -1.
         22    1    1    0    0    0 -0.91912352786E+01  0.15457063320E+02  0.19927998562E+02  0.26842591885E+02  0.00000000000E+00 0.  1.
</event>
<event>
 5    1  0.1254921E-009  0.9118800E+02  0.7561462E-02  0.1125453E+00
         25   -1    0    0    0    0  0.00000000000E+00  0.00000000000E+00  0.99999998245E-14  0.12509000000E+03  0.12509000000E+03 0.  0.
        -13    1    3    3    0    0  0.13587614151E+01 -0.30905190469E+02 -0.14275700985E+02  0.34070277855E+02  0.10566000000E+00 0. -1.
         23    2    1    0    0    0  0.11752886955E+02  0.22593059187E+02  0.14588046057E+02  0.95740591778E+02  0.91131076758E+02 0.  0.
         13    1    3    3    0    0  0.10394125539E+02  0.53498249656E+02  0.28863747042E+02  0.61670313923E+02  0.10566000000E+00 0.  1.
         22    1    1    0    0    0 -0.11752886955E+02 -0.22593059187E+02 -0.14588046057E+02  0.29349408222E+02  0.00000000000E+00 0.  1.
</event>
<event>
 5    1  0.1254921E-009  0.9118800E+02  0.7561462E-02  0.1125453E+00
         25   -1    0    0    0    0  0.00000000000E+00  0.00000000000E+00  0.99999998245E-14  0.12509000000E+03  0.12509000000E+03 0.  0.
        -13    1    3    3    0    0  0.85166878607E+01 -0.38778460599E+02  0.12709150465E+02  0.41687367969E+02  0.10566000000E+00 0.  1.
         23    2    1    0    0    0 -0.99911227590E+01  0.68601388302E+01  0.29079879379E+02  0.93585660244E+02  0.88123506397E+02 0.  0.
         13    1    3    3    0    0 -0.18507810620E+02  0.45638599430E+02  0.16370728914E+02  0.51898292275E+02  0.10566000000E+00 0. -1.
         22    1    1    0    0    0  0.99911227590E+01 -0.68601388302E+01 -0.29079879379E+02  0.31504339756E+02  0.00000000000E+00 0. -1.
</event>
<event>
 5    1  0.1254921E-009  0.9118800E+02  0.7561462E-02  0.1125453E+00
         25   -1    0    0    0    0  0.00000000000E+00  0.00000000000E+00  0.99999998245E-14  0.12509000000E+03  0.12509000000E+03 0.  0.
        -13    1    3    3    0    0  0.24181362156E+02 -0.75109163746E+01  0.36506885302E+02  0.44428774223E+02  0.10566000000E+00 0.  1.
         23    2    1    0    0    0 -0.22750929211E+02  0.22682119816E+01  0.18641766824E+02  0.95589745155E+02  0.90923783153E+02 0.  0.
         13    1    3    3    0    0 -0.46932291368E+02  0.97791283562E+01 -0.17865118477E+02  0.51160970932E+02  0.10566000000E+00 0. -1.
         22    1    1    0    0    0  0.22750929211E+02 -0.22682119816E+01 -0.18641766824E+02  0.29500254845E+02  0.00000000000E+00 0. -1.
</event>
<event>
 5    1  0.1254921E-009  0.9118800E+02  0.7561462E-02  0.1125453E+00
         25   -1    0    0    0    0  0.00000000000E+00  0.00000000000E+00  0.99999998245E-14  0.12509000000E+03  0.12509000000E+03 0.  0.
        -13    1    3    3    0    0  0.23260878751E+02 -0.13900109904E+02 -0.38691240477E+02  0.47236689018E+02  0.10566000000E+00 0. -1.
         23    2    1    0    0    0 -0.20277165564E+02 -0.12769378915E+02 -0.12417266565E+02  0.98100946847E+02  0.94315358146E+02 0.  0.
         13    1    3    3    0    0 -0.43538044315E+02  0.11307309893E+01  0.26273973912E+02  0.50864257829E+02  0.10566000000E+00 0.  1.
         22    1    1    0    0    0  0.20277165564E+02  0.12769378915E+02  0.12417266565E+02  0.26989053153E+02  0.00000000000E+00 0.  1.
</event>
<event>
 5    1  0.1254921E-009  0.9118800E+02  0.7561462E-02  0.1125453E+00
         25   -1    0    0    0    0  0.00000000000E+00  0.00000000000E+00  0.99999998245E-14  0.12509000000E+03  0.12509000000E+03 0.  0.
        -13    1    3    3    0    0 -0.53085345202E+01 -0.12076145566E+02 -0.51365646351E+02  0.53032580736E+02  0.10566000000E+00 0.  1.
         23    2    1    0    0    0  0.29204481825E+01 -0.26369378905E+02 -0.11502065471E+02  0.96173384162E+02  0.91723220340E+02 0.  0.
         13    1    3    3    0    0  0.82289827027E+01 -0.14293233339E+02  0.39863580880E+02  0.43140803425E+02  0.10566000000E+00 0. -1.
         22    1    1    0    0    0 -0.29204481825E+01  0.26369378905E+02  0.11502065471E+02  0.28916615838E+02  0.00000000000E+00 0.  1.
</event>
<event>
 5    1  0.1254921E-009  0.9118800E+02  0.7561462E-02  0.1125453E+00
         25   -1    0    0    0    0  0.00000000000E+00  0.00000000000E+00  0.99999998245E-14  0.12509000000E+03  0.12509000000E+03 0.  0.
        -13    1    3    3    0    0 -0.29555513876E+02 -0.67250449378E+01 -0.18167953794E+01  0.30365548561E+02  0.10566000000E+00 0. -1.
         23    2    1    0    0    0  0.14922051518E+02  0.99683534309E+01  0.31808465991E+02  0.88568578884E+02  0.80688158766E+02 0.  0.
         13    1    3    3    0    0  0.44477565394E+02  0.16693398369E+02  0.33625261371E+02  0.58203030323E+02  0.10566000000E+00 0.  1.
         22    1    1    0    0    0 -0.14922051518E+02 -0.99683534309E+01 -0.31808465991E+02  0.36521421116E+02  0.00000000000E+00 0.  1.
</event>
<event>
 5    1  0.1254921E-009  0.9118800E+02  0.7561462E-02  0.1125453E+00
         25   -1    0    0    0    0  0.00000000000E+00  0.00000000000E+00  0.99999998245E-14  0.12509000000E+03  0.12509000000E+03 0.  0.
        -13    1    3    3    0    0 -0.28030703684E+02 -0.54056603570E+02  0.23855990688E+01  0.60938813457E+02  0.10566000000E+00 0. -1.
         23    2    1    0    0    0 -0.52819039464E+01 -0.28873026554E+02 -0.39843852044E+01  0.95468631072E+02  0.90757005358E+02 0.  0.
         13    1    3    3    0    0  0.22748799738E+02  0.25183577016E+02 -0.63699842731E+01  0.34529817615E+02  0.10566000000E+00 0.  1.
         22    1    1    0    0    0  0.52819039464E+01  0.28873026554E+02  0.39843852044E+01  0.29621368928E+02  0.00000000000E+00 0. -1.
</event>
<event>
 5    1  0.1254921E-009  0.9118800E+02  0.7561462E-02  0.1125453E+00
         25   -1    0    0    0    0  0.00000000000E+00  0.00000000000E+00  0.99999998245E-14  0.12509000000E+03  0.12509000000E+03 0.  0.
        -13    1    3    3    0    0 -0.77120848108E+01  0.59027162199E+02 -0.16209823248E+02  0.61696447735E+02  0.10566000000E+00 0.  1.
         23    2    1    0    0    0 -0.28087466976E+00  0.26036520874E+02 -0.13853786605E+02  0.95595818996E+02  0.90932138963E+02 0.  0.
         13    1    3    3    0    0  0.74312101411E+01 -0.32990641325E+02  0.23560366426E+01  0.33899371261E+02  0.10566000000E+00 0. -1.
         22    1    1    0    0    0  0.28087466976E+00 -0.26036520874E+02  0.13853786605E+02  0.29494181004E+02  0.00000000000E+00 0.  1.
</event>
<event>
 5    1  0.1254921E-009  0.9118800E+02  0.7561462E-02  0.1125453E+00
         25   -1    0    0    0    0  0.00000000000E+00  0.00000000000E+00  0.99999998245E-14  0.12509000000E+03  0.12509000000E+03 0.  0.
        -13    1    3    3    0    0  0.14237114238E+02 -0.32014167833E+01  0.57000365982E+02  0.58838740447E+02  0.10566000000E+00 0.  1.
         23    2    1    0    0    0 -0.86227454955E+01 -0.31763575748E+01  0.27085024795E+02  0.96488609204E+02  0.92152114195E+02 0.  0.
         13    1    3    3    0    0 -0.22859859734E+02  0.25059208517E-01 -0.29915341187E+02  0.37649868756E+02  0.10566000000E+00 0. -1.
         22    1    1    0    0    0  0.86227454955E+01  0.31763575748E+01 -0.27085024795E+02  0.28601390796E+02  0.00000000000E+00 0.  1.
</event>
<event>
 5    1  0.1254921E-009  0.9118800E+02  0.7561462E-02  0.1125453E+00
         25   -1    0    0    0    0  0.00000000000E+00  0.00000000000E+00  0.99999998245E-14  0.12509000000E+03  0.12509000000E+03 0.  0.
        -13    1    3    3    0    0 -0.20551349678E+02 -0.59803726425E+01  0.45990782484E+02  0.50727567141E+02  0.10566000000E+00 0.  1.
         23    2    1    0    0    0  0.12263871124E+02  0.13780992430E+02  0.23732194054E+02  0.95031135718E+02  0.90151990738E+02 0.  0.
         13    1    3    3    0    0  0.32815220802E+02  0.19761365073E+02 -0.22258588430E+02  0.44303568578E+02  0.10566000000E+00 0. -1.
         22    1    1    0    0    0 -0.12263871124E+02 -0.13780992430E+02 -0.23732194054E+02  0.30058864282E+02  0.00000000000E+00 0.  1.
</event>
<event>
 5    1  0.1254921E-009  0.9118800E+02  0.7561462E-02  0.1125453E+00
         25   -1    0    0    0    0  0.00000000000E+00  0.00000000000E+00  0.99999998245E-14  0.12509000000E+03  0.12509000000E+03 0.  0.
        -13    1    3    3    0    0 -0.31564266969E+02 -0.24389133805E+02 -0.38512559705E+01  0.40074632046E+02  0.10566000000E+00 0. -1.
         23    2    1    0    0    0  0.24331883523E+02 -0.13687066234E+02 -0.31997498920E+01  0.96989915708E+02  0.92830108326E+02 0.  0.
         13    1    3    3    0    0  0.55896150492E+02  0.10702067571E+02  0.65150607854E+00  0.56915283662E+02  0.10566000000E+00 0.  1.
         22    1    1    0    0    0 -0.24331883523E+02  0.13687066234E+02  0.31997498920E+01  0.28100084292E+02  0.00000000000E+00 0.  1.
</event>
<event>
 5    1  0.1254921E-009  0.9118800E+02  0.7561462E-02  0.1125453E+00
         25   -1    0    0    0    0  0.00000000000E+00  0.00000000000E+00  0.99999998245E-14  0.12509000000E+03  0.12509000000E+03 0.  0.
        -13    1    3    3    0    0  0.25652516160E+02  0.14757112389E+02  0.36662699204E+02  0.47116755282E+02  0.10566000000E+00 0.  1.
         23    2    1    0    0    0 -0.19067972165E+02  0.10419030906E+02  0.21461755755E+02  0.94549031981E+02  0.89480549400E+02 0.  0.
         13    1    3    3    0    0 -0.44720488325E+02 -0.43380814835E+01 -0.15200943449E+02  0.47432276698E+02  0.10566000000E+00 0. -1.
         22    1    1    0    0    0  0.19067972165E+02 -0.10419030906E+02 -0.21461755755E+02  0.30540968019E+02  0.00000000000E+00 0.  1.
</event>
<event>
 5    1  0.1254921E-009  0.9118800E+02  0.7561462E-02  0.1125453E+00
         25   -1    0    0    0    0  0.00000000000E+00  0.00000000000E+00  0.99999998245E-14  0.12509000000E+03  0.12509000000E+03 0.  0.
        -13    1    3    3    0    0 -0.98668228948E+01  0.40775905157E+02 -0.32311112222E+02  0.52953260263E+02  0.10566000000E+00 0.  1.
         23    2    1    0    0    0  0.54102861179E+00  0.36411656125E+02  0.15455305336E+01  0.88641542167E+02  0.80801193800E+02 0.  0.
         13    1    3    3    0    0  0.10407851507E+02 -0.43642490313E+01  0.33856642756E+02  0.35688281905E+02  0.10566000000E+00 0. -1.
         22    1    1    0    0    0 -0.54102861179E+00 -0.36411656125E+02 -0.15455305336E+01  0.36448457833E+02  0.00000000000E+00 0.  1.
</event>
<event>
 5    1  0.1254921E-009  0.9118800E+02  0.7561462E-02  0.1125453E+00
         25   -1    0    0    0    0  0.00000000000E+00  0.00000000000E+00  0.99999998245E-14  0.12509000000E+03  0.12509000000E+03 0.  0.
        -13    1    3    3    0    0 -0.12949829358E+02 -0.13301498366E+02  0.33472294852E+02  0.38275757678E+02  0.10566000000E+00 0. -1.
         23    2    1    0    0    0  0.25427048848E+02  0.91348052697E+01 -0.56430149280E+01  0.97488856946E+02  0.93500022089E+02 0.  0.
         13    1    3    3    0    0  0.38376878206E+02  0.22436303635E+02 -0.39115309780E+02  0.59213099267E+02  0.10566000000E+00 0.  1.
         22    1    1    0    0    0 -0.25427048848E+02 -0.91348052697E+01  0.56430149280E+01  0.27601143054E+02  0.00000000000E+00 0.  1.
</event>
<event>
 5    1  0.1254921E-009  0.9118800E+02  0.7561462E-02  0.1125453E+00
         25   -1    0    0    0    0  0.00000000000E+00  0.00000000000E+00  0.99999998245E-14  0.12509000000E+03  0.12509000000E+03 0.  0.
        -13    1    3    3    0    0  0.20687128783E+02  0.46294621193E+02 -0.71651946990E+01  0.51210354693E+02  0.10566000000E+00 0. -1.
         23    2    1    0    0    0  0.16381826098E+02  0.12363617872E+02  0.21154226835E+02  0.95615865811E+02  0.90959712008E+02 0.  0.
         13    1    3    3    0    0 -0.43053026852E+01 -0.33931003321E+02  0.28319421534E+02  0.44405511118E+02  0.10566000000E+00 0.  1.
         22    1    1    0    0    0 -0.16381826098E+02 -0.12363617872E+02 -0.21154226835E+02  0.29474134189E+02  0.00000000000E+00 0. -1.
</event>
<event>
 5    1  0.1254921E-009  0.9118800E+02  0.7561462E-02  0.1125453E+00
         25   -1    0    0    0    0  0.00000000000E+00  0.00000000000E+00  0.99999998245E-14  0.12509000000E+03  0.12509000000E+03 0.  0.
        -13    1    3    3    0    0  0.58646078505E+00  0.22936241519E+02 -0.39775087199E+02  0.45918229898E+02  0.10566000000E+00 0.  1.
         23    2    1    0    0    0 -0.87543529611E+01  0.26839040803E+02  0.87862276008E+01  0.95523623786E+02  0.90832769961E+02 0.  0.
         13    1    3    3    0    0 -0.93408137461E+01  0.39027992839E+01  0.48561314800E+02  0.49605393888E+02  0.10566000000E+00 0. -1.
         22    1    1    0    0    0  0.87543529611E+01 -0.26839040803E+02 -0.87862276008E+01  0.29566376214E+02  0.00000000000E+00 0. -1.
</event>
<event>
 5    1  0.1254921E-009  0.9118800E+02  0.7561462E-02  0.1125453E+00
         25   -1    0    0    0    0  0.00000000000E+00  0.00000000000E+00  0.99999998245E-14  0.12509000000E+03  0.12509000000E+03 0.  0.
        -13    1    3    3    0    0  0.37699653590E+02 -0.24006927151E+01  0.34899717061E+02  0.51429841739E+02  0.10566000000E+00 0. -1.
         23    2    1    0    0    0  0.25923180623E+01  0.20497379242E+02  0.21102916747E+02  0.95557039363E+02  0.90878776444E+02 0.  0.
         13    1    3    3    0    0 -0.35107335528E+02  0.22898071957E+02 -0.13796800314E+02  0.44127197624E+02  0.10566000000E+00 0.  1.
         22    1    1    0    0    0 -0.25923180623E+01 -0.20497379242E+02 -0.21102916747E+02  0.29532960637E+02  0.00000000000E+00 0. -1.
</event>
<event>
 5    1  0.1254921E-009  0.9118800E+02  0.7561462E-02  0.1125453E+00
         25   -1    0    0    0    0  0.00000000000E+00  0.00000000000E+00  0.99999998245E-14  0.12509000000E+03  0.12509000000E+03 0.  0.
        -13    1    3    3    0    0  0.14284468162E+02  0.20121946532E+00  0.43434412638E+02  0.45723581281E+02  0.10566000000E+00 0. -1.
         23    2    1    0    0    0 -0.19264264666E+01 -0.29085505797E+02  0.71775234443E+01  0.95070096449E+02  0.90206034331E+02 0.  0.
         13    1    3    3    0    0 -0.16210894629E+02 -0.29286725262E+02 -0.36256889193E+02  0.49346515168E+02  0.10566000000E+00 0.  1.
         22    1    1    0    0    0  0.19264264666E+01  0.29085505797E+02 -0.71775234443E+01  0.30019903551E+02  0.00000000000E+00 0.  1.
</event>
<event>
 5    1  0.1254921E-009  0.9118800E+02  0.7561462E-02  0.1125453E+00
         25   -1    0    0    0    0  0.00000000000E+00  0.00000000000E+00  0.99999998245E-14  0.12509000000E+03  0.12509000000E+03 0.  0.
        -13    1    3    3    0    0  0.24341968440E+02  0.49113441579E+02 -0.91222274460E+00  0.54822485219E+02  0.10566000000E+00 0. -1.
         23    2    1    0    0    0  0.29610555573E+02  0.15424745072E+02 -0.10229356483E+02  0.90170843425E+02  0.83135031774E+02 0.  0.
         13    1    3    3    0    0  0.52685871328E+01 -0.33688696507E+02 -0.93171337389E+01  0.35348358206E+02  0.10566000000E+00 0.  1.
         22    1    1    0    0    0 -0.29610555573E+02 -0.15424745072E+02  0.10229356483E+02  0.34919156575E+02  0.00000000000E+00 0. -1.
</event>
<event>
 5    1  0.1254921E-009  0.9118800E+02  0.7561462E-02  0.1125453E+00
         25   -1    0    0    0    0  0.00000000000E+00  0.00000000000E+00  0.99999998245E-14  0.12509000000E+03  0.12509000000E+03 0.  0.
        -13    1    3    3    0    0 -0.35861888298E+02 -0.15847352546E+02  0.15853446460E+02  0.42291329415E+02  0.10566000000E+00 0.  1.
         23    2    1    0    0    0  0.15941037505E+02 -0.23581638046E+02  0.15635708823E+01  0.96582894156E+02  0.92280010620E+02 0.  0.
         13    1    3    3    0    0  0.51802925803E+02 -0.77342855000E+01 -0.14289875577E+02  0.54291564741E+02  0.10566000000E+00 0. -1.
         22    1    1    0    0    0 -0.15941037505E+02  0.23581638046E+02 -0.15635708823E+01  0.28507105844E+02  0.00000000000E+00 0. -1.
</event>
<event>
 5    1  0.1254921E-009  0.9118800E+02  0.7561462E-02  0.1125453E+00
         25   -1    0    0    0    0  0.00000000000E+00  0.00000000000E+00  0.99999998245E-14  0.12509000000E+03  0.12509000000E+03 0.  0.
        -13    1    3    3    0    0  0.17385223989E+02 -0.37803788649E+02 -0.26342012811E+02  0.49247185222E+02  0.10566000000E+00 0.  1.
         23    2    1    0    0    0  0.11802994405E+02  0.88076538719E+01 -0.24835938308E+02  0.96215975769E+02  0.91781287405E+02 0.  0.
         13    1    3    3    0    0 -0.55822295834E+01  0.46611442520E+02  0.15060745026E+01  0.46968790547E+02  0.10566000000E+00 0. -1.
         22    1    1    0    0    0 -0.11802994405E+02 -0.88076538719E+01  0.24835938308E+02  0.28874024231E+02  0.00000000000E+00 0.  1.
</event>
<event>
 5    1  0.1254921E-009  0.9118800E+02  0.7561462E-02  0.1125453E+00
         25   -1    0    0    0    0  0.00000000000E+00  0.00000000000E+00  0.99999998245E-14  0.12509000000E+03  0.12509000000E+03 0.  0.
        -13    1    3    3    0    0  0.50235443675E+02 -0.61172981857E+01 -0.11690651593E+02  0.51939422764E+02  0.10566000000E+00 0.  1.
         23    2    1    0    0    0  0.19148700959E+02 -0.15166725246E+02  0.17104874236E+02  0.95269218224E+02  0.90481738021E+02 0.  0.
         13    1    3    3    0    0 -0.31086742716E+02 -0.90494270606E+01  0.28795525829E+02  0.43329795461E+02  0.10566000000E+00 0. -1.
         22    1    1    0    0    0 -0.19148700959E+02  0.15166725246E+02 -0.17104874236E+02  0.29820781776E+02  0.00000000000E+00 0.  1.
</event>
<event>
 5    1  0.1254921E-009  0.9118800E+02  0.7561462E-02  0.1125453E+00
         25   -1    0    0    0    0  0.00000000000E+00  0.00000000000E+00  0.99999998245E-14  0.12509000000E+03  0.12509000000E+03 0.  0.
        -13    1    3    3    0    0 -0.29109381662E+02 -0.84397700752E+01  0.48238376763E+01  0.30689841864E+02  0.10566000000E+00 0.  1.
         23    2    1    0    0    0  0.31995235523E+02 -0.82174761658E+01  0.41325093768E+01  0.91798865378E+02  0.85549588194E+02 0.  0.
         13    1    3    3    0    0  0.61104617185E+02  0.22229390934E+00 -0.69132829956E+00  0.61109023513E+02  0.10566000000E+00 0. -1.
         22    1    1    0    0    0 -0.31995235523E+02  0.82174761658E+01 -0.41325093768E+01  0.33291134622E+02  0.00000000000E+00 0. -1.
</event>
<event>
 5    1  0.1254921E-009  0.9118800E+02  0.7561462E-02  0.1125453E+00
         25   -1    0    0    0    0  0.00000000000E+00  0.00000000000E+00  0.99999998245E-14  0.12509000000E+03  0.12509000000E+03 0.  0.
        -13    1    3    3    0    0  0.29809291281E+02 -0.99786466778E+01 -0.49676145107E+02  0.58786884532E+02  0.10566000000E+00 0.  1.
         23    2    1    0    0    0  0.69517503404E+00 -0.70969312422E+01 -0.30499023512E+02  0.93768439749E+02  0.88382578353E+02 0.  0.
         13    1    3    3    0    0 -0.29114116247E+02  0.28817154356E+01  0.19177121595E+02  0.34981555217E+02  0.10566000000E+00 0. -1.
         22    1    1    0    0    0 -0.69517503404E+00  0.70969312422E+01  0.30499023512E+02  0.31321560251E+02  0.00000000000E+00 0.  1.
</event>
<event>
 5    1  0.1254921E-009  0.9118800E+02  0.7561462E-02  0.1125453E+00
         25   -1    0    0    0    0  0.00000000000E+00  0.00000000000E+00  0.99999998245E-14  0.12509000000E+03  0.12509000000E+03 0.  0.
        -13    1    3    3    0    0  0.28315280091E+02  0.41983420560E+02 -0.24199718640E+02  0.56124862893E+02  0.10566000000E+00 0. -1.
         23    2    1    0    0    0  0.17062905614E+02  0.37701436111E+01 -0.23293077928E+02  0.95970861788E+02  0.91446607931E+02 0.  0.
         13    1    3    3    0    0 -0.11252374477E+02 -0.38213276948E+02  0.90664071196E+00  0.39845998895E+02  0.10566000000E+00 0.  1.
         22    1    1    0    0    0 -0.17062905614E+02 -0.37701436111E+01  0.23293077928E+02  0.29119138212E+02  0.00000000000E+00 0. -1.
</event>
<event>
 5    1  0.1254921E-009  0.9118800E+02  0.7561462E-02  0.1125453E+00
         25   -1    0    0    0    0  0.00000000000E+00  0.00000000000E+00  0.99999998245E-14  0.12509000000E+03  0.12509000000E+03 0.  0.
        -13    1    3    3    0    0  0.27244148011E+02 -0.16966867024E+02 -0.47176561170E+02  0.57059243470E+02  0.10566000000E+00 0.  1.
         23    2    1    0    0    0  0.17103880593E+02 -0.21355834897E+02 -0.98127095299E+01  0.96022773029E+02  0.91517589874E+02 0.  0.
         13    1    3    3    0    0 -0.10140267418E+02 -0.43889678728E+01  0.37363851640E+02  0.38963529559E+02  0.10566000000E+00 0. -1.
         22    1    1    0    0    0 -0.17103880593E+02  0.21355834897E+02  0.98127095299E+01  0.29067226971E+02  0.00000000000E+00 0.  1.
</event>
<event>
 5    1  0.1254921E-009  0.9118800E+02  0.7561462E-02  0.1125453E+00
         25   -1    0    0    0    0  0.00000000000E+00  0.00000000000E+00  0.99999998245E-14  0.12509000000E+03  0.12509000000E+03 0.  0.
        -13    1    3    3    0    0  0.12488510499E+02  0.28199374120E+02  0.20016451006E+02  0.36767337001E+02  0.10566000000E+00 0. -1.
         23    2    1    0    0    0 -0.13296305377E+02 -0.23167170336E+02  0.14984923175E+02  0.94462276601E+02  0.89359186769E+02 0.  0.
         13    1    3    3    0    0 -0.25784815876E+02 -0.51366544456E+02 -0.50315278310E+01  0.57694939600E+02  0.10566000000E+00 0.  1.
         22    1    1    0    0    0  0.13296305377E+02  0.23167170336E+02 -0.14984923175E+02  0.30627723399E+02  0.00000000000E+00 0.  1.
</event>
<event>
 5    1  0.1254921E-009  0.9118800E+02  0.7561462E-02  0.1125453E+00
         25   -1    0    0    0    0  0.00000000000E+00  0.00000000000E+00  0.99999998245E-14  0.12509000000E+03  0.12509000000E+03 0.  0.
        -13    1    3    3    0    0  0.29387515697E+02 -0.76556895297E+01  0.40036053932E+01  0.30631285986E+02  0.10566000000E+00 0.  1.
         23    2    1    0    0    0 -0.32154872392E+02  0.63719870769E+00  0.35678633672E+01  0.92731515954E+02  0.86902603882E+02 0.  0.
         13    1    3    3    0    0 -0.61542388088E+02  0.82928882374E+01 -0.43574202598E+00  0.62100229968E+02  0.10566000000E+00 0. -1.
         22    1    1    0    0    0  0.32154872392E+02 -0.63719870769E+00 -0.35678633672E+01  0.32358484046E+02  0.00000000000E+00 0. -1.
</event>
<event>
 5    1  0.1254921E-009  0.9118800E+02  0.7561462E-02  0.1125453E+00
         25   -1    0    0    0    0  0.00000000000E+00  0.00000000000E+00  0.99999998245E-14  0.12509000000E+03  0.12509000000E+03 0.  0.
        -13    1    3    3    0    0 -0.23069548506E+02  0.58621569882E+01  0.26660806690E+02  0.35740435507E+02  0.10566000000E+00 0.  1.
         23    2    1    0    0    0  0.92843195861E+01  0.19779013830E+02 -0.20854268217E+02  0.94885555275E+02  0.89949764418E+02 0.  0.
         13    1    3    3    0    0  0.32353868092E+02  0.13916856841E+02 -0.47515074907E+02  0.59145119768E+02  0.10566000000E+00 0. -1.
         22    1    1    0    0    0 -0.92843195861E+01 -0.19779013830E+02  0.20854268217E+02  0.30204444725E+02  0.00000000000E+00 0. -1.
</event>
<event>
 5    1  0.1254921E-009  0.9118800E+02  0.7561462E-02  0.1125453E+00
         25   -1    0    0    0    0  0.00000000000E+00  0.00000000000E+00  0.99999998245E-14  0.12509000000E+03  0.12509000000E+03 0.  0.
        -13    1    3    3    0    0  0.32008704775E+02 -0.27725540949E+02  0.43590619241E+02  0.60773481487E+02  0.10566000000E+00 0.  1.
         23    2    1    0    0    0  0.10045364770E+02 -0.22170897884E+02  0.18978325989E+02  0.94225215476E+02  0.89026716821E+02 0.  0.
         13    1    3    3    0    0 -0.21963340005E+02  0.55546430647E+01 -0.24612293252E+02  0.33451733989E+02  0.10566000000E+00 0. -1.
         22    1    1    0    0    0 -0.10045364770E+02  0.22170897884E+02 -0.18978325989E+02  0.30864784524E+02  0.00000000000E+00 0.  1.
</event>
<event>
 5    1  0.1254921E-009  0.9118800E+02  0.7561462E-02  0.1125453E+00
         25   -1    0    0    0    0  0.00000000000E+00  0.00000000000E+00  0.99999998245E-14  0.12509000000E+03  0.12509000000E+03 0.  0.
        -13    1    3    3    0    0 -0.49147742149E+02  0.62987095248E+01 -0.19024887707E+02  0.53076659807E+02  0.10566000000E+00 0. -1.
         23    2    1    0    0    0 -0.20218324109E+02  0.15548725200E+02  0.12356248039E+02  0.96748857632E+02  0.92504708541E+02 0.  0.
         13    1    3    3    0    0  0.28929418040E+02  0.92500156754E+01  0.31381135745E+02  0.43672197824E+02  0.10566000000E+00 0.  1.
         22    1    1    0    0    0  0.20218324109E+02 -0.15548725200E+02 -0.12356248039E+02  0.28341142368E+02  0.00000000000E+00 0. -1.
</event>
<event>
 5    1  0.1254921E-009  0.9118800E+02  0.7561462E-02  0.1125453E+00
         25   -1    0    0    0    0  0.00000000000E+00  0.00000000000E+00  0.99999998245E-14  0.12509000000E+03  0.12509000000E+03 0.  0.
        -13    1    3    3    0    0 -0.34029731558E+02  0.86241003956E+01 -0.80271125267E+01  0.36011712499E+02  0.10566000000E+00 0. -1.
         23    2    1    0    0    0  0.18783313357E+02  0.65944062381E+01  0.20870201055E+02  0.96247941364E+02  0.91824843427E+02 0.  0.
         13    1    3    3    0    0  0.52813044915E+02 -0.20296941576E+01  0.28897313581E+02  0.60236228865E+02  0.10566000000E+00 0.  1.
         22    1    1    0    0    0 -0.18783313357E+02 -0.65944062381E+01 -0.20870201055E+02  0.28842058636E+02  0.00000000000E+00 0.  1.
</event>
<event>
 5    1  0.1254921E-009  0.9118800E+02  0.7561462E-02  0.1125453E+00
         25   -1    0    0    0    0  0.00000000000E+00  0.00000000000E+00  0.99999998245E-14  0.12509000000E+03  0.12509000000E+03 0.  0.
        -13    1    3    3    0    0 -0.11255741907E+02 -0.48048411816E+02 -0.37776425523E+02  0.62148299198E+02  0.10566000000E+00 0. -1.
         23    2    1    0    0    0 -0.20054545414E+01 -0.24904191149E+02 -0.14780472896E+02  0.96060653405E+02  0.91569351690E+02 0.  0.
         13    1    3    3    0    0  0.92502873657E+01  0.23144220667E+02  0.22995952627E+02  0.33912354207E+02  0.10566000000E+00 0.  1.
         22    1    1    0    0    0  0.20054545414E+01  0.24904191149E+02  0.14780472896E+02  0.29029346595E+02  0.00000000000E+00 0. -1.
</event>
<event>
 5    1  0.1254921E-009  0.9118800E+02  0.7561462E-02  0.1125453E+00
         25   -1    0    0    0    0  0.00000000000E+00  0.00000000000E+00  0.99999998245E-14  0.12509000000E+03  0.12509000000E+03 0.  0.
        -13    1    3    3    0    0 -0.25651686843E+02 -0.31602623431E+02  0.10220089877E+02  0.41966608711E+02  0.10566000000E+00 0.  1.
         23    2    1    0    0    0 -0.99992994284E+01 -0.34662994812E+00 -0.28946027074E+02  0.94463563303E+02  0.89360987948E+02 0.  0.
         13    1    3    3    0    0  0.15652387415E+02  0.31255993482E+02 -0.39166116951E+02  0.52496954592E+02  0.10566000000E+00 0. -1.
         22    1    1    0    0    0  0.99992994284E+01  0.34662994812E+00  0.28946027074E+02  0.30626436697E+02  0.00000000000E+00 0. -1.
</event>
<event>
 5    1  0.1254921E-009  0.9118800E+02  0.7561462E-02  0.1125453E+00
         25   -1    0    0    0    0  0.00000000000E+00  0.00000000000E+00  0.99999998245E-14  0.12509000000E+03  0.12509000000E+03 0.  0.
        -13    1    3    3    0    0  0.13097299796E+02 -0.51306414843E+02  0.32848260627E+02  0.62312975023E+02  0.10566000000E+00 0.  1.
         23    2    1    0    0    0  0.97132523537E+01 -0.26809898073E+02  0.14542142301E+02  0.93080754325E+02  0.87403861568E+02 0.  0.
         13    1    3    3    0    0 -0.33840474419E+01  0.24496516770E+02 -0.18306118326E+02  0.30767779302E+02  0.10566000000E+00 0. -1.
         22    1    1    0    0    0 -0.97132523537E+01  0.26809898073E+02 -0.14542142301E+02  0.32009245675E+02  0.00000000000E+00 0.  1.
</event>
<event>
 5    1  0.1254921E-009  0.9118800E+02  0.7561462E-02  0.1125453E+00
         25   -1    0    0    0    0  0.00000000000E+00  0.00000000000E+00  0.99999998245E-14  0.12509000000E+03  0.12509000000E+03 0.  0.
        -13    1    3    3    0    0  0.32429137191E+02 -0.51723837674E+02  0.12268005774E+02  0.62269731430E+02  0.10566000000E+00 0. -1.
         23    2    1    0    0    0  0.77715878337E+01 -0.19815507663E+02  0.43137402390E+01  0.10337225895E+03  0.10106514555E+03 0.  0.
         13    1    3    3    0    0 -0.24657549357E+02  0.31908330012E+02 -0.79542655350E+01  0.41102527521E+02  0.10566000000E+00 0.  1.
         22    1    1    0    0    0 -0.77715878337E+01  0.19815507663E+02 -0.43137402390E+01  0.21717741048E+02  0.00000000000E+00 0. -1.
</event>
<event>
 5    1  0.1254921E-009  0.9118800E+02  0.7561462E-02  0.1125453E+00
         25   -1    0    0    0    0  0.00000000000E+00  0.00000000000E+00  0.99999998245E-14  0.12509000000E+03  0.12509000000E+03 0.  0.
        -13    1    3    3    0    0 -0.23464423658E+01 -0.46269755029E+02  0.26302465235E+02  0.53275011626E+02  0.10566000000E+00 0. -1.
         23    2    1    0    0    0 -0.21070203169E+02 -0.13167968411E+02 -0.12103154283E+01  0.10021403334E+03  0.97077488440E+02 0.  0.
         13    1    3    3    0    0 -0.18723760803E+02  0.33101786618E+02 -0.27512780664E+02  0.46939021717E+02  0.10566000000E+00 0.  1.
         22    1    1    0    0    0  0.21070203169E+02  0.13167968411E+02  0.12103154283E+01  0.24875966657E+02  0.00000000000E+00 0. -1.
</event>
<event>
 5    1  0.1254921E-009  0.9118800E+02  0.7561462E-02  0.1125453E+00
         25   -1    0    0    0    0  0.00000000000E+00  0.00000000000E+00  0.99999998245E-14  0.12509000000E+03  0.12509000000E+03 0.  0.
        -13    1    3    3    0    0 -0.13700073440E+02  0.42102261348E+02 -0.60919487774E+01  0.44692453802E+02  0.10566000000E+00 0.  1.
         23    2    1    0    0    0 -0.23213428649E+02 -0.12729660526E+01  0.18432735557E+02  0.95421001831E+02  0.90691334416E+02 0.  0.
         13    1    3    3    0    0 -0.95133552087E+01 -0.43375227401E+02  0.24524684335E+02  0.50728548029E+02  0.10566000000E+00 0. -1.
         22    1    1    0    0    0  0.23213428649E+02  0.12729660526E+01 -0.18432735557E+02  0.29668998169E+02  0.00000000000E+00 0.  1.
</event>
<event>
 5    1  0.1254921E-009  0.9118800E+02  0.7561462E-02  0.1125453E+00
         25   -1    0    0    0    0  0.00000000000E+00  0.00000000000E+00  0.99999998245E-14  0.12509000000E+03  0.12509000000E+03 0.  0.
        -13    1    3    3    0    0  0.28152481307E+02 -0.45355145694E+02  0.17764545984E+02  0.56260480826E+02  0.10566000000E+00 0. -1.
         23    2    1    0    0    0 -0.84970977277E+00 -0.29850093249E+02 -0.28786010885E+01  0.95089393041E+02  0.90232789223E+02 0.  0.
         13    1    3    3    0    0 -0.29002191080E+02  0.15505052445E+02 -0.20643147072E+02  0.38828912215E+02  0.10566000000E+00 0.  1.
         22    1    1    0    0    0  0.84970977277E+00  0.29850093249E+02  0.28786010885E+01  0.30000606959E+02  0.00000000000E+00 0. -1.
</event>
<event>
 5    1  0.1254921E-009  0.9118800E+02  0.7561462E-02  0.1125453E+00
         25   -1    0    0    0    0  0.00000000000E+00  0.00000000000E+00  0.99999998245E-14  0.12509000000E+03  0.12509000000E+03 0.  0.
        -13    1    3    3    0    0  0.19744236663E+02 -0.10900601278E+02 -0.34755487512E+02  0.41432029469E+02  0.10566000000E+00 0.  1.
         23    2    1    0    0    0 -0.26927515361E+02 -0.51914353054E+01 -0.46197761365E+01  0.97280210077E+02  0.93220463724E+02 0.  0.
         13    1    3    3    0    0 -0.46671752024E+02  0.57091659730E+01  0.30135711376E+02  0.55848180608E+02  0.10566000000E+00 0. -1.
         22    1    1    0    0    0  0.26927515361E+02  0.51914353054E+01  0.46197761365E+01  0.27809789923E+02  0.00000000000E+00 0. -1.
</event>
<event>
 5    1  0.1254921E-009  0.9118800E+02  0.7561462E-02  0.1125453E+00
         25   -1    0    0    0    0  0.00000000000E+00  0.00000000000E+00  0.99999998245E-14  0.12509000000E+03  0.12509000000E+03 0.  0.
        -13    1    3    3    0    0  0.16233742291E+02 -0.99499484692E+01  0.26640505500E+02  0.32745435722E+02  0.10566000000E+00 0.  1.
         23    2    1    0    0    0 -0.17618018377E+02  0.28248181083E+02 -0.28225097355E+01  0.91678611714E+02  0.85373573069E+02 0.  0.
         13    1    3    3    0    0 -0.33851760668E+02  0.38198129552E+02 -0.29463015236E+02  0.58933175991E+02  0.10566000000E+00 0. -1.
         22    1    1    0    0    0  0.17618018377E+02 -0.28248181083E+02  0.28225097355E+01  0.33411388286E+02  0.00000000000E+00 0. -1.
</event>
<event>
 5    1  0.1254921E-009  0.9118800E+02  0.7561462E-02  0.1125453E+00
         25   -1    0    0    0    0  0.00000000000E+00  0.00000000000E+00  0.99999998245E-14  0.12509000000E+03  0.12509000000E+03 0.  0.
        -13    1    3    3    0    0 -0.10266942561E+02  0.28516979768E+02 -0.22766742363E+02  0.37907307561E+02  0.10566000000E+00 0.  1.
         23    2    1    0    0    0 -0.20064438813E+02 -0.87536322380E+01  0.19973944831E+02  0.95456129946E+02  0.90739773473E+02 0.  0.
         13    1    3    3    0    0 -0.97974962513E+01 -0.37270612006E+02  0.42740687195E+02  0.57548822386E+02  0.10566000000E+00 0. -1.
         22    1    1    0    0    0  0.20064438813E+02  0.87536322380E+01 -0.19973944831E+02  0.29633870054E+02  0.00000000000E+00 0. -1.
</event>
<event>
 5    1  0.1254921E-009  0.9118800E+02  0.7561462E-02  0.1125453E+00
         25   -1    0    0    0    0  0.00000000000E+00  0.00000000000E+00  0.99999998245E-14  0.12509000000E+03  0.12509000000E+03 0.  0.
        -13    1    3    3    0    0 -0.16635924721E+02 -0.20125958652E+02 -0.47908831708E+02  0.54562583541E+02  0.10566000000E+00 0. -1.
         23    2    1    0    0    0 -0.73570511182E+01 -0.29408925334E+02 -0.12548703289E+02  0.92280229433E+02  0.86250563474E+02 0.  0.
         13    1    3    3    0    0  0.92788736031E+01 -0.92829666818E+01  0.35360128419E+02  0.37717645892E+02  0.10566000000E+00 0.  1.
         22    1    1    0    0    0  0.73570511182E+01  0.29408925334E+02  0.12548703289E+02  0.32809770567E+02  0.00000000000E+00 0. -1.
</event>
<event>
 5    1  0.1254921E-009  0.9118800E+02  0.7561462E-02  0.1125453E+00
         25   -1    0    0    0    0  0.00000000000E+00  0.00000000000E+00  0.99999998245E-14  0.12509000000E+03  0.12509000000E+03 0.  0.
        -13    1    3    3    0    0  0.28502530295E+02  0.39465592472E+00 -0.18455015680E+02  0.33958044029E+02  0.10566000000E+00 0. -1.
         23    2    1    0    0    0 -0.19202757083E+02 -0.12621871155E+02  0.18417042101E+02  0.95640977082E+02  0.90994239084E+02 0.  0.
         13    1    3    3    0    0 -0.47705287378E+02 -0.13016527080E+02  0.36872057781E+02  0.61682933053E+02  0.10566000000E+00 0.  1.
         22    1    1    0    0    0  0.19202757083E+02  0.12621871155E+02 -0.18417042101E+02  0.29449022918E+02  0.00000000000E+00 0.  1.
</event>
<event>
 5    1  0.1254921E-009  0.9118800E+02  0.7561462E-02  0.1125453E+00
         25   -1    0    0    0    0  0.00000000000E+00  0.00000000000E+00  0.99999998245E-14  0.12509000000E+03  0.12509000000E+03 0.  0.
        -13    1    3    3    0    0 -0.30792497510E+02  0.36934908928E+02  0.34035936326E+02  0.58913678599E+02  0.10566000000E+00 0.  1.
         23    2    1    0    0    0 -0.76011912588E+01  0.90757752238E+01  0.26680148060E+02  0.95901336019E+02  0.91351453986E+02 0.  0.
         13    1    3    3    0    0  0.23191306251E+02 -0.27859133704E+02 -0.73557882665E+01  0.36987657420E+02  0.10566000000E+00 0. -1.
         22    1    1    0    0    0  0.76011912588E+01 -0.90757752238E+01 -0.26680148060E+02  0.29188663981E+02  0.00000000000E+00 0.  1.
</event>
<event>
 5    1  0.1254921E-009  0.9118800E+02  0.7561462E-02  0.1125453E+00
         25   -1    0    0    0    0  0.00000000000E+00  0.00000000000E+00  0.99999998245E-14  0.12509000000E+03  0.12509000000E+03 0.  0.
        -13    1    3    3    0    0 -0.23472742916E+02  0.11492949407E+02  0.25253367774E+02  0.36342830023E+02  0.10566000000E+00 0.  1.
         23    2    1    0    0    0  0.23157257884E+02 -0.16772174173E+02 -0.14709017625E+00  0.96496538252E+02  0.92162876691E+02 0.  0.
         13    1    3    3    0    0  0.46630000800E+02 -0.28265123580E+02 -0.25400457950E+02  0.60153708230E+02  0.10566000000E+00 0. -1.
         22    1    1    0    0    0 -0.23157257884E+02  0.16772174173E+02  0.14709017625E+00  0.28593461748E+02  0.00000000000E+00 0. -1.
</event>
<event>
 5    1  0.1254921E-009  0.9118800E+02  0.7561462E-02  0.1125453E+00
         25   -1    0    0    0    0  0.00000000000E+00  0.00000000000E+00  0.99999998245E-14  0.12509000000E+03  0.12509000000E+03 0.  0.
        -13    1    3    3    0    0 -0.21577687702E+02  0.37123824328E+02 -0.35105287079E+02  0.55463206581E+02  0.10566000000E+00 0.  1.
         23    2    1    0    0    0 -0.15211861041E+02  0.23594845923E+02  0.34396366442E+01  0.96806637917E+02  0.92582809280E+02 0.  0.
         13    1    3    3    0    0  0.63658266612E+01 -0.13528978405E+02  0.38544923723E+02  0.41343431336E+02  0.10566000000E+00 0. -1.
         22    1    1    0    0    0  0.15211861041E+02 -0.23594845923E+02 -0.34396366442E+01  0.28283362083E+02  0.00000000000E+00 0.  1.
</event>
<event>
 5    1  0.1254921E-009  0.9118800E+02  0.7561462E-02  0.1125453E+00
         25   -1    0    0    0    0  0.00000000000E+00  0.00000000000E+00  0.99999998245E-14  0.12509000000E+03  0.12509000000E+03 0.  0.
        -13    1    3    3    0    0  0.45282937230E+02  0.25269414204E+02  0.59826555775E+01  0.52200488793E+02  0.10566000000E+00 0.  1.
         23    2    1    0    0    0  0.21956146960E+02 -0.13073417713E+02  0.10816838123E+02  0.97341295040E+02  0.93302395966E+02 0.  0.
         13    1    3    3    0    0 -0.23326790271E+02 -0.38342831917E+02  0.48341825457E+01  0.45140806247E+02  0.10566000000E+00 0. -1.
         22    1    1    0    0    0 -0.21956146960E+02  0.13073417713E+02 -0.10816838123E+02  0.27748704960E+02  0.00000000000E+00 0. -1.
</event>
<event>
 5    1  0.1254921E-009  0.9118800E+02  0.7561462E-02  0.1125453E+00
         25   -1    0    0    0    0  0.00000000000E+00  0.00000000000E+00  0.99999998245E-14  0.12509000000E+03  0.12509000000E+03 0.  0.
        -13    1    3    3    0    0 -0.21214185091E+02 -0.11561091335E+02  0.31569614587E+02  0.39753643998E+02  0.10566000000E+00 0. -1.
         23    2    1    0    0    0  0.27550379626E+02  0.45485884131E+01  0.11410276394E+02  0.94925327261E+02  0.90005056936E+02 0.  0.
         13    1    3    3    0    0  0.48764564717E+02  0.16109679748E+02 -0.20159338193E+02  0.55171683263E+02  0.10566000000E+00 0.  1.
         22    1    1    0    0    0 -0.27550379626E+02 -0.45485884131E+01 -0.11410276394E+02  0.30164672739E+02  0.00000000000E+00 0.  1.
</event>
<event>
 5    1  0.1254921E-009  0.9118800E+02  0.7561462E-02  0.1125453E+00
         25   -1    0    0    0    0  0.00000000000E+00  0.00000000000E+00  0.99999998245E-14  0.12509000000E+03  0.12509000000E+03 0.  0.
        -13    1    3    3    0    0  0.74990178194E+01 -0.36402620533E+02  0.20905317616E+02  0.42643047717E+02  0.10566000000E+00 0. -1.
         23    2    1    0    0    0 -0.79436384681E+01  0.14915074305E+02  0.23323030483E+02  0.96288531556E+02  0.91880121488E+02 0.  0.
         13    1    3    3    0    0 -0.15442656287E+02  0.51317694838E+02  0.24177128662E+01  0.53645483839E+02  0.10566000000E+00 0.  1.
         22    1    1    0    0    0  0.79436384681E+01 -0.14915074305E+02 -0.23323030483E+02  0.28801468444E+02  0.00000000000E+00 0. -1.
</event>
<event>
 5    1  0.1254921E-009  0.9118800E+02  0.7561462E-02  0.1125453E+00
         25   -1    0    0    0    0  0.00000000000E+00  0.00000000000E+00  0.99999998245E-14  0.12509000000E+03  0.12509000000E+03 0.  0.
        -13    1    3    3    0    0 -0.86046212261E+01  0.49370534923E+02  0.62960218143E+01  0.50508813881E+02  0.10566000000E+00 0.  1.
         23    2    1    0    0    0  0.20086895930E+02  0.17522009025E+02 -0.10352590172E+02  0.96494890075E+02  0.92160639640E+02 0.  0.
         13    1    3    3    0    0  0.28691517156E+02 -0.31848525897E+02 -0.16648611987E+02  0.45986076193E+02  0.10566000000E+00 0. -1.
         22    1    1    0    0    0 -0.20086895930E+02 -0.17522009025E+02  0.10352590172E+02  0.28595109925E+02  0.00000000000E+00 0. -1.
</event>
<event>
 5    1  0.1254921E-009  0.9118800E+02  0.7561462E-02  0.1125453E+00
         25   -1    0    0    0    0  0.00000000000E+00  0.00000000000E+00  0.99999998245E-14  0.12509000000E+03  0.12509000000E+03 0.  0.
        -13    1    3    3    0    0 -0.76606700258E+01  0.28270863229E+02  0.28299448930E+02  0.40728338374E+02  0.10566000000E+00 0.  1.
         23    2    1    0    0    0 -0.10717900825E-01  0.12647742908E+02 -0.25150779753E+02  0.96938139711E+02  0.92760313135E+02 0.  0.
         13    1    3    3    0    0  0.76499521250E+01 -0.15623120320E+02 -0.53450228683E+02  0.56209801337E+02  0.10566000000E+00 0. -1.
         22    1    1    0    0    0  0.10717900825E-01 -0.12647742908E+02  0.25150779753E+02  0.28151860289E+02  0.00000000000E+00 0. -1.
</event>
<event>
 5    1  0.1254921E-009  0.9118800E+02  0.7561462E-02  0.1125453E+00
         25   -1    0    0    0    0  0.00000000000E+00  0.00000000000E+00  0.99999998245E-14  0.12509000000E+03  0.12509000000E+03 0.  0.
        -13    1    3    3    0    0 -0.42027911935E+02  0.41881785368E+01 -0.36610656121E+02  0.55894879253E+02  0.10566000000E+00 0. -1.
         23    2    1    0    0    0 -0.35075741015E+01 -0.14354570466E+01 -0.29351621494E+02  0.95494708189E+02  0.90792940226E+02 0.  0.
         13    1    3    3    0    0  0.38520337834E+02 -0.56236355834E+01  0.72590346270E+01  0.39599828936E+02  0.10566000000E+00 0.  1.
         22    1    1    0    0    0  0.35075741015E+01  0.14354570466E+01  0.29351621494E+02  0.29595291811E+02  0.00000000000E+00 0. -1.
</event>
<event>
 5    1  0.1254921E-009  0.9118800E+02  0.7561462E-02  0.1125453E+00
         25   -1    0    0    0    0  0.00000000000E+00  0.00000000000E+00  0.99999998245E-14  0.12509000000E+03  0.12509000000E+03 0.  0.
        -13    1    3    3    0    0  0.16202529981E+02  0.25489218853E+02  0.35415133254E+02  0.46545301406E+02  0.10566000000E+00 0.  1.
         23    2    1    0    0    0 -0.18440032973E+02  0.24000250518E+02  0.19088840743E+01  0.94763597652E+02  0.89780002008E+02 0.  0.
         13    1    3    3    0    0 -0.34642562954E+02 -0.14889683358E+01 -0.33506249180E+02  0.48218296246E+02  0.10566000000E+00 0. -1.
         22    1    1    0    0    0  0.18440032973E+02 -0.24000250518E+02 -0.19088840743E+01  0.30326402348E+02  0.00000000000E+00 0. -1.
</event>
<event>
 5    1  0.1254921E-009  0.9118800E+02  0.7561462E-02  0.1125453E+00
         25   -1    0    0    0    0  0.00000000000E+00  0.00000000000E+00  0.99999998245E-14  0.12509000000E+03  0.12509000000E+03 0.  0.
        -13    1    3    3    0    0 -0.17198098151E+02 -0.56614075737E+02  0.39697395169E+01  0.59301755012E+02  0.10566000000E+00 0. -1.
         23    2    1    0    0    0  0.60411346040E+01 -0.28600606784E+02  0.64853527582E+00  0.95851145479E+02  0.91282700858E+02 0.  0.
         13    1    3    3    0    0  0.23239232755E+02  0.28013468953E+02 -0.33212042411E+01  0.36549390467E+02  0.10566000000E+00 0.  1.
         22    1    1    0    0    0 -0.60411346040E+01  0.28600606784E+02 -0.64853527582E+00  0.29238854521E+02  0.00000000000E+00 0. -1.
</event>
<event>
 5    1  0.1254921E-009  0.9118800E+02  0.7561462E-02  0.1125453E+00
         25   -1    0    0    0    0  0.00000000000E+00  0.00000000000E+00  0.99999998245E-14  0.12509000000E+03  0.12509000000E+03 0.  0.
        -13    1    3    3    0    0  0.41227622538E+01 -0.33319474206E+02  0.85186184311E+01  0.34637588744E+02  0.10566000000E+00 0.  1.
         23    2    1    0    0    0 -0.29444054665E+01  0.27671707747E+02  0.83470625042E+01  0.96037179386E+02  0.91537278957E+02 0.  0.
         13    1    3    3    0    0 -0.70671677203E+01  0.60991181953E+02 -0.17155592693E+00  0.61399590642E+02  0.10566000000E+00 0. -1.
         22    1    1    0    0    0  0.29444054665E+01 -0.27671707747E+02 -0.83470625042E+01  0.29052820614E+02  0.00000000000E+00 0. -1.
</event>
<event>
 5    1  0.1254921E-009  0.9118800E+02  0.7561462E-02  0.1125453E+00
         25   -1    0    0    0    0  0.00000000000E+00  0.00000000000E+00  0.99999998245E-14  0.12509000000E+03  0.12509000000E+03 0.  0.
        -13    1    3    3    0    0 -0.50974035131E+02  0.24866838376E+02  0.26080487535E+02  0.62425274549E+02  0.10566000000E+00 0. -1.
         23    2    1    0    0    0 -0.21833433356E+02  0.12466796765E+02  0.13941249383E+02  0.96341464941E+02  0.91952159294E+02 0.  0.
         13    1    3    3    0    0  0.29140601775E+02 -0.12400041611E+02 -0.12139238152E+02  0.33916190392E+02  0.10566000000E+00 0.  1.
         22    1    1    0    0    0  0.21833433356E+02 -0.12466796765E+02 -0.13941249383E+02  0.28748535059E+02  0.00000000000E+00 0. -1.
</event>
<event>
 5    1  0.1254921E-009  0.9118800E+02  0.7561462E-02  0.1125453E+00
         25   -1    0    0    0    0  0.00000000000E+00  0.00000000000E+00  0.99999998245E-14  0.12509000000E+03  0.12509000000E+03 0.  0.
        -13    1    3    3    0    0 -0.13648816065E+02  0.27665646016E+02  0.29787096210E+02  0.42883101731E+02  0.10566000000E+00 0. -1.
         23    2    1    0    0    0  0.21255705361E+02  0.23524335395E+02 -0.57512428041E+01  0.92867707096E+02  0.87098420545E+02 0.  0.
         13    1    3    3    0    0  0.34904521426E+02 -0.41413106213E+01 -0.35538339014E+02  0.49984605365E+02  0.10566000000E+00 0.  1.
         22    1    1    0    0    0 -0.21255705361E+02 -0.23524335395E+02  0.57512428041E+01  0.32222292904E+02  0.00000000000E+00 0.  1.
</event>
<event>
 5    1  0.1254921E-009  0.9118800E+02  0.7561462E-02  0.1125453E+00
         25   -1    0    0    0    0  0.00000000000E+00  0.00000000000E+00  0.99999998245E-14  0.12509000000E+03  0.12509000000E+03 0.  0.
        -13    1    3    3    0    0 -0.44697859715E+02 -0.13778433579E+02  0.22762714514E+02  0.52018229796E+02  0.10566000000E+00 0.  1.
         23    2    1    0    0    0 -0.32898130463E+01 -0.76836971130E+01  0.29515545440E+02  0.94413795968E+02  0.89291295070E+02 0.  0.
         13    1    3    3    0    0  0.41408046669E+02  0.60947364659E+01  0.67528309254E+01  0.42395566172E+02  0.10566000000E+00 0. -1.
         22    1    1    0    0    0  0.32898130463E+01  0.76836971130E+01 -0.29515545440E+02  0.30676204032E+02  0.00000000000E+00 0.  1.
</event>
<event>
 5    1  0.1254921E-009  0.9118800E+02  0.7561462E-02  0.1125453E+00
         25   -1    0    0    0    0  0.00000000000E+00  0.00000000000E+00  0.99999998245E-14  0.12509000000E+03  0.12509000000E+03 0.  0.
        -13    1    3    3    0    0  0.35317706993E+02  0.23431669907E+02 -0.10374927826E+01  0.42396593462E+02  0.10566000000E+00 0. -1.
         23    2    1    0    0    0  0.34169732863E-01  0.89036871011E+01 -0.32212171850E+02  0.91669933769E+02  0.85360857132E+02 0.  0.
         13    1    3    3    0    0 -0.35283537260E+02 -0.14527982806E+02 -0.31174679068E+02  0.49273340307E+02  0.10566000000E+00 0.  1.
         22    1    1    0    0    0 -0.34169732863E-01 -0.89036871011E+01  0.32212171850E+02  0.33420066231E+02  0.00000000000E+00 0.  1.
</event>
<event>
 5    1  0.1254921E-009  0.9118800E+02  0.7561462E-02  0.1125453E+00
         25   -1    0    0    0    0  0.00000000000E+00  0.00000000000E+00  0.99999998245E-14  0.12509000000E+03  0.12509000000E+03 0.  0.
        -13    1    3    3    0    0  0.40647974049E+02 -0.30087545479E+02 -0.30547675530E+02  0.59082060150E+02  0.10566000000E+00 0.  1.
         23    2    1    0    0    0  0.18895556100E+02 -0.93590060764E+00 -0.21278025548E+02  0.96617692024E+02  0.92327168756E+02 0.  0.
         13    1    3    3    0    0 -0.21752417949E+02  0.29151644871E+02  0.92696499820E+01  0.37535631874E+02  0.10566000000E+00 0. -1.
         22    1    1    0    0    0 -0.18895556100E+02  0.93590060764E+00  0.21278025548E+02  0.28472307976E+02  0.00000000000E+00 0.  1.
</event>
<event>
 5    1  0.1254921E-009  0.9118800E+02  0.7561462E-02  0.1125453E+00
         25   -1    0    0    0    0  0.00000000000E+00  0.00000000000E+00  0.99999998245E-14  0.12509000000E+03  0.12509000000E+03 0.  0.
        -13    1    3    3    0    0  0.24933810230E+01  0.14210567982E+02  0.54172604926E+02  0.56061033525E+02  0.10566000000E+00 0.  1.
         23    2    1    0    0    0  0.16307096445E+02  0.17012016845E+02  0.16395428035E+02  0.96382158352E+02  0.92007501197E+02 0.  0.
         13    1    3    3    0    0  0.13813715422E+02  0.28014488633E+01 -0.37777176891E+02  0.40321124828E+02  0.10566000000E+00 0. -1.
         22    1    1    0    0    0 -0.16307096445E+02 -0.17012016845E+02 -0.16395428035E+02  0.28707841648E+02  0.00000000000E+00 0.  1.
</event>
<event>
 5    1  0.1254921E-009  0.9118800E+02  0.7561462E-02  0.1125453E+00
         25   -1    0    0    0    0  0.00000000000E+00  0.00000000000E+00  0.99999998245E-14  0.12509000000E+03  0.12509000000E+03 0.  0.
        -13    1    3    3    0    0 -0.16866533245E+02 -0.20897370888E+02 -0.30504932252E+02  0.40641630251E+02  0.10566000000E+00 0. -1.
         23    2    1    0    0    0  0.15064581950E+02 -0.10644129614E+02  0.17806055752E+02  0.99452239840E+02  0.96090859415E+02 0.  0.
         13    1    3    3    0    0  0.31931115195E+02  0.10253241274E+02  0.48310988004E+02  0.58810609589E+02  0.10566000000E+00 0.  1.
         22    1    1    0    0    0 -0.15064581950E+02  0.10644129614E+02 -0.17806055752E+02  0.25637760160E+02  0.00000000000E+00 0.  1.
</event>
<event>
 5    1  0.1254921E-009  0.9118800E+02  0.7561462E-02  0.1125453E+00
         25   -1    0    0    0    0  0.00000000000E+00  0.00000000000E+00  0.99999998245E-14  0.12509000000E+03  0.12509000000E+03 0.  0.
        -13    1    3    3    0    0  0.24133634300E+02  0.27077747498E+02 -0.29281223354E+02  0.46615854806E+02  0.10566000000E+00 0.  1.
         23    2    1    0    0    0 -0.21328992871E+02  0.10131661861E+02 -0.14688486200E+02  0.97281221965E+02  0.93221821540E+02 0.  0.
         13    1    3    3    0    0 -0.45462627171E+02 -0.16946085637E+02  0.14592737154E+02  0.50665367159E+02  0.10566000000E+00 0. -1.
         22    1    1    0    0    0  0.21328992871E+02 -0.10131661861E+02  0.14688486200E+02  0.27808778035E+02  0.00000000000E+00 0. -1.
</event>
<event>
 5    1  0.1254921E-009  0.9118800E+02  0.7561462E-02  0.1125453E+00
         25   -1    0    0    0    0  0.00000000000E+00  0.00000000000E+00  0.99999998245E-14  0.12509000000E+03  0.12509000000E+03 0.  0.
        -13    1    3    3    0    0 -0.25491754271E+02  0.14933267506E+02  0.33458846699E+02  0.44635609110E+02  0.10566000000E+00 0. -1.
         23    2    1    0    0    0 -0.15781041435E+01  0.29743513302E+02 -0.75484665006E+01  0.94363035575E+02  0.89220155459E+02 0.  0.
         13    1    3    3    0    0  0.23913650127E+02  0.14810245797E+02 -0.41007313199E+02  0.49727426465E+02  0.10566000000E+00 0.  1.
         22    1    1    0    0    0  0.15781041435E+01 -0.29743513302E+02  0.75484665006E+01  0.30726964425E+02  0.00000000000E+00 0.  1.
</event>
<event>
 5    1  0.1254921E-009  0.9118800E+02  0.7561462E-02  0.1125453E+00
         25   -1    0    0    0    0  0.00000000000E+00  0.00000000000E+00  0.99999998245E-14  0.12509000000E+03  0.12509000000E+03 0.  0.
        -13    1    3    3    0    0 -0.15775477056E+02  0.23427019977E+02  0.17252767140E+02  0.33096224549E+02  0.10566000000E+00 0.  1.
         23    2    1    0    0    0  0.10455650800E+02 -0.24298100299E+02 -0.13238432312E+02  0.95510033775E+02  0.90814052601E+02 0.  0.
         13    1    3    3    0    0  0.26231127856E+02 -0.47725120277E+02 -0.30491199452E+02  0.62413809226E+02  0.10566000000E+00 0. -1.
         22    1    1    0    0    0 -0.10455650800E+02  0.24298100299E+02  0.13238432312E+02  0.29579966225E+02  0.00000000000E+00 0. -1.
</event>
<event>
 5    1  0.1254921E-009  0.9118800E+02  0.7561462E-02  0.1125453E+00
         25   -1    0    0    0    0  0.00000000000E+00  0.00000000000E+00  0.99999998245E-14  0.12509000000E+03  0.12509000000E+03 0.  0.
        -13    1    3    3    0    0 -0.23819295848E+02 -0.43000653916E+02 -0.30734932440E+01  0.49253148292E+02  0.10566000000E+00 0.  1.
         23    2    1    0    0    0  0.93852873963E+01 -0.67383939478E+01 -0.20616134102E+02  0.10145708740E+03  0.98666235494E+02 0.  0.
         13    1    3    3    0    0  0.33204583244E+02  0.36262259968E+02 -0.17542640858E+02  0.52203939111E+02  0.10566000000E+00 0. -1.
         22    1    1    0    0    0 -0.93852873963E+01  0.67383939478E+01  0.20616134102E+02  0.23632912597E+02  0.00000000000E+00 0. -1.
</event>
<event>
 5    1  0.1254921E-009  0.9118800E+02  0.7561462E-02  0.1125453E+00
         25   -1    0    0    0    0  0.00000000000E+00  0.00000000000E+00  0.99999998245E-14  0.12509000000E+03  0.12509000000E+03 0.  0.
        -13    1    3    3    0    0  0.45324120822E-01 -0.31872420105E+02 -0.25788085023E+02  0.40998654988E+02  0.10566000000E+00 0.  1.
         23    2    1    0    0    0  0.21816718300E+02  0.16238553475E+02 -0.99478120697E+01  0.96131084597E+02  0.91665515023E+02 0.  0.
         13    1    3    3    0    0  0.21771394179E+02  0.48110973580E+02  0.15840272954E+02  0.55132429609E+02  0.10566000000E+00 0. -1.
         22    1    1    0    0    0 -0.21816718300E+02 -0.16238553475E+02  0.99478120697E+01  0.28958915403E+02  0.00000000000E+00 0. -1.
</event>
<event>
 5    1  0.1254921E-009  0.9118800E+02  0.7561462E-02  0.1125453E+00
         25   -1    0    0    0    0  0.00000000000E+00  0.00000000000E+00  0.99999998245E-14  0.12509000000E+03  0.12509000000E+03 0.  0.
        -13    1    3    3    0    0 -0.21859178605E+02  0.20228707251E+02 -0.22825885778E+02  0.37524079095E+02  0.10566000000E+00 0.  1.
         23    2    1    0    0    0 -0.12327138770E+02 -0.15983740026E+02  0.21533225901E+02  0.95575289885E+02  0.90903893884E+02 0.  0.
         13    1    3    3    0    0  0.95320398351E+01 -0.36212447276E+02  0.44359111679E+02  0.58051210790E+02  0.10566000000E+00 0. -1.
         22    1    1    0    0    0  0.12327138770E+02  0.15983740026E+02 -0.21533225901E+02  0.29514710115E+02  0.00000000000E+00 0. -1.
</event>
<event>
 5    1  0.1254921E-009  0.9118800E+02  0.7561462E-02  0.1125453E+00
         25   -1    0    0    0    0  0.00000000000E+00  0.00000000000E+00  0.99999998245E-14  0.12509000000E+03  0.12509000000E+03 0.  0.
        -13    1    3    3    0    0 -0.81967420483E+01 -0.30920959916E+02  0.22125679559E+02  0.38895362221E+02  0.10566000000E+00 0.  1.
         23    2    1    0    0    0  0.23516594084E+02  0.59654230221E+01 -0.11709642948E+02  0.98150582650E+02  0.94381166911E+02 0.  0.
         13    1    3    3    0    0  0.31713336133E+02  0.36886382938E+02 -0.33835322507E+02  0.59255220429E+02  0.10566000000E+00 0. -1.
         22    1    1    0    0    0 -0.23516594084E+02 -0.59654230221E+01  0.11709642948E+02  0.26939417350E+02  0.00000000000E+00 0. -1.
</event>
<event>
 5    1  0.1254921E-009  0.9118800E+02  0.7561462E-02  0.1125453E+00
         25   -1    0    0    0    0  0.00000000000E+00  0.00000000000E+00  0.99999998245E-14  0.12509000000E+03  0.12509000000E+03 0.  0.
        -13    1    3    3    0    0 -0.34769877861E+01  0.14974156088E+02  0.41624281560E+02  0.44372364981E+02  0.10566000000E+00 0. -1.
         23    2    1    0    0    0  0.23464463499E+02 -0.14774699126E+02  0.95049736122E+01  0.95777591281E+02  0.91181849546E+02 0.  0.
         13    1    3    3    0    0  0.26941451285E+02 -0.29748855214E+02 -0.32119307948E+02  0.51405226300E+02  0.10566000000E+00 0.  1.
         22    1    1    0    0    0 -0.23464463499E+02  0.14774699126E+02 -0.95049736122E+01  0.29312408719E+02  0.00000000000E+00 0.  1.
</event>
<event>
 5    1  0.1254921E-009  0.9118800E+02  0.7561462E-02  0.1125453E+00
         25   -1    0    0    0    0  0.00000000000E+00  0.00000000000E+00  0.99999998245E-14  0.12509000000E+03  0.12509000000E+03 0.  0.
        -13    1    3    3    0    0  0.38757740472E+02  0.23822366510E+02  0.97924876088E+01  0.46535702103E+02  0.10566000000E+00 0.  1.
         23    2    1    0    0    0  0.19090852907E+02 -0.17240275484E+02 -0.11637741484E+02  0.96856601510E+02  0.92650291234E+02 0.  0.
         13    1    3    3    0    0 -0.19666887565E+02 -0.41062641995E+02 -0.21430229092E+02  0.50320899406E+02  0.10566000000E+00 0. -1.
         22    1    1    0    0    0 -0.19090852907E+02  0.17240275484E+02  0.11637741484E+02  0.28233398490E+02  0.00000000000E+00 0.  1.
</event>
<event>
 4    1  0.1254921E-009  0.9118800E+02  0.7561462E-02  0.1125453E+00
         25   -1    0    0    0    0  0.00000000000E+00  0.00000000000E+00  0.99999998245E-14  0.12509000000E+03  0.12509000000E+03 0.  0.
        -13    1    1    0    0    0 -0.47996817974E+02  0.20440676338E+02 -0.29580261273E+02  0.59970983032E+02  0.10566000000E+00 0.  1.
         13    1    1    0    0    0  0.11141517370E+01 -0.98948982192E+01  0.49503594188E+01  0.11120592038E+02  0.10566000000E+00 0. -1.
         22    1    1    0    0    0  0.46882666237E+02 -0.10545778119E+02  0.24629901854E+02  0.53998424930E+02  0.00000000000E+00 0.  1.
</event>
<event>
 5    1  0.1254921E-009  0.9118800E+02  0.7561462E-02  0.1125453E+00
         25   -1    0    0    0    0  0.00000000000E+00  0.00000000000E+00  0.99999998245E-14  0.12509000000E+03  0.12509000000E+03 0.  0.
        -13    1    3    3    0    0  0.34572082218E+02  0.41838375847E+02  0.19201061568E+02  0.57570569667E+02  0.10566000000E+00 0.  1.
         23    2    1    0    0    0  0.15892407637E+02  0.24955585090E+02 -0.78030520258E+01  0.94492002212E+02  0.89400788663E+02 0.  0.
         13    1    3    3    0    0 -0.18679674581E+02 -0.16882790757E+02 -0.27004113593E+02  0.36921432545E+02  0.10566000000E+00 0. -1.
         22    1    1    0    0    0 -0.15892407637E+02 -0.24955585090E+02  0.78030520258E+01  0.30597997788E+02  0.00000000000E+00 0.  1.
</event>
<event>
 5    1  0.1254921E-009  0.9118800E+02  0.7561462E-02  0.1125453E+00
         25   -1    0    0    0    0  0.00000000000E+00  0.00000000000E+00  0.99999998245E-14  0.12509000000E+03  0.12509000000E+03 0.  0.
        -13    1    3    3    0    0 -0.43281207985E+02 -0.15807422769E+02 -0.41925143528E+02  0.62296600254E+02  0.10566000000E+00 0.  1.
         23    2    1    0    0    0 -0.18761733960E+02 -0.10801908304E+02 -0.21195556815E+02  0.94792549399E+02  0.89820331266E+02 0.  0.
         13    1    3    3    0    0  0.24519474025E+02  0.50055144651E+01  0.20729586713E+02  0.32495949145E+02  0.10566000000E+00 0. -1.
         22    1    1    0    0    0  0.18761733960E+02  0.10801908304E+02  0.21195556815E+02  0.30297450601E+02  0.00000000000E+00 0.  1.
</event>
<event>
 5    1  0.1254921E-009  0.9118800E+02  0.7561462E-02  0.1125453E+00
         25   -1    0    0    0    0  0.00000000000E+00  0.00000000000E+00  0.99999998245E-14  0.12509000000E+03  0.12509000000E+03 0.  0.
        -13    1    3    3    0    0  0.20226948960E+02  0.19478957263E+02  0.28150230186E+02  0.39761864441E+02  0.10566000000E+00 0. -1.
         23    2    1    0    0    0  0.53067951047E+01  0.12899433232E+02 -0.25602947724E+02  0.95934067771E+02  0.91396263463E+02 0.  0.
         13    1    3    3    0    0 -0.14920153855E+02 -0.65795240317E+01 -0.53753177909E+02  0.56172203330E+02  0.10566000000E+00 0.  1.
         22    1    1    0    0    0 -0.53067951047E+01 -0.12899433232E+02  0.25602947724E+02  0.29155932229E+02  0.00000000000E+00 0.  1.
</event>
<event>
 5    1  0.1254921E-009  0.9118800E+02  0.7561462E-02  0.1125453E+00
         25   -1    0    0    0    0  0.00000000000E+00  0.00000000000E+00  0.99999998245E-14  0.12509000000E+03  0.12509000000E+03 0.  0.
        -13    1    3    3    0    0 -0.30172364525E+02 -0.12529332531E+02  0.14734357238E+02  0.35839478260E+02  0.10566000000E+00 0.  1.
         23    2    1    0    0    0  0.28283331728E+02 -0.19978137428E+01  0.80763931644E+01  0.95608374537E+02  0.90949409243E+02 0.  0.
         13    1    3    3    0    0  0.58455696253E+02  0.10531518788E+02 -0.66579640736E+01  0.59768896276E+02  0.10566000000E+00 0. -1.
         22    1    1    0    0    0 -0.28283331728E+02  0.19978137428E+01 -0.80763931644E+01  0.29481625463E+02  0.00000000000E+00 0. -1.
</event>
<event>
 5    1  0.1254921E-009  0.9118800E+02  0.7561462E-02  0.1125453E+00
         25   -1    0    0    0    0  0.00000000000E+00  0.00000000000E+00  0.99999998245E-14  0.12509000000E+03  0.12509000000E+03 0.  0.
        -13    1    3    3    0    0 -0.40087157188E+02  0.34170704953E+02  0.22589952245E+02  0.57314346851E+02  0.10566000000E+00 0.  1.
         23    2    1    0    0    0 -0.10885973130E+02  0.75789520610E+01  0.24900690758E+02  0.96876717214E+02  0.92677446084E+02 0.  0.
         13    1    3    3    0    0  0.29201184058E+02 -0.26591752892E+02  0.23107385126E+01  0.39562370363E+02  0.10566000000E+00 0. -1.
         22    1    1    0    0    0  0.10885973130E+02 -0.75789520610E+01 -0.24900690758E+02  0.28213282786E+02  0.00000000000E+00 0.  1.
</event>
<event>
 5    1  0.1254921E-009  0.9118800E+02  0.7561462E-02  0.1125453E+00
         25   -1    0    0    0    0  0.00000000000E+00  0.00000000000E+00  0.99999998245E-14  0.12509000000E+03  0.12509000000E+03 0.  0.
        -13    1    3    3    0    0  0.26338504955E+02 -0.12826777790E+02 -0.37831205094E+02  0.47848242545E+02  0.10566000000E+00 0.  1.
         23    2    1    0    0    0 -0.18914204181E+01 -0.31203074510E+02 -0.80501987604E+01  0.92809742409E+02  0.87015132338E+02 0.  0.
         13    1    3    3    0    0 -0.28229925373E+02 -0.18376296720E+02  0.29781006334E+02  0.44961499864E+02  0.10566000000E+00 0. -1.
         22    1    1    0    0    0  0.18914204181E+01  0.31203074510E+02  0.80501987604E+01  0.32280257591E+02  0.00000000000E+00 0.  1.
</event>
<event>
 5    1  0.1254921E-009  0.9118800E+02  0.7561462E-02  0.1125453E+00
         25   -1    0    0    0    0  0.00000000000E+00  0.00000000000E+00  0.99999998245E-14  0.12509000000E+03  0.12509000000E+03 0.  0.
        -13    1    3    3    0    0 -0.44939656799E+02  0.39800739423E+02 -0.15651160893E+02  0.62037421071E+02  0.10566000000E+00 0. -1.
         23    2    1    0    0    0 -0.21382299733E+02  0.17540142957E+02 -0.12923576468E+02  0.94563320103E+02  0.89500521359E+02 0.  0.
         13    1    3    3    0    0  0.23557357067E+02 -0.22260596467E+02  0.27275844254E+01  0.32525899032E+02  0.10566000000E+00 0.  1.
         22    1    1    0    0    0  0.21382299733E+02 -0.17540142957E+02  0.12923576468E+02  0.30526679897E+02  0.00000000000E+00 0. -1.
</event>
<event>
 5    1  0.1254921E-009  0.9118800E+02  0.7561462E-02  0.1125453E+00
         25   -1    0    0    0    0  0.00000000000E+00  0.00000000000E+00  0.99999998245E-14  0.12509000000E+03  0.12509000000E+03 0.  0.
        -13    1    3    3    0    0  0.52018783580E-01  0.57980774300E+02  0.17991491614E+02  0.60708136431E+02  0.10566000000E+00 0. -1.
         23    2    1    0    0    0  0.78038969778E+01  0.38660627318E+02  0.47873542520E+01  0.85360116117E+02  0.75550550959E+02 0.  0.
         13    1    3    3    0    0  0.77518781942E+01 -0.19320146982E+02 -0.13204137362E+02  0.24651979686E+02  0.10566000000E+00 0.  1.
         22    1    1    0    0    0 -0.78038969778E+01 -0.38660627318E+02 -0.47873542520E+01  0.39729883883E+02  0.00000000000E+00 0. -1.
</event>
<event>
 5    1  0.1254921E-009  0.9118800E+02  0.7561462E-02  0.1125453E+00
         25   -1    0    0    0    0  0.00000000000E+00  0.00000000000E+00  0.99999998245E-14  0.12509000000E+03  0.12509000000E+03 0.  0.
        -13    1    3    3    0    0 -0.36769289385E+02 -0.26640988685E+01  0.48143460648E+02  0.60637299015E+02  0.10566000000E+00 0. -1.
         23    2    1    0    0    0 -0.74801951074E+01 -0.47255285478E+01  0.26606488973E+02  0.97050934496E+02  0.92912295699E+02 0.  0.
         13    1    3    3    0    0  0.29289094278E+02 -0.20614296794E+01 -0.21536971675E+02  0.36413635480E+02  0.10566000000E+00 0.  1.
         22    1    1    0    0    0  0.74801951074E+01  0.47255285478E+01 -0.26606488973E+02  0.28039065504E+02  0.00000000000E+00 0. -1.
</event>
<event>
 5    1  0.1254921E-009  0.9118800E+02  0.7561462E-02  0.1125453E+00
         25   -1    0    0    0    0  0.00000000000E+00  0.00000000000E+00  0.99999998245E-14  0.12509000000E+03  0.12509000000E+03 0.  0.
        -13    1    3    3    0    0 -0.44691110150E+02 -0.38354665147E+02  0.15753759333E+02  0.60963659356E+02  0.10566000000E+00 0. -1.
         23    2    1    0    0    0 -0.25798308319E+02 -0.11418603573E+02  0.14482879263E+01  0.96840491021E+02  0.92628537414E+02 0.  0.
         13    1    3    3    0    0  0.18892801831E+02  0.26936061573E+02 -0.14305471406E+02  0.35876831665E+02  0.10566000000E+00 0.  1.
         22    1    1    0    0    0  0.25798308319E+02  0.11418603573E+02 -0.14482879263E+01  0.28249508979E+02  0.00000000000E+00 0. -1.
</event>
<event>
 5    1  0.1254921E-009  0.9118800E+02  0.7561462E-02  0.1125453E+00
         25   -1    0    0    0    0  0.00000000000E+00  0.00000000000E+00  0.99999998245E-14  0.12509000000E+03  0.12509000000E+03 0.  0.
        -13    1    3    3    0    0 -0.12070331024E+02  0.31227994380E+02  0.32486872199E+01  0.33636968602E+02  0.10566000000E+00 0.  1.
         23    2    1    0    0    0  0.45804395912E+01 -0.26208816103E+02 -0.12814922528E+02  0.95558581006E+02  0.90880898412E+02 0.  0.
         13    1    3    3    0    0  0.16650770615E+02 -0.57436810483E+02 -0.16063609748E+02  0.61921612404E+02  0.10566000000E+00 0. -1.
         22    1    1    0    0    0 -0.45804395912E+01  0.26208816103E+02  0.12814922528E+02  0.29531418994E+02  0.00000000000E+00 0. -1.
</event>
<event>
 5    1  0.1254921E-009  0.9118800E+02  0.7561462E-02  0.1125453E+00
         25   -1    0    0    0    0  0.00000000000E+00  0.00000000000E+00  0.99999998245E-14  0.12509000000E+03  0.12509000000E+03 0.  0.
        -13    1    3    3    0    0 -0.71285889205E+01 -0.55287654895E+02 -0.20216177104E+01  0.55782072980E+02  0.10566000000E+00 0. -1.
         23    2    1    0    0    0 -0.16833696901E+02 -0.20229335037E+02  0.13710813135E+02  0.95415334977E+02  0.90683517822E+02 0.  0.
         13    1    3    3    0    0 -0.97051079806E+01  0.35058319858E+02  0.15732430846E+02  0.39633261997E+02  0.10566000000E+00 0.  1.
         22    1    1    0    0    0  0.16833696901E+02  0.20229335037E+02 -0.13710813135E+02  0.29674665023E+02  0.00000000000E+00 0. -1.
</event>
<event>
 5    1  0.1254921E-009  0.9118800E+02  0.7561462E-02  0.1125453E+00
         25   -1    0    0    0    0  0.00000000000E+00  0.00000000000E+00  0.99999998245E-14  0.12509000000E+03  0.12509000000E+03 0.  0.
        -13    1    3    3    0    0  0.32304208000E+01  0.21689012240E+02 -0.54709739725E+02  0.58940780919E+02  0.10566000000E+00 0. -1.
         23    2    1    0    0    0 -0.93282913429E+00 -0.49815975821E+01 -0.26974112689E+02  0.97643884792E+02  0.93707198214E+02 0.  0.
         13    1    3    3    0    0 -0.41632499343E+01 -0.26670609822E+02  0.27735627036E+02  0.38703103873E+02  0.10566000000E+00 0.  1.
         22    1    1    0    0    0  0.93282913429E+00  0.49815975821E+01  0.26974112689E+02  0.27446115208E+02  0.00000000000E+00 0. -1.
</event>
<event>
 5    1  0.1254921E-009  0.9118800E+02  0.7561462E-02  0.1125453E+00
         25   -1    0    0    0    0  0.00000000000E+00  0.00000000000E+00  0.99999998245E-14  0.12509000000E+03  0.12509000000E+03 0.  0.
        -13    1    3    3    0    0 -0.21532627253E+02 -0.22755066041E+02 -0.12985682093E+01  0.31355135311E+02  0.10566000000E+00 0. -1.
         23    2    1    0    0    0  0.20723779579E+02 -0.17085089904E+02 -0.31567591234E+02  0.83642585685E+02  0.72651180216E+02 0.  0.
         13    1    3    3    0    0  0.42256406832E+02  0.56699761373E+01 -0.30269023025E+02  0.52287450374E+02  0.10566000000E+00 0.  1.
         22    1    1    0    0    0 -0.20723779579E+02  0.17085089904E+02  0.31567591234E+02  0.41447414315E+02  0.00000000000E+00 0.  1.
</event>
<event>
 5    1  0.1254921E-009  0.9118800E+02  0.7561462E-02  0.1125453E+00
         25   -1    0    0    0    0  0.00000000000E+00  0.00000000000E+00  0.99999998245E-14  0.12509000000E+03  0.12509000000E+03 0.  0.
        -13    1    3    3    0    0  0.14549629734E+02 -0.27557480888E+02  0.43072524642E+02  0.53163521529E+02  0.10566000000E+00 0.  1.
         23    2    1    0    0    0 -0.54697744319E+01  0.71273039540E+01  0.27546218162E+02  0.96115683286E+02  0.91644495441E+02 0.  0.
         13    1    3    3    0    0 -0.20019404166E+02  0.34684784842E+02 -0.15526306480E+02  0.42952161757E+02  0.10566000000E+00 0. -1.
         22    1    1    0    0    0  0.54697744319E+01 -0.71273039540E+01 -0.27546218162E+02  0.28974316714E+02  0.00000000000E+00 0.  1.
</event>
<event>
 5    1  0.1254921E-009  0.9118800E+02  0.7561462E-02  0.1125453E+00
         25   -1    0    0    0    0  0.00000000000E+00  0.00000000000E+00  0.99999998245E-14  0.12509000000E+03  0.12509000000E+03 0.  0.
        -13    1    3    3    0    0 -0.37313726693E+02  0.16233906082E+01  0.39828349976E+02  0.54600899468E+02  0.10566000000E+00 0.  1.
         23    2    1    0    0    0 -0.77298150451E+01  0.21242164613E+02  0.17005741869E+02  0.96802637900E+02  0.92577404640E+02 0.  0.
         13    1    3    3    0    0  0.29583911648E+02  0.19618774005E+02 -0.22822608108E+02  0.42201738432E+02  0.10566000000E+00 0. -1.
         22    1    1    0    0    0  0.77298150451E+01 -0.21242164613E+02 -0.17005741869E+02  0.28287362100E+02  0.00000000000E+00 0.  1.
</event>
<event>
 5    1  0.1254921E-009  0.9118800E+02  0.7561462E-02  0.1125453E+00
         25   -1    0    0    0    0  0.00000000000E+00  0.00000000000E+00  0.99999998245E-14  0.12509000000E+03  0.12509000000E+03 0.  0.
        -13    1    3    3    0    0  0.33685461502E+02  0.12068021138E+02  0.10024294846E+02  0.37159724191E+02  0.10566000000E+00 0.  1.
         23    2    1    0    0    0 -0.10622598024E+02  0.10282809189E+02 -0.26589959607E+02  0.94666296980E+02  0.89644330988E+02 0.  0.
         13    1    3    3    0    0 -0.44308059526E+02 -0.17852119492E+01 -0.36614254453E+02  0.57506572788E+02  0.10566000000E+00 0. -1.
         22    1    1    0    0    0  0.10622598024E+02 -0.10282809189E+02  0.26589959607E+02  0.30423703020E+02  0.00000000000E+00 0. -1.
</event>
<event>
 5    1  0.1254921E-009  0.9118800E+02  0.7561462E-02  0.1125453E+00
         25   -1    0    0    0    0  0.00000000000E+00  0.00000000000E+00  0.99999998245E-14  0.12509000000E+03  0.12509000000E+03 0.  0.
        -13    1    3    3    0    0  0.43001528571E+02 -0.14182059645E+02 -0.36194373229E+02  0.57968147225E+02  0.10566000000E+00 0.  1.
         23    2    1    0    0    0  0.12585951363E+02 -0.42198604313E+01 -0.32248609165E+02  0.90216138917E+02  0.83203158199E+02 0.  0.
         13    1    3    3    0    0 -0.30415577208E+02  0.99621992139E+01  0.39457640640E+01  0.32247991692E+02  0.10566000000E+00 0. -1.
         22    1    1    0    0    0 -0.12585951363E+02  0.42198604313E+01  0.32248609165E+02  0.34873861083E+02  0.00000000000E+00 0.  1.
</event>
<event>
 5    1  0.1254921E-009  0.9118800E+02  0.7561462E-02  0.1125453E+00
         25   -1    0    0    0    0  0.00000000000E+00  0.00000000000E+00  0.99999998245E-14  0.12509000000E+03  0.12509000000E+03 0.  0.
        -13    1    3    3    0    0 -0.71468045597E+01  0.29681904302E+02 -0.46491728807E+02  0.55619998831E+02  0.10566000000E+00 0. -1.
         23    2    1    0    0    0 -0.69843203372E+01 -0.45229393955E+01 -0.30677229111E+02  0.93304309866E+02  0.87723224646E+02 0.  0.
         13    1    3    3    0    0  0.16248422249E+00 -0.34204843698E+02  0.15814499696E+02  0.37684311035E+02  0.10566000000E+00 0.  1.
         22    1    1    0    0    0  0.69843203372E+01  0.45229393955E+01  0.30677229111E+02  0.31785690134E+02  0.00000000000E+00 0. -1.
</event>
<event>
 5    1  0.1254921E-009  0.9118800E+02  0.7561462E-02  0.1125453E+00
         25   -1    0    0    0    0  0.00000000000E+00  0.00000000000E+00  0.99999998245E-14  0.12509000000E+03  0.12509000000E+03 0.  0.
        -13    1    3    3    0    0  0.32941010607E+02 -0.52691379675E+01  0.27596510606E+02  0.43294948394E+02  0.10566000000E+00 0.  1.
         23    2    1    0    0    0  0.73656753376E+01 -0.10166626196E+02 -0.22255137098E+02  0.99538002257E+02  0.96202439183E+02 0.  0.
         13    1    3    3    0    0 -0.25575335269E+02 -0.48974882287E+01 -0.49851647704E+02  0.56243053864E+02  0.10566000000E+00 0. -1.
         22    1    1    0    0    0 -0.73656753376E+01  0.10166626196E+02  0.22255137098E+02  0.25551997743E+02  0.00000000000E+00 0. -1.
</event>
<event>
 5    1  0.1254921E-009  0.9118800E+02  0.7561462E-02  0.1125453E+00
         25   -1    0    0    0    0  0.00000000000E+00  0.00000000000E+00  0.99999998245E-14  0.12509000000E+03  0.12509000000E+03 0.  0.
        -13    1    3    3    0    0  0.57015129066E-01  0.34231382508E+02 -0.31508180582E+01  0.34376294413E+02  0.10566000000E+00 0.  1.
         23    2    1    0    0    0 -0.14725087424E+02 -0.23704823280E+02  0.97225487694E+01  0.95538776659E+02  0.90853635285E+02 0.  0.
         13    1    3    3    0    0 -0.14782102553E+02 -0.57936205788E+02  0.12873366828E+02  0.61162482246E+02  0.10566000000E+00 0. -1.
         22    1    1    0    0    0  0.14725087424E+02  0.23704823280E+02 -0.97225487694E+01  0.29551223341E+02  0.00000000000E+00 0. -1.
</event>
<event>
 5    1  0.1254921E-009  0.9118800E+02  0.7561462E-02  0.1125453E+00
         25   -1    0    0    0    0  0.00000000000E+00  0.00000000000E+00  0.99999998245E-14  0.12509000000E+03  0.12509000000E+03 0.  0.
        -13    1    3    3    0    0 -0.35575244976E+02 -0.16199900366E+02 -0.45714976601E+02  0.60149023904E+02  0.10566000000E+00 0.  1.
         23    2    1    0    0    0 -0.24884117380E+02  0.11035868455E+01 -0.18811940206E+02  0.93875799769E+02  0.88534397193E+02 0.  0.
         13    1    3    3    0    0  0.10691127595E+02  0.17303487212E+02  0.26903036395E+02  0.33726775865E+02  0.10566000000E+00 0. -1.
         22    1    1    0    0    0  0.24884117380E+02 -0.11035868455E+01  0.18811940206E+02  0.31214200231E+02  0.00000000000E+00 0.  1.
</event>
<event>
 5    1  0.1254921E-009  0.9118800E+02  0.7561462E-02  0.1125453E+00
         25   -1    0    0    0    0  0.00000000000E+00  0.00000000000E+00  0.99999998245E-14  0.12509000000E+03  0.12509000000E+03 0.  0.
        -13    1    3    3    0    0  0.21904429186E+02  0.26924457098E+01 -0.26327813985E+02  0.34354304463E+02  0.10566000000E+00 0.  1.
         23    2    1    0    0    0 -0.16228020708E+02 -0.19543704269E+02  0.15636549380E+02  0.95260371957E+02  0.90469507328E+02 0.  0.
         13    1    3    3    0    0 -0.38132449895E+02 -0.22236149979E+02  0.41964363365E+02  0.60906067494E+02  0.10566000000E+00 0. -1.
         22    1    1    0    0    0  0.16228020708E+02  0.19543704269E+02 -0.15636549380E+02  0.29829628043E+02  0.00000000000E+00 0. -1.
</event>
<event>
 5    1  0.1254921E-009  0.9118800E+02  0.7561462E-02  0.1125453E+00
         25   -1    0    0    0    0  0.00000000000E+00  0.00000000000E+00  0.99999998245E-14  0.12509000000E+03  0.12509000000E+03 0.  0.
        -13    1    3    3    0    0 -0.10792279374E+02 -0.39638559386E+02  0.14961490981E+01  0.41108859270E+02  0.10566000000E+00 0.  1.
         23    2    1    0    0    0 -0.17915281980E+02  0.12601599591E+02  0.18408144200E+02  0.96478509065E+02  0.92138402948E+02 0.  0.
         13    1    3    3    0    0 -0.71230026054E+01  0.52240158977E+02  0.16911995102E+02  0.55369649795E+02  0.10566000000E+00 0. -1.
         22    1    1    0    0    0  0.17915281980E+02 -0.12601599591E+02 -0.18408144200E+02  0.28611490935E+02  0.00000000000E+00 0. -1.
</event>
<event>
 5    1  0.1254921E-009  0.9118800E+02  0.7561462E-02  0.1125453E+00
         25   -1    0    0    0    0  0.00000000000E+00  0.00000000000E+00  0.99999998245E-14  0.12509000000E+03  0.12509000000E+03 0.  0.
        -13    1    3    3    0    0  0.39536003405E+01 -0.90768689944E+01 -0.48439652186E+02  0.49441193091E+02  0.10566000000E+00 0.  1.
         23    2    1    0    0    0  0.25835512063E+02 -0.17688347605E+02 -0.14870204155E+02  0.90427710748E+02  0.83520635624E+02 0.  0.
         13    1    3    3    0    0  0.21881911723E+02 -0.86114786102E+01  0.33569448031E+02  0.40986517657E+02  0.10566000000E+00 0. -1.
         22    1    1    0    0    0 -0.25835512063E+02  0.17688347605E+02  0.14870204155E+02  0.34662289252E+02  0.00000000000E+00 0.  1.
</event>
<event>
 5    1  0.1254921E-009  0.9118800E+02  0.7561462E-02  0.1125453E+00
         25   -1    0    0    0    0  0.00000000000E+00  0.00000000000E+00  0.99999998245E-14  0.12509000000E+03  0.12509000000E+03 0.  0.
        -13    1    3    3    0    0 -0.46246502694E+02 -0.52410624144E+00  0.10622401009E+02  0.47453769777E+02  0.10566000000E+00 0.  1.
         23    2    1    0    0    0 -0.13545911886E+02 -0.10113511539E+02 -0.23803893383E+02  0.95894106716E+02  0.91341554170E+02 0.  0.
         13    1    3    3    0    0  0.32700590808E+02 -0.95894052971E+01 -0.34426294392E+02  0.48440336939E+02  0.10566000000E+00 0. -1.
         22    1    1    0    0    0  0.13545911886E+02  0.10113511539E+02  0.23803893383E+02  0.29195893284E+02  0.00000000000E+00 0. -1.
</event>
<event>
 5    1  0.1254921E-009  0.9118800E+02  0.7561462E-02  0.1125453E+00
         25   -1    0    0    0    0  0.00000000000E+00  0.00000000000E+00  0.99999998245E-14  0.12509000000E+03  0.12509000000E+03 0.  0.
        -13    1    3    3    0    0 -0.80103252745E+01 -0.16596370790E+01  0.39555321978E+02  0.40392503847E+02  0.10566000000E+00 0. -1.
         23    2    1    0    0    0 -0.26535130628E+02  0.16008270728E+02 -0.68147019493E+01  0.93359603661E+02  0.87802036104E+02 0.  0.
         13    1    3    3    0    0 -0.18524805354E+02  0.17667907807E+02 -0.46370023927E+02  0.52967099814E+02  0.10566000000E+00 0.  1.
         22    1    1    0    0    0  0.26535130628E+02 -0.16008270728E+02  0.68147019493E+01  0.31730396339E+02  0.00000000000E+00 0.  1.
</event>
<event>
 5    1  0.1254921E-009  0.9118800E+02  0.7561462E-02  0.1125453E+00
         25   -1    0    0    0    0  0.00000000000E+00  0.00000000000E+00  0.99999998245E-14  0.12509000000E+03  0.12509000000E+03 0.  0.
        -13    1    3    3    0    0 -0.10294265256E+02 -0.19438192164E+02 -0.24966363573E+02  0.33273798789E+02  0.10566000000E+00 0.  1.
         23    2    1    0    0    0  0.15492422926E+01  0.24334883014E+02  0.17242876755E+02  0.95225246832E+02  0.90420927625E+02 0.  0.
         13    1    3    3    0    0  0.11843507549E+02  0.43773075178E+02  0.42209240328E+02  0.61951448043E+02  0.10566000000E+00 0. -1.
         22    1    1    0    0    0 -0.15492422926E+01 -0.24334883014E+02 -0.17242876755E+02  0.29864753168E+02  0.00000000000E+00 0. -1.
</event>
<event>
 5    1  0.1254921E-009  0.9118800E+02  0.7561462E-02  0.1125453E+00
         25   -1    0    0    0    0  0.00000000000E+00  0.00000000000E+00  0.99999998245E-14  0.12509000000E+03  0.12509000000E+03 0.  0.
        -13    1    3    3    0    0  0.10103648573E+02  0.45844460433E+02 -0.49968680844E+00  0.46947407999E+02  0.10566000000E+00 0.  1.
         23    2    1    0    0    0 -0.33238889787E+01  0.12919176046E+02  0.29012695186E+02  0.93157417430E+02  0.87513510915E+02 0.  0.
         13    1    3    3    0    0 -0.13427537552E+02 -0.32925284386E+02  0.29512381994E+02  0.46210009431E+02  0.10566000000E+00 0. -1.
         22    1    1    0    0    0  0.33238889787E+01 -0.12919176046E+02 -0.29012695186E+02  0.31932582570E+02  0.00000000000E+00 0.  1.
</event>
<event>
 5    1  0.1254921E-009  0.9118800E+02  0.7561462E-02  0.1125453E+00
         25   -1    0    0    0    0  0.00000000000E+00  0.00000000000E+00  0.99999998245E-14  0.12509000000E+03  0.12509000000E+03 0.  0.
        -13    1    3    3    0    0  0.87533858607E+01 -0.85481483102E+01  0.32378069955E+02  0.34612760387E+02  0.10566000000E+00 0.  1.
         23    2    1    0    0    0 -0.71491435571E+01  0.23198353435E+02 -0.17016364652E+02  0.95444924158E+02  0.90724324334E+02 0.  0.
         13    1    3    3    0    0 -0.15902529418E+02  0.31746501745E+02 -0.49394434607E+02  0.60832163771E+02  0.10566000000E+00 0. -1.
         22    1    1    0    0    0  0.71491435571E+01 -0.23198353435E+02  0.17016364652E+02  0.29645075842E+02  0.00000000000E+00 0. -1.
</event>
<event>
 5    1  0.1254921E-009  0.9118800E+02  0.7561462E-02  0.1125453E+00
         25   -1    0    0    0    0  0.00000000000E+00  0.00000000000E+00  0.99999998245E-14  0.12509000000E+03  0.12509000000E+03 0.  0.
        -13    1    3    3    0    0  0.32803183904E+02  0.27467336650E+02  0.39822913550E+02  0.58449799525E+02  0.10566000000E+00 0.  1.
         23    2    1    0    0    0  0.16384380752E+01  0.13331258464E+02  0.26888008383E+02  0.95033853767E+02  0.90155762076E+02 0.  0.
         13    1    3    3    0    0 -0.31164745829E+02 -0.14136078186E+02 -0.12934905167E+02  0.36584054242E+02  0.10566000000E+00 0. -1.
         22    1    1    0    0    0 -0.16384380752E+01 -0.13331258464E+02 -0.26888008383E+02  0.30056146233E+02  0.00000000000E+00 0. -1.
</event>
<event>
 5    1  0.1254921E-009  0.9118800E+02  0.7561462E-02  0.1125453E+00
         25   -1    0    0    0    0  0.00000000000E+00  0.00000000000E+00  0.99999998245E-14  0.12509000000E+03  0.12509000000E+03 0.  0.
        -13    1    3    3    0    0  0.47961488857E+01  0.14563518009E+02  0.33224509245E+02  0.36592052136E+02  0.10566000000E+00 0.  1.
         23    2    1    0    0    0 -0.23770895147E+02  0.89510191648E+01 -0.16916342741E+02  0.94572155189E+02  0.89512868824E+02 0.  0.
         13    1    3    3    0    0 -0.28567044032E+02 -0.56124988443E+01 -0.50140851986E+02  0.57980103053E+02  0.10566000000E+00 0. -1.
         22    1    1    0    0    0  0.23770895147E+02 -0.89510191648E+01  0.16916342741E+02  0.30517844811E+02  0.00000000000E+00 0. -1.
</event>
<event>
 5    1  0.1254921E-009  0.9118800E+02  0.7561462E-02  0.1125453E+00
         25   -1    0    0    0    0  0.00000000000E+00  0.00000000000E+00  0.99999998245E-14  0.12509000000E+03  0.12509000000E+03 0.  0.
        -13    1    3    3    0    0 -0.32191950203E+01  0.12135400177E+02 -0.49867631126E+02  0.51423953097E+02  0.10566000000E+00 0.  1.
         23    2    1    0    0    0  0.87113918792E+01 -0.18958246519E+02 -0.20801086239E+02  0.95628352927E+02  0.90976882971E+02 0.  0.
         13    1    3    3    0    0  0.11930586899E+02 -0.31093646696E+02  0.29066544887E+02  0.44204399829E+02  0.10566000000E+00 0. -1.
         22    1    1    0    0    0 -0.87113918792E+01  0.18958246519E+02  0.20801086239E+02  0.29461647073E+02  0.00000000000E+00 0.  1.
</event>
<event>
 5    1  0.1254921E-009  0.9118800E+02  0.7561462E-02  0.1125453E+00
         25   -1    0    0    0    0  0.00000000000E+00  0.00000000000E+00  0.99999998245E-14  0.12509000000E+03  0.12509000000E+03 0.  0.
        -13    1    3    3    0    0 -0.22528046563E+02  0.14642430338E+02  0.20705662156E+02  0.33921221344E+02  0.10566000000E+00 0.  1.
         23    2    1    0    0    0  0.84404573198E+01 -0.31383510048E+02  0.17534512725E+01  0.92544023074E+02  0.86632301092E+02 0.  0.
         13    1    3    3    0    0  0.30968503883E+02 -0.46025940386E+02 -0.18952210883E+02  0.58622801729E+02  0.10566000000E+00 0. -1.
         22    1    1    0    0    0 -0.84404573198E+01  0.31383510048E+02 -0.17534512725E+01  0.32545976926E+02  0.00000000000E+00 0. -1.
</event>
<event>
 5    1  0.1254921E-009  0.9118800E+02  0.7561462E-02  0.1125453E+00
         25   -1    0    0    0    0  0.00000000000E+00  0.00000000000E+00  0.99999998245E-14  0.12509000000E+03  0.12509000000E+03 0.  0.
        -13    1    3    3    0    0 -0.15726945635E+02 -0.21947250665E+02 -0.35998414860E+02  0.44999062960E+02  0.10566000000E+00 0.  1.
         23    2    1    0    0    0 -0.14245142559E+02  0.22732707736E+02 -0.14242218443E+02  0.94716642040E+02  0.89714555149E+02 0.  0.
         13    1    3    3    0    0  0.14818030756E+01  0.44679958401E+02  0.21756196417E+02  0.49717579081E+02  0.10566000000E+00 0. -1.
         22    1    1    0    0    0  0.14245142559E+02 -0.22732707736E+02  0.14242218443E+02  0.30373357960E+02  0.00000000000E+00 0.  1.
</event>
<event>
 5    1  0.1254921E-009  0.9118800E+02  0.7561462E-02  0.1125453E+00
         25   -1    0    0    0    0  0.00000000000E+00  0.00000000000E+00  0.99999998245E-14  0.12509000000E+03  0.12509000000E+03 0.  0.
        -13    1    3    3    0    0  0.26206836778E+02  0.78112738886E+01  0.24297906708E+02  0.36581603684E+02  0.10566000000E+00 0. -1.
         23    2    1    0    0    0  0.23948149652E+01 -0.12560963946E+02 -0.26155982804E+02  0.95975598230E+02  0.91453086690E+02 0.  0.
         13    1    3    3    0    0 -0.23812021813E+02 -0.20372237835E+02 -0.50453889512E+02  0.59393994546E+02  0.10566000000E+00 0.  1.
         22    1    1    0    0    0 -0.23948149652E+01  0.12560963946E+02  0.26155982804E+02  0.29114401770E+02  0.00000000000E+00 0.  1.
</event>
<event>
 5    1  0.1254921E-009  0.9118800E+02  0.7561462E-02  0.1125453E+00
         25   -1    0    0    0    0  0.00000000000E+00  0.00000000000E+00  0.99999998245E-14  0.12509000000E+03  0.12509000000E+03 0.  0.
        -13    1    3    3    0    0  0.70646229398E+01  0.50069352928E+02 -0.54405010665E+01  0.50857243493E+02  0.10566000000E+00 0. -1.
         23    2    1    0    0    0  0.14347257085E+02  0.98993886886E+01 -0.23774523720E+02  0.95610012545E+02  0.90951662098E+02 0.  0.
         13    1    3    3    0    0  0.72826341448E+01 -0.40169964239E+02 -0.18334022654E+02  0.44752769051E+02  0.10566000000E+00 0.  1.
         22    1    1    0    0    0 -0.14347257085E+02 -0.98993886886E+01  0.23774523720E+02  0.29479987455E+02  0.00000000000E+00 0. -1.
</event>
<event>
 5    1  0.1254921E-009  0.9118800E+02  0.7561462E-02  0.1125453E+00
         25   -1    0    0    0    0  0.00000000000E+00  0.00000000000E+00  0.99999998245E-14  0.12509000000E+03  0.12509000000E+03 0.  0.
        -13    1    3    3    0    0 -0.21960948014E+02 -0.50759234484E+02  0.86791310206E+01  0.55983226081E+02  0.10566000000E+00 0.  1.
         23    2    1    0    0    0 -0.22958485742E+02 -0.11330803858E+02  0.14207154871E+02  0.95809931128E+02  0.91226204950E+02 0.  0.
         13    1    3    3    0    0 -0.99753772797E+00  0.39428430626E+02  0.55280238507E+01  0.39826705047E+02  0.10566000000E+00 0. -1.
         22    1    1    0    0    0  0.22958485742E+02  0.11330803858E+02 -0.14207154871E+02  0.29280068872E+02  0.00000000000E+00 0.  1.
</event>
<event>
 5    1  0.1254921E-009  0.9118800E+02  0.7561462E-02  0.1125453E+00
         25   -1    0    0    0    0  0.00000000000E+00  0.00000000000E+00  0.99999998245E-14  0.12509000000E+03  0.12509000000E+03 0.  0.
        -13    1    3    3    0    0  0.85464140041E+01  0.18842433886E+01  0.34135776060E+02  0.35239948024E+02  0.10566000000E+00 0.  1.
         23    2    1    0    0    0 -0.48662908704E+01 -0.15142537295E+02 -0.23441430901E+02  0.96761959029E+02  0.92522423281E+02 0.  0.
         13    1    3    3    0    0 -0.13412704875E+02 -0.17026780684E+02 -0.57577206962E+02  0.61522011004E+02  0.10566000000E+00 0. -1.
         22    1    1    0    0    0  0.48662908704E+01  0.15142537295E+02  0.23441430901E+02  0.28328040971E+02  0.00000000000E+00 0. -1.
</event>
<event>
 5    1  0.1254921E-009  0.9118800E+02  0.7561462E-02  0.1125453E+00
         25   -1    0    0    0    0  0.00000000000E+00  0.00000000000E+00  0.99999998245E-14  0.12509000000E+03  0.12509000000E+03 0.  0.
        -13    1    3    3    0    0  0.17079822720E+02  0.18561090768E+02  0.29973137422E+02  0.39174412129E+02  0.10566000000E+00 0.  1.
         23    2    1    0    0    0  0.18628770479E+02  0.16832797270E+02 -0.22306095694E+02  0.91505240680E+02  0.85119169481E+02 0.  0.
         13    1    3    3    0    0  0.15489477584E+01 -0.17282934981E+01 -0.52279233116E+02  0.52330828551E+02  0.10566000000E+00 0. -1.
         22    1    1    0    0    0 -0.18628770479E+02 -0.16832797270E+02  0.22306095694E+02  0.33584759320E+02  0.00000000000E+00 0. -1.
</event>
<event>
 5    1  0.1254921E-009  0.9118800E+02  0.7561462E-02  0.1125453E+00
         25   -1    0    0    0    0  0.00000000000E+00  0.00000000000E+00  0.99999998245E-14  0.12509000000E+03  0.12509000000E+03 0.  0.
        -13    1    3    3    0    0 -0.26350527547E+02 -0.22829501617E+02  0.18624439341E+01  0.34914414037E+02  0.10566000000E+00 0. -1.
         23    2    1    0    0    0  0.16487388976E+02  0.20619926994E+02  0.10769096756E+02  0.96577041027E+02  0.92272076079E+02 0.  0.
         13    1    3    3    0    0  0.42837916523E+02  0.43449428612E+02  0.89066528220E+01  0.61662626989E+02  0.10566000000E+00 0.  1.
         22    1    1    0    0    0 -0.16487388976E+02 -0.20619926994E+02 -0.10769096756E+02  0.28512958973E+02  0.00000000000E+00 0.  1.
</event>
<event>
 5    1  0.1254921E-009  0.9118800E+02  0.7561462E-02  0.1125453E+00
         25   -1    0    0    0    0  0.00000000000E+00  0.00000000000E+00  0.99999998245E-14  0.12509000000E+03  0.12509000000E+03 0.  0.
        -13    1    3    3    0    0 -0.45577179021E+02  0.65642472985E+00  0.17298613911E+02  0.48754111090E+02  0.10566000000E+00 0.  1.
         23    2    1    0    0    0 -0.33482826454E+01 -0.21408282539E+02  0.18769184721E+02  0.96422808770E+02  0.92062751415E+02 0.  0.
         13    1    3    3    0    0  0.42228896376E+02 -0.22064707269E+02  0.14705708100E+01  0.47668697680E+02  0.10566000000E+00 0. -1.
         22    1    1    0    0    0  0.33482826454E+01  0.21408282539E+02 -0.18769184721E+02  0.28667191230E+02  0.00000000000E+00 0.  1.
</event>
<event>
 5    1  0.1254921E-009  0.9118800E+02  0.7561462E-02  0.1125453E+00
         25   -1    0    0    0    0  0.00000000000E+00  0.00000000000E+00  0.99999998245E-14  0.12509000000E+03  0.12509000000E+03 0.  0.
        -13    1    3    3    0    0 -0.32107033841E+02 -0.19625931371E+02  0.83954005361E+01  0.38555579602E+02  0.10566000000E+00 0. -1.
         23    2    1    0    0    0  0.25339604567E+02 -0.12435198963E+02  0.23239424801E+01  0.96768092552E+02  0.92530715412E+02 0.  0.
         13    1    3    3    0    0  0.57446638408E+02  0.71907324087E+01 -0.60714580559E+01  0.58212512950E+02  0.10566000000E+00 0.  1.
         22    1    1    0    0    0 -0.25339604567E+02  0.12435198963E+02 -0.23239424801E+01  0.28321907448E+02  0.00000000000E+00 0.  1.
</event>
<event>
 5    1  0.1254921E-009  0.9118800E+02  0.7561462E-02  0.1125453E+00
         25   -1    0    0    0    0  0.00000000000E+00  0.00000000000E+00  0.99999998245E-14  0.12509000000E+03  0.12509000000E+03 0.  0.
        -13    1    3    3    0    0 -0.18782145736E+02  0.15474903414E+02 -0.41739820885E+02  0.48316306209E+02  0.10566000000E+00 0. -1.
         23    2    1    0    0    0 -0.41089547914E-01  0.28965087853E+02  0.12199968228E+00  0.96124626075E+02  0.91656701073E+02 0.  0.
         13    1    3    3    0    0  0.18741056188E+02  0.13490184439E+02  0.41861820567E+02  0.47808319867E+02  0.10566000000E+00 0.  1.
         22    1    1    0    0    0  0.41089547914E-01 -0.28965087853E+02 -0.12199968228E+00  0.28965373925E+02  0.00000000000E+00 0. -1.
</event>
<event>
 5    1  0.1254921E-009  0.9118800E+02  0.7561462E-02  0.1125453E+00
         25   -1    0    0    0    0  0.00000000000E+00  0.00000000000E+00  0.99999998245E-14  0.12509000000E+03  0.12509000000E+03 0.  0.
        -13    1    3    3    0    0  0.15533463544E+02  0.24961860874E+02 -0.14859122903E+02  0.32942187017E+02  0.10566000000E+00 0. -1.
         23    2    1    0    0    0 -0.26605098049E+02 -0.15178432854E+02  0.41828006821E+01  0.94175409793E+02  0.88956708134E+02 0.  0.
         13    1    3    3    0    0 -0.42138561594E+02 -0.40140293728E+02  0.19041923585E+02  0.61233222776E+02  0.10566000000E+00 0.  1.
         22    1    1    0    0    0  0.26605098049E+02  0.15178432854E+02 -0.41828006821E+01  0.30914590207E+02  0.00000000000E+00 0.  1.
</event>
<event>
 5    1  0.1254921E-009  0.9118800E+02  0.7561462E-02  0.1125453E+00
         25   -1    0    0    0    0  0.00000000000E+00  0.00000000000E+00  0.99999998245E-14  0.12509000000E+03  0.12509000000E+03 0.  0.
        -13    1    3    3    0    0 -0.25344857149E+02  0.41387128728E+01  0.31784932098E+02  0.40862988152E+02  0.10566000000E+00 0.  1.
         23    2    1    0    0    0  0.51858507603E+01 -0.27827000087E+02 -0.23129370861E+01  0.96689565849E+02  0.92424496126E+02 0.  0.
         13    1    3    3    0    0  0.30530707910E+02 -0.31965712960E+02 -0.34097869184E+02  0.55826577698E+02  0.10566000000E+00 0. -1.
         22    1    1    0    0    0 -0.51858507603E+01  0.27827000087E+02  0.23129370861E+01  0.28400434151E+02  0.00000000000E+00 0. -1.
</event>
<event>
 5    1  0.1254921E-009  0.9118800E+02  0.7561462E-02  0.1125453E+00
         25   -1    0    0    0    0  0.00000000000E+00  0.00000000000E+00  0.99999998245E-14  0.12509000000E+03  0.12509000000E+03 0.  0.
        -13    1    3    3    0    0  0.22716839794E+02  0.21123893352E+02 -0.17011241238E+02  0.35378908591E+02  0.10566000000E+00 0. -1.
         23    2    1    0    0    0 -0.63195504312E+01 -0.28661412565E+02  0.88233140573E+00  0.95726897361E+02  0.91112277339E+02 0.  0.
         13    1    3    3    0    0 -0.29036390226E+02 -0.49785305917E+02  0.17893572644E+02  0.60347988770E+02  0.10566000000E+00 0.  1.
         22    1    1    0    0    0  0.63195504312E+01  0.28661412565E+02 -0.88233140573E+00  0.29363102639E+02  0.00000000000E+00 0.  1.
</event>
<event>
 5    1  0.1254921E-009  0.9118800E+02  0.7561462E-02  0.1125453E+00
         25   -1    0    0    0    0  0.00000000000E+00  0.00000000000E+00  0.99999998245E-14  0.12509000000E+03  0.12509000000E+03 0.  0.
        -13    1    3    3    0    0  0.35537905274E+02 -0.73269567704E+01  0.55376860484E+01  0.36705641767E+02  0.10566000000E+00 0.  1.
         23    2    1    0    0    0  0.85668519313E+01  0.32770843243E+01 -0.36327131348E+02  0.87622804940E+02  0.79208365972E+02 0.  0.
         13    1    3    3    0    0 -0.26971053342E+02  0.10604041095E+02 -0.41864817396E+02  0.50917163173E+02  0.10566000000E+00 0. -1.
         22    1    1    0    0    0 -0.85668519313E+01 -0.32770843243E+01  0.36327131348E+02  0.37467195060E+02  0.00000000000E+00 0. -1.
</event>
<event>
 4    1  0.1254921E-009  0.9118800E+02  0.7561462E-02  0.1125453E+00
         25   -1    0    0    0    0  0.00000000000E+00  0.00000000000E+00  0.99999998245E-14  0.12509000000E+03  0.12509000000E+03 0.  0.
        -13    1    1    0    0    0  0.16034023398E+01  0.12801515647E+01 -0.72542073820E+01  0.75395209310E+01  0.10566000000E+00 0.  1.
         13    1    1    0    0    0  0.25284125014E+02  0.31554678023E+02  0.45181822546E+02  0.60633265914E+02  0.10566000000E+00 0. -1.
         22    1    1    0    0    0 -0.26887527354E+02 -0.32834829588E+02 -0.37927615164E+02  0.56917213155E+02  0.00000000000E+00 0. -1.
</event>
<event>
 5    1  0.1254921E-009  0.9118800E+02  0.7561462E-02  0.1125453E+00
         25   -1    0    0    0    0  0.00000000000E+00  0.00000000000E+00  0.99999998245E-14  0.12509000000E+03  0.12509000000E+03 0.  0.
        -13    1    3    3    0    0  0.34586606533E+02 -0.23890036349E+02  0.40537548916E+02  0.58397527553E+02  0.10566000000E+00 0. -1.
         23    2    1    0    0    0  0.24535902128E+02  0.23732705690E+01  0.16151207548E+02  0.95619601094E+02  0.90964848715E+02 0.  0.
         13    1    3    3    0    0 -0.10050704405E+02  0.26263306918E+02 -0.24386341368E+02  0.37222073540E+02  0.10566000000E+00 0.  1.
         22    1    1    0    0    0 -0.24535902128E+02 -0.23732705690E+01 -0.16151207548E+02  0.29470398906E+02  0.00000000000E+00 0. -1.
</event>
<event>
 5    1  0.1254921E-009  0.9118800E+02  0.7561462E-02  0.1125453E+00
         25   -1    0    0    0    0  0.00000000000E+00  0.00000000000E+00  0.99999998245E-14  0.12509000000E+03  0.12509000000E+03 0.  0.
        -13    1    3    3    0    0  0.35671286133E+02  0.58332356454E+01  0.17066032874E+01  0.36185507476E+02  0.10566000000E+00 0.  1.
         23    2    1    0    0    0 -0.22504148684E+02  0.12393952229E+02 -0.12633411500E+02  0.96460472481E+02  0.92113912659E+02 0.  0.
         13    1    3    3    0    0 -0.58175434817E+02  0.65607165834E+01 -0.14340014788E+02  0.60274965005E+02  0.10566000000E+00 0. -1.
         22    1    1    0    0    0  0.22504148684E+02 -0.12393952229E+02  0.12633411500E+02  0.28629527519E+02  0.00000000000E+00 0. -1.
</event>
<event>
 5    1  0.1254921E-009  0.9118800E+02  0.7561462E-02  0.1125453E+00
         25   -1    0    0    0    0  0.00000000000E+00  0.00000000000E+00  0.99999998245E-14  0.12509000000E+03  0.12509000000E+03 0.  0.
        -13    1    3    3    0    0 -0.44195265490E+02 -0.95158886206E+01 -0.41606259446E+02  0.61439935034E+02  0.10566000000E+00 0. -1.
         23    2    1    0    0    0 -0.26881199314E+02 -0.45008745049E+01 -0.13898095269E+02  0.94495657386E+02  0.89405902853E+02 0.  0.
         13    1    3    3    0    0  0.17314066176E+02  0.50150141158E+01  0.27708164177E+02  0.33055722352E+02  0.10566000000E+00 0.  1.
         22    1    1    0    0    0  0.26881199314E+02  0.45008745049E+01  0.13898095269E+02  0.30594342614E+02  0.00000000000E+00 0. -1.
</event>
<event>
 5    1  0.1254921E-009  0.9118800E+02  0.7561462E-02  0.1125453E+00
         25   -1    0    0    0    0  0.00000000000E+00  0.00000000000E+00  0.99999998245E-14  0.12509000000E+03  0.12509000000E+03 0.  0.
        -13    1    3    3    0    0  0.45813777292E+02  0.41373929272E+02  0.95844010308E+01  0.62470602049E+02  0.10566000000E+00 0.  1.
         23    2    1    0    0    0  0.24394018510E+02  0.24051779719E+02  0.68602517636E+01  0.90152637464E+02  0.83107633469E+02 0.  0.
         13    1    3    3    0    0 -0.21419758782E+02 -0.17322149554E+02 -0.27241492672E+01  0.27682035415E+02  0.10566000000E+00 0. -1.
         22    1    1    0    0    0 -0.24394018510E+02 -0.24051779719E+02 -0.68602517636E+01  0.34937362536E+02  0.00000000000E+00 0.  1.
</event>
<event>
 5    1  0.1254921E-009  0.9118800E+02  0.7561462E-02  0.1125453E+00
         25   -1    0    0    0    0  0.00000000000E+00  0.00000000000E+00  0.99999998245E-14  0.12509000000E+03  0.12509000000E+03 0.  0.
        -13    1    3    3    0    0  0.64763758639E+01  0.46283574336E+02 -0.24325498429E+02  0.52686371440E+02  0.10566000000E+00 0. -1.
         23    2    1    0    0    0  0.17994225515E+02  0.45089492121E+01 -0.22321745290E+02  0.96066163457E+02  0.91576878489E+02 0.  0.
         13    1    3    3    0    0  0.11517849651E+02 -0.41774625124E+02  0.20037531394E+01  0.43379792017E+02  0.10566000000E+00 0.  1.
         22    1    1    0    0    0 -0.17994225515E+02 -0.45089492121E+01  0.22321745290E+02  0.29023836543E+02  0.00000000000E+00 0. -1.
</event>
<event>
 5    1  0.1254921E-009  0.9118800E+02  0.7561462E-02  0.1125453E+00
         25   -1    0    0    0    0  0.00000000000E+00  0.00000000000E+00  0.99999998245E-14  0.12509000000E+03  0.12509000000E+03 0.  0.
        -13    1    3    3    0    0 -0.21286329318E+02 -0.28175548769E+02 -0.21775388004E+02  0.41486721382E+02  0.10566000000E+00 0.  1.
         23    2    1    0    0    0  0.96866573259E+01 -0.16260073233E+02  0.21774268205E+02  0.96239695538E+02  0.91813609719E+02 0.  0.
         13    1    3    3    0    0  0.30972986644E+02  0.11915475536E+02  0.43549656209E+02  0.54752974156E+02  0.10566000000E+00 0. -1.
         22    1    1    0    0    0 -0.96866573259E+01  0.16260073233E+02 -0.21774268205E+02  0.28850304462E+02  0.00000000000E+00 0. -1.
</event>
<event>
 5    1  0.1254921E-009  0.9118800E+02  0.7561462E-02  0.1125453E+00
         25   -1    0    0    0    0  0.00000000000E+00  0.00000000000E+00  0.99999998245E-14  0.12509000000E+03  0.12509000000E+03 0.  0.
        -13    1    3    3    0    0  0.34368778096E+01  0.32193690479E+02  0.15281028059E+02  0.35801771161E+02  0.10566000000E+00 0.  1.
         23    2    1    0    0    0  0.12432146747E+02 -0.25528612775E+02  0.11850390739E+02  0.94321507940E+02  0.89161913149E+02 0.  0.
         13    1    3    3    0    0  0.89952689377E+01 -0.57722303254E+02 -0.34306373194E+01  0.58519736779E+02  0.10566000000E+00 0. -1.
         22    1    1    0    0    0 -0.12432146747E+02  0.25528612775E+02 -0.11850390739E+02  0.30768492060E+02  0.00000000000E+00 0. -1.
</event>
<event>
 5    1  0.1254921E-009  0.9118800E+02  0.7561462E-02  0.1125453E+00
         25   -1    0    0    0    0  0.00000000000E+00  0.00000000000E+00  0.99999998245E-14  0.12509000000E+03  0.12509000000E+03 0.  0.
        -13    1    3    3    0    0  0.15471594013E+02 -0.19514253908E+02  0.53527659544E+02  0.59037257958E+02  0.10566000000E+00 0. -1.
         23    2    1    0    0    0  0.18171876960E+02 -0.16524474550E+02  0.18386489829E+02  0.94408761765E+02  0.89284242274E+02 0.  0.
         13    1    3    3    0    0  0.27002829471E+01  0.29897793583E+01 -0.35141169715E+02  0.35371503808E+02  0.10566000000E+00 0.  1.
         22    1    1    0    0    0 -0.18171876960E+02  0.16524474550E+02 -0.18386489829E+02  0.30681238235E+02  0.00000000000E+00 0. -1.
</event>
<event>
 5    1  0.1254921E-009  0.9118800E+02  0.7561462E-02  0.1125453E+00
         25   -1    0    0    0    0  0.00000000000E+00  0.00000000000E+00  0.99999998245E-14  0.12509000000E+03  0.12509000000E+03 0.  0.
        -13    1    3    3    0    0  0.99991239386E+01 -0.43508015686E+02  0.12643544405E+02  0.46398278929E+02  0.10566000000E+00 0. -1.
         23    2    1    0    0    0 -0.26636882458E+02 -0.11491894965E+02  0.42938394607E+01  0.95763830556E+02  0.91162969612E+02 0.  0.
         13    1    3    3    0    0 -0.36636006396E+02  0.32016120721E+02 -0.83497049441E+01  0.49365551626E+02  0.10566000000E+00 0.  1.
         22    1    1    0    0    0  0.26636882458E+02  0.11491894965E+02 -0.42938394607E+01  0.29326169444E+02  0.00000000000E+00 0.  1.
</event>
<event>
 5    1  0.1254921E-009  0.9118800E+02  0.7561462E-02  0.1125453E+00
         25   -1    0    0    0    0  0.00000000000E+00  0.00000000000E+00  0.99999998245E-14  0.12509000000E+03  0.12509000000E+03 0.  0.
        -13    1    3    3    0    0  0.69747356255E+01  0.20156095119E+02 -0.32538326256E+02  0.38905898615E+02  0.10566000000E+00 0.  1.
         23    2    1    0    0    0 -0.39098913768E+01  0.18972093666E+02  0.22716936812E+02  0.95235573079E+02  0.90435212019E+02 0.  0.
         13    1    3    3    0    0 -0.10884627002E+02 -0.11840014526E+01  0.55255263068E+02  0.56329674464E+02  0.10566000000E+00 0. -1.
         22    1    1    0    0    0  0.39098913768E+01 -0.18972093666E+02 -0.22716936812E+02  0.29854426921E+02  0.00000000000E+00 0.  1.
</event>
