<LesHouchesEvents version="3.0">
<header>
<!--
#*********************************************************************
#                                                                    *
#                        MadGraph5_aMC@NLO                           *
#                                                                    *
#                           Going Beyond                             *
#                                                                    *
#                   http://madgraph.hep.uiuc.edu                     *
#                   http://madgraph.phys.ucl.ac.be                   *
#                   http://amcatnlo.cern.ch                          *
#                                                                    *
#                     The MadGraph5_aMC@NLO team                     *
#                                                                    *
#....................................................................*
#                                                                    *
# This file contains all the information necessary to reproduce      *
# the events generated:                                              *
#                                                                    *
# 1. software version                                                *
# 2. proc_card          : code generation info including model       *
# 3. param_card         : model primary parameters in the LH format  *
# 4. run_card           : running parameters (collider and cuts)     *
# 5. pythia_card        : present only if pythia has been run        *
# 6. pgs_card           : present only if pgs has been run           *
# 7. delphes_cards      : present only if delphes has been run       *
#                                                                    *
#                                                                    *
#*********************************************************************
-->
<MGVersion>
2.9.21
</MGVersion>
<MG5ProcCard>
<![CDATA[
#************************************************************
#*                     MadGraph5_aMC@NLO                    *
#*                                                          *
#*                *                       *                 *
#*                  *        * *        *                   *
#*                    * * * * 5 * * * *                     *
#*                  *        * *        *                   *
#*                *                       *                 *
#*                                                          *
#*                                                          *
#*         VERSION 2.9.21                2024-09-26         *
#*                                                          *
#*    The MadGraph5_aMC@NLO Development Team - Find us at   *
#*    https://server06.fynu.ucl.ac.be/projects/madgraph     *
#*                                                          *
#************************************************************
#*                                                          *
#*               Command File for MadGraph5_aMC@NLO         *
#*                                                          *
#*     run as ./bin/mg5_aMC  filename                       *
#*                                                          *
#************************************************************
set group_subprocesses Auto
set ignore_six_quark_processes False
set low_mem_multicore_nlo_generation False
set complex_mass_scheme False
set gauge unitary
set loop_optimized_output True
set loop_color_flows False
set max_npoint_for_channel 0
set default_unset_couplings 99
set max_t_for_channel 99
set zerowidth_tchannel True
import model sm
define p = g u c d s u~ c~ d~ s~
define j = g u c d s u~ c~ d~ s~
define l+ = e+ mu+
define l- = e- mu-
define vl = ve vm vt
define vl~ = ve~ vm~ vt~
import model HEFT_UFO_Real
generate h > l+ l- a NP=0
output pure_sm_1lakh
]]>
</MG5ProcCard>
<MGProcCard>
#*********************************************************************
#                        MadGraph/MadEvent                           *
#                   http://madgraph.hep.uiuc.edu                     *
#                                                                    *
#                          proc_card.dat                             *
#*********************************************************************
#                                                                    *
#            This Files is generated by MADGRAPH 5                   *
#                                                                    *
# WARNING: This Files is generated for MADEVENT (compatibility issue)*
#          This files is NOT a valid MG4 proc_card.dat               *
#          Running this in MG4 will NEVER reproduce the result of MG5*
#                                                                    *
#*********************************************************************
#*********************************************************************
# Process(es) requested : mg2 input                                  *
#*********************************************************************
# Begin PROCESS # This is TAG. Do not modify this line
h > l+ l- a           #Process
# Be carefull the coupling are here in MG5 convention
NP=0
          
end_coup           # End the couplings input

done               # this tells MG there are no more procs
# End PROCESS  # This is TAG. Do not modify this line
#*********************************************************************
# Model information                                                  *
#*********************************************************************
# Begin MODEL  # This is TAG. Do not modify this line
HEFT_UFO_Real
# End   MODEL  # This is TAG. Do not modify this line
#*********************************************************************
# Start multiparticle definitions                                    *
#*********************************************************************
# Begin MULTIPARTICLES # This is TAG. Do not modify this line

# End  MULTIPARTICLES # This is TAG. Do not modify this line
</MGProcCard>
<MGRunCard>
<![CDATA[
#*********************************************************************
#                       MadGraph5_aMC@NLO                            *
#                                                                    *
#                     run_card.dat MadEvent                          *
#                                                                    *
#  This file is used to set the parameters of the run.               *
#                                                                    *
#  Some notation/conventions:                                        *
#                                                                    *
#   Lines starting with a '# ' are info or comments                  *
#                                                                    *
#   mind the format:   value    = variable     ! comment             *
#                                                                    *
#   To display more options, you can type the command:               *
#      update to_full                                                *
#*********************************************************************
#                                                                    
#*********************************************************************
# Tag name for the run (one word)                                    *
#*********************************************************************
  tag_1	= run_tag ! name of the run 
#*********************************************************************
# Number of events and rnd seed                                      *
# Warning: Do not generate more than 1M events in a single run       *
#*********************************************************************
  100000	= nevents ! Number of unweighted events requested 
 21 = iseed ! rnd seed (0=assigned automatically=default))
#*********************************************************************
# Collider type and energy                                           *
# lpp: 0=No PDF, 1=proton, -1=antiproton, 2=photon from proton,      *
#                3=photon from electron, 4=photon from muon          *
#*********************************************************************
  1	= lpp1 ! beam 1 type 
  1	= lpp2 ! beam 2 type
  6500.0	= ebeam1 ! beam 1 total energy in GeV
  6500.0	= ebeam2 ! beam 2 total energy in GeV
# To see polarised beam options: type "update beam_pol"

#*********************************************************************
# PDF CHOICE: this automatically fixes also alpha_s and its evol.    *
#*********************************************************************
  nn23lo1	= pdlabel ! PDF set                                     
  230000	= lhaid ! if pdlabel=lhapdf, this is the lhapdf number
# To see heavy ion options: type "update ion_pdf"
#*********************************************************************
# Renormalization and factorization scales                           *
#*********************************************************************
  False	= fixed_ren_scale ! if .true. use fixed ren scale
  False	= fixed_fac_scale ! if .true. use fixed fac scale
  91.188	= scale ! fixed ren scale
  91.188	= dsqrt_q2fact1 ! fixed fact scale for pdf1
  91.188	= dsqrt_q2fact2 ! fixed fact scale for pdf2
  -1	= dynamical_scale_choice ! Choose one of the preselected dynamical choices
  1.0	= scalefact ! scale factor for event-by-event scales
#*********************************************************************
# Type and output format
#*********************************************************************
  False	= gridpack !True = setting up the grid pack
  -1.0	= time_of_flight ! threshold (in mm) below which the invariant livetime is not written (-1 means not written)
  average	= event_norm ! average/sum. Normalization of the weight in the LHEF
# To see MLM/CKKW  merging options: type "update MLM" or "update CKKW"

#*********************************************************************
#
#*********************************************************************
# Phase-Space Optimization strategy (basic options)
#*********************************************************************
  0	= nhel ! using helicities importance sampling or not.
                             ! 0: sum over helicity, 1: importance sampling
  1	= sde_strategy ! default integration strategy (hep-ph/2021.00773)
                             ! 1 is old strategy (using amp square)
			     ! 2 is new strategy (using only the denominator)
# To see advanced option for Phase-Space optimization: type "update psoptim"			     
#*********************************************************************
# Generation bias, check the wiki page below for more information:   *
#  'cp3.irmp.ucl.ac.be/projects/madgraph/wiki/LOEventGenerationBias' *
#*********************************************************************
  None	= bias_module ! Bias type of bias, [None, ptj_bias, -custom_folder-]
  {}	= bias_parameters ! Specifies the parameters of the module.
#
#*******************************                                                 
# Parton level cuts definition *
#*******************************                                     
#                                                                    
#
#*********************************************************************
# BW cutoff (M+/-bwcutoff*Gamma) ! Define on/off-shell for "$" and decay  
#*********************************************************************
  15.0	= bwcutoff ! (M+/-bwcutoff*Gamma)
#*********************************************************************
# Standard Cuts                                                      *
#*********************************************************************
# Minimum and maximum pt's (for max, -1 means no cut)                *
#*********************************************************************
  0.0	= pta ! minimum pt for the photons 
  0.0	= ptl ! minimum pt for the charged leptons 
  -1.0	= ptamax ! maximum pt for the photons
  -1.0	= ptlmax ! maximum pt for the charged leptons
  {}	= pt_min_pdg ! pt cut for other particles (use pdg code). Applied on particle and anti-particle
  {}	= pt_max_pdg ! pt cut for other particles (syntax e.g. {6: 100, 25: 50}) 
#
# For display option for energy cut in the partonic center of mass frame type 'update ecut'
#
#*********************************************************************
# Maximum and minimum absolute rapidity (for max, -1 means no cut)   *
#*********************************************************************
  -1.0	= etaa ! max rap for the photons 
  -1.0	= etal ! max rap for the charged leptons 
  0.0	= etajmin ! min rap for the jets
  0.0	= etaamin ! min rap for the photons
  0.0	= etalmin ! min rap for the charged leptons
  {}	= eta_min_pdg ! rap cut for other particles (use pdg code). Applied on particle and anti-particle
  {}	= eta_max_pdg ! rap cut for other particles (syntax e.g. {6: 2.5, 23: 5})
#*********************************************************************
# Minimum and maximum DeltaR distance                                *
#*********************************************************************
  0.0	= drll ! min distance between leptons 
  0.0	= dral ! min distance between gamma and lepton 
  -1.0	= drllmax ! max distance between leptons
  -1.0	= dralmax ! maxdistance between gamma and lepton
#*********************************************************************
# Minimum and maximum invariant mass for pairs                       *
#*********************************************************************
  0.0	= mmll ! min invariant mass of l+l- (same flavour) lepton pair
  -1.0	= mmllmax ! max invariant mass of l+l- (same flavour) lepton pair
  {}	= mxx_min_pdg ! min invariant mass of a pair of particles X/X~ (e.g. {6:250})
  {'default': False}	= mxx_only_part_antipart ! if True the invariant mass is applied only 
                       ! to pairs of particle/antiparticle and not to pairs of the same pdg codes.  
 #*********************************************************************
 # Minimum and maximum invariant mass for all letpons                 *
 #*********************************************************************
  0.0	= mmnl ! min invariant mass for all letpons (l+- and vl) 
  -1.0	= mmnlmax ! max invariant mass for all letpons (l+- and vl) 
 #*********************************************************************
 # Minimum and maximum pt for 4-momenta sum of leptons / neutrino     *
 #  for pair of lepton includes only same flavor, opposite charge
 #*********************************************************************
  0.0	= ptllmin ! Minimum pt for 4-momenta sum of leptons(l and vl)
  -1.0	= ptllmax ! Maximum pt for 4-momenta sum of leptons(l and vl)
#*********************************************************************
# Inclusive cuts                                                     *
#*********************************************************************
  0.0	= xptl ! minimum pt for at least one charged lepton 
 #*********************************************************************
 # Control the pt's of leptons sorted by pt                           *
 #*********************************************************************
  0.0	= ptl1min ! minimum pt for the leading lepton in pt
  0.0	= ptl2min ! minimum pt for the second lepton in pt
  -1.0	= ptl1max ! maximum pt for the leading lepton in pt 
  -1.0	= ptl2max ! maximum pt for the second lepton in pt
#*********************************************************************
# maximal pdg code for quark to be considered as a light jet         *
# (otherwise b cuts are applied)                                     *
#*********************************************************************
  4	= maxjetflavor ! Maximum jet pdg code
#*********************************************************************
#
#*********************************************************************
# Store info for systematics studies                                 *
# WARNING: Do not use for interference type of computation           *
#*********************************************************************
  False	= use_syst ! Enable systematics studies
#
  systematics	= systematics_program ! none, systematics [python], SysCalc [depreceted, C++]
  ['--mur=0.5,1,2', '--muf=0.5,1,2', '--pdf=errorset']	= systematics_arguments ! see: https://cp3.irmp.ucl.ac.be/projects/madgraph/wiki/Systematics#Systematicspythonmodule
# Syscalc is deprecated but to see the associate options type'update syscalc'
]]>
</MGRunCard>
<slha>
######################################################################
## PARAM_CARD AUTOMATICALLY GENERATED BY MG5 FOLLOWING UFO MODEL   ####
######################################################################
##                                                                  ##
##  Width set on Auto will be computed following the information    ##
##        present in the decay.py files of the model.               ##
##        See  arXiv:1402.1178 for more details.                    ##
##                                                                  ##
######################################################################

###################################
## INFORMATION FOR DIM6
###################################
Block dim6 
    1 2.000000e+00 # dgZlR 
    2 2.000000e+00 # dgZlL 
    3 2.000000e+00 # dgZuR 
    4 2.000000e+00 # dgZuL 
    5 2.000000e+00 # dgZdR 
    6 2.000000e+00 # dgZdL 
    7 2.000000e+00 # dgZcR 
    8 2.000000e+00 # dgZcL 
    9 2.000000e+00 # dgZsR 
   10 2.000000e+00 # dgZsL 
   11 2.000000e+00 # dgZbR 
   12 2.000000e+00 # dgZbL 
   13 2.000000e+00 # dgZtR 
   14 2.000000e+00 # dgZtL 
   15 2.000000e+00 # dghVV 
   16 2.000000e+00 # dghZZ 
   17 2.000000e+00 # ghZlR 
   18 2.000000e+00 # ghZlL 
   19 2.000000e+00 # ghZuR 
   20 2.000000e+00 # ghZuL 
   21 2.000000e+00 # ghZdR 
   22 2.000000e+00 # ghZdL 
   23 2.000000e+00 # ghZcR 
   24 2.000000e+00 # ghZcL 
   25 2.000000e+00 # ghZsR 
   26 2.000000e+00 # ghZsL 
   27 2.000000e+00 # ghZbR 
   28 2.000000e+00 # ghZbL 
   29 2.000000e+00 # ghZtR 
   30 2.000000e+00 # ghZtL 
   31 2.000000e+00 # kZZ 
   32 2.000000e+00 # kZa 
   33 2.000000e+00 # kWW 
   34 2.000000e+00 # g1Z 
   35 2.000000e+00 # kZ 
   36 2.000000e+00 # ka 
   37 2.000000e+00 # LZ 
   38 2.000000e+00 # La 
   39 2.000000e+00 # kZt 
   40 2.000000e+00 # kat 
   41 2.000000e+00 # LZt 
   42 2.000000e+00 # Lat 
   43 2.000000e+00 # kZZt 
   44 2.000000e+00 # kZat 
   45 2.000000e+00 # kWWt 
   46 2.000000e+00 # dgWudL 
   47 2.000000e+00 # dgWudR 
   48 2.000000e+00 # dgWcsL 
   49 2.000000e+00 # dgWcsR 
   50 2.000000e+00 # dgWtbL 
   51 2.000000e+00 # dgWtbR 
   52 2.000000e+00 # dgWlvL 
   53 2.000000e+00 # ghWudL 
   54 2.000000e+00 # ghWudR 
   55 2.000000e+00 # ghWcsL 
   56 2.000000e+00 # ghWcsR 
   57 2.000000e+00 # ghWtbL 
   58 2.000000e+00 # ghWtbR 
   59 2.000000e+00 # ghWlvL 

###################################
## INFORMATION FOR MASS
###################################
Block mass 
    1 5.040000e-03 # MD 
    2 2.550000e-03 # MU 
    3 1.010000e-01 # MS 
    4 1.270000e+00 # MC 
    5 4.700000e+00 # MB 
    6 1.720000e+02 # MT 
   11 5.110000e-04 # Me 
   13 1.056600e-01 # MMU 
   15 1.777000e+00 # MTA 
   23 9.118760e+01 # MZ 
   25 1.250000e+02 # MH 
## Dependent parameters, given by model restrictions.
## Those values should be edited following the 
## analytical expression. MG5 ignores those values 
## but they are important for interfacing the output of MG5
## to external program such as Pythia.
  12 0.000000e+00 # ve : 0.0 
  14 0.000000e+00 # vm : 0.0 
  16 0.000000e+00 # vt : 0.0 
  21 0.000000e+00 # g : 0.0 
  22 0.000000e+00 # a : 0.0 
  24 7.982436e+01 # w+ : cmath.sqrt(MZ__exp__2/2. + cmath.sqrt(MZ__exp__4/4. - (aEW*cmath.pi*MZ__exp__2)/(Gf*sqrt__2))) 

###################################
## INFORMATION FOR SMINPUTS
###################################
Block sminputs 
    1 1.279000e+02 # aEWM1 
    2 1.166370e-05 # Gf 
    3 1.184000e-01 # aS (Note that Parameter not used if you use a PDF set) 

###################################
## INFORMATION FOR YUKAWA
###################################
Block yukawa 
    1 5.040000e-03 # ymdo 
    2 2.550000e-03 # ymup 
    3 1.010000e-01 # yms 
    4 1.270000e+00 # ymc 
    5 4.700000e+00 # ymb 
    6 1.720000e+02 # ymt 
   11 5.110000e-04 # yme 
   13 1.056600e-01 # ymm 
   15 1.777000e+00 # ymtau 

###################################
## INFORMATION FOR DECAY
###################################
DECAY   6 1.508336e+00 # WT 
DECAY  23 2.495200e+00 # WZ 
DECAY  24 2.085000e+00 # WW 
DECAY  25 4.070000e-03 # WH 
## Dependent parameters, given by model restrictions.
## Those values should be edited following the 
## analytical expression. MG5 ignores those values 
## but they are important for interfacing the output of MG5
## to external program such as Pythia.
DECAY  1 0.000000e+00 # d : 0.0 
DECAY  2 0.000000e+00 # u : 0.0 
DECAY  3 0.000000e+00 # s : 0.0 
DECAY  4 0.000000e+00 # c : 0.0 
DECAY  5 0.000000e+00 # b : 0.0 
DECAY  11 0.000000e+00 # e- : 0.0 
DECAY  12 0.000000e+00 # ve : 0.0 
DECAY  13 0.000000e+00 # mu- : 0.0 
DECAY  14 0.000000e+00 # vm : 0.0 
DECAY  15 0.000000e+00 # ta- : 0.0 
DECAY  16 0.000000e+00 # vt : 0.0 
DECAY  21 0.000000e+00 # g : 0.0 
DECAY  22 0.000000e+00 # a : 0.0
</slha>
<MGGenerationInfo>
#  Number of Events        :       100000
#  Integrated weight (pb)  :       2.4041262280000003e-06
</MGGenerationInfo>
</header>
<init>
25 0 1.250000e+02 0.000000e+00 0 0 247000 247000 -4 1
2.404126e-06 9.667509e-09 2.404126e-06 1
<generator name='MadGraph5_aMC@NLO' version='2.9.21'>please cite 1405.0301 </generator>
</init>
<event>
 4      1 +2.4041262e-06 9.11880000e+01 7.81860800e-03 1.13011600e-01
       25 -1    0    0    0    0 +0.0000000000e+00 +0.0000000000e+00 +9.9999998245e-15 1.2500000000e+02 1.2500000000e+02 0.0000e+00 0.0000e+00
      -13  1    1    0    0    0 -5.5359967207e+01 -4.9321290708e+00 -2.8586482288e+01 6.2500000000e+01 1.0566000000e-01 0.0000e+00 1.0000e+00
       13  1    1    0    0    0 +5.5359967207e+01 +4.9321290708e+00 +2.8586482287e+01 6.2500000000e+01 1.0566000000e-01 0.0000e+00 1.0000e+00
       22  1    1    0    0    0 +4.5160054453e-11 -5.0985497247e-11 +1.5110512825e-10 1.6574592372e-10 0.0000000000e+00 0.0000e+00 -1.0000e+00
</event>
<event>
 5      1 +2.4041262e-06 9.11880000e+01 7.81860800e-03 1.13011600e-01
       25 -1    0    0    0    0 +0.0000000000e+00 +0.0000000000e+00 +9.9999998245e-15 1.2500000000e+02 1.2500000000e+02 0.0000e+00 0.0000e+00
       23  2    1    0    0    0 +1.2018591112e+01 -1.9455885225e+01 +1.8256967480e+01 9.5737483639e+01 9.1155750832e+01 0.0000e+00 0.0000e+00
      -13  1    2    2    0    0 -1.0960906585e+01 -3.5737538906e+01 -2.4387439811e+01 4.4632628701e+01 1.0566000000e-01 0.0000e+00 1.0000e+00
       13  1    2    2    0    0 +2.2979497697e+01 +1.6281653681e+01 +4.2644407291e+01 5.1104854938e+01 1.0566000000e-01 0.0000e+00 -1.0000e+00
       22  1    1    0    0    0 -1.2018591112e+01 +1.9455885225e+01 -1.8256967480e+01 2.9262516361e+01 0.0000000000e+00 0.0000e+00 -1.0000e+00
</event>
<event>
 5      1 +2.4041262e-06 9.11880000e+01 7.81860800e-03 1.13011600e-01
       25 -1    0    0    0    0 +0.0000000000e+00 +0.0000000000e+00 +9.9999998245e-15 1.2500000000e+02 1.2500000000e+02 0.0000e+00 0.0000e+00
       23  2    1    0    0    0 -1.4603886165e+01 -1.2540355772e+01 +2.2233364126e+01 9.5591557430e+01 9.0955425113e+01 0.0000e+00 0.0000e+00
      -11  1    2    2    0    0 +1.8892139496e+01 +9.4463386706e+00 +4.4854855333e+01 4.9579272849e+01 5.1100000000e-04 0.0000e+00 -1.0000e+00
       11  1    2    2    0    0 -3.3496025662e+01 -2.1986694443e+01 -2.2621491207e+01 4.6012284581e+01 5.1100000000e-04 0.0000e+00 1.0000e+00
       22  1    1    0    0    0 +1.4603886165e+01 +1.2540355772e+01 -2.2233364126e+01 2.9408442570e+01 0.0000000000e+00 0.0000e+00 1.0000e+00
</event>
<event>
 4      1 +2.4041262e-06 9.11880000e+01 7.81860800e-03 1.13011600e-01
       25 -1    0    0    0    0 +0.0000000000e+00 +0.0000000000e+00 +9.9999998245e-15 1.2500000000e+02 1.2500000000e+02 0.0000e+00 0.0000e+00
      -13  1    1    0    0    0 -5.0257896539e+01 -5.3501579416e+00 +3.6766268256e+01 6.2500000000e+01 1.0566000000e-01 0.0000e+00 1.0000e+00
       13  1    1    0    0    0 +5.0257896539e+01 +5.3501579416e+00 -3.6766268256e+01 6.2500000000e+01 1.0566000000e-01 0.0000e+00 1.0000e+00
       22  1    1    0    0    0 +2.6678727490e-11 -9.1804759168e-14 -3.9909284937e-11 4.8005353376e-11 0.0000000000e+00 0.0000e+00 -1.0000e+00
</event>
<event>
 4      1 +2.4041262e-06 9.11880000e+01 7.81860800e-03 1.13011600e-01
       25 -1    0    0    0    0 +0.0000000000e+00 +0.0000000000e+00 +9.9999998245e-15 1.2500000000e+02 1.2500000000e+02 0.0000e+00 0.0000e+00
      -13  1    1    0    0    0 -4.9655166037e+01 -9.6607238285e+00 +3.6705227652e+01 6.2500000000e+01 1.0566000000e-01 0.0000e+00 1.0000e+00
       13  1    1    0    0    0 +4.9655166022e+01 +9.6607238234e+00 -3.6705227642e+01 6.2499999982e+01 1.0566000000e-01 0.0000e+00 1.0000e+00
       22  1    1    0    0    0 +1.4512546759e-08 +5.0205452172e-09 -9.2354190457e-09 1.7919622001e-08 0.0000000000e+00 0.0000e+00 1.0000e+00
</event>
<event>
 4      1 +2.4041262e-06 9.11880000e+01 7.81860800e-03 1.13011600e-01
       25 -1    0    0    0    0 +0.0000000000e+00 +0.0000000000e+00 +9.9999998245e-15 1.2500000000e+02 1.2500000000e+02 0.0000e+00 0.0000e+00
      -13  1    1    0    0    0 +3.6951964847e+01 -2.3815758423e+01 -4.1375093163e+01 6.0370088236e+01 1.0566000000e-01 0.0000e+00 -1.0000e+00
       13  1    1    0    0    0 -4.0135524183e+01 +2.1045555936e+01 +3.6560616059e+01 5.8227704203e+01 1.0566000000e-01 0.0000e+00 -1.0000e+00
       22  1    1    0    0    0 +3.1835593360e+00 +2.7702024874e+00 +4.8144771039e+00 6.4022075608e+00 0.0000000000e+00 0.0000e+00 1.0000e+00
</event>
<event>
 4      1 +2.4041262e-06 9.11880000e+01 7.81860800e-03 1.13011600e-01
       25 -1    0    0    0    0 +0.0000000000e+00 +0.0000000000e+00 +9.9999998245e-15 1.2500000000e+02 1.2500000000e+02 0.0000e+00 0.0000e+00
      -13  1    1    0    0    0 -4.3861426258e+01 -3.6259335865e+01 +2.5839398031e+01 6.2499998443e+01 1.0566000000e-01 0.0000e+00 -1.0000e+00
       13  1    1    0    0    0 +4.3861425508e+01 +3.6259335257e+01 -2.5839400738e+01 6.2499998683e+01 1.0566000000e-01 0.0000e+00 -1.0000e+00
       22  1    1    0    0    0 +7.4977250686e-07 +6.0737974274e-07 +2.7067805508e-06 2.8736266135e-06 0.0000000000e+00 0.0000e+00 1.0000e+00
</event>
<event>
 5      1 +2.4041262e-06 9.11880000e+01 7.81860800e-03 1.13011600e-01
       25 -1    0    0    0    0 +0.0000000000e+00 +0.0000000000e+00 +9.9999998245e-15 1.2500000000e+02 1.2500000000e+02 0.0000e+00 0.0000e+00
       23  2    1    0    0    0 -7.4357745890e+00 +1.7011065124e+01 +2.3065439304e+01 9.5391190995e+01 9.0679643519e+01 0.0000e+00 0.0000e+00
      -11  1    2    2    0    0 +2.3906385400e+01 -1.6896570095e+01 -1.7348226155e+01 3.4028962589e+01 5.1100000000e-04 0.0000e+00 1.0000e+00
       11  1    2    2    0    0 -3.1342159989e+01 +3.3907635219e+01 +4.0413665459e+01 6.1362228407e+01 5.1100000000e-04 0.0000e+00 -1.0000e+00
       22  1    1    0    0    0 +7.4357745890e+00 -1.7011065124e+01 -2.3065439304e+01 2.9608809005e+01 0.0000000000e+00 0.0000e+00 -1.0000e+00
</event>
<event>
 4      1 +2.4041262e-06 9.11880000e+01 7.81860800e-03 1.13011600e-01
       25 -1    0    0    0    0 +0.0000000000e+00 +0.0000000000e+00 +9.9999998245e-15 1.2500000000e+02 1.2500000000e+02 0.0000e+00 0.0000e+00
      -13  1    1    0    0    0 -4.8466377120e+01 +1.1782380019e+01 +3.7661975753e+01 6.2499998174e+01 1.0566000000e-01 0.0000e+00 1.0000e+00
       13  1    1    0    0    0 +4.8466378539e+01 -1.1782380375e+01 -3.7661976847e+01 6.2500000000e+01 1.0566000000e-01 0.0000e+00 1.0000e+00
       22  1    1    0    0    0 -1.4186516803e-06 +3.5577937681e-07 +1.0934748761e-06 1.8261541171e-06 0.0000000000e+00 0.0000e+00 1.0000e+00
</event>
<event>
 4      1 +2.4041262e-06 9.11880000e+01 7.81860800e-03 1.13011600e-01
       25 -1    0    0    0    0 +0.0000000000e+00 +0.0000000000e+00 +9.9999998245e-15 1.2500000000e+02 1.2500000000e+02 0.0000e+00 0.0000e+00
      -13  1    1    0    0    0 +2.3849509257e+01 -4.2412564009e+01 +3.9225172508e+01 6.2500000000e+01 1.0566000000e-01 0.0000e+00 1.0000e+00
       13  1    1    0    0    0 -2.3849509258e+01 +4.2412564009e+01 -3.9225172508e+01 6.2500000000e+01 1.0566000000e-01 0.0000e+00 1.0000e+00
       22  1    1    0    0    0 +4.8327053491e-11 -3.5405791616e-11 +1.8891097045e-11 6.2816779021e-11 0.0000000000e+00 0.0000e+00 1.0000e+00
</event>
<event>
 4      1 +2.4041262e-06 9.11880000e+01 7.81860800e-03 1.13011600e-01
       25 -1    0    0    0    0 +0.0000000000e+00 +0.0000000000e+00 +9.9999998245e-15 1.2500000000e+02 1.2500000000e+02 0.0000e+00 0.0000e+00
      -13  1    1    0    0    0 +4.9715444141e+01 -8.1159497719e-01 -3.7867595162e+01 6.2500000000e+01 1.0566000000e-01 0.0000e+00 1.0000e+00
       13  1    1    0    0    0 -4.9715443793e+01 +8.1159494715e-01 +3.7867594882e+01 6.2499999552e+01 1.0566000000e-01 0.0000e+00 1.0000e+00
       22  1    1    0    0    0 -3.4795160700e-07 +3.0039650519e-08 +2.8050574655e-07 4.4794662100e-07 0.0000000000e+00 0.0000e+00 1.0000e+00
</event>
<event>
 4      1 +2.4041262e-06 9.11880000e+01 7.81860800e-03 1.13011600e-01
       25 -1    0    0    0    0 +0.0000000000e+00 +0.0000000000e+00 +9.9999998245e-15 1.2500000000e+02 1.2500000000e+02 0.0000e+00 0.0000e+00
      -13  1    1    0    0    0 +4.9834165511e+01 +1.7531514416e+01 -3.3398215312e+01 6.2500000000e+01 1.0566000000e-01 0.0000e+00 -1.0000e+00
       13  1    1    0    0    0 -4.9834164815e+01 -1.7531514169e+01 +3.3398214849e+01 6.2499999128e+01 1.0566000000e-01 0.0000e+00 -1.0000e+00
       22  1    1    0    0    0 -6.9653218734e-07 -2.4660420399e-07 +4.6302887173e-07 8.7198994115e-07 0.0000000000e+00 0.0000e+00 1.0000e+00
</event>
<event>
 4      1 +2.4041262e-06 9.11880000e+01 7.81860800e-03 1.13011600e-01
       25 -1    0    0    0    0 +0.0000000000e+00 +0.0000000000e+00 +9.9999998245e-15 1.2500000000e+02 1.2500000000e+02 0.0000e+00 0.0000e+00
      -13  1    1    0    0    0 -3.0789976482e+01 +5.5933730013e+00 +1.0486625619e+01 3.3004377804e+01 1.0566000000e-01 0.0000e+00 -1.0000e+00
       13  1    1    0    0    0 -2.7479183513e+01 +4.9582573932e+00 +9.5029806282e+00 2.9495892049e+01 1.0566000000e-01 0.0000e+00 -1.0000e+00
       22  1    1    0    0    0 +5.8269159995e+01 -1.0551630395e+01 -1.9989606247e+01 6.2499730147e+01 0.0000000000e+00 0.0000e+00 -1.0000e+00
</event>
<event>
 4      1 +2.4041262e-06 9.11880000e+01 7.81860800e-03 1.13011600e-01
       25 -1    0    0    0    0 +0.0000000000e+00 +0.0000000000e+00 +9.9999998245e-15 1.2500000000e+02 1.2500000000e+02 0.0000e+00 0.0000e+00
      -13  1    1    0    0    0 -3.0869774002e+01 +3.9678512215e+01 -3.4341030450e+01 6.0882220845e+01 1.0566000000e-01 0.0000e+00 -1.0000e+00
       13  1    1    0    0    0 +3.1403908953e+01 -4.1001236333e+01 +3.5154865041e+01 6.2475455808e+01 1.0566000000e-01 0.0000e+00 -1.0000e+00
       22  1    1    0    0    0 -5.3413495060e-01 +1.3227241172e+00 -8.1383459072e-01 1.6423233472e+00 0.0000000000e+00 0.0000e+00 -1.0000e+00
</event>
<event>
 4      1 +2.4041262e-06 9.11880000e+01 7.81860800e-03 1.13011600e-01
       25 -1    0    0    0    0 +0.0000000000e+00 +0.0000000000e+00 +9.9999998245e-15 1.2500000000e+02 1.2500000000e+02 0.0000e+00 0.0000e+00
      -13  1    1    0    0    0 +2.8219147997e+01 -5.3994653429e+01 -1.3913407522e+01 6.2492695457e+01 1.0566000000e-01 0.0000e+00 1.0000e+00
       13  1    1    0    0    0 -2.8234102813e+01 +5.3980205152e+01 +1.3910341738e+01 6.2486285545e+01 1.0566000000e-01 0.0000e+00 1.0000e+00
       22  1    1    0    0    0 +1.4954816322e-02 +1.4448277142e-02 +3.0657838540e-03 2.1018997936e-02 0.0000000000e+00 0.0000e+00 -1.0000e+00
</event>
<event>
 4      1 +2.4041262e-06 9.11880000e+01 7.81860800e-03 1.13011600e-01
       25 -1    0    0    0    0 +0.0000000000e+00 +0.0000000000e+00 +9.9999998245e-15 1.2500000000e+02 1.2500000000e+02 0.0000e+00 0.0000e+00
      -13  1    1    0    0    0 +3.0333439159e+01 -4.2571062646e+01 +3.4261142899e+01 6.2499999863e+01 1.0566000000e-01 0.0000e+00 -1.0000e+00
       13  1    1    0    0    0 -3.0333137447e+01 +4.2570615174e+01 -3.4260774007e+01 6.2499346423e+01 1.0566000000e-01 0.0000e+00 -1.0000e+00
       22  1    1    0    0    0 -3.0171284187e-04 +4.4747185163e-04 -3.6889180124e-04 6.5371466098e-04 0.0000000000e+00 0.0000e+00 1.0000e+00
</event>
<event>
 5      1 +2.4041262e-06 9.11880000e+01 7.81860800e-03 1.13011600e-01
       25 -1    0    0    0    0 +0.0000000000e+00 +0.0000000000e+00 +9.9999998245e-15 1.2500000000e+02 1.2500000000e+02 0.0000e+00 0.0000e+00
       23  2    1    0    0    0 +3.3846283882e+00 +1.9094732746e+01 +2.3844918185e+01 9.4264927994e+01 8.9113590426e+01 0.0000e+00 0.0000e+00
      -13  1    2    2    0    0 -1.6967283158e+01 -2.9209612727e+01 +2.4689961075e+01 4.1841313499e+01 1.0566000000e-01 0.0000e+00 -1.0000e+00
       13  1    2    2    0    0 +2.0351911546e+01 +4.8304345473e+01 -8.4504289026e-01 5.2423614495e+01 1.0566000000e-01 0.0000e+00 1.0000e+00
       22  1    1    0    0    0 -3.3846283882e+00 -1.9094732746e+01 -2.3844918185e+01 3.0735072006e+01 0.0000000000e+00 0.0000e+00 -1.0000e+00
</event>
<event>
 4      1 +2.4041262e-06 9.11880000e+01 7.81860800e-03 1.13011600e-01
       25 -1    0    0    0    0 +0.0000000000e+00 +0.0000000000e+00 +9.9999998245e-15 1.2500000000e+02 1.2500000000e+02 0.0000e+00 0.0000e+00
      -13  1    1    0    0    0 -3.1624821943e+01 +5.3680537950e+01 +4.9439090964e+00 6.2499463347e+01 1.0566000000e-01 0.0000e+00 -1.0000e+00
       13  1    1    0    0    0 +3.1625086515e+01 -5.3681002936e+01 -4.9439517464e+00 6.2499999969e+01 1.0566000000e-01 0.0000e+00 -1.0000e+00
       22  1    1    0    0    0 -2.6457163011e-04 +4.6498625445e-04 +4.2650015933e-05 5.3668369469e-04 0.0000000000e+00 0.0000e+00 1.0000e+00
</event>
<event>
 5      1 +2.4041262e-06 9.11880000e+01 7.81860800e-03 1.13011600e-01
       25 -1    0    0    0    0 +0.0000000000e+00 +0.0000000000e+00 +9.9999998245e-15 1.2500000000e+02 1.2500000000e+02 0.0000e+00 0.0000e+00
       23  2    1    0    0    0 +2.6417977301e+01 +1.0275141669e+01 +1.0705819232e-01 9.6653932858e+01 9.2403913415e+01 0.0000e+00 0.0000e+00
      -13  1    2    2    0    0 -2.5811400668e+01 +2.7842459797e+01 +1.2873850513e+01 4.0089626627e+01 1.0566000000e-01 0.0000e+00 1.0000e+00
       13  1    2    2    0    0 +5.2229377969e+01 -1.7567318128e+01 -1.2766792320e+01 5.6564306231e+01 1.0566000000e-01 0.0000e+00 -1.0000e+00
       22  1    1    0    0    0 -2.6417977301e+01 -1.0275141669e+01 -1.0705819232e-01 2.8346067142e+01 0.0000000000e+00 0.0000e+00 -1.0000e+00
</event>
<event>
 4      1 +2.4041262e-06 9.11880000e+01 7.81860800e-03 1.13011600e-01
       25 -1    0    0    0    0 +0.0000000000e+00 +0.0000000000e+00 +9.9999998245e-15 1.2500000000e+02 1.2500000000e+02 0.0000e+00 0.0000e+00
      -13  1    1    0    0    0 -5.8886612886e+00 -3.7591935027e+01 +4.9507199446e+01 6.2440402560e+01 1.0566000000e-01 0.0000e+00 1.0000e+00
       13  1    1    0    0    0 +5.8935536928e+00 +3.7633486510e+01 -4.9549953005e+01 6.2499778311e+01 1.0566000000e-01 0.0000e+00 1.0000e+00
       22  1    1    0    0    0 -4.8924041895e-03 -4.1551482840e-02 +4.2753559771e-02 5.9819129198e-02 0.0000000000e+00 0.0000e+00 1.0000e+00
</event>
<event>
 5      1 +2.4041262e-06 9.11880000e+01 7.81860800e-03 1.13011600e-01
       25 -1    0    0    0    0 +0.0000000000e+00 +0.0000000000e+00 +9.9999998245e-15 1.2500000000e+02 1.2500000000e+02 0.0000e+00 0.0000e+00
       23  2    1    0    0    0 -2.4318758673e+01 -3.0024193737e+00 +7.4877639140e+00 9.9378072791e+01 9.6018322198e+01 0.0000e+00 0.0000e+00
      -11  1    2    2    0    0 -3.2443725151e+01 +4.1763351341e+01 -1.9162207429e+00 5.2919228255e+01 5.1100000000e-04 0.0000e+00 1.0000e+00
       11  1    2    2    0    0 +8.1249664787e+00 -4.4765770714e+01 +9.4039846569e+00 4.6458844536e+01 5.1100000000e-04 0.0000e+00 -1.0000e+00
       22  1    1    0    0    0 +2.4318758673e+01 +3.0024193737e+00 -7.4877639140e+00 2.5621927209e+01 0.0000000000e+00 0.0000e+00 -1.0000e+00
</event>
<event>
 5      1 +2.4041262e-06 9.11880000e+01 7.81860800e-03 1.13011600e-01
       25 -1    0    0    0    0 +0.0000000000e+00 +0.0000000000e+00 +9.9999998245e-15 1.2500000000e+02 1.2500000000e+02 0.0000e+00 0.0000e+00
       23  2    1    0    0    0 +2.3285618015e+01 -2.7029369302e-01 +1.1050094783e+01 9.9224087607e+01 9.5817649218e+01 0.0000e+00 0.0000e+00
      -13  1    2    2    0    0 -1.1064087502e+01 +3.5707328084e+01 -1.8138191764e+01 4.1550360716e+01 1.0566000000e-01 0.0000e+00 1.0000e+00
       13  1    2    2    0    0 +3.4349705517e+01 -3.5977621777e+01 +2.9188286547e+01 5.7673726890e+01 1.0566000000e-01 0.0000e+00 -1.0000e+00
       22  1    1    0    0    0 -2.3285618015e+01 +2.7029369302e-01 -1.1050094783e+01 2.5775912393e+01 0.0000000000e+00 0.0000e+00 -1.0000e+00
</event>
<event>
 4      1 +2.4041262e-06 9.11880000e+01 7.81860800e-03 1.13011600e-01
       25 -1    0    0    0    0 +0.0000000000e+00 +0.0000000000e+00 +9.9999998245e-15 1.2500000000e+02 1.2500000000e+02 0.0000e+00 0.0000e+00
      -11  1    1    0    0    0 -1.2443297192e+01 -1.2862952723e+01 -1.5030827839e+01 2.3371285449e+01 5.1100000000e-04 0.0000e+00 -1.0000e+00
       11  1    1    0    0    0 -2.0798317542e+01 -2.0942584625e+01 -2.5690699907e+01 3.9130217548e+01 5.1100000000e-04 0.0000e+00 1.0000e+00
       22  1    1    0    0    0 +3.3241614734e+01 +3.3805537348e+01 +4.0721527747e+01 6.2498497002e+01 0.0000000000e+00 0.0000e+00 1.0000e+00
</event>
<event>
 4      1 +2.4041262e-06 9.11880000e+01 7.81860800e-03 1.13011600e-01
       25 -1    0    0    0    0 +0.0000000000e+00 +0.0000000000e+00 +9.9999998245e-15 1.2500000000e+02 1.2500000000e+02 0.0000e+00 0.0000e+00
      -13  1    1    0    0    0 +2.3672059837e+01 +5.0625409085e+01 -2.7981062111e+01 6.2499995702e+01 1.0566000000e-01 0.0000e+00 -1.0000e+00
       13  1    1    0    0    0 -2.3672062575e+01 -5.0625412038e+01 +2.7981063851e+01 6.2499999911e+01 1.0566000000e-01 0.0000e+00 -1.0000e+00
       22  1    1    0    0    0 +2.7379798333e-06 +2.9534442948e-06 -1.7397523456e-06 4.3870382941e-06 0.0000000000e+00 0.0000e+00 1.0000e+00
</event>
<event>
 4      1 +2.4041262e-06 9.11880000e+01 7.81860800e-03 1.13011600e-01
       25 -1    0    0    0    0 +0.0000000000e+00 +0.0000000000e+00 +9.9999998245e-15 1.2500000000e+02 1.2500000000e+02 0.0000e+00 0.0000e+00
      -11  1    1    0    0    0 +4.0602002566e+01 +2.0359500831e+01 +7.1872735093e+00 4.5985745479e+01 5.1100000000e-04 0.0000e+00 -1.0000e+00
       11  1    1    0    0    0 +3.6698523850e+00 +1.6670916329e+01 -1.2346556702e+01 2.1067148132e+01 5.1100000000e-04 0.0000e+00 1.0000e+00
       22  1    1    0    0    0 -4.4271854951e+01 -3.7030417160e+01 +5.1592831924e+00 5.7947106389e+01 0.0000000000e+00 0.0000e+00 -1.0000e+00
</event>
<event>
 4      1 +2.4041262e-06 9.11880000e+01 7.81860800e-03 1.13011600e-01
       25 -1    0    0    0    0 +0.0000000000e+00 +0.0000000000e+00 +9.9999998245e-15 1.2500000000e+02 1.2500000000e+02 0.0000e+00 0.0000e+00
      -13  1    1    0    0    0 +1.0354655203e+01 +1.7138244580e+01 -5.9205578349e+01 6.2499999867e+01 1.0566000000e-01 0.0000e+00 -1.0000e+00
       13  1    1    0    0    0 -1.0354655270e+01 -1.7138244636e+01 +5.9205578456e+01 6.2499999995e+01 1.0566000000e-01 0.0000e+00 -1.0000e+00
       22  1    1    0    0    0 +6.7629618292e-08 +5.6063729602e-08 -1.0700615204e-07 1.3844574252e-07 0.0000000000e+00 0.0000e+00 1.0000e+00
</event>
<event>
 4      1 +2.4041262e-06 9.11880000e+01 7.81860800e-03 1.13011600e-01
       25 -1    0    0    0    0 +0.0000000000e+00 +0.0000000000e+00 +9.9999998245e-15 1.2500000000e+02 1.2500000000e+02 0.0000e+00 0.0000e+00
      -11  1    1    0    0    0 -3.1896693437e+01 +3.2440449491e+01 -3.6652710968e+01 5.8422624358e+01 5.1100000000e-04 0.0000e+00 1.0000e+00
       11  1    1    0    0    0 -2.2304734500e+00 +1.9768269015e+00 -2.7940604901e+00 4.0852944439e+00 5.1100000000e-04 0.0000e+00 -1.0000e+00
       22  1    1    0    0    0 +3.4127166887e+01 -3.4417276393e+01 +3.9446771458e+01 6.2492081198e+01 0.0000000000e+00 0.0000e+00 1.0000e+00
</event>
<event>
 4      1 +2.4041262e-06 9.11880000e+01 7.81860800e-03 1.13011600e-01
       25 -1    0    0    0    0 +0.0000000000e+00 +0.0000000000e+00 +9.9999998245e-15 1.2500000000e+02 1.2500000000e+02 0.0000e+00 0.0000e+00
      -13  1    1    0    0    0 -9.4088135805e-01 -3.4706847161e-01 +3.2060444199e-02 1.0089133568e+00 1.0566000000e-01 0.0000e+00 1.0000e+00
       13  1    1    0    0    0 -5.6357878541e+01 -2.3959616814e+01 -5.6347997536e+00 6.1498258868e+01 1.0566000000e-01 0.0000e+00 -1.0000e+00
       22  1    1    0    0    0 +5.7298759899e+01 +2.4306685285e+01 +5.6027393094e+00 6.2492827775e+01 0.0000000000e+00 0.0000e+00 -1.0000e+00
</event>
<event>
 4      1 +2.4041262e-06 9.11880000e+01 7.81860800e-03 1.13011600e-01
       25 -1    0    0    0    0 +0.0000000000e+00 +0.0000000000e+00 +9.9999998245e-15 1.2500000000e+02 1.2500000000e+02 0.0000e+00 0.0000e+00
      -13  1    1    0    0    0 -5.6017481842e+01 -2.7654810805e+01 +1.8686902455e+00 6.2499999999e+01 1.0566000000e-01 0.0000e+00 1.0000e+00
       13  1    1    0    0    0 +5.6017479361e+01 +2.7654809707e+01 -1.8686901258e+00 6.2499997285e+01 1.0566000000e-01 0.0000e+00 1.0000e+00
       22  1    1    0    0    0 +2.4812227536e-06 +1.0981750408e-06 -1.1969648875e-07 2.7160232000e-06 0.0000000000e+00 0.0000e+00 -1.0000e+00
</event>
<event>
 4      1 +2.4041262e-06 9.11880000e+01 7.81860800e-03 1.13011600e-01
       25 -1    0    0    0    0 +0.0000000000e+00 +0.0000000000e+00 +9.9999998245e-15 1.2500000000e+02 1.2500000000e+02 0.0000e+00 0.0000e+00
      -13  1    1    0    0    0 -4.8797660867e+01 -3.6293817897e+01 -1.4414781036e+01 6.2499999999e+01 1.0566000000e-01 0.0000e+00 1.0000e+00
       13  1    1    0    0    0 +4.8797659811e+01 +3.6293817167e+01 +1.4414780765e+01 6.2499998689e+01 1.0566000000e-01 0.0000e+00 1.0000e+00
       22  1    1    0    0    0 +1.0552585240e-06 +7.2961264781e-07 +2.7058578569e-07 1.3111528652e-06 0.0000000000e+00 0.0000e+00 1.0000e+00
</event>
<event>
 4      1 +2.4041262e-06 9.11880000e+01 7.81860800e-03 1.13011600e-01
       25 -1    0    0    0    0 +0.0000000000e+00 +0.0000000000e+00 +9.9999998245e-15 1.2500000000e+02 1.2500000000e+02 0.0000e+00 0.0000e+00
      -13  1    1    0    0    0 +3.4075865718e+01 +1.3018047603e+01 +5.0750346153e+01 6.2499943892e+01 1.0566000000e-01 0.0000e+00 1.0000e+00
       13  1    1    0    0    0 -3.4075896473e+01 -1.3018060042e+01 -5.0750391406e+01 6.2499999997e+01 1.0566000000e-01 0.0000e+00 1.0000e+00
       22  1    1    0    0    0 +3.0754516322e-05 +1.2439572798e-05 +4.5253045913e-05 5.6110795842e-05 0.0000000000e+00 0.0000e+00 1.0000e+00
</event>
<event>
 4      1 +2.4041262e-06 9.11880000e+01 7.81860800e-03 1.13011600e-01
       25 -1    0    0    0    0 +0.0000000000e+00 +0.0000000000e+00 +9.9999998245e-15 1.2500000000e+02 1.2500000000e+02 0.0000e+00 0.0000e+00
      -13  1    1    0    0    0 +2.4690365547e+01 +1.0580771313e+01 -5.6432881077e+01 6.2499984825e+01 1.0566000000e-01 0.0000e+00 1.0000e+00
       13  1    1    0    0    0 -2.4690303450e+01 -1.0580835393e+01 +5.6432548716e+01 6.2499671044e+01 1.0566000000e-01 0.0000e+00 1.0000e+00
       22  1    1    0    0    0 -6.2097145548e-05 +6.4080038441e-05 +3.3236092483e-04 3.4413092154e-04 0.0000000000e+00 0.0000e+00 -1.0000e+00
</event>
<event>
 5      1 +2.4041262e-06 9.11880000e+01 7.81860800e-03 1.13011600e-01
       25 -1    0    0    0    0 +0.0000000000e+00 +0.0000000000e+00 +9.9999998245e-15 1.2500000000e+02 1.2500000000e+02 0.0000e+00 0.0000e+00
       23  2    1    0    0    0 +8.0764933533e+00 +2.3281145079e+01 +1.7078211860e+01 9.5018225846e+01 9.0164053045e+01 0.0000e+00 0.0000e+00
      -13  1    2    2    0    0 +2.7760015627e+01 +4.9011177552e+01 +2.5065554371e+01 6.1652308737e+01 1.0566000000e-01 0.0000e+00 1.0000e+00
       13  1    2    2    0    0 -1.9683522274e+01 -2.5730032472e+01 -7.9873425107e+00 3.3365917109e+01 1.0566000000e-01 0.0000e+00 -1.0000e+00
       22  1    1    0    0    0 -8.0764933533e+00 -2.3281145079e+01 -1.7078211860e+01 2.9981774154e+01 0.0000000000e+00 0.0000e+00 1.0000e+00
</event>
<event>
 4      1 +2.4041262e-06 9.11880000e+01 7.81860800e-03 1.13011600e-01
       25 -1    0    0    0    0 +0.0000000000e+00 +0.0000000000e+00 +9.9999998245e-15 1.2500000000e+02 1.2500000000e+02 0.0000e+00 0.0000e+00
      -13  1    1    0    0    0 +2.1124221313e+00 +2.4507587783e+01 +9.5325390243e+00 2.6381141948e+01 1.0566000000e-01 0.0000e+00 -1.0000e+00
       13  1    1    0    0    0 -8.1464081877e-01 +3.3633035358e+01 +1.3252937523e+01 3.6159317251e+01 1.0566000000e-01 0.0000e+00 1.0000e+00
       22  1    1    0    0    0 -1.2977813126e+00 -5.8140623141e+01 -2.2785476547e+01 6.2459540801e+01 0.0000000000e+00 0.0000e+00 1.0000e+00
</event>
<event>
 5      1 +2.4041262e-06 9.11880000e+01 7.81860800e-03 1.13011600e-01
       25 -1    0    0    0    0 +0.0000000000e+00 +0.0000000000e+00 +9.9999998245e-15 1.2500000000e+02 1.2500000000e+02 0.0000e+00 0.0000e+00
       23  2    1    0    0    0 -1.2502651312e+01 -1.0570889127e+01 -1.3932922972e+01 1.0350148076e+02 1.0124411188e+02 0.0000e+00 0.0000e+00
      -11  1    2    2    0    0 -3.5830719334e+01 -4.5869471084e+01 -1.8179672260e+01 6.0978269156e+01 5.1100000000e-04 0.0000e+00 1.0000e+00
       11  1    2    2    0    0 +2.3328068022e+01 +3.5298581957e+01 +4.2467492884e+00 4.2523211609e+01 5.1100000000e-04 0.0000e+00 -1.0000e+00
       22  1    1    0    0    0 +1.2502651312e+01 +1.0570889127e+01 +1.3932922972e+01 2.1498519235e+01 0.0000000000e+00 0.0000e+00 1.0000e+00
</event>
<event>
 4      1 +2.4041262e-06 9.11880000e+01 7.81860800e-03 1.13011600e-01
       25 -1    0    0    0    0 +0.0000000000e+00 +0.0000000000e+00 +9.9999998245e-15 1.2500000000e+02 1.2500000000e+02 0.0000e+00 0.0000e+00
      -13  1    1    0    0    0 +4.3942416330e+01 -4.2503109000e+01 -9.3963050550e+00 6.1852663163e+01 1.0566000000e-01 0.0000e+00 -1.0000e+00
       13  1    1    0    0    0 -4.4457529921e+01 +4.2903526465e+01 +9.4027950372e+00 6.2494865936e+01 1.0566000000e-01 0.0000e+00 -1.0000e+00
       22  1    1    0    0    0 +5.1511359133e-01 -4.0041746431e-01 -6.4899821173e-03 6.5247090170e-01 0.0000000000e+00 0.0000e+00 1.0000e+00
</event>
<event>
 4      1 +2.4041262e-06 9.11880000e+01 7.81860800e-03 1.13011600e-01
       25 -1    0    0    0    0 +0.0000000000e+00 +0.0000000000e+00 +9.9999998245e-15 1.2500000000e+02 1.2500000000e+02 0.0000e+00 0.0000e+00
      -13  1    1    0    0    0 +7.1827372867e+00 +3.8058850181e+01 -4.9052737372e+01 6.2499999999e+01 1.0566000000e-01 0.0000e+00 -1.0000e+00
       13  1    1    0    0    0 -7.1826062150e+00 -3.8058157544e+01 +4.9051847339e+01 6.2498864623e+01 1.0566000000e-01 0.0000e+00 -1.0000e+00
       22  1    1    0    0    0 -1.3107172848e-04 -6.9263729403e-04 +8.9003305283e-04 1.1353788153e-03 0.0000000000e+00 0.0000e+00 -1.0000e+00
</event>
<event>
 4      1 +2.4041262e-06 9.11880000e+01 7.81860800e-03 1.13011600e-01
       25 -1    0    0    0    0 +0.0000000000e+00 +0.0000000000e+00 +9.9999998245e-15 1.2500000000e+02 1.2500000000e+02 0.0000e+00 0.0000e+00
      -13  1    1    0    0    0 -4.4039812617e+01 -3.8959449899e+01 +2.1171550981e+01 6.2494716310e+01 1.0566000000e-01 0.0000e+00 1.0000e+00
       13  1    1    0    0    0 +4.4043609797e+01 +3.8962634428e+01 -2.1173386008e+01 6.2499999077e+01 1.0566000000e-01 0.0000e+00 1.0000e+00
       22  1    1    0    0    0 -3.7971804383e-03 -3.1845286539e-03 +1.8350279293e-03 5.2846125241e-03 0.0000000000e+00 0.0000e+00 -1.0000e+00
</event>
<event>
 5      1 +2.4041262e-06 9.11880000e+01 7.81860800e-03 1.13011600e-01
       25 -1    0    0    0    0 +0.0000000000e+00 +0.0000000000e+00 +9.9999998245e-15 1.2500000000e+02 1.2500000000e+02 0.0000e+00 0.0000e+00
       23  2    1    0    0    0 -9.6485264773e+00 +2.5727633359e+01 +9.7727009960e+00 9.5836480559e+01 9.1291402332e+01 0.0000e+00 0.0000e+00
      -13  1    2    2    0    0 +1.6863833794e+01 +5.3731159558e+01 +1.1812113814e+00 5.6327904470e+01 1.0566000000e-01 0.0000e+00 -1.0000e+00
       13  1    2    2    0    0 -2.6512360271e+01 -2.8003526199e+01 +8.5914896145e+00 3.9508576088e+01 1.0566000000e-01 0.0000e+00 1.0000e+00
       22  1    1    0    0    0 +9.6485264773e+00 -2.5727633359e+01 -9.7727009960e+00 2.9163519441e+01 0.0000000000e+00 0.0000e+00 -1.0000e+00
</event>
<event>
 4      1 +2.4041262e-06 9.11880000e+01 7.81860800e-03 1.13011600e-01
       25 -1    0    0    0    0 +0.0000000000e+00 +0.0000000000e+00 +9.9999998245e-15 1.2500000000e+02 1.2500000000e+02 0.0000e+00 0.0000e+00
      -11  1    1    0    0    0 +2.1262319059e+01 -1.1456852717e+01 +1.6104754830e+01 2.9029447365e+01 5.1100000000e-04 0.0000e+00 1.0000e+00
       11  1    1    0    0    0 +2.4513129377e+01 -1.3210359209e+01 +1.8570697174e+01 3.3470552671e+01 5.1100000000e-04 0.0000e+00 1.0000e+00
       22  1    1    0    0    0 -4.5775448437e+01 +2.4667211926e+01 -3.4675452004e+01 6.2499999964e+01 0.0000000000e+00 0.0000e+00 1.0000e+00
</event>
<event>
 4      1 +2.4041262e-06 9.11880000e+01 7.81860800e-03 1.13011600e-01
       25 -1    0    0    0    0 +0.0000000000e+00 +0.0000000000e+00 +9.9999998245e-15 1.2500000000e+02 1.2500000000e+02 0.0000e+00 0.0000e+00
      -13  1    1    0    0    0 +3.2092194363e+01 -1.8945181655e+01 -5.0173797833e+01 6.2500000000e+01 1.0566000000e-01 0.0000e+00 1.0000e+00
       13  1    1    0    0    0 -3.2092194363e+01 +1.8945181655e+01 +5.0173797833e+01 6.2500000000e+01 1.0566000000e-01 0.0000e+00 1.0000e+00
       22  1    1    0    0    0 -1.3216726216e-11 +5.7851046394e-12 +9.5753587529e-11 9.6834388582e-11 0.0000000000e+00 0.0000e+00 1.0000e+00
</event>
<event>
 4      1 +2.4041262e-06 9.11880000e+01 7.81860800e-03 1.13011600e-01
       25 -1    0    0    0    0 +0.0000000000e+00 +0.0000000000e+00 +9.9999998245e-15 1.2500000000e+02 1.2500000000e+02 0.0000e+00 0.0000e+00
      -13  1    1    0    0    0 +3.5009587413e+01 -5.1298733350e+01 -6.9164170885e+00 6.2490633246e+01 1.0566000000e-01 0.0000e+00 -1.0000e+00
       13  1    1    0    0    0 -3.5014578239e+01 +5.1306715311e+01 +6.9161124279e+00 6.2499948003e+01 1.0566000000e-01 0.0000e+00 -1.0000e+00
       22  1    1    0    0    0 +4.9908261332e-03 -7.9819610952e-03 +3.0466056790e-04 9.4187507918e-03 0.0000000000e+00 0.0000e+00 1.0000e+00
</event>
<event>
 4      1 +2.4041262e-06 9.11880000e+01 7.81860800e-03 1.13011600e-01
       25 -1    0    0    0    0 +0.0000000000e+00 +0.0000000000e+00 +9.9999998245e-15 1.2500000000e+02 1.2500000000e+02 0.0000e+00 0.0000e+00
      -13  1    1    0    0    0 -6.8302855111e+00 -4.8535989843e+01 -3.8777439043e+01 6.2498768411e+01 1.0566000000e-01 0.0000e+00 -1.0000e+00
       13  1    1    0    0    0 +6.8249671989e+00 +4.8527694571e+01 +3.8758925993e+01 6.2480259489e+01 1.0566000000e-01 0.0000e+00 -1.0000e+00
       22  1    1    0    0    0 +5.3183121830e-03 +8.2952716969e-03 +1.8513049471e-02 2.0972099984e-02 0.0000000000e+00 0.0000e+00 -1.0000e+00
</event>
<event>
 4      1 +2.4041262e-06 9.11880000e+01 7.81860800e-03 1.13011600e-01
       25 -1    0    0    0    0 +0.0000000000e+00 +0.0000000000e+00 +9.9999998245e-15 1.2500000000e+02 1.2500000000e+02 0.0000e+00 0.0000e+00
      -11  1    1    0    0    0 -1.3584047405e+01 +3.1854960507e+01 +2.4230288744e+01 4.2265491191e+01 5.1100000000e-04 0.0000e+00 -1.0000e+00
       11  1    1    0    0    0 -7.3340427204e+00 +1.9742462602e+01 +2.0635899600e+00 2.1161555142e+01 5.1100000000e-04 0.0000e+00 1.0000e+00
       22  1    1    0    0    0 +2.0918090126e+01 -5.1597423109e+01 -2.6293878704e+01 6.1572953667e+01 0.0000000000e+00 0.0000e+00 -1.0000e+00
</event>
<event>
 5      1 +2.4041262e-06 9.11880000e+01 7.81860800e-03 1.13011600e-01
       25 -1    0    0    0    0 +0.0000000000e+00 +0.0000000000e+00 +9.9999998245e-15 1.2500000000e+02 1.2500000000e+02 0.0000e+00 0.0000e+00
       23  2    1    0    0    0 +3.0574302139e+01 +5.8228051705e+00 -3.5257742719e+00 9.3677099503e+01 8.8285190580e+01 0.0000e+00 0.0000e+00
      -13  1    2    2    0    0 +5.7699991504e+01 -7.0908082775e+00 -1.7262032967e+01 6.0642868730e+01 1.0566000000e-01 0.0000e+00 1.0000e+00
       13  1    2    2    0    0 -2.7125689365e+01 +1.2913613448e+01 +1.3736258695e+01 3.3034230773e+01 1.0566000000e-01 0.0000e+00 -1.0000e+00
       22  1    1    0    0    0 -3.0574302139e+01 -5.8228051705e+00 +3.5257742719e+00 3.1322900497e+01 0.0000000000e+00 0.0000e+00 1.0000e+00
</event>
<event>
 5      1 +2.4041262e-06 9.11880000e+01 7.81860800e-03 1.13011600e-01
       25 -1    0    0    0    0 +0.0000000000e+00 +0.0000000000e+00 +9.9999998245e-15 1.2500000000e+02 1.2500000000e+02 0.0000e+00 0.0000e+00
       23  2    1    0    0    0 -1.0763288338e+01 +2.7215658248e+01 +4.0537895225e-01 9.5730480670e+01 9.1146147300e+01 0.0000e+00 0.0000e+00
      -11  1    2    2    0    0 -4.0336868310e+01 +3.6387044218e+01 -2.0835044346e+01 5.8182291165e+01 5.1100000000e-04 0.0000e+00 1.0000e+00
       11  1    2    2    0    0 +2.9573579972e+01 -9.1713859705e+00 +2.1240423298e+01 3.7548189506e+01 5.1100000000e-04 0.0000e+00 -1.0000e+00
       22  1    1    0    0    0 +1.0763288338e+01 -2.7215658248e+01 -4.0537895225e-01 2.9269519330e+01 0.0000000000e+00 0.0000e+00 1.0000e+00
</event>
<event>
 4      1 +2.4041262e-06 9.11880000e+01 7.81860800e-03 1.13011600e-01
       25 -1    0    0    0    0 +0.0000000000e+00 +0.0000000000e+00 +9.9999998245e-15 1.2500000000e+02 1.2500000000e+02 0.0000e+00 0.0000e+00
      -13  1    1    0    0    0 +4.5510396535e+01 -1.7344744570e+00 +4.2802269111e+01 6.2499999997e+01 1.0566000000e-01 0.0000e+00 1.0000e+00
       13  1    1    0    0    0 -4.5510199045e+01 +1.7344674859e+00 -4.2802080955e+01 6.2499727141e+01 1.0566000000e-01 0.0000e+00 1.0000e+00
       22  1    1    0    0    0 -1.9749013009e-04 +6.9711177956e-06 -1.8815654356e-04 2.7286229650e-04 0.0000000000e+00 0.0000e+00 -1.0000e+00
</event>
<event>
 4      1 +2.4041262e-06 9.11880000e+01 7.81860800e-03 1.13011600e-01
       25 -1    0    0    0    0 +0.0000000000e+00 +0.0000000000e+00 +9.9999998245e-15 1.2500000000e+02 1.2500000000e+02 0.0000e+00 0.0000e+00
      -13  1    1    0    0    0 -6.1365243547e+00 -2.3852797071e+00 -1.4407894662e-02 6.5846687130e+00 1.0566000000e-01 0.0000e+00 -1.0000e+00
       13  1    1    0    0    0 -5.2126133807e+01 -2.0232640638e+01 +2.8514445576e-01 5.5915883649e+01 1.0566000000e-01 0.0000e+00 -1.0000e+00
       22  1    1    0    0    0 +5.8262658162e+01 +2.2617920345e+01 -2.7073656110e-01 6.2499447638e+01 0.0000000000e+00 0.0000e+00 -1.0000e+00
</event>
<event>
 4      1 +2.4041262e-06 9.11880000e+01 7.81860800e-03 1.13011600e-01
       25 -1    0    0    0    0 +0.0000000000e+00 +0.0000000000e+00 +9.9999998245e-15 1.2500000000e+02 1.2500000000e+02 0.0000e+00 0.0000e+00
      -13  1    1    0    0    0 +3.4184589421e+01 +3.7680676745e+01 +3.6301620693e+01 6.2499907063e+01 1.0566000000e-01 0.0000e+00 -1.0000e+00
       13  1    1    0    0    0 -2.4117087528e+01 -2.6675597550e+01 -2.5666098532e+01 4.4181231234e+01 1.0566000000e-01 0.0000e+00 -1.0000e+00
       22  1    1    0    0    0 -1.0067501893e+01 -1.1005079195e+01 -1.0635522162e+01 1.8318861703e+01 0.0000000000e+00 0.0000e+00 -1.0000e+00
</event>
<event>
 4      1 +2.4041262e-06 9.11880000e+01 7.81860800e-03 1.13011600e-01
       25 -1    0    0    0    0 +0.0000000000e+00 +0.0000000000e+00 +9.9999998245e-15 1.2500000000e+02 1.2500000000e+02 0.0000e+00 0.0000e+00
      -13  1    1    0    0    0 -5.2099470378e+01 -1.7523440436e+01 -2.9745204015e+01 6.2499712834e+01 1.0566000000e-01 0.0000e+00 -1.0000e+00
       13  1    1    0    0    0 +5.2099717893e+01 +1.7523456067e+01 +2.9745356415e+01 6.2499996075e+01 1.0566000000e-01 0.0000e+00 -1.0000e+00
       22  1    1    0    0    0 -2.4751533915e-04 -1.5631694239e-05 -1.5239967988e-04 2.9109080268e-04 0.0000000000e+00 0.0000e+00 1.0000e+00
</event>
<event>
 4      1 +2.4041262e-06 9.11880000e+01 7.81860800e-03 1.13011600e-01
       25 -1    0    0    0    0 +0.0000000000e+00 +0.0000000000e+00 +9.9999998245e-15 1.2500000000e+02 1.2500000000e+02 0.0000e+00 0.0000e+00
      -13  1    1    0    0    0 +1.3873220888e+01 +5.2567067094e+01 +3.0829788112e+01 6.2499998398e+01 1.0566000000e-01 0.0000e+00 1.0000e+00
       13  1    1    0    0    0 -1.3776048634e+01 -5.2197813464e+01 -3.0611572268e+01 6.2060218878e+01 1.0566000000e-01 0.0000e+00 1.0000e+00
       22  1    1    0    0    0 -9.7172253949e-02 -3.6925362998e-01 -2.1821584411e-01 4.3978272455e-01 0.0000000000e+00 0.0000e+00 1.0000e+00
</event>
<event>
 4      1 +2.4041262e-06 9.11880000e+01 7.81860800e-03 1.13011600e-01
       25 -1    0    0    0    0 +0.0000000000e+00 +0.0000000000e+00 +9.9999998245e-15 1.2500000000e+02 1.2500000000e+02 0.0000e+00 0.0000e+00
      -13  1    1    0    0    0 -5.3732438482e+00 -4.7530006856e+01 +4.0090584076e+01 6.2411853015e+01 1.0566000000e-01 0.0000e+00 1.0000e+00
       13  1    1    0    0    0 +5.3807525799e+00 +4.7597151014e+01 -4.0147198442e+01 6.2499999918e+01 1.0566000000e-01 0.0000e+00 1.0000e+00
       22  1    1    0    0    0 -7.5087316978e-03 -6.7144158124e-02 +5.6614366034e-02 8.8147067242e-02 0.0000000000e+00 0.0000e+00 -1.0000e+00
</event>
<event>
 4      1 +2.4041262e-06 9.11880000e+01 7.81860800e-03 1.13011600e-01
       25 -1    0    0    0    0 +0.0000000000e+00 +0.0000000000e+00 +9.9999998245e-15 1.2500000000e+02 1.2500000000e+02 0.0000e+00 0.0000e+00
      -13  1    1    0    0    0 +2.7977303554e+01 -1.9246951704e+01 +5.2468928135e+01 6.2499393979e+01 1.0566000000e-01 0.0000e+00 -1.0000e+00
       13  1    1    0    0    0 -2.7845773305e+01 +1.9122521494e+01 -5.2181671891e+01 6.2161048612e+01 1.0566000000e-01 0.0000e+00 -1.0000e+00
       22  1    1    0    0    0 -1.3153024927e-01 +1.2443020968e-01 -2.8725624470e-01 3.3955740851e-01 0.0000000000e+00 0.0000e+00 1.0000e+00
</event>
<event>
 4      1 +2.4041262e-06 9.11880000e+01 7.81860800e-03 1.13011600e-01
       25 -1    0    0    0    0 +0.0000000000e+00 +0.0000000000e+00 +9.9999998245e-15 1.2500000000e+02 1.2500000000e+02 0.0000e+00 0.0000e+00
      -13  1    1    0    0    0 -2.2606482153e+01 -3.9576730026e+00 +2.5090680138e+01 3.4003964545e+01 1.0566000000e-01 0.0000e+00 1.0000e+00
       13  1    1    0    0    0 -1.9446627081e+01 -2.8305829961e+00 +2.0640083573e+01 2.8499258216e+01 1.0566000000e-01 0.0000e+00 -1.0000e+00
       22  1    1    0    0    0 +4.2053109234e+01 +6.7882559987e+00 -4.5730763711e+01 6.2496777240e+01 0.0000000000e+00 0.0000e+00 1.0000e+00
</event>
<event>
 4      1 +2.4041262e-06 9.11880000e+01 7.81860800e-03 1.13011600e-01
       25 -1    0    0    0    0 +0.0000000000e+00 +0.0000000000e+00 +9.9999998245e-15 1.2500000000e+02 1.2500000000e+02 0.0000e+00 0.0000e+00
      -13  1    1    0    0    0 +2.1364683802e+01 +4.5196205525e+01 -3.7511154793e+01 6.2499956846e+01 1.0566000000e-01 0.0000e+00 -1.0000e+00
       13  1    1    0    0    0 -2.1364698323e+01 -4.5196236708e+01 +3.7511180851e+01 6.2500000000e+01 1.0566000000e-01 0.0000e+00 -1.0000e+00
       22  1    1    0    0    0 +1.4520974114e-05 +3.1183646315e-05 -2.6058674478e-05 4.3154756426e-05 0.0000000000e+00 0.0000e+00 -1.0000e+00
</event>
<event>
 4      1 +2.4041262e-06 9.11880000e+01 7.81860800e-03 1.13011600e-01
       25 -1    0    0    0    0 +0.0000000000e+00 +0.0000000000e+00 +9.9999998245e-15 1.2500000000e+02 1.2500000000e+02 0.0000e+00 0.0000e+00
      -13  1    1    0    0    0 -4.1462754723e+01 -2.3018413847e+01 -4.0709101861e+01 6.2499996349e+01 1.0566000000e-01 0.0000e+00 1.0000e+00
       13  1    1    0    0    0 +4.1455293222e+01 +2.3014203908e+01 +4.0702268552e+01 6.2489045015e+01 1.0566000000e-01 0.0000e+00 1.0000e+00
       22  1    1    0    0    0 +7.4615010161e-03 +4.2099394012e-03 +6.8333094350e-03 1.0958636093e-02 0.0000000000e+00 0.0000e+00 1.0000e+00
</event>
<event>
 4      1 +2.4041262e-06 9.11880000e+01 7.81860800e-03 1.13011600e-01
       25 -1    0    0    0    0 +0.0000000000e+00 +0.0000000000e+00 +9.9999998245e-15 1.2500000000e+02 1.2500000000e+02 0.0000e+00 0.0000e+00
      -11  1    1    0    0    0 +6.5570699250e+00 -1.0486437957e+01 +8.1360010655e+00 1.4803886673e+01 5.1100000000e-04 0.0000e+00 1.0000e+00
       11  1    1    0    0    0 +2.1123801868e+01 -3.3783595954e+01 +2.6217796812e+01 4.7696113373e+01 5.1100000000e-04 0.0000e+00 1.0000e+00
       22  1    1    0    0    0 -2.7680871793e+01 +4.4270033911e+01 -3.4353797877e+01 6.2499999954e+01 0.0000000000e+00 0.0000e+00 1.0000e+00
</event>
<event>
 4      1 +2.4041262e-06 9.11880000e+01 7.81860800e-03 1.13011600e-01
       25 -1    0    0    0    0 +0.0000000000e+00 +0.0000000000e+00 +9.9999998245e-15 1.2500000000e+02 1.2500000000e+02 0.0000e+00 0.0000e+00
      -13  1    1    0    0    0 +5.1727225668e+00 -1.0739267723e+01 +5.2391401094e+00 1.3021086095e+01 1.0566000000e-01 0.0000e+00 1.0000e+00
       13  1    1    0    0    0 +1.9466565172e+01 -4.0834643083e+01 +2.0044177344e+01 4.9479242565e+01 1.0566000000e-01 0.0000e+00 1.0000e+00
       22  1    1    0    0    0 -2.4639287739e+01 +5.1573910806e+01 -2.5283317453e+01 6.2499671340e+01 0.0000000000e+00 0.0000e+00 1.0000e+00
</event>
<event>
 4      1 +2.4041262e-06 9.11880000e+01 7.81860800e-03 1.13011600e-01
       25 -1    0    0    0    0 +0.0000000000e+00 +0.0000000000e+00 +9.9999998245e-15 1.2500000000e+02 1.2500000000e+02 0.0000e+00 0.0000e+00
      -11  1    1    0    0    0 +3.1485062576e+01 -4.7243619664e+00 +4.9551834438e+01 5.8898328141e+01 5.1100000000e-04 0.0000e+00 -1.0000e+00
       11  1    1    0    0    0 +1.5310669806e+00 -5.8562491131e-01 +3.2277276431e+00 3.6201310246e+00 5.1100000000e-04 0.0000e+00 1.0000e+00
       22  1    1    0    0    0 -3.3016129557e+01 +5.3099868777e+00 -5.2779562081e+01 6.2481540834e+01 0.0000000000e+00 0.0000e+00 -1.0000e+00
</event>
<event>
 5      1 +2.4041262e-06 9.11880000e+01 7.81860800e-03 1.13011600e-01
       25 -1    0    0    0    0 +0.0000000000e+00 +0.0000000000e+00 +9.9999998245e-15 1.2500000000e+02 1.2500000000e+02 0.0000e+00 0.0000e+00
       23  2    1    0    0    0 +2.9797070513e+01 +3.5405260738e+00 +1.7948310502e+00 9.4939691376e+01 9.0055110039e+01 0.0000e+00 0.0000e+00
      -13  1    2    2    0    0 -3.2055363228e+01 +7.4213187722e+00 -7.7133458426e-01 3.2912435417e+01 1.0566000000e-01 0.0000e+00 -1.0000e+00
       13  1    2    2    0    0 +6.1852433742e+01 -3.8807926984e+00 +2.5661656344e+00 6.2027255959e+01 1.0566000000e-01 0.0000e+00 1.0000e+00
       22  1    1    0    0    0 -2.9797070513e+01 -3.5405260738e+00 -1.7948310502e+00 3.0060308624e+01 0.0000000000e+00 0.0000e+00 1.0000e+00
</event>
<event>
 4      1 +2.4041262e-06 9.11880000e+01 7.81860800e-03 1.13011600e-01
       25 -1    0    0    0    0 +0.0000000000e+00 +0.0000000000e+00 +9.9999998245e-15 1.2500000000e+02 1.2500000000e+02 0.0000e+00 0.0000e+00
      -13  1    1    0    0    0 -2.1761756386e+01 +5.2490413548e+01 -2.6026933714e+01 6.2499839984e+01 1.0566000000e-01 0.0000e+00 -1.0000e+00
       13  1    1    0    0    0 +1.4323001398e+01 -3.4625234541e+01 +1.7072217405e+01 4.1176777523e+01 1.0566000000e-01 0.0000e+00 -1.0000e+00
       22  1    1    0    0    0 +7.4387549879e+00 -1.7865179007e+01 +8.9547163095e+00 2.1323382492e+01 0.0000000000e+00 0.0000e+00 1.0000e+00
</event>
<event>
 4      1 +2.4041262e-06 9.11880000e+01 7.81860800e-03 1.13011600e-01
       25 -1    0    0    0    0 +0.0000000000e+00 +0.0000000000e+00 +9.9999998245e-15 1.2500000000e+02 1.2500000000e+02 0.0000e+00 0.0000e+00
      -13  1    1    0    0    0 +3.8418085965e+01 +2.3521788826e+01 -4.3324529707e+01 6.2499999337e+01 1.0566000000e-01 0.0000e+00 1.0000e+00
       13  1    1    0    0    0 -3.8418086354e+01 -2.3521789080e+01 +4.3324530180e+01 6.2500000000e+01 1.0566000000e-01 0.0000e+00 1.0000e+00
       22  1    1    0    0    0 +3.8911995207e-07 +2.5461325082e-07 -4.7280757761e-07 6.6316608029e-07 0.0000000000e+00 0.0000e+00 1.0000e+00
</event>
<event>
 4      1 +2.4041262e-06 9.11880000e+01 7.81860800e-03 1.13011600e-01
       25 -1    0    0    0    0 +0.0000000000e+00 +0.0000000000e+00 +9.9999998245e-15 1.2500000000e+02 1.2500000000e+02 0.0000e+00 0.0000e+00
      -13  1    1    0    0    0 -4.3285910204e+01 +3.9877611623e+01 -2.1031820561e+01 6.2499940568e+01 1.0566000000e-01 0.0000e+00 1.0000e+00
       13  1    1    0    0    0 +4.3285954757e+01 -3.9877645397e+01 +2.1031841077e+01 6.2499999878e+01 1.0566000000e-01 0.0000e+00 1.0000e+00
       22  1    1    0    0    0 -4.4553184015e-05 +3.3774549886e-05 -2.0516006295e-05 5.9553446082e-05 0.0000000000e+00 0.0000e+00 1.0000e+00
</event>
<event>
 4      1 +2.4041262e-06 9.11880000e+01 7.81860800e-03 1.13011600e-01
       25 -1    0    0    0    0 +0.0000000000e+00 +0.0000000000e+00 +9.9999998245e-15 1.2500000000e+02 1.2500000000e+02 0.0000e+00 0.0000e+00
      -13  1    1    0    0    0 +5.0777270564e+01 -2.2688096511e+01 -2.8515918702e+01 6.2499997701e+01 1.0566000000e-01 0.0000e+00 1.0000e+00
       13  1    1    0    0    0 -5.0750916161e+01 +2.2676105309e+01 +2.8500500651e+01 6.2467198949e+01 1.0566000000e-01 0.0000e+00 1.0000e+00
       22  1    1    0    0    0 -2.6354402687e-02 +1.1991202357e-02 +1.5418050518e-02 3.2803349778e-02 0.0000000000e+00 0.0000e+00 1.0000e+00
</event>
<event>
 4      1 +2.4041262e-06 9.11880000e+01 7.81860800e-03 1.13011600e-01
       25 -1    0    0    0    0 +0.0000000000e+00 +0.0000000000e+00 +9.9999998245e-15 1.2500000000e+02 1.2500000000e+02 0.0000e+00 0.0000e+00
      -11  1    1    0    0    0 -1.5475247629e+01 +1.2967949357e+00 -1.4073478767e+01 2.0957761597e+01 5.1100000000e-04 0.0000e+00 1.0000e+00
       11  1    1    0    0    0 -3.0674365646e+01 +2.5711243374e+00 -2.7896777299e+01 4.1542238409e+01 5.1100000000e-04 0.0000e+00 1.0000e+00
       22  1    1    0    0    0 +4.6149613275e+01 -3.8679192731e+00 +4.1970256066e+01 6.2499999994e+01 0.0000000000e+00 0.0000e+00 1.0000e+00
</event>
<event>
 4      1 +2.4041262e-06 9.11880000e+01 7.81860800e-03 1.13011600e-01
       25 -1    0    0    0    0 +0.0000000000e+00 +0.0000000000e+00 +9.9999998245e-15 1.2500000000e+02 1.2500000000e+02 0.0000e+00 0.0000e+00
      -11  1    1    0    0    0 -4.1623449403e+00 +2.8596689560e+00 -5.1584850152e+00 7.2189188840e+00 5.1100000000e-04 0.0000e+00 -1.0000e+00
       11  1    1    0    0    0 -3.1875107169e+01 +2.1897975207e+01 -3.9502584157e+01 5.5281081127e+01 5.1100000000e-04 0.0000e+00 -1.0000e+00
       22  1    1    0    0    0 +3.6037452109e+01 -2.4757644163e+01 +4.4661069172e+01 6.2499999989e+01 0.0000000000e+00 0.0000e+00 -1.0000e+00
</event>
<event>
 4      1 +2.4041262e-06 9.11880000e+01 7.81860800e-03 1.13011600e-01
       25 -1    0    0    0    0 +0.0000000000e+00 +0.0000000000e+00 +9.9999998245e-15 1.2500000000e+02 1.2500000000e+02 0.0000e+00 0.0000e+00
      -13  1    1    0    0    0 +1.8825260790e+00 +2.5102808986e+00 +6.2421097499e+01 6.2499999933e+01 1.0566000000e-01 0.0000e+00 1.0000e+00
       13  1    1    0    0    0 -1.8825258860e+00 -2.5102809329e+00 -6.2421097429e+01 6.2499999859e+01 1.0566000000e-01 0.0000e+00 1.0000e+00
       22  1    1    0    0    0 -1.9301581821e-07 +3.4331557902e-08 -6.9679689235e-08 2.0806013804e-07 0.0000000000e+00 0.0000e+00 1.0000e+00
</event>
<event>
 4      1 +2.4041262e-06 9.11880000e+01 7.81860800e-03 1.13011600e-01
       25 -1    0    0    0    0 +0.0000000000e+00 +0.0000000000e+00 +9.9999998245e-15 1.2500000000e+02 1.2500000000e+02 0.0000e+00 0.0000e+00
      -11  1    1    0    0    0 -1.0032493924e+00 -5.4444806701e+00 -9.3801625424e+00 1.0892030513e+01 5.1100000000e-04 0.0000e+00 1.0000e+00
       11  1    1    0    0    0 -5.7661828065e+00 -2.7518084271e+01 -4.3282259251e+01 5.1612477098e+01 5.1100000000e-04 0.0000e+00 -1.0000e+00
       22  1    1    0    0    0 +6.7694321989e+00 +3.2962564941e+01 +5.2662421794e+01 6.2495492389e+01 0.0000000000e+00 0.0000e+00 -1.0000e+00
</event>
<event>
 4      1 +2.4041262e-06 9.11880000e+01 7.81860800e-03 1.13011600e-01
       25 -1    0    0    0    0 +0.0000000000e+00 +0.0000000000e+00 +9.9999998245e-15 1.2500000000e+02 1.2500000000e+02 0.0000e+00 0.0000e+00
      -13  1    1    0    0    0 -4.9672451145e+01 -1.9700735839e+01 +3.2415543194e+01 6.2500000000e+01 1.0566000000e-01 0.0000e+00 -1.0000e+00
       13  1    1    0    0    0 +4.9672451145e+01 +1.9700735839e+01 -3.2415543194e+01 6.2500000000e+01 1.0566000000e-01 0.0000e+00 -1.0000e+00
       22  1    1    0    0    0 -2.9463159188e-10 -1.8046020733e-10 +1.6038040395e-10 3.8091407868e-10 0.0000000000e+00 0.0000e+00 1.0000e+00
</event>
<event>
 4      1 +2.4041262e-06 9.11880000e+01 7.81860800e-03 1.13011600e-01
       25 -1    0    0    0    0 +0.0000000000e+00 +0.0000000000e+00 +9.9999998245e-15 1.2500000000e+02 1.2500000000e+02 0.0000e+00 0.0000e+00
      -11  1    1    0    0    0 -4.7391222203e+01 -3.6123046836e+01 -1.2348663724e+01 6.0854678955e+01 5.1100000000e-04 0.0000e+00 1.0000e+00
       11  1    1    0    0    0 -1.3457944868e+00 -9.4021992163e-01 -1.6751340148e-01 1.6502234099e+00 5.1100000000e-04 0.0000e+00 -1.0000e+00
       22  1    1    0    0    0 +4.8737016690e+01 +3.7063266758e+01 +1.2516177125e+01 6.2495097635e+01 0.0000000000e+00 0.0000e+00 1.0000e+00
</event>
<event>
 4      1 +2.4041262e-06 9.11880000e+01 7.81860800e-03 1.13011600e-01
       25 -1    0    0    0    0 +0.0000000000e+00 +0.0000000000e+00 +9.9999998245e-15 1.2500000000e+02 1.2500000000e+02 0.0000e+00 0.0000e+00
      -13  1    1    0    0    0 -3.5692678345e+01 +4.2924465859e+01 -2.8102700561e+01 6.2499999996e+01 1.0566000000e-01 0.0000e+00 -1.0000e+00
       13  1    1    0    0    0 +3.5692528677e+01 -4.2924283315e+01 +2.8102580563e+01 6.2499735198e+01 1.0566000000e-01 0.0000e+00 -1.0000e+00
       22  1    1    0    0    0 +1.4966790511e-04 -1.8254394913e-04 +1.1999782936e-04 2.6480606910e-04 0.0000000000e+00 0.0000e+00 -1.0000e+00
</event>
<event>
 4      1 +2.4041262e-06 9.11880000e+01 7.81860800e-03 1.13011600e-01
       25 -1    0    0    0    0 +0.0000000000e+00 +0.0000000000e+00 +9.9999998245e-15 1.2500000000e+02 1.2500000000e+02 0.0000e+00 0.0000e+00
      -13  1    1    0    0    0 +3.9085517021e+01 -4.5337012375e+01 +1.7975441600e+01 6.2499999973e+01 1.0566000000e-01 0.0000e+00 -1.0000e+00
       13  1    1    0    0    0 -3.9085514841e+01 +4.5337010188e+01 -1.7975441227e+01 6.2499996916e+01 1.0566000000e-01 0.0000e+00 -1.0000e+00
       22  1    1    0    0    0 -2.1798343972e-06 +2.1873679577e-06 -3.7300888329e-07 3.1105292489e-06 0.0000000000e+00 0.0000e+00 1.0000e+00
</event>
<event>
 4      1 +2.4041262e-06 9.11880000e+01 7.81860800e-03 1.13011600e-01
       25 -1    0    0    0    0 +0.0000000000e+00 +0.0000000000e+00 +9.9999998245e-15 1.2500000000e+02 1.2500000000e+02 0.0000e+00 0.0000e+00
      -11  1    1    0    0    0 +3.5149981583e+01 -3.0843556728e+01 +2.4872993888e+01 5.2967084327e+01 5.1100000000e-04 0.0000e+00 -1.0000e+00
       11  1    1    0    0    0 +6.3248490702e+00 -5.5462133841e+00 +4.4846762783e+00 9.5329177194e+00 5.1100000000e-04 0.0000e+00 1.0000e+00
       22  1    1    0    0    0 -4.1474830653e+01 +3.6389770112e+01 -2.9357670167e+01 6.2499997953e+01 0.0000000000e+00 0.0000e+00 -1.0000e+00
</event>
<event>
 4      1 +2.4041262e-06 9.11880000e+01 7.81860800e-03 1.13011600e-01
       25 -1    0    0    0    0 +0.0000000000e+00 +0.0000000000e+00 +9.9999998245e-15 1.2500000000e+02 1.2500000000e+02 0.0000e+00 0.0000e+00
      -13  1    1    0    0    0 -3.6815747985e+01 -3.2173689165e+01 +3.8931905448e+01 6.2500000000e+01 1.0566000000e-01 0.0000e+00 1.0000e+00
       13  1    1    0    0    0 +3.6815747631e+01 +3.2173688857e+01 -3.8931905078e+01 6.2499999403e+01 1.0566000000e-01 0.0000e+00 1.0000e+00
       22  1    1    0    0    0 +3.5355460657e-07 +3.0778433846e-07 -3.7017903763e-07 5.9729773039e-07 0.0000000000e+00 0.0000e+00 -1.0000e+00
</event>
<event>
 5      1 +2.4041262e-06 9.11880000e+01 7.81860800e-03 1.13011600e-01
       25 -1    0    0    0    0 +0.0000000000e+00 +0.0000000000e+00 +9.9999998245e-15 1.2500000000e+02 1.2500000000e+02 0.0000e+00 0.0000e+00
       23  2    1    0    0    0 +1.3869587082e+01 +1.1139534496e+01 +2.1761579024e+01 9.6892687852e+01 9.2726328316e+01 0.0000e+00 0.0000e+00
      -11  1    2    2    0    0 +1.9811996932e+01 +4.9592987617e+01 +2.2562540670e+01 5.7974545147e+01 5.1100000000e-04 0.0000e+00 1.0000e+00
       11  1    2    2    0    0 -5.9424098496e+00 -3.8453453121e+01 -8.0096164612e-01 3.8918142705e+01 5.1100000000e-04 0.0000e+00 -1.0000e+00
       22  1    1    0    0    0 -1.3869587082e+01 -1.1139534496e+01 -2.1761579024e+01 2.8107312148e+01 0.0000000000e+00 0.0000e+00 1.0000e+00
</event>
<event>
 5      1 +2.4041262e-06 9.11880000e+01 7.81860800e-03 1.13011600e-01
       25 -1    0    0    0    0 +0.0000000000e+00 +0.0000000000e+00 +9.9999998245e-15 1.2500000000e+02 1.2500000000e+02 0.0000e+00 0.0000e+00
       23  2    1    0    0    0 +8.5124870798e+00 -1.3632062231e+01 -2.1195446862e+01 9.8400328487e+01 9.4736910028e+01 0.0000e+00 0.0000e+00
      -11  1    2    2    0    0 -1.6683082360e+01 +3.6330552879e+01 -6.0706584125e+00 4.0436211536e+01 5.1100000000e-04 0.0000e+00 -1.0000e+00
       11  1    2    2    0    0 +2.5195569440e+01 -4.9962615110e+01 -1.5124788449e+01 5.7964116951e+01 5.1100000000e-04 0.0000e+00 1.0000e+00
       22  1    1    0    0    0 -8.5124870798e+00 +1.3632062231e+01 +2.1195446862e+01 2.6599671513e+01 0.0000000000e+00 0.0000e+00 1.0000e+00
</event>
<event>
 4      1 +2.4041262e-06 9.11880000e+01 7.81860800e-03 1.13011600e-01
       25 -1    0    0    0    0 +0.0000000000e+00 +0.0000000000e+00 +9.9999998245e-15 1.2500000000e+02 1.2500000000e+02 0.0000e+00 0.0000e+00
      -11  1    1    0    0    0 -9.3639540200e+00 -4.9776392924e+00 +2.4286844612e+01 2.6501157508e+01 5.1100000000e-04 0.0000e+00 -1.0000e+00
       11  1    1    0    0    0 -1.2651185739e+01 -6.7720858052e+00 +3.3015211082e+01 3.5998858451e+01 5.1100000000e-04 0.0000e+00 1.0000e+00
       22  1    1    0    0    0 +2.2015139759e+01 +1.1749725098e+01 -5.7302055693e+01 6.2499984041e+01 0.0000000000e+00 0.0000e+00 1.0000e+00
</event>
<event>
 4      1 +2.4041262e-06 9.11880000e+01 7.81860800e-03 1.13011600e-01
       25 -1    0    0    0    0 +0.0000000000e+00 +0.0000000000e+00 +9.9999998245e-15 1.2500000000e+02 1.2500000000e+02 0.0000e+00 0.0000e+00
      -11  1    1    0    0    0 -1.1379297485e+01 +1.1371942439e+01 -2.5525266824e+01 3.0171985894e+01 5.1100000000e-04 0.0000e+00 -1.0000e+00
       11  1    1    0    0    0 -1.2192751287e+01 +1.2186373465e+01 -2.7348301865e+01 3.2328014126e+01 5.1100000000e-04 0.0000e+00 1.0000e+00
       22  1    1    0    0    0 +2.3572048772e+01 -2.3558315904e+01 +5.2873568689e+01 6.2499999980e+01 0.0000000000e+00 0.0000e+00 -1.0000e+00
</event>
<event>
 5      1 +2.4041262e-06 9.11880000e+01 7.81860800e-03 1.13011600e-01
       25 -1    0    0    0    0 +0.0000000000e+00 +0.0000000000e+00 +9.9999998245e-15 1.2500000000e+02 1.2500000000e+02 0.0000e+00 0.0000e+00
       23  2    1    0    0    0 -2.8351385122e+01 +7.9784639978e+00 +2.7869927182e+00 9.5415810734e+01 9.0713574968e+01 0.0000e+00 0.0000e+00
      -13  1    2    2    0    0 -3.9374413433e+01 -1.5200201462e+01 +3.4574323829e+01 5.4559926594e+01 1.0566000000e-01 0.0000e+00 1.0000e+00
       13  1    2    2    0    0 +1.1023028311e+01 +2.3178665460e+01 -3.1787331111e+01 4.0855884140e+01 1.0566000000e-01 0.0000e+00 -1.0000e+00
       22  1    1    0    0    0 +2.8351385122e+01 -7.9784639978e+00 -2.7869927182e+00 2.9584189266e+01 0.0000000000e+00 0.0000e+00 1.0000e+00
</event>
<event>
 4      1 +2.4041262e-06 9.11880000e+01 7.81860800e-03 1.13011600e-01
       25 -1    0    0    0    0 +0.0000000000e+00 +0.0000000000e+00 +9.9999998245e-15 1.2500000000e+02 1.2500000000e+02 0.0000e+00 0.0000e+00
      -11  1    1    0    0    0 -2.2977038673e-01 -9.3122491820e+00 -3.7572891518e+00 1.0044301931e+01 5.1100000000e-04 0.0000e+00 -1.0000e+00
       11  1    1    0    0    0 -1.0644388351e+00 -4.8635014777e+01 -1.9624067991e+01 5.2455712151e+01 5.1100000000e-04 0.0000e+00 1.0000e+00
       22  1    1    0    0    0 +1.2942092218e+00 +5.7947263959e+01 +2.3381357143e+01 6.2499985918e+01 0.0000000000e+00 0.0000e+00 1.0000e+00
</event>
<event>
 4      1 +2.4041262e-06 9.11880000e+01 7.81860800e-03 1.13011600e-01
       25 -1    0    0    0    0 +0.0000000000e+00 +0.0000000000e+00 +9.9999998245e-15 1.2500000000e+02 1.2500000000e+02 0.0000e+00 0.0000e+00
      -13  1    1    0    0    0 -2.3344171646e+01 -4.4053835515e+01 -3.7690158696e+01 6.2500000000e+01 1.0566000000e-01 0.0000e+00 1.0000e+00
       13  1    1    0    0    0 +2.3344171646e+01 +4.4053835515e+01 +3.7690158696e+01 6.2500000000e+01 1.0566000000e-01 0.0000e+00 1.0000e+00
       22  1    1    0    0    0 +7.7553489324e-13 +3.4896622009e-12 -6.0637287989e-13 3.6258633063e-12 0.0000000000e+00 0.0000e+00 1.0000e+00
</event>
<event>
 5      1 +2.4041262e-06 9.11880000e+01 7.81860800e-03 1.13011600e-01
       25 -1    0    0    0    0 +0.0000000000e+00 +0.0000000000e+00 +9.9999998245e-15 1.2500000000e+02 1.2500000000e+02 0.0000e+00 0.0000e+00
       23  2    1    0    0    0 +1.0510042787e+01 -2.7682254901e+01 -3.8260028132e+00 9.5143567974e+01 9.0337655457e+01 0.0000e+00 0.0000e+00
      -13  1    2    2    0    0 -4.6354028021e+00 -5.4786553333e+01 +1.7240947600e+01 5.7622173019e+01 1.0566000000e-01 0.0000e+00 1.0000e+00
       13  1    2    2    0    0 +1.5145445589e+01 +2.7104298432e+01 -2.1066950413e+01 3.7521394955e+01 1.0566000000e-01 0.0000e+00 -1.0000e+00
       22  1    1    0    0    0 -1.0510042787e+01 +2.7682254901e+01 +3.8260028132e+00 2.9856432026e+01 0.0000000000e+00 0.0000e+00 1.0000e+00
</event>
<event>
 4      1 +2.4041262e-06 9.11880000e+01 7.81860800e-03 1.13011600e-01
       25 -1    0    0    0    0 +0.0000000000e+00 +0.0000000000e+00 +9.9999998245e-15 1.2500000000e+02 1.2500000000e+02 0.0000e+00 0.0000e+00
      -13  1    1    0    0    0 +1.0109817813e+00 +9.1413887195e-01 -1.0802071297e+00 1.7423390939e+00 1.0566000000e-01 0.0000e+00 1.0000e+00
       13  1    1    0    0    0 +3.7203775960e+01 +3.3620388904e+01 -3.4314472987e+01 6.0761383429e+01 1.0566000000e-01 0.0000e+00 1.0000e+00
       22  1    1    0    0    0 -3.8214757741e+01 -3.4534527776e+01 +3.5394680117e+01 6.2496277477e+01 0.0000000000e+00 0.0000e+00 1.0000e+00
</event>
<event>
 4      1 +2.4041262e-06 9.11880000e+01 7.81860800e-03 1.13011600e-01
       25 -1    0    0    0    0 +0.0000000000e+00 +0.0000000000e+00 +9.9999998245e-15 1.2500000000e+02 1.2500000000e+02 0.0000e+00 0.0000e+00
      -13  1    1    0    0    0 +3.3429726923e+01 +5.2488214491e+01 +5.7999135387e+00 6.2499675709e+01 1.0566000000e-01 0.0000e+00 1.0000e+00
       13  1    1    0    0    0 -3.3418611836e+01 -5.2470415803e+01 -5.8031845653e+00 6.2479086635e+01 1.0566000000e-01 0.0000e+00 1.0000e+00
       22  1    1    0    0    0 -1.1115086463e-02 -1.7798687537e-02 +3.2710266480e-03 2.1237656190e-02 0.0000000000e+00 0.0000e+00 1.0000e+00
</event>
<event>
 4      1 +2.4041262e-06 9.11880000e+01 7.81860800e-03 1.13011600e-01
       25 -1    0    0    0    0 +0.0000000000e+00 +0.0000000000e+00 +9.9999998245e-15 1.2500000000e+02 1.2500000000e+02 0.0000e+00 0.0000e+00
      -11  1    1    0    0    0 +1.4633302488e+01 +1.6120370802e+01 +2.1072897569e+01 3.0299618953e+01 5.1100000000e-04 0.0000e+00 -1.0000e+00
       11  1    1    0    0    0 +1.5543220783e+01 +1.7134504620e+01 +2.2398249914e+01 3.2200381370e+01 5.1100000000e-04 0.0000e+00 1.0000e+00
       22  1    1    0    0    0 -3.0176523271e+01 -3.3254875422e+01 -4.3471147483e+01 6.2499999677e+01 0.0000000000e+00 0.0000e+00 -1.0000e+00
</event>
<event>
 4      1 +2.4041262e-06 9.11880000e+01 7.81860800e-03 1.13011600e-01
       25 -1    0    0    0    0 +0.0000000000e+00 +0.0000000000e+00 +9.9999998245e-15 1.2500000000e+02 1.2500000000e+02 0.0000e+00 0.0000e+00
      -13  1    1    0    0    0 -9.2277948485e+00 +5.1851521214e+01 -3.3652732182e+01 6.2499999979e+01 1.0566000000e-01 0.0000e+00 -1.0000e+00
       13  1    1    0    0    0 +9.2277949536e+00 -5.1851521011e+01 +3.3652732078e+01 6.2499999770e+01 1.0566000000e-01 0.0000e+00 -1.0000e+00
       22  1    1    0    0    0 -1.0508673033e-07 -2.0322622330e-07 +1.0427802644e-07 2.5143195008e-07 0.0000000000e+00 0.0000e+00 -1.0000e+00
</event>
<event>
 4      1 +2.4041262e-06 9.11880000e+01 7.81860800e-03 1.13011600e-01
       25 -1    0    0    0    0 +0.0000000000e+00 +0.0000000000e+00 +9.9999998245e-15 1.2500000000e+02 1.2500000000e+02 0.0000e+00 0.0000e+00
      -13  1    1    0    0    0 -2.7990282219e+00 -9.1747650049e+00 -3.4814725521e+00 1.0205032437e+01 1.0566000000e-01 0.0000e+00 1.0000e+00
       13  1    1    0    0    0 -1.5038451025e+01 -4.6937793610e+01 -1.7479295242e+01 5.2295778074e+01 1.0566000000e-01 0.0000e+00 1.0000e+00
       22  1    1    0    0    0 +1.7837479247e+01 +5.6112558615e+01 +2.0960767794e+01 6.2499189488e+01 0.0000000000e+00 0.0000e+00 1.0000e+00
</event>
<event>
 4      1 +2.4041262e-06 9.11880000e+01 7.81860800e-03 1.13011600e-01
       25 -1    0    0    0    0 +0.0000000000e+00 +0.0000000000e+00 +9.9999998245e-15 1.2500000000e+02 1.2500000000e+02 0.0000e+00 0.0000e+00
      -13  1    1    0    0    0 +4.7511795809e+01 +3.3471869340e+01 +2.2986332163e+01 6.2498955259e+01 1.0566000000e-01 0.0000e+00 1.0000e+00
       13  1    1    0    0    0 -4.7395422362e+01 -3.3386665628e+01 -2.2901113511e+01 6.2333519608e+01 1.0566000000e-01 0.0000e+00 1.0000e+00
       22  1    1    0    0    0 -1.1637344695e-01 -8.5203711732e-02 -8.5218652244e-02 1.6752513345e-01 0.0000000000e+00 0.0000e+00 -1.0000e+00
</event>
<event>
 4      1 +2.4041262e-06 9.11880000e+01 7.81860800e-03 1.13011600e-01
       25 -1    0    0    0    0 +0.0000000000e+00 +0.0000000000e+00 +9.9999998245e-15 1.2500000000e+02 1.2500000000e+02 0.0000e+00 0.0000e+00
      -13  1    1    0    0    0 -2.1416992690e+01 +4.9758541757e+01 -3.1171079723e+01 6.2499979431e+01 1.0566000000e-01 0.0000e+00 -1.0000e+00
       13  1    1    0    0    0 +2.1416714231e+01 -4.9758256358e+01 +3.1170989337e+01 6.2499611715e+01 1.0566000000e-01 0.0000e+00 -1.0000e+00
       22  1    1    0    0    0 +2.7845909877e-04 -2.8539904110e-04 +9.0386016611e-05 4.0885414801e-04 0.0000000000e+00 0.0000e+00 -1.0000e+00
</event>
<event>
 4      1 +2.4041262e-06 9.11880000e+01 7.81860800e-03 1.13011600e-01
       25 -1    0    0    0    0 +0.0000000000e+00 +0.0000000000e+00 +9.9999998245e-15 1.2500000000e+02 1.2500000000e+02 0.0000e+00 0.0000e+00
      -13  1    1    0    0    0 +1.0945283827e-01 -5.7316410638e+01 -1.6953082081e+01 5.9771239442e+01 1.0566000000e-01 0.0000e+00 1.0000e+00
       13  1    1    0    0    0 -9.1513906483e-01 +5.9267883023e+01 +1.9042189338e+01 6.2258618491e+01 1.0566000000e-01 0.0000e+00 1.0000e+00
       22  1    1    0    0    0 +8.0568622655e-01 -1.9514723855e+00 -2.0891072574e+00 2.9701420673e+00 0.0000000000e+00 0.0000e+00 1.0000e+00
</event>
<event>
 4      1 +2.4041262e-06 9.11880000e+01 7.81860800e-03 1.13011600e-01
       25 -1    0    0    0    0 +0.0000000000e+00 +0.0000000000e+00 +9.9999998245e-15 1.2500000000e+02 1.2500000000e+02 0.0000e+00 0.0000e+00
      -13  1    1    0    0    0 +4.3824397419e+01 +1.4676519655e+01 +4.2074466404e+01 6.2499999405e+01 1.0566000000e-01 0.0000e+00 -1.0000e+00
       13  1    1    0    0    0 -4.3824397834e+01 -1.4676519877e+01 -4.2074466774e+01 6.2499999997e+01 1.0566000000e-01 0.0000e+00 -1.0000e+00
       22  1    1    0    0    0 +4.1497198744e-07 +2.2185040853e-07 +3.6968521711e-07 5.9840330370e-07 0.0000000000e+00 0.0000e+00 -1.0000e+00
</event>
<event>
 4      1 +2.4041262e-06 9.11880000e+01 7.81860800e-03 1.13011600e-01
       25 -1    0    0    0    0 +0.0000000000e+00 +0.0000000000e+00 +9.9999998245e-15 1.2500000000e+02 1.2500000000e+02 0.0000e+00 0.0000e+00
      -13  1    1    0    0    0 +3.7232102167e+01 -4.3299395114e+01 -2.5396580523e+01 6.2498516105e+01 1.0566000000e-01 0.0000e+00 -1.0000e+00
       13  1    1    0    0    0 -3.6996654103e+01 +4.2950257744e+01 +2.5190356239e+01 6.2032590358e+01 1.0566000000e-01 0.0000e+00 -1.0000e+00
       22  1    1    0    0    0 -2.3544806409e-01 +3.4913736963e-01 +2.0622428498e-01 4.6889353746e-01 0.0000000000e+00 0.0000e+00 -1.0000e+00
</event>
<event>
 4      1 +2.4041262e-06 9.11880000e+01 7.81860800e-03 1.13011600e-01
       25 -1    0    0    0    0 +0.0000000000e+00 +0.0000000000e+00 +9.9999998245e-15 1.2500000000e+02 1.2500000000e+02 0.0000e+00 0.0000e+00
      -13  1    1    0    0    0 +2.3523853293e+01 -3.5968726345e+01 -4.5377504177e+01 6.2499999984e+01 1.0566000000e-01 0.0000e+00 -1.0000e+00
       13  1    1    0    0    0 -2.3523851712e+01 +3.5968723216e+01 +4.5377499837e+01 6.2499994437e+01 1.0566000000e-01 0.0000e+00 -1.0000e+00
       22  1    1    0    0    0 -1.5808564888e-06 +3.1283635249e-06 +4.3406144189e-06 5.5791306774e-06 0.0000000000e+00 0.0000e+00 -1.0000e+00
</event>
<event>
 5      1 +2.4041262e-06 9.11880000e+01 7.81860800e-03 1.13011600e-01
       25 -1    0    0    0    0 +0.0000000000e+00 +0.0000000000e+00 +9.9999998245e-15 1.2500000000e+02 1.2500000000e+02 0.0000e+00 0.0000e+00
       23  2    1    0    0    0 +1.0872833618e+01 +1.2759098916e+01 +2.4077249913e+01 9.5661849421e+01 9.1051976119e+01 0.0000e+00 0.0000e+00
      -13  1    2    2    0    0 +3.3731347543e+00 +3.4761438752e+01 +4.9906186232e+01 6.0912841425e+01 1.0566000000e-01 0.0000e+00 1.0000e+00
       13  1    2    2    0    0 +7.4996988637e+00 -2.2002339836e+01 -2.5828936319e+01 3.4749007996e+01 1.0566000000e-01 0.0000e+00 -1.0000e+00
       22  1    1    0    0    0 -1.0872833618e+01 -1.2759098916e+01 -2.4077249913e+01 2.9338150579e+01 0.0000000000e+00 0.0000e+00 1.0000e+00
</event>
<event>
 4      1 +2.4041262e-06 9.11880000e+01 7.81860800e-03 1.13011600e-01
       25 -1    0    0    0    0 +0.0000000000e+00 +0.0000000000e+00 +9.9999998245e-15 1.2500000000e+02 1.2500000000e+02 0.0000e+00 0.0000e+00
      -13  1    1    0    0    0 +3.3651870683e+00 -3.9376591384e+01 +4.8418988041e+01 6.2500000000e+01 1.0566000000e-01 0.0000e+00 1.0000e+00
       13  1    1    0    0    0 -3.3651870535e+00 +3.9376591212e+01 -4.8418987831e+01 6.2499999728e+01 1.0566000000e-01 0.0000e+00 1.0000e+00
       22  1    1    0    0    0 -1.4774459909e-08 +1.7177162489e-07 -2.0992563746e-07 2.7164784013e-07 0.0000000000e+00 0.0000e+00 1.0000e+00
</event>
<event>
 4      1 +2.4041262e-06 9.11880000e+01 7.81860800e-03 1.13011600e-01
       25 -1    0    0    0    0 +0.0000000000e+00 +0.0000000000e+00 +9.9999998245e-15 1.2500000000e+02 1.2500000000e+02 0.0000e+00 0.0000e+00
      -13  1    1    0    0    0 -1.2048389587e-01 -4.7031260340e+01 -4.1161691643e+01 6.2499999908e+01 1.0566000000e-01 0.0000e+00 1.0000e+00
       13  1    1    0    0    0 +1.2048386232e-01 +4.7031260399e+01 +4.1161691710e+01 6.2499999997e+01 1.0566000000e-01 0.0000e+00 1.0000e+00
       22  1    1    0    0    0 +3.3546777564e-08 -5.9031563031e-08 -6.7233916332e-08 9.5553708584e-08 0.0000000000e+00 0.0000e+00 1.0000e+00
</event>
<event>
 4      1 +2.4041262e-06 9.11880000e+01 7.81860800e-03 1.13011600e-01
       25 -1    0    0    0    0 +0.0000000000e+00 +0.0000000000e+00 +9.9999998245e-15 1.2500000000e+02 1.2500000000e+02 0.0000e+00 0.0000e+00
      -13  1    1    0    0    0 -4.0322891368e+01 +4.1957658383e+01 +2.2800398478e+01 6.2500000000e+01 1.0566000000e-01 0.0000e+00 -1.0000e+00
       13  1    1    0    0    0 +4.0322891368e+01 -4.1957658383e+01 -2.2800398478e+01 6.2500000000e+01 1.0566000000e-01 0.0000e+00 -1.0000e+00
       22  1    1    0    0    0 +7.4456835716e-12 +6.0212489738e-12 -6.5000473116e-11 6.5702017840e-11 0.0000000000e+00 0.0000e+00 -1.0000e+00
</event>
<event>
 4      1 +2.4041262e-06 9.11880000e+01 7.81860800e-03 1.13011600e-01
       25 -1    0    0    0    0 +0.0000000000e+00 +0.0000000000e+00 +9.9999998245e-15 1.2500000000e+02 1.2500000000e+02 0.0000e+00 0.0000e+00
      -11  1    1    0    0    0 -1.0095508797e+01 -5.6619898457e+00 -1.2168116116e+01 1.6794060764e+01 5.1100000000e-04 0.0000e+00 -1.0000e+00
       11  1    1    0    0    0 -2.4701771382e+01 -2.0377026221e+01 -3.2680403053e+01 4.5753791657e+01 5.1100000000e-04 0.0000e+00 1.0000e+00
       22  1    1    0    0    0 +3.4797280179e+01 +2.6039016066e+01 +4.4848519169e+01 6.2452147579e+01 0.0000000000e+00 0.0000e+00 -1.0000e+00
</event>
<event>
 4      1 +2.4041262e-06 9.11880000e+01 7.81860800e-03 1.13011600e-01
       25 -1    0    0    0    0 +0.0000000000e+00 +0.0000000000e+00 +9.9999998245e-15 1.2500000000e+02 1.2500000000e+02 0.0000e+00 0.0000e+00
      -13  1    1    0    0    0 -1.1550512588e+01 -2.2561460769e+01 -5.7129720661e+01 6.2499999999e+01 1.0566000000e-01 0.0000e+00 -1.0000e+00
       13  1    1    0    0    0 +1.1550512591e+01 +2.2561460748e+01 +5.7129720613e+01 6.2499999949e+01 1.0566000000e-01 0.0000e+00 -1.0000e+00
       22  1    1    0    0    0 -3.0287876171e-09 +2.0380879722e-08 +4.7596362042e-08 5.1864896532e-08 0.0000000000e+00 0.0000e+00 1.0000e+00
</event>
<event>
 4      1 +2.4041262e-06 9.11880000e+01 7.81860800e-03 1.13011600e-01
       25 -1    0    0    0    0 +0.0000000000e+00 +0.0000000000e+00 +9.9999998245e-15 1.2500000000e+02 1.2500000000e+02 0.0000e+00 0.0000e+00
      -11  1    1    0    0    0 +1.6847130701e+01 -4.3026335262e+01 +1.8382782114e+01 4.9729448192e+01 5.1100000000e-04 0.0000e+00 -1.0000e+00
       11  1    1    0    0    0 +4.3345262786e+00 -1.1044607401e+01 +4.7239349857e+00 1.2770553344e+01 5.1100000000e-04 0.0000e+00 1.0000e+00
       22  1    1    0    0    0 -2.1181656980e+01 +5.4070942663e+01 -2.3106717100e+01 6.2499998464e+01 0.0000000000e+00 0.0000e+00 -1.0000e+00
</event>
<event>
 4      1 +2.4041262e-06 9.11880000e+01 7.81860800e-03 1.13011600e-01
       25 -1    0    0    0    0 +0.0000000000e+00 +0.0000000000e+00 +9.9999998245e-15 1.2500000000e+02 1.2500000000e+02 0.0000e+00 0.0000e+00
      -11  1    1    0    0    0 -5.7452391785e+00 -2.5277789288e+00 -7.0180140196e+00 9.4154108021e+00 5.1100000000e-04 0.0000e+00 1.0000e+00
       11  1    1    0    0    0 -3.2383172096e+01 -1.4207475569e+01 -3.9591054641e+01 5.3084591031e+01 5.1100000000e-04 0.0000e+00 -1.0000e+00
       22  1    1    0    0    0 +3.8128411275e+01 +1.6735254498e+01 +4.6609068661e+01 6.2499998167e+01 0.0000000000e+00 0.0000e+00 -1.0000e+00
</event>
<event>
 4      1 +2.4041262e-06 9.11880000e+01 7.81860800e-03 1.13011600e-01
       25 -1    0    0    0    0 +0.0000000000e+00 +0.0000000000e+00 +9.9999998245e-15 1.2500000000e+02 1.2500000000e+02 0.0000e+00 0.0000e+00
      -13  1    1    0    0    0 +1.6487808917e+01 +1.1596648319e+01 -2.7462211823e+01 3.4066322628e+01 1.0566000000e-01 0.0000e+00 1.0000e+00
       13  1    1    0    0    0 -3.0207293792e+01 -2.1091416035e+01 +5.0486413869e+01 6.2499740623e+01 1.0566000000e-01 0.0000e+00 1.0000e+00
       22  1    1    0    0    0 +1.3719484875e+01 +9.4947677153e+00 -2.3024202046e+01 2.8433936749e+01 0.0000000000e+00 0.0000e+00 1.0000e+00
</event>
<event>
 4      1 +2.4041262e-06 9.11880000e+01 7.81860800e-03 1.13011600e-01
       25 -1    0    0    0    0 +0.0000000000e+00 +0.0000000000e+00 +9.9999998245e-15 1.2500000000e+02 1.2500000000e+02 0.0000e+00 0.0000e+00
      -11  1    1    0    0    0 +1.3158531136e+00 +2.0706483463e+01 +2.9086366415e+01 3.5728233070e+01 5.1100000000e-04 0.0000e+00 -1.0000e+00
       11  1    1    0    0    0 +2.7950482497e+01 +1.9912098753e+01 -1.0908827648e+01 3.6010049562e+01 5.1100000000e-04 0.0000e+00 1.0000e+00
       22  1    1    0    0    0 -2.9266335611e+01 -4.0618582216e+01 -1.8177538767e+01 5.3261717367e+01 0.0000000000e+00 0.0000e+00 -1.0000e+00
</event>
<event>
 4      1 +2.4041262e-06 9.11880000e+01 7.81860800e-03 1.13011600e-01
       25 -1    0    0    0    0 +0.0000000000e+00 +0.0000000000e+00 +9.9999998245e-15 1.2500000000e+02 1.2500000000e+02 0.0000e+00 0.0000e+00
      -13  1    1    0    0    0 -1.9779800107e+01 -3.7151363247e+01 +4.6203613655e+01 6.2499994898e+01 1.0566000000e-01 0.0000e+00 -1.0000e+00
       13  1    1    0    0    0 +1.9779801721e+01 +3.7151366326e+01 -4.6203617390e+01 6.2500000000e+01 1.0566000000e-01 0.0000e+00 -1.0000e+00
       22  1    1    0    0    0 -1.6134736763e-06 -3.0790030949e-06 +3.7346580272e-06 5.1020807464e-06 0.0000000000e+00 0.0000e+00 -1.0000e+00
</event>
<event>
 5      1 +2.4041262e-06 9.11880000e+01 7.81860800e-03 1.13011600e-01
       25 -1    0    0    0    0 +0.0000000000e+00 +0.0000000000e+00 +9.9999998245e-15 1.2500000000e+02 1.2500000000e+02 0.0000e+00 0.0000e+00
       23  2    1    0    0    0 -2.6831482324e+01 +6.5228068201e+00 +6.8160861460e+00 9.6558226446e+01 9.2274355113e+01 0.0000e+00 0.0000e+00
      -13  1    2    2    0    0 -4.7748290520e+01 +3.5284833072e-01 -2.8090264752e+01 5.5399439415e+01 1.0566000000e-01 0.0000e+00 -1.0000e+00
       13  1    2    2    0    0 +2.0916808196e+01 +6.1699584894e+00 +3.4906350898e+01 4.1158787032e+01 1.0566000000e-01 0.0000e+00 1.0000e+00
       22  1    1    0    0    0 +2.6831482324e+01 -6.5228068201e+00 -6.8160861460e+00 2.8441773554e+01 0.0000000000e+00 0.0000e+00 -1.0000e+00
</event>
<event>
 4      1 +2.4041262e-06 9.11880000e+01 7.81860800e-03 1.13011600e-01
       25 -1    0    0    0    0 +0.0000000000e+00 +0.0000000000e+00 +9.9999998245e-15 1.2500000000e+02 1.2500000000e+02 0.0000e+00 0.0000e+00
      -13  1    1    0    0    0 -5.6408094854e+01 -3.0288268483e+00 +2.6743071603e+01 6.2500000000e+01 1.0566000000e-01 0.0000e+00 -1.0000e+00
       13  1    1    0    0    0 +5.6408094854e+01 +3.0288268483e+00 -2.6743071603e+01 6.2500000000e+01 1.0566000000e-01 0.0000e+00 -1.0000e+00
       22  1    1    0    0    0 -1.0271732632e-12 -1.1326047107e-12 +5.2479330975e-12 5.4661394182e-12 0.0000000000e+00 0.0000e+00 1.0000e+00
</event>
<event>
 4      1 +2.4041262e-06 9.11880000e+01 7.81860800e-03 1.13011600e-01
       25 -1    0    0    0    0 +0.0000000000e+00 +0.0000000000e+00 +9.9999998245e-15 1.2500000000e+02 1.2500000000e+02 0.0000e+00 0.0000e+00
      -11  1    1    0    0    0 +6.2936578319e+00 -1.3694451379e+00 -4.5580483860e-01 6.4570323836e+00 5.1100000000e-04 0.0000e+00 -1.0000e+00
       11  1    1    0    0    0 +5.4619402823e+01 -1.1904032794e+01 -3.9785805740e+00 5.6042968026e+01 5.1100000000e-04 0.0000e+00 1.0000e+00
       22  1    1    0    0    0 -6.0913060655e+01 +1.3273477932e+01 +4.4343854126e+00 6.2499999590e+01 0.0000000000e+00 0.0000e+00 1.0000e+00
</event>
<event>
 4      1 +2.4041262e-06 9.11880000e+01 7.81860800e-03 1.13011600e-01
       25 -1    0    0    0    0 +0.0000000000e+00 +0.0000000000e+00 +9.9999998245e-15 1.2500000000e+02 1.2500000000e+02 0.0000e+00 0.0000e+00
      -11  1    1    0    0    0 +1.9491690874e-02 -3.5952527017e+01 -1.7643739288e+01 4.0048546979e+01 5.1100000000e-04 0.0000e+00 1.0000e+00
       11  1    1    0    0    0 -2.2086193322e-03 -2.0112325537e+01 -9.9782348806e+00 2.2451521440e+01 5.1100000000e-04 0.0000e+00 -1.0000e+00
       22  1    1    0    0    0 -1.7283071542e-02 +5.6064852554e+01 +2.7621974169e+01 6.2499931581e+01 0.0000000000e+00 0.0000e+00 1.0000e+00
</event>
<event>
 5      1 +2.4041262e-06 9.11880000e+01 7.81860800e-03 1.13011600e-01
       25 -1    0    0    0    0 +0.0000000000e+00 +0.0000000000e+00 +9.9999998245e-15 1.2500000000e+02 1.2500000000e+02 0.0000e+00 0.0000e+00
       23  2    1    0    0    0 +1.9720707401e+01 -1.9429885541e+01 +1.1296233228e+01 9.5099638168e+01 9.0276849425e+01 0.0000e+00 0.0000e+00
      -11  1    2    2    0    0 +4.1344193947e+01 -1.7728383199e+01 -2.5997606934e+01 5.1956842768e+01 5.1100000000e-04 0.0000e+00 1.0000e+00
       11  1    2    2    0    0 -2.1623486545e+01 -1.7015023418e+00 +3.7293840162e+01 4.3142795400e+01 5.1100000000e-04 0.0000e+00 -1.0000e+00
       22  1    1    0    0    0 -1.9720707401e+01 +1.9429885541e+01 -1.1296233228e+01 2.9900361832e+01 0.0000000000e+00 0.0000e+00 1.0000e+00
</event>
<event>
 4      1 +2.4041262e-06 9.11880000e+01 7.81860800e-03 1.13011600e-01
       25 -1    0    0    0    0 +0.0000000000e+00 +0.0000000000e+00 +9.9999998245e-15 1.2500000000e+02 1.2500000000e+02 0.0000e+00 0.0000e+00
      -13  1    1    0    0    0 -4.8142492279e+01 +3.2041359383e+01 -2.3154038128e+01 6.2293409921e+01 1.0566000000e-01 0.0000e+00 -1.0000e+00
       13  1    1    0    0    0 +4.8072099302e+01 -3.2343016809e+01 +2.2882296948e+01 6.2294527410e+01 1.0566000000e-01 0.0000e+00 -1.0000e+00
       22  1    1    0    0    0 +7.0392977111e-02 +3.0165742649e-01 +2.7174117945e-01 4.1206266853e-01 0.0000000000e+00 0.0000e+00 -1.0000e+00
</event>
<event>
 5      1 +2.4041262e-06 9.11880000e+01 7.81860800e-03 1.13011600e-01
       25 -1    0    0    0    0 +0.0000000000e+00 +0.0000000000e+00 +9.9999998245e-15 1.2500000000e+02 1.2500000000e+02 0.0000e+00 0.0000e+00
       23  2    1    0    0    0 +2.0413105710e+01 -1.7760809751e+01 -1.4588163769e+01 9.4259867113e+01 8.9106491224e+01 0.0000e+00 0.0000e+00
      -13  1    2    2    0    0 +4.0078160497e+01 -1.7509515331e+00 -4.1197362300e+01 5.7502683456e+01 1.0566000000e-01 0.0000e+00 -1.0000e+00
       13  1    2    2    0    0 -1.9665054787e+01 -1.6009858218e+01 +2.6609198531e+01 3.6757183657e+01 1.0566000000e-01 0.0000e+00 1.0000e+00
       22  1    1    0    0    0 -2.0413105710e+01 +1.7760809751e+01 +1.4588163769e+01 3.0740132887e+01 0.0000000000e+00 0.0000e+00 -1.0000e+00
</event>
<event>
 4      1 +2.4041262e-06 9.11880000e+01 7.81860800e-03 1.13011600e-01
       25 -1    0    0    0    0 +0.0000000000e+00 +0.0000000000e+00 +9.9999998245e-15 1.2500000000e+02 1.2500000000e+02 0.0000e+00 0.0000e+00
      -13  1    1    0    0    0 +3.3128548329e+01 +1.8648175092e+01 -4.9592044605e+01 6.2487096274e+01 1.0566000000e-01 0.0000e+00 -1.0000e+00
       13  1    1    0    0    0 -3.3135121984e+01 -1.8652613375e+01 +4.9602233066e+01 6.2499991870e+01 1.0566000000e-01 0.0000e+00 -1.0000e+00
       22  1    1    0    0    0 +6.5736553052e-03 +4.4382822937e-03 -1.0188460319e-02 1.2911855694e-02 0.0000000000e+00 0.0000e+00 1.0000e+00
</event>
<event>
 4      1 +2.4041262e-06 9.11880000e+01 7.81860800e-03 1.13011600e-01
       25 -1    0    0    0    0 +0.0000000000e+00 +0.0000000000e+00 +9.9999998245e-15 1.2500000000e+02 1.2500000000e+02 0.0000e+00 0.0000e+00
      -11  1    1    0    0    0 -5.6851998125e+00 -1.9266211910e+01 -2.4432799262e+01 3.1630208636e+01 5.1100000000e-04 0.0000e+00 1.0000e+00
       11  1    1    0    0    0 -5.4553442993e+00 -1.8869562803e+01 -2.3814415741e+01 3.0869849030e+01 5.1100000000e-04 0.0000e+00 -1.0000e+00
       22  1    1    0    0    0 +1.1140544112e+01 +3.8135774713e+01 +4.8247215004e+01 6.2499942334e+01 0.0000000000e+00 0.0000e+00 -1.0000e+00
</event>
<event>
 4      1 +2.4041262e-06 9.11880000e+01 7.81860800e-03 1.13011600e-01
       25 -1    0    0    0    0 +0.0000000000e+00 +0.0000000000e+00 +9.9999998245e-15 1.2500000000e+02 1.2500000000e+02 0.0000e+00 0.0000e+00
      -13  1    1    0    0    0 +9.8879522485e-01 +1.7360643122e+01 -3.4949966922e+01 3.9036918392e+01 1.0566000000e-01 0.0000e+00 -1.0000e+00
       13  1    1    0    0    0 +9.7236127335e-01 +9.3083306939e+00 -2.1527869605e+01 2.3474472103e+01 1.0566000000e-01 0.0000e+00 1.0000e+00
       22  1    1    0    0    0 -1.9611564982e+00 -2.6668973816e+01 +5.6477836527e+01 6.2488609506e+01 0.0000000000e+00 0.0000e+00 1.0000e+00
</event>
<event>
 4      1 +2.4041262e-06 9.11880000e+01 7.81860800e-03 1.13011600e-01
       25 -1    0    0    0    0 +0.0000000000e+00 +0.0000000000e+00 +9.9999998245e-15 1.2500000000e+02 1.2500000000e+02 0.0000e+00 0.0000e+00
      -13  1    1    0    0    0 +4.4092355055e+01 -2.5355619503e+01 +3.3289094409e+01 6.0788306320e+01 1.0566000000e-01 0.0000e+00 -1.0000e+00
       13  1    1    0    0    0 +1.9475299289e+00 +4.6035944847e-01 +2.9236843840e-01 2.0252029492e+00 1.0566000000e-01 0.0000e+00 1.0000e+00
       22  1    1    0    0    0 -4.6039884984e+01 +2.4895260055e+01 -3.3581462847e+01 6.2186490731e+01 0.0000000000e+00 0.0000e+00 -1.0000e+00
</event>
<event>
 4      1 +2.4041262e-06 9.11880000e+01 7.81860800e-03 1.13011600e-01
       25 -1    0    0    0    0 +0.0000000000e+00 +0.0000000000e+00 +9.9999998245e-15 1.2500000000e+02 1.2500000000e+02 0.0000e+00 0.0000e+00
      -11  1    1    0    0    0 +8.9811408113e+00 +4.5267421955e+01 -1.7016091850e+01 4.9186865755e+01 5.1100000000e-04 0.0000e+00 -1.0000e+00
       11  1    1    0    0    0 +2.4410092169e+00 +1.2241593557e+01 -4.6286821668e+00 1.3313145296e+01 5.1100000000e-04 0.0000e+00 1.0000e+00
       22  1    1    0    0    0 -1.1422150028e+01 -5.7509015512e+01 +2.1644774016e+01 6.2499988949e+01 0.0000000000e+00 0.0000e+00 1.0000e+00
</event>
<event>
 4      1 +2.4041262e-06 9.11880000e+01 7.81860800e-03 1.13011600e-01
       25 -1    0    0    0    0 +0.0000000000e+00 +0.0000000000e+00 +9.9999998245e-15 1.2500000000e+02 1.2500000000e+02 0.0000e+00 0.0000e+00
      -13  1    1    0    0    0 -2.3160690476e+01 +5.4652190075e+01 +1.9569347746e+01 6.2499999989e+01 1.0566000000e-01 0.0000e+00 1.0000e+00
       13  1    1    0    0    0 +2.3160690444e+01 -5.4652190006e+01 -1.9569347781e+01 6.2499999927e+01 1.0566000000e-01 0.0000e+00 1.0000e+00
       22  1    1    0    0    0 +3.2161512123e-08 -6.9642516278e-08 +3.4968152839e-08 8.4304297927e-08 0.0000000000e+00 0.0000e+00 1.0000e+00
</event>
<event>
 4      1 +2.4041262e-06 9.11880000e+01 7.81860800e-03 1.13011600e-01
       25 -1    0    0    0    0 +0.0000000000e+00 +0.0000000000e+00 +9.9999998245e-15 1.2500000000e+02 1.2500000000e+02 0.0000e+00 0.0000e+00
      -13  1    1    0    0    0 -5.3965912026e+01 +1.7136440896e+01 -2.6462455830e+01 6.2500000000e+01 1.0566000000e-01 0.0000e+00 1.0000e+00
       13  1    1    0    0    0 +5.3965894130e+01 -1.7136435182e+01 +2.6462447000e+01 6.2499979242e+01 1.0566000000e-01 0.0000e+00 1.0000e+00
       22  1    1    0    0    0 +1.7895948109e-05 -5.7144790468e-06 +8.8300865478e-06 2.0757905914e-05 0.0000000000e+00 0.0000e+00 -1.0000e+00
</event>
<event>
 4      1 +2.4041262e-06 9.11880000e+01 7.81860800e-03 1.13011600e-01
       25 -1    0    0    0    0 +0.0000000000e+00 +0.0000000000e+00 +9.9999998245e-15 1.2500000000e+02 1.2500000000e+02 0.0000e+00 0.0000e+00
      -13  1    1    0    0    0 -4.2567622698e+01 -2.4402050306e+01 -3.8714031969e+01 6.2499999973e+01 1.0566000000e-01 0.0000e+00 -1.0000e+00
       13  1    1    0    0    0 +4.2567603184e+01 +2.4402037267e+01 +3.8714014425e+01 6.2499970724e+01 1.0566000000e-01 0.0000e+00 -1.0000e+00
       22  1    1    0    0    0 +1.9514901285e-05 +1.3038911974e-05 +1.7543490867e-05 2.9302195641e-05 0.0000000000e+00 0.0000e+00 1.0000e+00
</event>
<event>
 5      1 +2.4041262e-06 9.11880000e+01 7.81860800e-03 1.13011600e-01
       25 -1    0    0    0    0 +0.0000000000e+00 +0.0000000000e+00 +9.9999998245e-15 1.2500000000e+02 1.2500000000e+02 0.0000e+00 0.0000e+00
       23  2    1    0    0    0 -1.6844929124e+01 -7.0214712994e+00 -2.2172920029e+01 9.6282564895e+01 9.1900169879e+01 0.0000e+00 0.0000e+00
      -13  1    2    2    0    0 -1.5690904230e+01 +7.9604534638e+00 -5.6304458720e+01 5.8989630705e+01 1.0566000000e-01 0.0000e+00 1.0000e+00
       13  1    2    2    0    0 -1.1540248936e+00 -1.4981924763e+01 +3.4131538691e+01 3.7292934190e+01 1.0566000000e-01 0.0000e+00 -1.0000e+00
       22  1    1    0    0    0 +1.6844929124e+01 +7.0214712994e+00 +2.2172920029e+01 2.8717435105e+01 0.0000000000e+00 0.0000e+00 1.0000e+00
</event>
<event>
 4      1 +2.4041262e-06 9.11880000e+01 7.81860800e-03 1.13011600e-01
       25 -1    0    0    0    0 +0.0000000000e+00 +0.0000000000e+00 +9.9999998245e-15 1.2500000000e+02 1.2500000000e+02 0.0000e+00 0.0000e+00
      -13  1    1    0    0    0 -6.9341520732e+00 -2.4470869072e+01 -5.7090550058e+01 6.2499983744e+01 1.0566000000e-01 0.0000e+00 -1.0000e+00
       13  1    1    0    0    0 +6.9309560533e+00 +2.4460960443e+01 +5.7070053058e+01 6.2477026640e+01 1.0566000000e-01 0.0000e+00 -1.0000e+00
       22  1    1    0    0    0 +3.1960198580e-03 +9.9086288257e-03 +2.0496999285e-02 2.2989616087e-02 0.0000000000e+00 0.0000e+00 -1.0000e+00
</event>
<event>
 4      1 +2.4041262e-06 9.11880000e+01 7.81860800e-03 1.13011600e-01
       25 -1    0    0    0    0 +0.0000000000e+00 +0.0000000000e+00 +9.9999998245e-15 1.2500000000e+02 1.2500000000e+02 0.0000e+00 0.0000e+00
      -13  1    1    0    0    0 -3.6062567268e+00 -2.7716109052e+01 -5.5902156017e+01 6.2500000000e+01 1.0566000000e-01 0.0000e+00 1.0000e+00
       13  1    1    0    0    0 +3.6062567269e+00 +2.7716109052e+01 +5.5902156018e+01 6.2500000000e+01 1.0566000000e-01 0.0000e+00 1.0000e+00
       22  1    1    0    0    0 -9.9530867355e-11 -2.6825976483e-11 -1.6456594892e-10 1.9418542199e-10 0.0000000000e+00 0.0000e+00 -1.0000e+00
</event>
<event>
 4      1 +2.4041262e-06 9.11880000e+01 7.81860800e-03 1.13011600e-01
       25 -1    0    0    0    0 +0.0000000000e+00 +0.0000000000e+00 +9.9999998245e-15 1.2500000000e+02 1.2500000000e+02 0.0000e+00 0.0000e+00
      -13  1    1    0    0    0 -3.4884821596e+01 +4.8385490889e+01 +1.8658304575e+01 6.2500000000e+01 1.0566000000e-01 0.0000e+00 -1.0000e+00
       13  1    1    0    0    0 +3.4884819930e+01 -4.8385488659e+01 -1.8658303699e+01 6.2499997082e+01 1.0566000000e-01 0.0000e+00 -1.0000e+00
       22  1    1    0    0    0 +1.6662511232e-06 -2.2293778931e-06 -8.7551304408e-07 2.9177117209e-06 0.0000000000e+00 0.0000e+00 -1.0000e+00
</event>
<event>
 5      1 +2.4041262e-06 9.11880000e+01 7.81860800e-03 1.13011600e-01
       25 -1    0    0    0    0 +0.0000000000e+00 +0.0000000000e+00 +9.9999998245e-15 1.2500000000e+02 1.2500000000e+02 0.0000e+00 0.0000e+00
       23  2    1    0    0    0 -1.2072076591e+01 +2.6733052561e+01 +5.1711342306e+00 9.5215242796e+01 9.0436777359e+01 0.0000e+00 0.0000e+00
      -11  1    2    2    0    0 -9.2808413101e+00 +3.7544244145e+01 -3.5830024286e+01 5.2720915436e+01 5.1100000000e-04 0.0000e+00 1.0000e+00
       11  1    2    2    0    0 -2.7912352805e+00 -1.0811191583e+01 +4.1001158517e+01 4.2494327360e+01 5.1100000000e-04 0.0000e+00 -1.0000e+00
       22  1    1    0    0    0 +1.2072076591e+01 -2.6733052561e+01 -5.1711342306e+00 2.9784757204e+01 0.0000000000e+00 0.0000e+00 1.0000e+00
</event>
<event>
 4      1 +2.4041262e-06 9.11880000e+01 7.81860800e-03 1.13011600e-01
       25 -1    0    0    0    0 +0.0000000000e+00 +0.0000000000e+00 +9.9999998245e-15 1.2500000000e+02 1.2500000000e+02 0.0000e+00 0.0000e+00
      -11  1    1    0    0    0 -3.5532634261e+00 -1.4099970207e+01 -1.2304598666e+01 1.9048306733e+01 5.1100000000e-04 0.0000e+00 -1.0000e+00
       11  1    1    0    0    0 -8.1738164208e+00 -3.2135533818e+01 -2.8081073666e+01 4.3451703156e+01 5.1100000000e-04 0.0000e+00 1.0000e+00
       22  1    1    0    0    0 +1.1727079847e+01 +4.6235504025e+01 +4.0385672332e+01 6.2499990111e+01 0.0000000000e+00 0.0000e+00 -1.0000e+00
</event>
<event>
 5      1 +2.4041262e-06 9.11880000e+01 7.81860800e-03 1.13011600e-01
       25 -1    0    0    0    0 +0.0000000000e+00 +0.0000000000e+00 +9.9999998245e-15 1.2500000000e+02 1.2500000000e+02 0.0000e+00 0.0000e+00
       23  2    1    0    0    0 +2.3919334568e+01 -1.1184970830e+01 +1.6514198824e+01 9.3855868909e+01 8.8537942303e+01 0.0000e+00 0.0000e+00
      -13  1    2    2    0    0 +4.9786042631e+01 +1.4834029461e+01 -3.4926720572e+00 5.2066384482e+01 1.0566000000e-01 0.0000e+00 -1.0000e+00
       13  1    2    2    0    0 -2.5866708063e+01 -2.6019000290e+01 +2.0006870882e+01 4.1789484427e+01 1.0566000000e-01 0.0000e+00 1.0000e+00
       22  1    1    0    0    0 -2.3919334568e+01 +1.1184970830e+01 -1.6514198824e+01 3.1144131091e+01 0.0000000000e+00 0.0000e+00 -1.0000e+00
</event>
<event>
 4      1 +2.4041262e-06 9.11880000e+01 7.81860800e-03 1.13011600e-01
       25 -1    0    0    0    0 +0.0000000000e+00 +0.0000000000e+00 +9.9999998245e-15 1.2500000000e+02 1.2500000000e+02 0.0000e+00 0.0000e+00
      -11  1    1    0    0    0 +2.7223430636e+00 +8.8770731979e+00 +7.6156387069e+00 1.2008810661e+01 5.1100000000e-04 0.0000e+00 -1.0000e+00
       11  1    1    0    0    0 +1.0131437093e+01 +3.7085503996e+01 +3.2735305603e+01 5.0493374391e+01 5.1100000000e-04 0.0000e+00 1.0000e+00
       22  1    1    0    0    0 -1.2853780157e+01 -4.5962577194e+01 -4.0350944310e+01 6.2497814948e+01 0.0000000000e+00 0.0000e+00 1.0000e+00
</event>
<event>
 4      1 +2.4041262e-06 9.11880000e+01 7.81860800e-03 1.13011600e-01
       25 -1    0    0    0    0 +0.0000000000e+00 +0.0000000000e+00 +9.9999998245e-15 1.2500000000e+02 1.2500000000e+02 0.0000e+00 0.0000e+00
      -13  1    1    0    0    0 +2.9515917222e+00 +3.6137847906e+01 +5.0587773812e+01 6.2239778023e+01 1.0566000000e-01 0.0000e+00 1.0000e+00
       13  1    1    0    0    0 -2.9618147579e+00 -3.6286340365e+01 -5.0801241763e+01 6.2499985380e+01 1.0566000000e-01 0.0000e+00 1.0000e+00
       22  1    1    0    0    0 +1.0223035703e-02 +1.4849245822e-01 +2.1346795091e-01 2.6023659749e-01 0.0000000000e+00 0.0000e+00 -1.0000e+00
</event>
<event>
 4      1 +2.4041262e-06 9.11880000e+01 7.81860800e-03 1.13011600e-01
       25 -1    0    0    0    0 +0.0000000000e+00 +0.0000000000e+00 +9.9999998245e-15 1.2500000000e+02 1.2500000000e+02 0.0000e+00 0.0000e+00
      -13  1    1    0    0    0 +2.7458491236e+01 -5.1513424970e+01 -2.2326100752e+01 6.2498541039e+01 1.0566000000e-01 0.0000e+00 -1.0000e+00
       13  1    1    0    0    0 -2.7459128834e+01 +5.1514628791e+01 +2.2326623114e+01 6.2499999996e+01 1.0566000000e-01 0.0000e+00 -1.0000e+00
       22  1    1    0    0    0 +6.3759792970e-04 -1.2038207947e-03 -5.2236251135e-04 1.4589647765e-03 0.0000000000e+00 0.0000e+00 -1.0000e+00
</event>
<event>
 4      1 +2.4041262e-06 9.11880000e+01 7.81860800e-03 1.13011600e-01
       25 -1    0    0    0    0 +0.0000000000e+00 +0.0000000000e+00 +9.9999998245e-15 1.2500000000e+02 1.2500000000e+02 0.0000e+00 0.0000e+00
      -13  1    1    0    0    0 -2.0980563808e+01 +5.3891369677e+01 -2.3701767114e+01 6.2499989694e+01 1.0566000000e-01 0.0000e+00 -1.0000e+00
       13  1    1    0    0    0 +2.0980567268e+01 -5.3891378530e+01 +2.3701771098e+01 6.2500000000e+01 1.0566000000e-01 0.0000e+00 -1.0000e+00
       22  1    1    0    0    0 -3.4605094439e-06 +8.8530080638e-06 -3.9838841678e-06 1.0306415985e-05 0.0000000000e+00 0.0000e+00 1.0000e+00
</event>
<event>
 4      1 +2.4041262e-06 9.11880000e+01 7.81860800e-03 1.13011600e-01
       25 -1    0    0    0    0 +0.0000000000e+00 +0.0000000000e+00 +9.9999998245e-15 1.2500000000e+02 1.2500000000e+02 0.0000e+00 0.0000e+00
      -13  1    1    0    0    0 -9.0343899641e+00 +2.5880386777e+01 -5.6167821875e+01 6.2500000000e+01 1.0566000000e-01 0.0000e+00 -1.0000e+00
       13  1    1    0    0    0 +9.0343899642e+00 -2.5880386777e+01 +5.6167821875e+01 6.2500000000e+01 1.0566000000e-01 0.0000e+00 -1.0000e+00
       22  1    1    0    0    0 -1.1036304009e-10 -7.5580160448e-11 +3.1672403336e-10 3.4381168476e-10 0.0000000000e+00 0.0000e+00 -1.0000e+00
</event>
<event>
 4      1 +2.4041262e-06 9.11880000e+01 7.81860800e-03 1.13011600e-01
       25 -1    0    0    0    0 +0.0000000000e+00 +0.0000000000e+00 +9.9999998245e-15 1.2500000000e+02 1.2500000000e+02 0.0000e+00 0.0000e+00
      -13  1    1    0    0    0 +3.4607314116e+01 -5.1331590160e+01 +8.5812461282e+00 6.2499978302e+01 1.0566000000e-01 0.0000e+00 -1.0000e+00
       13  1    1    0    0    0 -3.4607302360e+01 +5.1331614607e+01 -8.5812551505e+00 6.2499993110e+01 1.0566000000e-01 0.0000e+00 -1.0000e+00
       22  1    1    0    0    0 -1.1755844638e-05 -2.4446994934e-05 +9.0222624958e-06 2.8587701289e-05 0.0000000000e+00 0.0000e+00 1.0000e+00
</event>
<event>
 4      1 +2.4041262e-06 9.11880000e+01 7.81860800e-03 1.13011600e-01
       25 -1    0    0    0    0 +0.0000000000e+00 +0.0000000000e+00 +9.9999998245e-15 1.2500000000e+02 1.2500000000e+02 0.0000e+00 0.0000e+00
      -11  1    1    0    0    0 +7.7326725029e+00 -5.4131090914e+00 -3.0642778913e+00 9.9239998654e+00 5.1100000000e-04 0.0000e+00 -1.0000e+00
       11  1    1    0    0    0 -5.3071752812e+01 -2.6742603442e+01 +4.5709684184e-01 5.9430520132e+01 5.1100000000e-04 0.0000e+00 1.0000e+00
       22  1    1    0    0    0 +4.5339080309e+01 +3.2155712533e+01 +2.6071810494e+00 5.5645480003e+01 0.0000000000e+00 0.0000e+00 1.0000e+00
</event>
<event>
 4      1 +2.4041262e-06 9.11880000e+01 7.81860800e-03 1.13011600e-01
       25 -1    0    0    0    0 +0.0000000000e+00 +0.0000000000e+00 +9.9999998245e-15 1.2500000000e+02 1.2500000000e+02 0.0000e+00 0.0000e+00
      -11  1    1    0    0    0 +2.2502228785e+01 +2.6174043529e+01 +3.9994889842e+00 3.4748046957e+01 5.1100000000e-04 0.0000e+00 -1.0000e+00
       11  1    1    0    0    0 +1.8328725756e+01 +2.0599396634e+01 +3.1551957508e+00 2.7753064516e+01 5.1100000000e-04 0.0000e+00 1.0000e+00
       22  1    1    0    0    0 -4.0830954541e+01 -4.6773440163e+01 -7.1546847350e+00 6.2498888527e+01 0.0000000000e+00 0.0000e+00 -1.0000e+00
</event>
<event>
 4      1 +2.4041262e-06 9.11880000e+01 7.81860800e-03 1.13011600e-01
       25 -1    0    0    0    0 +0.0000000000e+00 +0.0000000000e+00 +9.9999998245e-15 1.2500000000e+02 1.2500000000e+02 0.0000e+00 0.0000e+00
      -11  1    1    0    0    0 +5.1124980950e+00 -1.3912494033e+01 +5.1351116276e+00 1.5686443149e+01 5.1100000000e-04 0.0000e+00 1.0000e+00
       11  1    1    0    0    0 +1.9405345334e+01 -3.6764113411e+01 +2.1761147621e+01 4.6922436089e+01 5.1100000000e-04 0.0000e+00 -1.0000e+00
       22  1    1    0    0    0 -2.4517843429e+01 +5.0676607443e+01 -2.6896259249e+01 6.2391120762e+01 0.0000000000e+00 0.0000e+00 -1.0000e+00
</event>
<event>
 4      1 +2.4041262e-06 9.11880000e+01 7.81860800e-03 1.13011600e-01
       25 -1    0    0    0    0 +0.0000000000e+00 +0.0000000000e+00 +9.9999998245e-15 1.2500000000e+02 1.2500000000e+02 0.0000e+00 0.0000e+00
      -13  1    1    0    0    0 -5.9806679054e+01 -1.0041823391e+01 -1.5118258873e+01 6.2499999935e+01 1.0566000000e-01 0.0000e+00 1.0000e+00
       13  1    1    0    0    0 +5.9806679117e+01 +1.0041823403e+01 +1.5118258884e+01 6.2500000000e+01 1.0566000000e-01 0.0000e+00 1.0000e+00
       22  1    1    0    0    0 -6.3068445490e-08 -1.1337265102e-08 -1.0247664448e-08 6.4893582296e-08 0.0000000000e+00 0.0000e+00 -1.0000e+00
</event>
<event>
 5      1 +2.4041262e-06 9.11880000e+01 7.81860800e-03 1.13011600e-01
       25 -1    0    0    0    0 +0.0000000000e+00 +0.0000000000e+00 +9.9999998245e-15 1.2500000000e+02 1.2500000000e+02 0.0000e+00 0.0000e+00
       23  2    1    0    0    0 +2.7029971585e+01 +1.0786580561e+01 -7.4205836043e+00 9.4966106727e+01 9.0091768113e+01 0.0000e+00 0.0000e+00
      -11  1    2    2    0    0 -3.7400330790e+00 -2.2166132331e+01 +2.9222210521e+01 3.6868182189e+01 5.1100000000e-04 0.0000e+00 -1.0000e+00
       11  1    2    2    0    0 +3.0770004664e+01 +3.2952712893e+01 -3.6642794125e+01 5.8097924538e+01 5.1100000000e-04 0.0000e+00 1.0000e+00
       22  1    1    0    0    0 -2.7029971585e+01 -1.0786580561e+01 +7.4205836043e+00 3.0033893273e+01 0.0000000000e+00 0.0000e+00 1.0000e+00
</event>
<event>
 5      1 +2.4041262e-06 9.11880000e+01 7.81860800e-03 1.13011600e-01
       25 -1    0    0    0    0 +0.0000000000e+00 +0.0000000000e+00 +9.9999998245e-15 1.2500000000e+02 1.2500000000e+02 0.0000e+00 0.0000e+00
       23  2    1    0    0    0 -2.1435579554e+01 -6.4789808550e+00 +1.6640060499e+01 9.7101023726e+01 9.3006752075e+01 0.0000e+00 0.0000e+00
      -11  1    2    2    0    0 -3.9901107691e+01 -1.6726238747e+01 -2.5317673085e+01 5.0128335583e+01 5.1100000000e-04 0.0000e+00 -1.0000e+00
       11  1    2    2    0    0 +1.8465528137e+01 +1.0247257892e+01 +4.1957733584e+01 4.6972688143e+01 5.1100000000e-04 0.0000e+00 1.0000e+00
       22  1    1    0    0    0 +2.1435579554e+01 +6.4789808550e+00 -1.6640060499e+01 2.7898976274e+01 0.0000000000e+00 0.0000e+00 -1.0000e+00
</event>
<event>
 4      1 +2.4041262e-06 9.11880000e+01 7.81860800e-03 1.13011600e-01
       25 -1    0    0    0    0 +0.0000000000e+00 +0.0000000000e+00 +9.9999998245e-15 1.2500000000e+02 1.2500000000e+02 0.0000e+00 0.0000e+00
      -13  1    1    0    0    0 -6.1838577898e+01 -3.4621726932e+00 +8.3784681025e+00 6.2499649983e+01 1.0566000000e-01 0.0000e+00 1.0000e+00
       13  1    1    0    0    0 +6.1838923965e+01 +3.4621929727e+00 -8.3785164751e+00 6.2499999998e+01 1.0566000000e-01 0.0000e+00 1.0000e+00
       22  1    1    0    0    0 -3.4606670135e-04 -2.0279473546e-05 +4.8372595312e-05 3.5001903778e-04 0.0000000000e+00 0.0000e+00 -1.0000e+00
</event>
<event>
 5      1 +2.4041262e-06 9.11880000e+01 7.81860800e-03 1.13011600e-01
       25 -1    0    0    0    0 +0.0000000000e+00 +0.0000000000e+00 +9.9999998245e-15 1.2500000000e+02 1.2500000000e+02 0.0000e+00 0.0000e+00
       23  2    1    0    0    0 -2.3605052121e+01 +1.7004572274e+01 +5.7516182215e+00 9.5344729372e+01 9.0615574506e+01 0.0000e+00 0.0000e+00
      -13  1    2    2    0    0 +1.8854435772e+01 +3.6053475081e+00 -3.1769920542e+01 3.7119096085e+01 1.0566000000e-01 0.0000e+00 1.0000e+00
       13  1    2    2    0    0 -4.2459487893e+01 +1.3399224766e+01 +3.7521538763e+01 5.8225633287e+01 1.0566000000e-01 0.0000e+00 -1.0000e+00
       22  1    1    0    0    0 +2.3605052121e+01 -1.7004572274e+01 -5.7516182215e+00 2.9655270628e+01 0.0000000000e+00 0.0000e+00 -1.0000e+00
</event>
<event>
 5      1 +2.4041262e-06 9.11880000e+01 7.81860800e-03 1.13011600e-01
       25 -1    0    0    0    0 +0.0000000000e+00 +0.0000000000e+00 +9.9999998245e-15 1.2500000000e+02 1.2500000000e+02 0.0000e+00 0.0000e+00
       23  2    1    0    0    0 +7.9642776213e+00 +1.0502926366e+01 +2.6307885860e+01 9.5574738086e+01 9.0932307358e+01 0.0000e+00 0.0000e+00
      -13  1    2    2    0    0 +2.5298536764e+01 -1.0465791793e+00 -2.7795957395e+01 3.7599703481e+01 1.0566000000e-01 0.0000e+00 -1.0000e+00
       13  1    2    2    0    0 -1.7334259143e+01 +1.1549505546e+01 +5.4103843255e+01 5.7975034604e+01 1.0566000000e-01 0.0000e+00 1.0000e+00
       22  1    1    0    0    0 -7.9642776213e+00 -1.0502926366e+01 -2.6307885860e+01 2.9425261914e+01 0.0000000000e+00 0.0000e+00 1.0000e+00
</event>
<event>
 4      1 +2.4041262e-06 9.11880000e+01 7.81860800e-03 1.13011600e-01
       25 -1    0    0    0    0 +0.0000000000e+00 +0.0000000000e+00 +9.9999998245e-15 1.2500000000e+02 1.2500000000e+02 0.0000e+00 0.0000e+00
      -13  1    1    0    0    0 -2.1760463476e+01 -5.3182832051e+01 -2.4582665418e+01 6.2499999990e+01 1.0566000000e-01 0.0000e+00 -1.0000e+00
       13  1    1    0    0    0 +2.1760463490e+01 +5.3182832053e+01 +2.4582665414e+01 6.2499999995e+01 1.0566000000e-01 0.0000e+00 -1.0000e+00
       22  1    1    0    0    0 -1.4253823893e-08 -2.9492350440e-09 +4.3164659567e-09 1.5182271282e-08 0.0000000000e+00 0.0000e+00 -1.0000e+00
</event>
<event>
 4      1 +2.4041262e-06 9.11880000e+01 7.81860800e-03 1.13011600e-01
       25 -1    0    0    0    0 +0.0000000000e+00 +0.0000000000e+00 +9.9999998245e-15 1.2500000000e+02 1.2500000000e+02 0.0000e+00 0.0000e+00
      -13  1    1    0    0    0 +3.0228385525e+01 -1.2272605528e+01 -5.3309161461e+01 6.2499999980e+01 1.0566000000e-01 0.0000e+00 -1.0000e+00
       13  1    1    0    0    0 -3.0228380707e+01 +1.2272604203e+01 +5.3309154457e+01 6.2499991417e+01 1.0566000000e-01 0.0000e+00 -1.0000e+00
       22  1    1    0    0    0 -4.8174762044e-06 +1.3249398860e-06 +7.0035674758e-06 8.6031099069e-06 0.0000000000e+00 0.0000e+00 1.0000e+00
</event>
<event>
 4      1 +2.4041262e-06 9.11880000e+01 7.81860800e-03 1.13011600e-01
       25 -1    0    0    0    0 +0.0000000000e+00 +0.0000000000e+00 +9.9999998245e-15 1.2500000000e+02 1.2500000000e+02 0.0000e+00 0.0000e+00
      -13  1    1    0    0    0 -7.4243382413e+00 -3.3075726355e+01 +5.2508231390e+01 6.2500000000e+01 1.0566000000e-01 0.0000e+00 1.0000e+00
       13  1    1    0    0    0 +7.4243233699e+00 +3.3075660601e+01 -5.2508126841e+01 6.2499875601e+01 1.0566000000e-01 0.0000e+00 1.0000e+00
       22  1    1    0    0    0 +1.4871347637e-05 +6.5753358750e-05 -1.0454901070e-04 1.2439918330e-04 0.0000000000e+00 0.0000e+00 1.0000e+00
</event>
<event>
 4      1 +2.4041262e-06 9.11880000e+01 7.81860800e-03 1.13011600e-01
       25 -1    0    0    0    0 +0.0000000000e+00 +0.0000000000e+00 +9.9999998245e-15 1.2500000000e+02 1.2500000000e+02 0.0000e+00 0.0000e+00
      -13  1    1    0    0    0 +1.1747156228e+01 +5.4390001446e+01 -2.8459987687e+01 6.2499999999e+01 1.0566000000e-01 0.0000e+00 -1.0000e+00
       13  1    1    0    0    0 -1.1747150522e+01 -5.4389974032e+01 +2.8459973690e+01 6.2499968696e+01 1.0566000000e-01 0.0000e+00 -1.0000e+00
       22  1    1    0    0    0 -5.7052565029e-06 -2.7413814527e-05 +1.3996952200e-05 3.1304661787e-05 0.0000000000e+00 0.0000e+00 1.0000e+00
</event>
<event>
 4      1 +2.4041262e-06 9.11880000e+01 7.81860800e-03 1.13011600e-01
       25 -1    0    0    0    0 +0.0000000000e+00 +0.0000000000e+00 +9.9999998245e-15 1.2500000000e+02 1.2500000000e+02 0.0000e+00 0.0000e+00
      -11  1    1    0    0    0 +1.8804229957e+01 +1.3897306793e+01 -9.6958324624e+00 2.5312909113e+01 5.1100000000e-04 0.0000e+00 1.0000e+00
       11  1    1    0    0    0 +2.5056719317e+01 +2.0560514510e+01 -1.8359718743e+01 3.7251217596e+01 5.1100000000e-04 0.0000e+00 -1.0000e+00
       22  1    1    0    0    0 -4.3860949273e+01 -3.4457821303e+01 +2.8055551205e+01 6.2435873291e+01 0.0000000000e+00 0.0000e+00 -1.0000e+00
</event>
<event>
 4      1 +2.4041262e-06 9.11880000e+01 7.81860800e-03 1.13011600e-01
       25 -1    0    0    0    0 +0.0000000000e+00 +0.0000000000e+00 +9.9999998245e-15 1.2500000000e+02 1.2500000000e+02 0.0000e+00 0.0000e+00
      -13  1    1    0    0    0 +1.5214323975e+01 -4.3825561501e+01 -4.1881357415e+01 6.2499718062e+01 1.0566000000e-01 0.0000e+00 1.0000e+00
       13  1    1    0    0    0 -1.5213920482e+01 +4.3824706364e+01 +4.1877919874e+01 6.2496716724e+01 1.0566000000e-01 0.0000e+00 1.0000e+00
       22  1    1    0    0    0 -4.0349310852e-04 +8.5513685160e-04 +3.4375409982e-03 3.5652144168e-03 0.0000000000e+00 0.0000e+00 1.0000e+00
</event>
<event>
 4      1 +2.4041262e-06 9.11880000e+01 7.81860800e-03 1.13011600e-01
       25 -1    0    0    0    0 +0.0000000000e+00 +0.0000000000e+00 +9.9999998245e-15 1.2500000000e+02 1.2500000000e+02 0.0000e+00 0.0000e+00
      -13  1    1    0    0    0 +2.8263607777e+01 +7.9809173840e+00 -5.4712742440e+01 6.2096875253e+01 1.0566000000e-01 0.0000e+00 -1.0000e+00
       13  1    1    0    0    0 -2.8443086542e+01 -8.0242049783e+00 +5.5071173238e+01 6.2499938587e+01 1.0566000000e-01 0.0000e+00 -1.0000e+00
       22  1    1    0    0    0 +1.7947876533e-01 +4.3287594237e-02 -3.5843079745e-01 4.0318615995e-01 0.0000000000e+00 0.0000e+00 1.0000e+00
</event>
<event>
 4      1 +2.4041262e-06 9.11880000e+01 7.81860800e-03 1.13011600e-01
       25 -1    0    0    0    0 +0.0000000000e+00 +0.0000000000e+00 +9.9999998245e-15 1.2500000000e+02 1.2500000000e+02 0.0000e+00 0.0000e+00
      -13  1    1    0    0    0 -1.3087232254e+01 -3.8588051144e+01 -4.7391196406e+01 6.2500000000e+01 1.0566000000e-01 0.0000e+00 1.0000e+00
       13  1    1    0    0    0 +1.3087232250e+01 +3.8588051128e+01 +4.7391196389e+01 6.2499999976e+01 1.0566000000e-01 0.0000e+00 1.0000e+00
       22  1    1    0    0    0 +4.9116237585e-09 +1.5393034512e-08 +1.7576807773e-08 2.3874960334e-08 0.0000000000e+00 0.0000e+00 1.0000e+00
</event>
<event>
 4      1 +2.4041262e-06 9.11880000e+01 7.81860800e-03 1.13011600e-01
       25 -1    0    0    0    0 +0.0000000000e+00 +0.0000000000e+00 +9.9999998245e-15 1.2500000000e+02 1.2500000000e+02 0.0000e+00 0.0000e+00
      -13  1    1    0    0    0 +4.6709177498e+01 +3.6541527981e+01 -1.9728362985e+01 6.2499999998e+01 1.0566000000e-01 0.0000e+00 -1.0000e+00
       13  1    1    0    0    0 -4.6709177421e+01 -3.6541527930e+01 +1.9728362929e+01 6.2499999893e+01 1.0566000000e-01 0.0000e+00 -1.0000e+00
       22  1    1    0    0    0 -7.6968508053e-08 -5.1141896066e-08 +5.6225088763e-08 1.0817072327e-07 0.0000000000e+00 0.0000e+00 1.0000e+00
</event>
<event>
 4      1 +2.4041262e-06 9.11880000e+01 7.81860800e-03 1.13011600e-01
       25 -1    0    0    0    0 +0.0000000000e+00 +0.0000000000e+00 +9.9999998245e-15 1.2500000000e+02 1.2500000000e+02 0.0000e+00 0.0000e+00
      -13  1    1    0    0    0 -1.5615235355e+00 +8.7118743112e-01 -1.4175529238e+00 2.2842818608e+00 1.0566000000e-01 0.0000e+00 1.0000e+00
       13  1    1    0    0    0 -2.7893658558e+01 +3.9547359163e+01 -3.5948694067e+01 6.0285732754e+01 1.0566000000e-01 0.0000e+00 -1.0000e+00
       22  1    1    0    0    0 +2.9455182093e+01 -4.0418546595e+01 +3.7366246991e+01 6.2429985385e+01 0.0000000000e+00 0.0000e+00 -1.0000e+00
</event>
<event>
 4      1 +2.4041262e-06 9.11880000e+01 7.81860800e-03 1.13011600e-01
       25 -1    0    0    0    0 +0.0000000000e+00 +0.0000000000e+00 +9.9999998245e-15 1.2500000000e+02 1.2500000000e+02 0.0000e+00 0.0000e+00
      -13  1    1    0    0    0 +5.4931975285e+01 -1.3746735859e+01 -2.4741745047e+01 6.1795305384e+01 1.0566000000e-01 0.0000e+00 1.0000e+00
       13  1    1    0    0    0 -5.5658334089e+01 +1.3850107965e+01 +2.4757235748e+01 6.2470853444e+01 1.0566000000e-01 0.0000e+00 1.0000e+00
       22  1    1    0    0    0 +7.2635880377e-01 -1.0337210539e-01 -1.5490700924e-02 7.3384117205e-01 0.0000000000e+00 0.0000e+00 -1.0000e+00
</event>
<event>
 5      1 +2.4041262e-06 9.11880000e+01 7.81860800e-03 1.13011600e-01
       25 -1    0    0    0    0 +0.0000000000e+00 +0.0000000000e+00 +9.9999998245e-15 1.2500000000e+02 1.2500000000e+02 0.0000e+00 0.0000e+00
       23  2    1    0    0    0 -4.2076654721e+00 +2.8068761279e+01 -1.8353163747e+00 9.6558336992e+01 9.2274504865e+01 0.0000e+00 0.0000e+00
      -11  1    2    2    0    0 +1.8934570783e+01 +5.2989900986e+01 +1.5526269237e+01 5.8373903535e+01 5.1100000000e-04 0.0000e+00 -1.0000e+00
       11  1    2    2    0    0 -2.3142236255e+01 -2.4921139707e+01 -1.7361585612e+01 3.8184433457e+01 5.1100000000e-04 0.0000e+00 1.0000e+00
       22  1    1    0    0    0 +4.2076654721e+00 -2.8068761279e+01 +1.8353163747e+00 2.8441663008e+01 0.0000000000e+00 0.0000e+00 -1.0000e+00
</event>
<event>
 4      1 +2.4041262e-06 9.11880000e+01 7.81860800e-03 1.13011600e-01
       25 -1    0    0    0    0 +0.0000000000e+00 +0.0000000000e+00 +9.9999998245e-15 1.2500000000e+02 1.2500000000e+02 0.0000e+00 0.0000e+00
      -13  1    1    0    0    0 -3.5395214340e+01 +2.3398434446e+01 -1.2799325352e+01 4.4318639715e+01 1.0566000000e-01 0.0000e+00 1.0000e+00
       13  1    1    0    0    0 -5.1389102059e+00 +1.4910589554e+01 -1.1827197248e+01 1.9713645978e+01 1.0566000000e-01 0.0000e+00 -1.0000e+00
       22  1    1    0    0    0 +4.0534124545e+01 -3.8309024000e+01 +2.4626522600e+01 6.0967714307e+01 0.0000000000e+00 0.0000e+00 1.0000e+00
</event>
<event>
 4      1 +2.4041262e-06 9.11880000e+01 7.81860800e-03 1.13011600e-01
       25 -1    0    0    0    0 +0.0000000000e+00 +0.0000000000e+00 +9.9999998245e-15 1.2500000000e+02 1.2500000000e+02 0.0000e+00 0.0000e+00
      -13  1    1    0    0    0 +1.0903421027e+00 -1.8001305493e-01 -1.2916921886e+01 1.2964539546e+01 1.0566000000e-01 0.0000e+00 -1.0000e+00
       13  1    1    0    0    0 +1.9607598890e+00 +5.4871267740e-01 -4.9500476549e+01 4.9542446523e+01 1.0566000000e-01 0.0000e+00 1.0000e+00
       22  1    1    0    0    0 -3.0511019917e+00 -3.6869962247e-01 +6.2417398435e+01 6.2493013930e+01 0.0000000000e+00 0.0000e+00 1.0000e+00
</event>
<event>
 4      1 +2.4041262e-06 9.11880000e+01 7.81860800e-03 1.13011600e-01
       25 -1    0    0    0    0 +0.0000000000e+00 +0.0000000000e+00 +9.9999998245e-15 1.2500000000e+02 1.2500000000e+02 0.0000e+00 0.0000e+00
      -13  1    1    0    0    0 +4.0280008438e+01 +4.0991979291e+01 +2.4564555214e+01 6.2499999863e+01 1.0566000000e-01 0.0000e+00 -1.0000e+00
       13  1    1    0    0    0 -4.0280008520e+01 -4.0991979377e+01 -2.4564555283e+01 6.2499999999e+01 1.0566000000e-01 0.0000e+00 -1.0000e+00
       22  1    1    0    0    0 +8.2163818359e-08 +8.5706650044e-08 +6.8891671028e-08 1.3726829658e-07 0.0000000000e+00 0.0000e+00 -1.0000e+00
</event>
<event>
 4      1 +2.4041262e-06 9.11880000e+01 7.81860800e-03 1.13011600e-01
       25 -1    0    0    0    0 +0.0000000000e+00 +0.0000000000e+00 +9.9999998245e-15 1.2500000000e+02 1.2500000000e+02 0.0000e+00 0.0000e+00
      -13  1    1    0    0    0 -2.7736871523e+01 -1.1596365272e+01 +3.7693123165e+01 4.8214027288e+01 1.0566000000e-01 0.0000e+00 1.0000e+00
       13  1    1    0    0    0 -3.8533393317e+00 +7.8202651681e+00 +1.3760866417e+01 1.6290407604e+01 1.0566000000e-01 0.0000e+00 -1.0000e+00
       22  1    1    0    0    0 +3.1590210855e+01 +3.7761001035e+00 -5.1453989582e+01 6.0495565108e+01 0.0000000000e+00 0.0000e+00 -1.0000e+00
</event>
<event>
 4      1 +2.4041262e-06 9.11880000e+01 7.81860800e-03 1.13011600e-01
       25 -1    0    0    0    0 +0.0000000000e+00 +0.0000000000e+00 +9.9999998245e-15 1.2500000000e+02 1.2500000000e+02 0.0000e+00 0.0000e+00
      -13  1    1    0    0    0 -7.9010428988e+00 +1.6090294936e+01 -5.9874157602e+01 6.2499999861e+01 1.0566000000e-01 0.0000e+00 1.0000e+00
       13  1    1    0    0    0 +7.9010429290e+00 -1.6090294969e+01 +5.9874157734e+01 6.2500000000e+01 1.0566000000e-01 0.0000e+00 1.0000e+00
       22  1    1    0    0    0 -3.0121073772e-08 +3.3195886709e-08 -1.3223426507e-07 1.3962502225e-07 0.0000000000e+00 0.0000e+00 1.0000e+00
</event>
<event>
 5      1 +2.4041262e-06 9.11880000e+01 7.81860800e-03 1.13011600e-01
       25 -1    0    0    0    0 +0.0000000000e+00 +0.0000000000e+00 +9.9999998245e-15 1.2500000000e+02 1.2500000000e+02 0.0000e+00 0.0000e+00
       23  2    1    0    0    0 +1.5669799111e+01 +1.6506901163e+01 +2.0878875945e+01 9.4113953784e+01 8.8901566049e+01 0.0000e+00 0.0000e+00
      -11  1    2    2    0    0 -5.0879311956e+00 -1.0160656453e+01 +4.8906717084e+01 5.0209490732e+01 5.1100000000e-04 0.0000e+00 -1.0000e+00
       11  1    2    2    0    0 +2.0757730307e+01 +2.6667557615e+01 -2.8027841139e+01 4.3904463051e+01 5.1100000000e-04 0.0000e+00 1.0000e+00
       22  1    1    0    0    0 -1.5669799111e+01 -1.6506901163e+01 -2.0878875945e+01 3.0886046216e+01 0.0000000000e+00 0.0000e+00 -1.0000e+00
</event>
<event>
 4      1 +2.4041262e-06 9.11880000e+01 7.81860800e-03 1.13011600e-01
       25 -1    0    0    0    0 +0.0000000000e+00 +0.0000000000e+00 +9.9999998245e-15 1.2500000000e+02 1.2500000000e+02 0.0000e+00 0.0000e+00
      -13  1    1    0    0    0 +4.9388439573e+01 -2.8716191392e+01 +2.5345634945e+01 6.2499999891e+01 1.0566000000e-01 0.0000e+00 -1.0000e+00
       13  1    1    0    0    0 -4.9388439645e+01 +2.8716191454e+01 -2.5345635001e+01 6.2499999999e+01 1.0566000000e-01 0.0000e+00 -1.0000e+00
       22  1    1    0    0    0 +7.2012047517e-08 -6.1718419758e-08 +5.5630295410e-08 1.0995284486e-07 0.0000000000e+00 0.0000e+00 -1.0000e+00
</event>
<event>
 4      1 +2.4041262e-06 9.11880000e+01 7.81860800e-03 1.13011600e-01
       25 -1    0    0    0    0 +0.0000000000e+00 +0.0000000000e+00 +9.9999998245e-15 1.2500000000e+02 1.2500000000e+02 0.0000e+00 0.0000e+00
      -11  1    1    0    0    0 -3.4859396038e+01 -3.4910661733e+01 -3.3320949729e+01 5.9533330882e+01 5.1100000000e-04 0.0000e+00 1.0000e+00
       11  1    1    0    0    0 -1.9812714151e+00 -1.7327482027e+00 -1.3914750050e+00 2.9772564056e+00 5.1100000000e-04 0.0000e+00 -1.0000e+00
       22  1    1    0    0    0 +3.6840667453e+01 +3.6643409936e+01 +3.4712424734e+01 6.2489412712e+01 0.0000000000e+00 0.0000e+00 1.0000e+00
</event>
<event>
 4      1 +2.4041262e-06 9.11880000e+01 7.81860800e-03 1.13011600e-01
       25 -1    0    0    0    0 +0.0000000000e+00 +0.0000000000e+00 +9.9999998245e-15 1.2500000000e+02 1.2500000000e+02 0.0000e+00 0.0000e+00
      -13  1    1    0    0    0 -3.5722184959e+00 +7.2188556280e+00 -2.6115641962e+00 8.4678245817e+00 1.0566000000e-01 0.0000e+00 1.0000e+00
       13  1    1    0    0    0 -2.1816723172e+01 +4.4771232710e+01 -2.0988520907e+01 5.4045923641e+01 1.0566000000e-01 0.0000e+00 -1.0000e+00
       22  1    1    0    0    0 +2.5388941668e+01 -5.1990088338e+01 +2.3600085103e+01 6.2486251778e+01 0.0000000000e+00 0.0000e+00 -1.0000e+00
</event>
<event>
 4      1 +2.4041262e-06 9.11880000e+01 7.81860800e-03 1.13011600e-01
       25 -1    0    0    0    0 +0.0000000000e+00 +0.0000000000e+00 +9.9999998245e-15 1.2500000000e+02 1.2500000000e+02 0.0000e+00 0.0000e+00
      -13  1    1    0    0    0 -1.3446799442e+01 -1.8182325387e+01 -5.8247412064e+01 6.2483482201e+01 1.0566000000e-01 0.0000e+00 1.0000e+00
       13  1    1    0    0    0 +1.2937685494e+01 +1.6925433253e+01 +5.3712771551e+01 5.7783449088e+01 1.0566000000e-01 0.0000e+00 1.0000e+00
       22  1    1    0    0    0 +5.0911394828e-01 +1.2568921340e+00 +4.5346405126e+00 4.7330687115e+00 0.0000000000e+00 0.0000e+00 1.0000e+00
</event>
<event>
 4      1 +2.4041262e-06 9.11880000e+01 7.81860800e-03 1.13011600e-01
       25 -1    0    0    0    0 +0.0000000000e+00 +0.0000000000e+00 +9.9999998245e-15 1.2500000000e+02 1.2500000000e+02 0.0000e+00 0.0000e+00
      -13  1    1    0    0    0 +3.4740169769e+01 -4.7905760123e+01 +2.0109637887e+01 6.2499999588e+01 1.0566000000e-01 0.0000e+00 -1.0000e+00
       13  1    1    0    0    0 -3.4740159850e+01 +4.7905734828e+01 -2.0109628562e+01 6.2499971686e+01 1.0566000000e-01 0.0000e+00 -1.0000e+00
       22  1    1    0    0    0 -9.9187594113e-06 +2.5295282342e-05 -9.3244482603e-06 2.8725919173e-05 0.0000000000e+00 0.0000e+00 -1.0000e+00
</event>
<event>
 4      1 +2.4041262e-06 9.11880000e+01 7.81860800e-03 1.13011600e-01
       25 -1    0    0    0    0 +0.0000000000e+00 +0.0000000000e+00 +9.9999998245e-15 1.2500000000e+02 1.2500000000e+02 0.0000e+00 0.0000e+00
      -13  1    1    0    0    0 +4.5143774855e+01 +3.6068927563e-01 -4.3222076664e+01 6.2499996640e+01 1.0566000000e-01 0.0000e+00 1.0000e+00
       13  1    1    0    0    0 -4.5143686433e+01 -3.6065385353e-01 +4.3222014756e+01 6.2499889757e+01 1.0566000000e-01 0.0000e+00 1.0000e+00
       22  1    1    0    0    0 -8.8421763768e-05 -3.5422104506e-05 +6.1907485266e-05 1.1360312728e-04 0.0000000000e+00 0.0000e+00 -1.0000e+00
</event>
<event>
 4      1 +2.4041262e-06 9.11880000e+01 7.81860800e-03 1.13011600e-01
       25 -1    0    0    0    0 +0.0000000000e+00 +0.0000000000e+00 +9.9999998245e-15 1.2500000000e+02 1.2500000000e+02 0.0000e+00 0.0000e+00
      -13  1    1    0    0    0 +9.0426708102e+00 +6.1840227516e+01 -5.0517460932e-01 6.2500000000e+01 1.0566000000e-01 0.0000e+00 -1.0000e+00
       13  1    1    0    0    0 -9.0426707894e+00 -6.1840227388e+01 +5.0517460822e-01 6.2499999870e+01 1.0566000000e-01 0.0000e+00 -1.0000e+00
       22  1    1    0    0    0 -2.0838285287e-08 -1.2803228957e-07 +1.1005898401e-09 1.2972167361e-07 0.0000000000e+00 0.0000e+00 -1.0000e+00
</event>
<event>
 4      1 +2.4041262e-06 9.11880000e+01 7.81860800e-03 1.13011600e-01
       25 -1    0    0    0    0 +0.0000000000e+00 +0.0000000000e+00 +9.9999998245e-15 1.2500000000e+02 1.2500000000e+02 0.0000e+00 0.0000e+00
      -13  1    1    0    0    0 -3.1361908509e+01 +3.0365106538e+01 +4.4668546666e+01 6.2457179136e+01 1.0566000000e-01 0.0000e+00 1.0000e+00
       13  1    1    0    0    0 +3.1382734913e+01 -3.0385664984e+01 -4.4699815001e+01 6.2499994498e+01 1.0566000000e-01 0.0000e+00 1.0000e+00
       22  1    1    0    0    0 -2.0826404417e-02 +2.0558446104e-02 +3.1268335197e-02 4.2826365864e-02 0.0000000000e+00 0.0000e+00 -1.0000e+00
</event>
<event>
 4      1 +2.4041262e-06 9.11880000e+01 7.81860800e-03 1.13011600e-01
       25 -1    0    0    0    0 +0.0000000000e+00 +0.0000000000e+00 +9.9999998245e-15 1.2500000000e+02 1.2500000000e+02 0.0000e+00 0.0000e+00
      -13  1    1    0    0    0 +2.6074608689e+01 -3.6380591602e+01 +4.3621129806e+01 6.2499974345e+01 1.0566000000e-01 0.0000e+00 1.0000e+00
       13  1    1    0    0    0 -2.6074616316e+01 +3.6380626301e+01 -4.3621069342e+01 6.2499955525e+01 1.0566000000e-01 0.0000e+00 1.0000e+00
       22  1    1    0    0    0 +7.6266649960e-06 -3.4699525271e-05 -6.0464215617e-05 7.0129483410e-05 0.0000000000e+00 0.0000e+00 -1.0000e+00
</event>
<event>
 4      1 +2.4041262e-06 9.11880000e+01 7.81860800e-03 1.13011600e-01
       25 -1    0    0    0    0 +0.0000000000e+00 +0.0000000000e+00 +9.9999998245e-15 1.2500000000e+02 1.2500000000e+02 0.0000e+00 0.0000e+00
      -13  1    1    0    0    0 -2.4817290872e+01 +4.6853959243e+01 +3.3091500615e+01 6.2500000000e+01 1.0566000000e-01 0.0000e+00 -1.0000e+00
       13  1    1    0    0    0 +2.4817229028e+01 -4.6853842407e+01 -3.3091418376e+01 6.2499844312e+01 1.0566000000e-01 0.0000e+00 -1.0000e+00
       22  1    1    0    0    0 +6.1843421154e-05 -1.1683687399e-04 -8.2239086200e-05 1.5568792877e-04 0.0000000000e+00 0.0000e+00 -1.0000e+00
</event>
<event>
 4      1 +2.4041262e-06 9.11880000e+01 7.81860800e-03 1.13011600e-01
       25 -1    0    0    0    0 +0.0000000000e+00 +0.0000000000e+00 +9.9999998245e-15 1.2500000000e+02 1.2500000000e+02 0.0000e+00 0.0000e+00
      -13  1    1    0    0    0 -7.6246778260e+00 -1.7663088326e+01 -5.9465270818e+01 6.2499999989e+01 1.0566000000e-01 0.0000e+00 1.0000e+00
       13  1    1    0    0    0 +7.6245496847e+00 +1.7662795349e+01 +5.9464261964e+01 6.2498941690e+01 1.0566000000e-01 0.0000e+00 1.0000e+00
       22  1    1    0    0    0 +1.2814133925e-04 +2.9297713865e-04 +1.0088541117e-03 1.0583205683e-03 0.0000000000e+00 0.0000e+00 1.0000e+00
</event>
<event>
 4      1 +2.4041262e-06 9.11880000e+01 7.81860800e-03 1.13011600e-01
       25 -1    0    0    0    0 +0.0000000000e+00 +0.0000000000e+00 +9.9999998245e-15 1.2500000000e+02 1.2500000000e+02 0.0000e+00 0.0000e+00
      -13  1    1    0    0    0 +2.3822461294e+01 -5.6659642076e+01 -1.1331465772e+01 6.2499903863e+01 1.0566000000e-01 0.0000e+00 1.0000e+00
       13  1    1    0    0    0 -2.3822500854e+01 +5.6659727551e+01 +1.1331485246e+01 6.2499999960e+01 1.0566000000e-01 0.0000e+00 1.0000e+00
       22  1    1    0    0    0 +3.9560026765e-05 -8.5474149381e-05 -1.9474109572e-05 9.6177267967e-05 0.0000000000e+00 0.0000e+00 -1.0000e+00
</event>
<event>
 5      1 +2.4041262e-06 9.11880000e+01 7.81860800e-03 1.13011600e-01
       25 -1    0    0    0    0 +0.0000000000e+00 +0.0000000000e+00 +9.9999998245e-15 1.2500000000e+02 1.2500000000e+02 0.0000e+00 0.0000e+00
       23  2    1    0    0    0 +1.5816431226e+01 +2.3630526739e+01 +3.1604431733e+00 9.6389692561e+01 9.2045766553e+01 0.0000e+00 0.0000e+00
      -13  1    2    2    0    0 -2.9385735954e+01 -1.8072537411e+01 -2.7340229567e+00 3.4606706454e+01 1.0566000000e-01 0.0000e+00 1.0000e+00
       13  1    2    2    0    0 +4.5202167180e+01 +4.1703064150e+01 +5.8944661300e+00 6.1782986107e+01 1.0566000000e-01 0.0000e+00 -1.0000e+00
       22  1    1    0    0    0 -1.5816431226e+01 -2.3630526739e+01 -3.1604431733e+00 2.8610307439e+01 0.0000000000e+00 0.0000e+00 -1.0000e+00
</event>
<event>
 5      1 +2.4041262e-06 9.11880000e+01 7.81860800e-03 1.13011600e-01
       25 -1    0    0    0    0 +0.0000000000e+00 +0.0000000000e+00 +9.9999998245e-15 1.2500000000e+02 1.2500000000e+02 0.0000e+00 0.0000e+00
       23  2    1    0    0    0 +2.1508185619e+01 -1.3655486631e+01 -1.2320463577e+01 9.6700385400e+01 9.2466731045e+01 0.0000e+00 0.0000e+00
      -11  1    2    2    0    0 +1.2027109249e+01 +3.9306040610e+01 +1.5625806454e+00 4.1134630713e+01 5.1100000000e-04 0.0000e+00 1.0000e+00
       11  1    2    2    0    0 +9.4810763696e+00 -5.2961527241e+01 -1.3883044223e+01 5.5565754688e+01 5.1100000000e-04 0.0000e+00 -1.0000e+00
       22  1    1    0    0    0 -2.1508185619e+01 +1.3655486631e+01 +1.2320463577e+01 2.8299614600e+01 0.0000000000e+00 0.0000e+00 -1.0000e+00
</event>
<event>
 4      1 +2.4041262e-06 9.11880000e+01 7.81860800e-03 1.13011600e-01
       25 -1    0    0    0    0 +0.0000000000e+00 +0.0000000000e+00 +9.9999998245e-15 1.2500000000e+02 1.2500000000e+02 0.0000e+00 0.0000e+00
      -11  1    1    0    0    0 -4.0673129984e+01 +1.4382115705e+01 +6.2568744980e-01 4.3145570340e+01 5.1100000000e-04 0.0000e+00 -1.0000e+00
       11  1    1    0    0    0 -1.8245622708e+01 +6.4506072013e+00 +2.8437871408e-01 1.9354429797e+01 5.1100000000e-04 0.0000e+00 1.0000e+00
       22  1    1    0    0    0 +5.8918752692e+01 -2.0832722906e+01 -9.1006616388e-01 6.2499999863e+01 0.0000000000e+00 0.0000e+00 -1.0000e+00
</event>
<event>
 5      1 +2.4041262e-06 9.11880000e+01 7.81860800e-03 1.13011600e-01
       25 -1    0    0    0    0 +0.0000000000e+00 +0.0000000000e+00 +9.9999998245e-15 1.2500000000e+02 1.2500000000e+02 0.0000e+00 0.0000e+00
       23  2    1    0    0    0 +3.4399841222e+01 +8.3350791181e+00 +1.7926641744e+01 8.5323973180e+01 7.5538025490e+01 0.0000e+00 0.0000e+00
      -13  1    2    2    0    0 +2.0897875271e+01 -3.0541487426e+01 +2.3433861679e+01 4.3802519132e+01 1.0566000000e-01 0.0000e+00 1.0000e+00
       13  1    2    2    0    0 +1.3501965951e+01 +3.8876566544e+01 -5.5072199349e+00 4.1521454048e+01 1.0566000000e-01 0.0000e+00 -1.0000e+00
       22  1    1    0    0    0 -3.4399841222e+01 -8.3350791181e+00 -1.7926641744e+01 3.9676026820e+01 0.0000000000e+00 0.0000e+00 1.0000e+00
</event>
<event>
 4      1 +2.4041262e-06 9.11880000e+01 7.81860800e-03 1.13011600e-01
       25 -1    0    0    0    0 +0.0000000000e+00 +0.0000000000e+00 +9.9999998245e-15 1.2500000000e+02 1.2500000000e+02 0.0000e+00 0.0000e+00
      -13  1    1    0    0    0 +3.1294640935e+01 +2.4977783877e+01 -3.3677042427e+00 4.0182046171e+01 1.0566000000e-01 0.0000e+00 -1.0000e+00
       13  1    1    0    0    0 -4.8941975001e+01 -3.8494702701e+01 +5.3742208503e+00 6.2498419715e+01 1.0566000000e-01 0.0000e+00 -1.0000e+00
       22  1    1    0    0    0 +1.7647334067e+01 +1.3516918825e+01 -2.0065166077e+00 2.2319534114e+01 0.0000000000e+00 0.0000e+00 -1.0000e+00
</event>
<event>
 4      1 +2.4041262e-06 9.11880000e+01 7.81860800e-03 1.13011600e-01
       25 -1    0    0    0    0 +0.0000000000e+00 +0.0000000000e+00 +9.9999998245e-15 1.2500000000e+02 1.2500000000e+02 0.0000e+00 0.0000e+00
      -13  1    1    0    0    0 +1.7830610889e+01 -5.7904266884e+01 -1.0333429408e+01 6.1462392854e+01 1.0566000000e-01 0.0000e+00 -1.0000e+00
       13  1    1    0    0    0 -1.8123788871e+01 +5.8897925876e+01 +9.8957246530e+00 6.2412930759e+01 1.0566000000e-01 0.0000e+00 -1.0000e+00
       22  1    1    0    0    0 +2.9317798264e-01 -9.9365899193e-01 +4.3770475510e-01 1.1246763865e+00 0.0000000000e+00 0.0000e+00 1.0000e+00
</event>
<event>
 4      1 +2.4041262e-06 9.11880000e+01 7.81860800e-03 1.13011600e-01
       25 -1    0    0    0    0 +0.0000000000e+00 +0.0000000000e+00 +9.9999998245e-15 1.2500000000e+02 1.2500000000e+02 0.0000e+00 0.0000e+00
      -13  1    1    0    0    0 -2.9427936413e+01 -1.2999805498e+00 +1.0167306396e+01 3.1162135266e+01 1.0566000000e-01 0.0000e+00 1.0000e+00
       13  1    1    0    0    0 -2.9549929697e+01 -8.9279932259e-01 +1.0397940446e+01 3.1338853924e+01 1.0566000000e-01 0.0000e+00 -1.0000e+00
       22  1    1    0    0    0 +5.8977866110e+01 +2.1927798724e+00 -2.0565246842e+01 6.2499010809e+01 0.0000000000e+00 0.0000e+00 1.0000e+00
</event>
<event>
 4      1 +2.4041262e-06 9.11880000e+01 7.81860800e-03 1.13011600e-01
       25 -1    0    0    0    0 +0.0000000000e+00 +0.0000000000e+00 +9.9999998245e-15 1.2500000000e+02 1.2500000000e+02 0.0000e+00 0.0000e+00
      -13  1    1    0    0    0 +2.8971530739e+01 -5.2786829358e+01 +1.6704708110e+01 6.2488858079e+01 1.0566000000e-01 0.0000e+00 1.0000e+00
       13  1    1    0    0    0 -2.8973401617e+01 +5.2793074520e+01 -1.6716073085e+01 6.2498039825e+01 1.0566000000e-01 0.0000e+00 1.0000e+00
       22  1    1    0    0    0 +1.8708785931e-03 -6.2451626089e-03 +1.1364975296e-02 1.3102095489e-02 0.0000000000e+00 0.0000e+00 1.0000e+00
</event>
<event>
 4      1 +2.4041262e-06 9.11880000e+01 7.81860800e-03 1.13011600e-01
       25 -1    0    0    0    0 +0.0000000000e+00 +0.0000000000e+00 +9.9999998245e-15 1.2500000000e+02 1.2500000000e+02 0.0000e+00 0.0000e+00
      -13  1    1    0    0    0 -4.1744496867e+01 -1.3661846283e+01 -4.4283612035e+01 6.2372257627e+01 1.0566000000e-01 0.0000e+00 1.0000e+00
       13  1    1    0    0    0 +4.1828273887e+01 +1.3690625165e+01 +4.4375666569e+01 6.2499989290e+01 1.0566000000e-01 0.0000e+00 1.0000e+00
       22  1    1    0    0    0 -8.3777019343e-02 -2.8778881849e-02 -9.2054534061e-02 1.2775308314e-01 0.0000000000e+00 0.0000e+00 -1.0000e+00
</event>
<event>
 5      1 +2.4041262e-06 9.11880000e+01 7.81860800e-03 1.13011600e-01
       25 -1    0    0    0    0 +0.0000000000e+00 +0.0000000000e+00 +9.9999998245e-15 1.2500000000e+02 1.2500000000e+02 0.0000e+00 0.0000e+00
       23  2    1    0    0    0 +1.7108414350e+01 +1.5370294910e+01 -1.9101611909e+01 9.5103254613e+01 9.0281856723e+01 0.0000e+00 0.0000e+00
      -11  1    2    2    0    0 -3.6131679850e+01 +1.6466651585e+01 -1.1298280623e+01 4.1283169071e+01 5.1100000000e-04 0.0000e+00 -1.0000e+00
       11  1    2    2    0    0 +5.3240094200e+01 -1.0963566746e+00 -7.8033312868e+00 5.3820085543e+01 5.1100000000e-04 0.0000e+00 1.0000e+00
       22  1    1    0    0    0 -1.7108414350e+01 -1.5370294910e+01 +1.9101611909e+01 2.9896745387e+01 0.0000000000e+00 0.0000e+00 1.0000e+00
</event>
<event>
 4      1 +2.4041262e-06 9.11880000e+01 7.81860800e-03 1.13011600e-01
       25 -1    0    0    0    0 +0.0000000000e+00 +0.0000000000e+00 +9.9999998245e-15 1.2500000000e+02 1.2500000000e+02 0.0000e+00 0.0000e+00
      -11  1    1    0    0    0 +1.1951986029e+01 +4.7486883124e+00 +5.2597271176e+00 1.3894773850e+01 5.1100000000e-04 0.0000e+00 -1.0000e+00
       11  1    1    0    0    0 +4.1937407255e+01 +1.6348211357e+01 +1.8343057023e+01 4.8605327723e+01 5.1100000000e-04 0.0000e+00 1.0000e+00
       22  1    1    0    0    0 -5.3889393284e+01 -2.1096899669e+01 -2.3602784141e+01 6.2499898427e+01 0.0000000000e+00 0.0000e+00 1.0000e+00
</event>
<event>
 5      1 +2.4041262e-06 9.11880000e+01 7.81860800e-03 1.13011600e-01
       25 -1    0    0    0    0 +0.0000000000e+00 +0.0000000000e+00 +9.9999998245e-15 1.2500000000e+02 1.2500000000e+02 0.0000e+00 0.0000e+00
       23  2    1    0    0    0 +2.6083536492e+01 +2.9953108777e+00 -1.3275230442e+01 9.5579692277e+01 9.0939117377e+01 0.0000e+00 0.0000e+00
      -11  1    2    2    0    0 -7.1701479241e+00 -3.7377511753e+01 +8.3779167635e+00 3.8970230890e+01 5.1100000000e-04 0.0000e+00 1.0000e+00
       11  1    2    2    0    0 +3.3253684416e+01 +4.0372822630e+01 -2.1653147205e+01 5.6609461387e+01 5.1100000000e-04 0.0000e+00 -1.0000e+00
       22  1    1    0    0    0 -2.6083536492e+01 -2.9953108777e+00 +1.3275230442e+01 2.9420307723e+01 0.0000000000e+00 0.0000e+00 -1.0000e+00
</event>
<event>
 4      1 +2.4041262e-06 9.11880000e+01 7.81860800e-03 1.13011600e-01
       25 -1    0    0    0    0 +0.0000000000e+00 +0.0000000000e+00 +9.9999998245e-15 1.2500000000e+02 1.2500000000e+02 0.0000e+00 0.0000e+00
      -13  1    1    0    0    0 +3.3178017510e+01 -1.9557073969e+01 +1.5620232401e+01 4.1560351447e+01 1.0566000000e-01 0.0000e+00 -1.0000e+00
       13  1    1    0    0    0 -4.8928776512e+01 +2.9618822052e+01 -2.5125974599e+01 6.2470997705e+01 1.0566000000e-01 0.0000e+00 -1.0000e+00
       22  1    1    0    0    0 +1.5750759002e+01 -1.0061748084e+01 +9.5057421981e+00 2.0968650848e+01 0.0000000000e+00 0.0000e+00 1.0000e+00
</event>
<event>
 5      1 +2.4041262e-06 9.11880000e+01 7.81860800e-03 1.13011600e-01
       25 -1    0    0    0    0 +0.0000000000e+00 +0.0000000000e+00 +9.9999998245e-15 1.2500000000e+02 1.2500000000e+02 0.0000e+00 0.0000e+00
       23  2    1    0    0    0 +1.5377710310e+01 -1.4495237238e+01 -2.1200226731e+01 9.5066148086e+01 9.0230466149e+01 0.0000e+00 0.0000e+00
      -13  1    2    2    0    0 +2.8892469005e+01 -4.5679302443e+01 -2.7273186655e+01 6.0540988687e+01 1.0566000000e-01 0.0000e+00 1.0000e+00
       13  1    2    2    0    0 -1.3514758694e+01 +3.1184065204e+01 +6.0729599244e+00 3.4525159399e+01 1.0566000000e-01 0.0000e+00 -1.0000e+00
       22  1    1    0    0    0 -1.5377710310e+01 +1.4495237238e+01 +2.1200226731e+01 2.9933851914e+01 0.0000000000e+00 0.0000e+00 1.0000e+00
</event>
<event>
 4      1 +2.4041262e-06 9.11880000e+01 7.81860800e-03 1.13011600e-01
       25 -1    0    0    0    0 +0.0000000000e+00 +0.0000000000e+00 +9.9999998245e-15 1.2500000000e+02 1.2500000000e+02 0.0000e+00 0.0000e+00
      -13  1    1    0    0    0 -5.6675108820e+01 +2.3588693360e+01 +1.1736431610e+01 6.2499995241e+01 1.0566000000e-01 0.0000e+00 1.0000e+00
       13  1    1    0    0    0 +5.6675113100e+01 -2.3588695200e+01 -1.1736432582e+01 6.2500000000e+01 1.0566000000e-01 0.0000e+00 1.0000e+00
       22  1    1    0    0    0 -4.2804037808e-06 +1.8403880129e-06 +9.7225249959e-07 4.7596385880e-06 0.0000000000e+00 0.0000e+00 1.0000e+00
</event>
<event>
 4      1 +2.4041262e-06 9.11880000e+01 7.81860800e-03 1.13011600e-01
       25 -1    0    0    0    0 +0.0000000000e+00 +0.0000000000e+00 +9.9999998245e-15 1.2500000000e+02 1.2500000000e+02 0.0000e+00 0.0000e+00
      -11  1    1    0    0    0 -2.4589027362e+00 +8.4784472283e-01 -9.4583178713e-01 2.7676057109e+00 5.1100000000e-04 0.0000e+00 1.0000e+00
       11  1    1    0    0    0 -3.1114636612e+01 +7.0794137259e+00 -5.0830533008e+01 6.0016512697e+01 5.1100000000e-04 0.0000e+00 -1.0000e+00
       22  1    1    0    0    0 +3.3573539349e+01 -7.9272584487e+00 +5.1776364795e+01 6.2215881592e+01 0.0000000000e+00 0.0000e+00 -1.0000e+00
</event>
<event>
 4      1 +2.4041262e-06 9.11880000e+01 7.81860800e-03 1.13011600e-01
       25 -1    0    0    0    0 +0.0000000000e+00 +0.0000000000e+00 +9.9999998245e-15 1.2500000000e+02 1.2500000000e+02 0.0000e+00 0.0000e+00
      -13  1    1    0    0    0 -1.8299012247e+01 +4.2785315441e+01 +3.6146590320e+01 5.8923884991e+01 1.0566000000e-01 0.0000e+00 -1.0000e+00
       13  1    1    0    0    0 +1.8904028339e+01 -4.5724691692e+01 -3.8140986228e+01 6.2472839797e+01 1.0566000000e-01 0.0000e+00 -1.0000e+00
       22  1    1    0    0    0 -6.0501609167e-01 +2.9393762513e+00 +1.9943959084e+00 3.6032752125e+00 0.0000000000e+00 0.0000e+00 -1.0000e+00
</event>
<event>
 4      1 +2.4041262e-06 9.11880000e+01 7.81860800e-03 1.13011600e-01
       25 -1    0    0    0    0 +0.0000000000e+00 +0.0000000000e+00 +9.9999998245e-15 1.2500000000e+02 1.2500000000e+02 0.0000e+00 0.0000e+00
      -13  1    1    0    0    0 -4.2778227408e+01 +3.6421130982e+01 -2.7381806256e+01 6.2500000000e+01 1.0566000000e-01 0.0000e+00 -1.0000e+00
       13  1    1    0    0    0 +4.2778227311e+01 -3.6421130903e+01 +2.7381806195e+01 6.2499999861e+01 1.0566000000e-01 0.0000e+00 -1.0000e+00
       22  1    1    0    0    0 +9.6710684267e-08 -7.9121290082e-08 +6.0545853465e-08 1.3884860593e-07 0.0000000000e+00 0.0000e+00 -1.0000e+00
</event>
<event>
 4      1 +2.4041262e-06 9.11880000e+01 7.81860800e-03 1.13011600e-01
       25 -1    0    0    0    0 +0.0000000000e+00 +0.0000000000e+00 +9.9999998245e-15 1.2500000000e+02 1.2500000000e+02 0.0000e+00 0.0000e+00
      -13  1    1    0    0    0 -3.6880859278e+01 +1.4498550143e+01 -4.8207149115e+01 6.2404696355e+01 1.0566000000e-01 0.0000e+00 -1.0000e+00
       13  1    1    0    0    0 +3.6934675769e+01 -1.4493940497e+01 +4.8288110177e+01 6.2497978638e+01 1.0566000000e-01 0.0000e+00 -1.0000e+00
       22  1    1    0    0    0 -5.3816490931e-02 -4.6096454521e-03 -8.0961061946e-02 9.7325007469e-02 0.0000000000e+00 0.0000e+00 1.0000e+00
</event>
<event>
 5      1 +2.4041262e-06 9.11880000e+01 7.81860800e-03 1.13011600e-01
       25 -1    0    0    0    0 +0.0000000000e+00 +0.0000000000e+00 +9.9999998245e-15 1.2500000000e+02 1.2500000000e+02 0.0000e+00 0.0000e+00
       23  2    1    0    0    0 +2.3046115264e+01 +1.0417963839e+01 -1.0707965356e+01 9.7535151168e+01 9.3588395605e+01 0.0000e+00 0.0000e+00
      -11  1    2    2    0    0 -1.0329045063e+01 +4.2089616073e+01 +1.3698452309e+01 4.5451870687e+01 5.1100000000e-04 0.0000e+00 1.0000e+00
       11  1    2    2    0    0 +3.3375160327e+01 -3.1671652234e+01 -2.4406417665e+01 5.2083280480e+01 5.1100000000e-04 0.0000e+00 -1.0000e+00
       22  1    1    0    0    0 -2.3046115264e+01 -1.0417963839e+01 +1.0707965356e+01 2.7464848832e+01 0.0000000000e+00 0.0000e+00 -1.0000e+00
</event>
<event>
 4      1 +2.4041262e-06 9.11880000e+01 7.81860800e-03 1.13011600e-01
       25 -1    0    0    0    0 +0.0000000000e+00 +0.0000000000e+00 +9.9999998245e-15 1.2500000000e+02 1.2500000000e+02 0.0000e+00 0.0000e+00
      -13  1    1    0    0    0 +5.3639194772e+01 +3.0996800596e+01 -8.2627403343e+00 6.2499991239e+01 1.0566000000e-01 0.0000e+00 1.0000e+00
       13  1    1    0    0    0 -5.3636821029e+01 -3.0995662200e+01 +8.2621572211e+00 6.2497312353e+01 1.0566000000e-01 0.0000e+00 1.0000e+00
       22  1    1    0    0    0 -2.3737423279e-03 -1.1383963752e-03 +5.8311317643e-04 2.6964087084e-03 0.0000000000e+00 0.0000e+00 1.0000e+00
</event>
<event>
 4      1 +2.4041262e-06 9.11880000e+01 7.81860800e-03 1.13011600e-01
       25 -1    0    0    0    0 +0.0000000000e+00 +0.0000000000e+00 +9.9999998245e-15 1.2500000000e+02 1.2500000000e+02 0.0000e+00 0.0000e+00
      -13  1    1    0    0    0 -5.5688559927e+01 -2.2043345914e+01 -1.7852545627e+01 6.2496794759e+01 1.0566000000e-01 0.0000e+00 -1.0000e+00
       13  1    1    0    0    0 +4.8131146738e+01 +1.9153945027e+01 +1.5742758533e+01 5.4141726115e+01 1.0566000000e-01 0.0000e+00 -1.0000e+00
       22  1    1    0    0    0 +7.5574131885e+00 +2.8894008871e+00 +2.1097870940e+00 8.3614791257e+00 0.0000000000e+00 0.0000e+00 1.0000e+00
</event>
<event>
 4      1 +2.4041262e-06 9.11880000e+01 7.81860800e-03 1.13011600e-01
       25 -1    0    0    0    0 +0.0000000000e+00 +0.0000000000e+00 +9.9999998245e-15 1.2500000000e+02 1.2500000000e+02 0.0000e+00 0.0000e+00
      -13  1    1    0    0    0 +3.8466482872e+01 +4.7491189561e+01 +8.1001051547e-01 6.1120787557e+01 1.0566000000e-01 0.0000e+00 -1.0000e+00
       13  1    1    0    0    0 -3.7729098638e+01 -4.5315344855e+01 +3.4206345553e+00 5.9065025761e+01 1.0566000000e-01 0.0000e+00 -1.0000e+00
       22  1    1    0    0    0 -7.3738423437e-01 -2.1758447065e+00 -4.2306450708e+00 4.8141866822e+00 0.0000000000e+00 0.0000e+00 -1.0000e+00
</event>
<event>
 4      1 +2.4041262e-06 9.11880000e+01 7.81860800e-03 1.13011600e-01
       25 -1    0    0    0    0 +0.0000000000e+00 +0.0000000000e+00 +9.9999998245e-15 1.2500000000e+02 1.2500000000e+02 0.0000e+00 0.0000e+00
      -11  1    1    0    0    0 +2.5734716630e-01 -1.0834168293e+00 +1.1435330271e+00 1.5961477486e+00 5.1100000000e-04 0.0000e+00 -1.0000e+00
       11  1    1    0    0    0 -3.0438879273e+01 -5.3185370407e+01 -1.7299567864e+00 6.1304173981e+01 5.1100000000e-04 0.0000e+00 1.0000e+00
       22  1    1    0    0    0 +3.0181532107e+01 +5.4268787236e+01 +5.8642375934e-01 6.2099678270e+01 0.0000000000e+00 0.0000e+00 1.0000e+00
</event>
<event>
 5      1 +2.4041262e-06 9.11880000e+01 7.81860800e-03 1.13011600e-01
       25 -1    0    0    0    0 +0.0000000000e+00 +0.0000000000e+00 +9.9999998245e-15 1.2500000000e+02 1.2500000000e+02 0.0000e+00 0.0000e+00
       23  2    1    0    0    0 -2.9029899666e+01 +5.8807697417e+00 +5.9180493928e+00 9.4795003129e+01 8.9854052676e+01 0.0000e+00 0.0000e+00
      -13  1    2    2    0    0 +8.0451595719e+00 -2.4818195073e+01 -2.6163294638e+01 3.6948566272e+01 1.0566000000e-01 0.0000e+00 1.0000e+00
       13  1    2    2    0    0 -3.7075059238e+01 +3.0698964814e+01 +3.2081344031e+01 5.7846436857e+01 1.0566000000e-01 0.0000e+00 -1.0000e+00
       22  1    1    0    0    0 +2.9029899666e+01 -5.8807697417e+00 -5.9180493928e+00 3.0204996871e+01 0.0000000000e+00 0.0000e+00 -1.0000e+00
</event>
<event>
 5      1 +2.4041262e-06 9.11880000e+01 7.81860800e-03 1.13011600e-01
       25 -1    0    0    0    0 +0.0000000000e+00 +0.0000000000e+00 +9.9999998245e-15 1.2500000000e+02 1.2500000000e+02 0.0000e+00 0.0000e+00
       23  2    1    0    0    0 -1.7275474879e+01 +5.0380047919e+00 +2.0023115295e+01 9.8078843437e+01 9.4311774765e+01 0.0000e+00 0.0000e+00
      -13  1    2    2    0    0 -3.1155082656e+01 +3.9937270928e+01 -7.9180871698e+00 5.1267261024e+01 1.0566000000e-01 0.0000e+00 1.0000e+00
       13  1    2    2    0    0 +1.3879607777e+01 -3.4899266136e+01 +2.7941202465e+01 4.6811582413e+01 1.0566000000e-01 0.0000e+00 1.0000e+00
       22  1    1    0    0    0 +1.7275474879e+01 -5.0380047919e+00 -2.0023115295e+01 2.6921156563e+01 0.0000000000e+00 0.0000e+00 1.0000e+00
</event>
<event>
 5      1 +2.4041262e-06 9.11880000e+01 7.81860800e-03 1.13011600e-01
       25 -1    0    0    0    0 +0.0000000000e+00 +0.0000000000e+00 +9.9999998245e-15 1.2500000000e+02 1.2500000000e+02 0.0000e+00 0.0000e+00
       23  2    1    0    0    0 +6.4420857954e+00 +5.4261483277e-01 +2.6821297210e+01 9.7410565713e+01 9.3421846632e+01 0.0000e+00 0.0000e+00
      -11  1    2    2    0    0 -4.2703058130e+01 -2.0827791391e+00 +3.3496776964e+00 4.2884839786e+01 5.1100000000e-04 0.0000e+00 1.0000e+00
       11  1    2    2    0    0 +4.9145143925e+01 +2.6253939719e+00 +2.3471619514e+01 5.4525725926e+01 5.1100000000e-04 0.0000e+00 -1.0000e+00
       22  1    1    0    0    0 -6.4420857954e+00 -5.4261483277e-01 -2.6821297210e+01 2.7589434287e+01 0.0000000000e+00 0.0000e+00 1.0000e+00
</event>
<event>
 4      1 +2.4041262e-06 9.11880000e+01 7.81860800e-03 1.13011600e-01
       25 -1    0    0    0    0 +0.0000000000e+00 +0.0000000000e+00 +9.9999998245e-15 1.2500000000e+02 1.2500000000e+02 0.0000e+00 0.0000e+00
      -13  1    1    0    0    0 +3.7343514337e+01 -2.7000946722e+01 +7.1400590019e+00 4.6632400683e+01 1.0566000000e-01 0.0000e+00 -1.0000e+00
       13  1    1    0    0    0 -4.9752844690e+01 +3.6584714590e+01 -9.5962655423e+00 6.2497090915e+01 1.0566000000e-01 0.0000e+00 -1.0000e+00
       22  1    1    0    0    0 +1.2409330353e+01 -9.5837678685e+00 +2.4562065404e+00 1.5870508402e+01 0.0000000000e+00 0.0000e+00 -1.0000e+00
</event>
<event>
 4      1 +2.4041262e-06 9.11880000e+01 7.81860800e-03 1.13011600e-01
       25 -1    0    0    0    0 +0.0000000000e+00 +0.0000000000e+00 +9.9999998245e-15 1.2500000000e+02 1.2500000000e+02 0.0000e+00 0.0000e+00
      -13  1    1    0    0    0 +2.6229213277e+01 +1.4935934618e+00 +5.6710108318e+01 6.2500000000e+01 1.0566000000e-01 0.0000e+00 1.0000e+00
       13  1    1    0    0    0 -2.6229205025e+01 -1.4935929578e+00 -5.6710090534e+01 6.2499980389e+01 1.0566000000e-01 0.0000e+00 1.0000e+00
       22  1    1    0    0    0 -8.2515413158e-06 -5.0406537450e-07 -1.7783275139e-05 1.9610887044e-05 0.0000000000e+00 0.0000e+00 -1.0000e+00
</event>
<event>
 4      1 +2.4041262e-06 9.11880000e+01 7.81860800e-03 1.13011600e-01
       25 -1    0    0    0    0 +0.0000000000e+00 +0.0000000000e+00 +9.9999998245e-15 1.2500000000e+02 1.2500000000e+02 0.0000e+00 0.0000e+00
      -11  1    1    0    0    0 -2.0966155344e+01 -4.1077110042e+01 -3.0193936023e+01 5.5123338180e+01 5.1100000000e-04 0.0000e+00 -1.0000e+00
       11  1    1    0    0    0 -2.8038597757e+00 -5.4918656221e+00 -4.0488226468e+00 7.3766647435e+00 5.1100000000e-04 0.0000e+00 1.0000e+00
       22  1    1    0    0    0 +2.3770015120e+01 +4.6568975664e+01 +3.4242758670e+01 6.2499997076e+01 0.0000000000e+00 0.0000e+00 -1.0000e+00
</event>
<event>
 4      1 +2.4041262e-06 9.11880000e+01 7.81860800e-03 1.13011600e-01
       25 -1    0    0    0    0 +0.0000000000e+00 +0.0000000000e+00 +9.9999998245e-15 1.2500000000e+02 1.2500000000e+02 0.0000e+00 0.0000e+00
      -13  1    1    0    0    0 +5.9101815099e+01 +1.3860333567e+01 -1.4811835878e+01 6.2486278819e+01 1.0566000000e-01 0.0000e+00 -1.0000e+00
       13  1    1    0    0    0 -5.9114584222e+01 -1.3865837995e+01 +1.4812723805e+01 6.2499787852e+01 1.0566000000e-01 0.0000e+00 -1.0000e+00
       22  1    1    0    0    0 +1.2769123212e-02 +5.5044278575e-03 -8.8792628749e-04 1.3933328630e-02 0.0000000000e+00 0.0000e+00 1.0000e+00
</event>
<event>
 4      1 +2.4041262e-06 9.11880000e+01 7.81860800e-03 1.13011600e-01
       25 -1    0    0    0    0 +0.0000000000e+00 +0.0000000000e+00 +9.9999998245e-15 1.2500000000e+02 1.2500000000e+02 0.0000e+00 0.0000e+00
      -11  1    1    0    0    0 +1.6255971313e+00 +1.3364430696e+01 -8.3317386589e+00 1.5832512220e+01 5.1100000000e-04 0.0000e+00 -1.0000e+00
       11  1    1    0    0    0 -1.9572557075e+01 -1.8174470106e+01 +5.3791254062e+01 6.0057433911e+01 5.1100000000e-04 0.0000e+00 1.0000e+00
       22  1    1    0    0    0 +1.7946959943e+01 +4.8100394103e+00 -4.5459515403e+01 4.9110053869e+01 0.0000000000e+00 0.0000e+00 1.0000e+00
</event>
<event>
 4      1 +2.4041262e-06 9.11880000e+01 7.81860800e-03 1.13011600e-01
       25 -1    0    0    0    0 +0.0000000000e+00 +0.0000000000e+00 +9.9999998245e-15 1.2500000000e+02 1.2500000000e+02 0.0000e+00 0.0000e+00
      -13  1    1    0    0    0 -4.1599133944e+01 +3.5357446250e+01 -3.0031773817e+01 6.2310156097e+01 1.0566000000e-01 0.0000e+00 1.0000e+00
       13  1    1    0    0    0 +4.1380442684e+01 -3.5152481642e+01 +3.0390456093e+01 6.2222415478e+01 1.0566000000e-01 0.0000e+00 1.0000e+00
       22  1    1    0    0    0 +2.1869125948e-01 -2.0496460789e-01 -3.5868227547e-01 4.6742842468e-01 0.0000000000e+00 0.0000e+00 1.0000e+00
</event>
<event>
 5      1 +2.4041262e-06 9.11880000e+01 7.81860800e-03 1.13011600e-01
       25 -1    0    0    0    0 +0.0000000000e+00 +0.0000000000e+00 +9.9999998245e-15 1.2500000000e+02 1.2500000000e+02 0.0000e+00 0.0000e+00
       23  2    1    0    0    0 +2.0315496716e+00 +2.3619908757e+01 +1.7907465455e+01 9.5289654954e+01 9.0539570015e+01 0.0000e+00 0.0000e+00
      -13  1    2    2    0    0 +9.1664268579e+00 +4.9871343976e+01 -1.4728369612e+01 5.2802560230e+01 1.0566000000e-01 0.0000e+00 1.0000e+00
       13  1    2    2    0    0 -7.1348771862e+00 -2.6251435220e+01 +3.2635835067e+01 4.2487094724e+01 1.0566000000e-01 0.0000e+00 -1.0000e+00
       22  1    1    0    0    0 -2.0315496716e+00 -2.3619908757e+01 -1.7907465455e+01 2.9710345046e+01 0.0000000000e+00 0.0000e+00 1.0000e+00
</event>
<event>
 4      1 +2.4041262e-06 9.11880000e+01 7.81860800e-03 1.13011600e-01
       25 -1    0    0    0    0 +0.0000000000e+00 +0.0000000000e+00 +9.9999998245e-15 1.2500000000e+02 1.2500000000e+02 0.0000e+00 0.0000e+00
      -13  1    1    0    0    0 +5.3118898544e+01 +4.1447151423e-01 -3.2930965891e+01 6.2499990782e+01 1.0566000000e-01 0.0000e+00 -1.0000e+00
       13  1    1    0    0    0 -5.3118906548e+01 -4.1447156879e-01 +3.2930970470e+01 6.2499999997e+01 1.0566000000e-01 0.0000e+00 -1.0000e+00
       22  1    1    0    0    0 +8.0039911299e-06 +5.4561091315e-08 -4.5788353877e-06 9.2213114266e-06 0.0000000000e+00 0.0000e+00 1.0000e+00
</event>
<event>
 4      1 +2.4041262e-06 9.11880000e+01 7.81860800e-03 1.13011600e-01
       25 -1    0    0    0    0 +0.0000000000e+00 +0.0000000000e+00 +9.9999998245e-15 1.2500000000e+02 1.2500000000e+02 0.0000e+00 0.0000e+00
      -13  1    1    0    0    0 +2.0151215065e+01 -2.8817190149e+01 +5.1669496990e+01 6.2500000000e+01 1.0566000000e-01 0.0000e+00 1.0000e+00
       13  1    1    0    0    0 -2.0151210967e+01 +2.8817184163e+01 -5.1669486087e+01 6.2499986904e+01 1.0566000000e-01 0.0000e+00 1.0000e+00
       22  1    1    0    0    0 -4.0985232467e-06 +5.9859350176e-06 -1.0903116904e-05 1.3096078385e-05 0.0000000000e+00 0.0000e+00 1.0000e+00
</event>
<event>
 5      1 +2.4041262e-06 9.11880000e+01 7.81860800e-03 1.13011600e-01
       25 -1    0    0    0    0 +0.0000000000e+00 +0.0000000000e+00 +9.9999998245e-15 1.2500000000e+02 1.2500000000e+02 0.0000e+00 0.0000e+00
       23  2    1    0    0    0 -2.3533718915e+01 -1.3175069494e+01 +1.2815957695e+01 9.5139203731e+01 9.0331616463e+01 0.0000e+00 0.0000e+00
      -11  1    2    2    0    0 -1.5992609867e+01 -3.9982500378e+01 +3.8120910362e+01 5.7511457240e+01 5.1100000000e-04 0.0000e+00 1.0000e+00
       11  1    2    2    0    0 -7.5411090488e+00 +2.6807430884e+01 -2.5304952666e+01 3.7627746491e+01 5.1100000000e-04 0.0000e+00 -1.0000e+00
       22  1    1    0    0    0 +2.3533718915e+01 +1.3175069494e+01 -1.2815957695e+01 2.9860796269e+01 0.0000000000e+00 0.0000e+00 1.0000e+00
</event>
<event>
 4      1 +2.4041262e-06 9.11880000e+01 7.81860800e-03 1.13011600e-01
       25 -1    0    0    0    0 +0.0000000000e+00 +0.0000000000e+00 +9.9999998245e-15 1.2500000000e+02 1.2500000000e+02 0.0000e+00 0.0000e+00
      -13  1    1    0    0    0 +8.9025089064e-01 -9.1709627394e+00 +1.7649409258e+01 1.9910095816e+01 1.0566000000e-01 0.0000e+00 1.0000e+00
       13  1    1    0    0    0 +2.4520135777e+01 -3.0599771882e+01 +2.0643051023e+01 4.4313991214e+01 1.0566000000e-01 0.0000e+00 -1.0000e+00
       22  1    1    0    0    0 -2.5410386667e+01 +3.9770734621e+01 -3.8292460282e+01 6.0775912970e+01 0.0000000000e+00 0.0000e+00 -1.0000e+00
</event>
<event>
 4      1 +2.4041262e-06 9.11880000e+01 7.81860800e-03 1.13011600e-01
       25 -1    0    0    0    0 +0.0000000000e+00 +0.0000000000e+00 +9.9999998245e-15 1.2500000000e+02 1.2500000000e+02 0.0000e+00 0.0000e+00
      -11  1    1    0    0    0 -8.4539509313e-01 -1.2059599854e+00 +1.2943763774e-01 1.4784406356e+00 5.1100000000e-04 0.0000e+00 -1.0000e+00
       11  1    1    0    0    0 -3.5079134855e+01 -4.9681784965e+01 +4.9806940623e+00 6.1021576291e+01 5.1100000000e-04 0.0000e+00 1.0000e+00
       22  1    1    0    0    0 +3.5924529948e+01 +5.0887744951e+01 -5.1101317001e+00 6.2499983073e+01 0.0000000000e+00 0.0000e+00 1.0000e+00
</event>
<event>
 4      1 +2.4041262e-06 9.11880000e+01 7.81860800e-03 1.13011600e-01
       25 -1    0    0    0    0 +0.0000000000e+00 +0.0000000000e+00 +9.9999998245e-15 1.2500000000e+02 1.2500000000e+02 0.0000e+00 0.0000e+00
      -13  1    1    0    0    0 -9.2888892760e+00 -7.5148587064e+00 +9.4017263541e+00 1.5203953033e+01 1.0566000000e-01 0.0000e+00 1.0000e+00
       13  1    1    0    0    0 -4.7951692213e+01 +4.9300401964e+00 +1.0134154326e+01 4.9258322448e+01 1.0566000000e-01 0.0000e+00 -1.0000e+00
       22  1    1    0    0    0 +5.7240581489e+01 +2.5848185101e+00 -1.9535880681e+01 6.0537724519e+01 0.0000000000e+00 0.0000e+00 -1.0000e+00
</event>
<event>
 4      1 +2.4041262e-06 9.11880000e+01 7.81860800e-03 1.13011600e-01
       25 -1    0    0    0    0 +0.0000000000e+00 +0.0000000000e+00 +9.9999998245e-15 1.2500000000e+02 1.2500000000e+02 0.0000e+00 0.0000e+00
      -13  1    1    0    0    0 +4.0250683284e+01 -4.7231487887e+01 +7.4366742085e+00 6.2499969921e+01 1.0566000000e-01 0.0000e+00 -1.0000e+00
       13  1    1    0    0    0 -4.0222168595e+01 +4.7195975348e+01 -7.4292642425e+00 6.2453887523e+01 1.0566000000e-01 0.0000e+00 -1.0000e+00
       22  1    1    0    0    0 -2.8514689282e-02 +3.5512538500e-02 -7.4099659725e-03 4.6142556185e-02 0.0000000000e+00 0.0000e+00 1.0000e+00
</event>
<event>
 4      1 +2.4041262e-06 9.11880000e+01 7.81860800e-03 1.13011600e-01
       25 -1    0    0    0    0 +0.0000000000e+00 +0.0000000000e+00 +9.9999998245e-15 1.2500000000e+02 1.2500000000e+02 0.0000e+00 0.0000e+00
      -13  1    1    0    0    0 +5.6188657158e+01 +3.9089340005e+00 +2.7067809320e+01 6.2490978738e+01 1.0566000000e-01 0.0000e+00 1.0000e+00
       13  1    1    0    0    0 -5.6196889438e+01 -3.9097956266e+00 -2.7071410550e+01 6.2499994541e+01 1.0566000000e-01 0.0000e+00 1.0000e+00
       22  1    1    0    0    0 +8.2322806473e-03 +8.6162603253e-04 +3.6012298244e-03 9.0267214604e-03 0.0000000000e+00 0.0000e+00 -1.0000e+00
</event>
<event>
 4      1 +2.4041262e-06 9.11880000e+01 7.81860800e-03 1.13011600e-01
       25 -1    0    0    0    0 +0.0000000000e+00 +0.0000000000e+00 +9.9999998245e-15 1.2500000000e+02 1.2500000000e+02 0.0000e+00 0.0000e+00
      -13  1    1    0    0    0 -4.0084107267e+00 +2.4233100262e+00 -4.1000263172e+00 6.2258467596e+00 1.0566000000e-01 0.0000e+00 -1.0000e+00
       13  1    1    0    0    0 -3.4083372730e+01 +2.0878248877e+01 -3.9621417980e+01 5.6280063074e+01 1.0566000000e-01 0.0000e+00 -1.0000e+00
       22  1    1    0    0    0 +3.8091783457e+01 -2.3301558904e+01 +4.3721444297e+01 6.2494090166e+01 0.0000000000e+00 0.0000e+00 -1.0000e+00
</event>
<event>
 4      1 +2.4041262e-06 9.11880000e+01 7.81860800e-03 1.13011600e-01
       25 -1    0    0    0    0 +0.0000000000e+00 +0.0000000000e+00 +9.9999998245e-15 1.2500000000e+02 1.2500000000e+02 0.0000e+00 0.0000e+00
      -13  1    1    0    0    0 +1.7371119858e+00 +5.0847017190e+01 -3.6301540050e+01 6.2499997514e+01 1.0566000000e-01 0.0000e+00 1.0000e+00
       13  1    1    0    0    0 -1.7371221248e+00 -5.0847009908e+01 +3.6301526115e+01 6.2499983777e+01 1.0566000000e-01 0.0000e+00 1.0000e+00
       22  1    1    0    0    0 +1.0139065080e-05 -7.2828086129e-06 +1.3934581370e-05 1.8708621006e-05 0.0000000000e+00 0.0000e+00 1.0000e+00
</event>
<event>
 5      1 +2.4041262e-06 9.11880000e+01 7.81860800e-03 1.13011600e-01
       25 -1    0    0    0    0 +0.0000000000e+00 +0.0000000000e+00 +9.9999998245e-15 1.2500000000e+02 1.2500000000e+02 0.0000e+00 0.0000e+00
       23  2    1    0    0    0 -2.6679684362e+01 +1.7006548689e+00 +1.2823550408e+01 9.5349684155e+01 9.0622409142e+01 0.0000e+00 0.0000e+00
      -13  1    2    2    0    0 +1.8283010233e+01 +3.2972856488e+01 -4.3472906413e+00 3.7952441662e+01 1.0566000000e-01 0.0000e+00 -1.0000e+00
       13  1    2    2    0    0 -4.4962694595e+01 -3.1272201619e+01 +1.7170841049e+01 5.7397242493e+01 1.0566000000e-01 0.0000e+00 1.0000e+00
       22  1    1    0    0    0 +2.6679684362e+01 -1.7006548689e+00 -1.2823550408e+01 2.9650315845e+01 0.0000000000e+00 0.0000e+00 1.0000e+00
</event>
<event>
 4      1 +2.4041262e-06 9.11880000e+01 7.81860800e-03 1.13011600e-01
       25 -1    0    0    0    0 +0.0000000000e+00 +0.0000000000e+00 +9.9999998245e-15 1.2500000000e+02 1.2500000000e+02 0.0000e+00 0.0000e+00
      -13  1    1    0    0    0 +5.2692787936e+01 -8.7295911606e-01 +3.3595015988e+01 6.2497425718e+01 1.0566000000e-01 0.0000e+00 -1.0000e+00
       13  1    1    0    0    0 -5.2682864654e+01 +8.8444958252e-01 -3.3590260934e+01 6.2486664760e+01 1.0566000000e-01 0.0000e+00 -1.0000e+00
       22  1    1    0    0    0 -9.9232819846e-03 -1.1490466463e-02 -4.7550539307e-03 1.5909521764e-02 0.0000000000e+00 0.0000e+00 1.0000e+00
</event>
<event>
 4      1 +2.4041262e-06 9.11880000e+01 7.81860800e-03 1.13011600e-01
       25 -1    0    0    0    0 +0.0000000000e+00 +0.0000000000e+00 +9.9999998245e-15 1.2500000000e+02 1.2500000000e+02 0.0000e+00 0.0000e+00
      -13  1    1    0    0    0 +1.3184021207e+01 -6.4597144406e+00 -6.0751070033e+01 6.2500000000e+01 1.0566000000e-01 0.0000e+00 1.0000e+00
       13  1    1    0    0    0 -1.3184021068e+01 +6.4597143789e+00 +6.0751069388e+01 6.2499999337e+01 1.0566000000e-01 0.0000e+00 1.0000e+00
       22  1    1    0    0    0 -1.3869453170e-07 +6.1661170649e-08 +6.4521288963e-07 6.6282572825e-07 0.0000000000e+00 0.0000e+00 -1.0000e+00
</event>
<event>
 4      1 +2.4041262e-06 9.11880000e+01 7.81860800e-03 1.13011600e-01
       25 -1    0    0    0    0 +0.0000000000e+00 +0.0000000000e+00 +9.9999998245e-15 1.2500000000e+02 1.2500000000e+02 0.0000e+00 0.0000e+00
      -13  1    1    0    0    0 -9.9406952042e-01 -2.1863650039e+01 -5.8542054958e+01 6.2499525838e+01 1.0566000000e-01 0.0000e+00 1.0000e+00
       13  1    1    0    0    0 +9.9407675412e-01 +2.1863823209e+01 +5.8542496342e+01 6.2499999968e+01 1.0566000000e-01 0.0000e+00 1.0000e+00
       22  1    1    0    0    0 -7.2337021396e-06 -1.7316959237e-04 -4.4138487287e-04 4.7419472811e-04 0.0000000000e+00 0.0000e+00 1.0000e+00
</event>
<event>
 5      1 +2.4041262e-06 9.11880000e+01 7.81860800e-03 1.13011600e-01
       25 -1    0    0    0    0 +0.0000000000e+00 +0.0000000000e+00 +9.9999998245e-15 1.2500000000e+02 1.2500000000e+02 0.0000e+00 0.0000e+00
       23  2    1    0    0    0 +3.2714912877e+00 +2.6667361746e+01 +8.2509398049e+00 9.6894327167e+01 9.2728538173e+01 0.0000e+00 0.0000e+00
      -13  1    2    2    0    0 -1.2720264119e+01 -4.0889556038e+00 +4.4663500156e+01 4.6619353142e+01 1.0566000000e-01 0.0000e+00 1.0000e+00
       13  1    2    2    0    0 +1.5991755406e+01 +3.0756317349e+01 -3.6412560351e+01 5.0274974025e+01 1.0566000000e-01 0.0000e+00 1.0000e+00
       22  1    1    0    0    0 -3.2714912877e+00 -2.6667361746e+01 -8.2509398049e+00 2.8105672833e+01 0.0000000000e+00 0.0000e+00 -1.0000e+00
</event>
<event>
 4      1 +2.4041262e-06 9.11880000e+01 7.81860800e-03 1.13011600e-01
       25 -1    0    0    0    0 +0.0000000000e+00 +0.0000000000e+00 +9.9999998245e-15 1.2500000000e+02 1.2500000000e+02 0.0000e+00 0.0000e+00
      -11  1    1    0    0    0 -4.0895427967e+01 +2.6025207880e+01 -2.2511465230e+01 5.3446361344e+01 5.1100000000e-04 0.0000e+00 1.0000e+00
       11  1    1    0    0    0 -6.1280980819e+00 +5.2549186246e+00 -4.1757642218e+00 9.0887162432e+00 5.1100000000e-04 0.0000e+00 -1.0000e+00
       22  1    1    0    0    0 +4.7023526049e+01 -3.1280126504e+01 +2.6687229452e+01 6.2464922413e+01 0.0000000000e+00 0.0000e+00 1.0000e+00
</event>
<event>
 4      1 +2.4041262e-06 9.11880000e+01 7.81860800e-03 1.13011600e-01
       25 -1    0    0    0    0 +0.0000000000e+00 +0.0000000000e+00 +9.9999998245e-15 1.2500000000e+02 1.2500000000e+02 0.0000e+00 0.0000e+00
      -13  1    1    0    0    0 +8.9988177464e+00 +5.4752738395e+01 -2.8764443422e+01 6.2499963615e+01 1.0566000000e-01 0.0000e+00 1.0000e+00
       13  1    1    0    0    0 -8.9279355333e+00 -5.4270427269e+01 +2.8508190005e+01 6.1949296769e+01 1.0566000000e-01 0.0000e+00 1.0000e+00
       22  1    1    0    0    0 -7.0882213137e-02 -4.8231112613e-01 +2.5625341625e-01 5.5073961531e-01 0.0000000000e+00 0.0000e+00 1.0000e+00
</event>
<event>
 5      1 +2.4041262e-06 9.11880000e+01 7.81860800e-03 1.13011600e-01
       25 -1    0    0    0    0 +0.0000000000e+00 +0.0000000000e+00 +9.9999998245e-15 1.2500000000e+02 1.2500000000e+02 0.0000e+00 0.0000e+00
       23  2    1    0    0    0 +6.4994171392e+00 -5.8621089292e+00 +2.9908176803e+01 9.3837429761e+01 8.8511905641e+01 0.0000e+00 0.0000e+00
      -11  1    2    2    0    0 -4.0850991685e+01 +1.9299542011e+00 +1.5477207621e+01 4.3727247808e+01 5.1100000000e-04 0.0000e+00 -1.0000e+00
       11  1    2    2    0    0 +4.7350408824e+01 -7.7920631303e+00 +1.4430969182e+01 5.0110181953e+01 5.1100000000e-04 0.0000e+00 1.0000e+00
       22  1    1    0    0    0 -6.4994171392e+00 +5.8621089292e+00 -2.9908176803e+01 3.1162570239e+01 0.0000000000e+00 0.0000e+00 1.0000e+00
</event>
<event>
 4      1 +2.4041262e-06 9.11880000e+01 7.81860800e-03 1.13011600e-01
       25 -1    0    0    0    0 +0.0000000000e+00 +0.0000000000e+00 +9.9999998245e-15 1.2500000000e+02 1.2500000000e+02 0.0000e+00 0.0000e+00
      -13  1    1    0    0    0 +3.2197010882e+01 +4.3842859693e+01 +3.0779782002e+01 6.2500000000e+01 1.0566000000e-01 0.0000e+00 -1.0000e+00
       13  1    1    0    0    0 -3.2197010816e+01 -4.3842859617e+01 -3.0779781936e+01 6.2499999880e+01 1.0566000000e-01 0.0000e+00 -1.0000e+00
       22  1    1    0    0    0 -6.6140743201e-08 -7.6436489142e-08 -6.5345185222e-08 1.2036248591e-07 0.0000000000e+00 0.0000e+00 1.0000e+00
</event>
<event>
 4      1 +2.4041262e-06 9.11880000e+01 7.81860800e-03 1.13011600e-01
       25 -1    0    0    0    0 +0.0000000000e+00 +0.0000000000e+00 +9.9999998245e-15 1.2500000000e+02 1.2500000000e+02 0.0000e+00 0.0000e+00
      -13  1    1    0    0    0 +3.3069942882e+01 -1.4671841463e+01 +5.0961969509e+01 6.2498140408e+01 1.0566000000e-01 0.0000e+00 -1.0000e+00
       13  1    1    0    0    0 -3.3060860977e+01 +1.4679005147e+01 -5.0949517931e+01 6.2484864264e+01 1.0566000000e-01 0.0000e+00 -1.0000e+00
       22  1    1    0    0    0 -9.0819053924e-03 -7.1636842531e-03 -1.2451578142e-02 1.6995328060e-02 0.0000000000e+00 0.0000e+00 1.0000e+00
</event>
<event>
 4      1 +2.4041262e-06 9.11880000e+01 7.81860800e-03 1.13011600e-01
       25 -1    0    0    0    0 +0.0000000000e+00 +0.0000000000e+00 +9.9999998245e-15 1.2500000000e+02 1.2500000000e+02 0.0000e+00 0.0000e+00
      -13  1    1    0    0    0 +4.0627919461e+01 +4.2715519636e+01 +2.0760427723e+01 6.2499999847e+01 1.0566000000e-01 0.0000e+00 1.0000e+00
       13  1    1    0    0    0 -4.0615293618e+01 -4.2702392508e+01 -2.0753991137e+01 6.2480682725e+01 1.0566000000e-01 0.0000e+00 1.0000e+00
       22  1    1    0    0    0 -1.2625843612e-02 -1.3127128071e-02 -6.4365857175e-03 1.9317428763e-02 0.0000000000e+00 0.0000e+00 1.0000e+00
</event>
<event>
 4      1 +2.4041262e-06 9.11880000e+01 7.81860800e-03 1.13011600e-01
       25 -1    0    0    0    0 +0.0000000000e+00 +0.0000000000e+00 +9.9999998245e-15 1.2500000000e+02 1.2500000000e+02 0.0000e+00 0.0000e+00
      -13  1    1    0    0    0 -5.5147344660e+01 +1.0706144931e+01 -2.7393204880e+01 6.2500000000e+01 1.0566000000e-01 0.0000e+00 -1.0000e+00
       13  1    1    0    0    0 +5.5147344660e+01 -1.0706144931e+01 +2.7393204880e+01 6.2500000000e+01 1.0566000000e-01 0.0000e+00 -1.0000e+00
       22  1    1    0    0    0 +2.3127675261e-11 -3.1425517555e-11 +7.9235487365e-12 3.9815011505e-11 0.0000000000e+00 0.0000e+00 1.0000e+00
</event>
<event>
 5      1 +2.4041262e-06 9.11880000e+01 7.81860800e-03 1.13011600e-01
       25 -1    0    0    0    0 +0.0000000000e+00 +0.0000000000e+00 +9.9999998245e-15 1.2500000000e+02 1.2500000000e+02 0.0000e+00 0.0000e+00
       23  2    1    0    0    0 -1.6750703058e+00 +2.3302414948e+01 +1.6482738142e+01 9.6408234409e+01 9.2070943312e+01 0.0000e+00 0.0000e+00
      -11  1    2    2    0    0 +1.1593142211e+01 -2.8217423651e+01 +2.8631701361e+01 4.1837761256e+01 5.1100000000e-04 0.0000e+00 1.0000e+00
       11  1    2    2    0    0 -1.3268212517e+01 +5.1519838599e+01 -1.2148963219e+01 5.4570473153e+01 5.1100000000e-04 0.0000e+00 -1.0000e+00
       22  1    1    0    0    0 +1.6750703058e+00 -2.3302414948e+01 -1.6482738142e+01 2.8591765591e+01 0.0000000000e+00 0.0000e+00 -1.0000e+00
</event>
<event>
 4      1 +2.4041262e-06 9.11880000e+01 7.81860800e-03 1.13011600e-01
       25 -1    0    0    0    0 +0.0000000000e+00 +0.0000000000e+00 +9.9999998245e-15 1.2500000000e+02 1.2500000000e+02 0.0000e+00 0.0000e+00
      -13  1    1    0    0    0 +2.7488081742e+01 +2.1606999019e+01 +6.1003968574e+00 3.5492013895e+01 1.0566000000e-01 0.0000e+00 1.0000e+00
       13  1    1    0    0    0 +2.0728944486e+01 +1.6735284286e+01 +4.4403994911e+00 2.7009020554e+01 1.0566000000e-01 0.0000e+00 1.0000e+00
       22  1    1    0    0    0 -4.8217026227e+01 -3.8342283305e+01 -1.0540796348e+01 6.2498965551e+01 0.0000000000e+00 0.0000e+00 1.0000e+00
</event>
<event>
 4      1 +2.4041262e-06 9.11880000e+01 7.81860800e-03 1.13011600e-01
       25 -1    0    0    0    0 +0.0000000000e+00 +0.0000000000e+00 +9.9999998245e-15 1.2500000000e+02 1.2500000000e+02 0.0000e+00 0.0000e+00
      -13  1    1    0    0    0 -3.6069632939e+01 -1.8768915861e+01 -4.7465230640e+01 6.2499999254e+01 1.0566000000e-01 0.0000e+00 -1.0000e+00
       13  1    1    0    0    0 +3.6069633570e+01 +1.8768913532e+01 +4.7465225150e+01 6.2499994749e+01 1.0566000000e-01 0.0000e+00 -1.0000e+00
       22  1    1    0    0    0 -6.3150088191e-07 +2.3289511740e-06 +5.4905015069e-06 5.9973672335e-06 0.0000000000e+00 0.0000e+00 -1.0000e+00
</event>
<event>
 4      1 +2.4041262e-06 9.11880000e+01 7.81860800e-03 1.13011600e-01
       25 -1    0    0    0    0 +0.0000000000e+00 +0.0000000000e+00 +9.9999998245e-15 1.2500000000e+02 1.2500000000e+02 0.0000e+00 0.0000e+00
      -11  1    1    0    0    0 +6.0497602762e+00 -4.2442362028e-01 -9.9592295435e+00 1.1660445453e+01 5.1100000000e-04 0.0000e+00 -1.0000e+00
       11  1    1    0    0    0 +2.4924561882e+01 -3.9201476633e+01 -2.4357182447e+01 5.2452472699e+01 5.1100000000e-04 0.0000e+00 1.0000e+00
       22  1    1    0    0    0 -3.0974322158e+01 +3.9625900253e+01 +3.4316411991e+01 6.0887081848e+01 0.0000000000e+00 0.0000e+00 1.0000e+00
</event>
<event>
 4      1 +2.4041262e-06 9.11880000e+01 7.81860800e-03 1.13011600e-01
       25 -1    0    0    0    0 +0.0000000000e+00 +0.0000000000e+00 +9.9999998245e-15 1.2500000000e+02 1.2500000000e+02 0.0000e+00 0.0000e+00
      -13  1    1    0    0    0 +8.7072207944e+00 +6.1782014880e+01 +3.6579854370e+00 6.2499800624e+01 1.0566000000e-01 0.0000e+00 -1.0000e+00
       13  1    1    0    0    0 -8.7072851807e+00 -6.1782205688e+01 -3.6579663567e+00 6.2499997095e+01 1.0566000000e-01 0.0000e+00 -1.0000e+00
       22  1    1    0    0    0 +6.4386270087e-05 +1.9080871655e-04 -1.9080320115e-05 2.0228103397e-04 0.0000000000e+00 0.0000e+00 1.0000e+00
</event>
<event>
 5      1 +2.4041262e-06 9.11880000e+01 7.81860800e-03 1.13011600e-01
       25 -1    0    0    0    0 +0.0000000000e+00 +0.0000000000e+00 +9.9999998245e-15 1.2500000000e+02 1.2500000000e+02 0.0000e+00 0.0000e+00
       23  2    1    0    0    0 +2.2939514208e+01 -1.0839852126e+01 +1.6855455549e+01 9.4539696522e+01 8.9498179481e+01 0.0000e+00 0.0000e+00
      -11  1    2    2    0    0 +2.9148029806e+00 -1.2393019657e+01 +5.2285240569e+01 5.3812911037e+01 5.1100000000e-04 0.0000e+00 1.0000e+00
       11  1    2    2    0    0 +2.0024711227e+01 +1.5531675306e+00 -3.5429785020e+01 4.0726785485e+01 5.1100000000e-04 0.0000e+00 -1.0000e+00
       22  1    1    0    0    0 -2.2939514208e+01 +1.0839852126e+01 -1.6855455549e+01 3.0460303478e+01 0.0000000000e+00 0.0000e+00 -1.0000e+00
</event>
<event>
 4      1 +2.4041262e-06 9.11880000e+01 7.81860800e-03 1.13011600e-01
       25 -1    0    0    0    0 +0.0000000000e+00 +0.0000000000e+00 +9.9999998245e-15 1.2500000000e+02 1.2500000000e+02 0.0000e+00 0.0000e+00
      -13  1    1    0    0    0 +3.7964741429e+01 +4.1112762902e+01 -2.7818886312e+01 6.2493859417e+01 1.0566000000e-01 0.0000e+00 -1.0000e+00
       13  1    1    0    0    0 -3.7961502055e+01 -4.1121169362e+01 +2.7818168857e+01 6.2497103057e+01 1.0566000000e-01 0.0000e+00 -1.0000e+00
       22  1    1    0    0    0 -3.2393743130e-03 +8.4064602147e-03 +7.1745463304e-04 9.0375251276e-03 0.0000000000e+00 0.0000e+00 1.0000e+00
</event>
<event>
 4      1 +2.4041262e-06 9.11880000e+01 7.81860800e-03 1.13011600e-01
       25 -1    0    0    0    0 +0.0000000000e+00 +0.0000000000e+00 +9.9999998245e-15 1.2500000000e+02 1.2500000000e+02 0.0000e+00 0.0000e+00
      -11  1    1    0    0    0 +2.1999687927e+01 -7.5073346208e+00 -2.2681231285e+01 3.2477447480e+01 5.1100000000e-04 0.0000e+00 -1.0000e+00
       11  1    1    0    0    0 +2.0336411608e+01 -6.9385174257e+00 -2.0967617874e+01 3.0022552535e+01 5.1100000000e-04 0.0000e+00 1.0000e+00
       22  1    1    0    0    0 -4.2336099534e+01 +1.4445852047e+01 +4.3648849159e+01 6.2499999984e+01 0.0000000000e+00 0.0000e+00 -1.0000e+00
</event>
<event>
 5      1 +2.4041262e-06 9.11880000e+01 7.81860800e-03 1.13011600e-01
       25 -1    0    0    0    0 +0.0000000000e+00 +0.0000000000e+00 +9.9999998245e-15 1.2500000000e+02 1.2500000000e+02 0.0000e+00 0.0000e+00
       23  2    1    0    0    0 +2.6624341267e+01 +1.3546264858e+01 +3.0937804990e+00 9.4967878575e+01 9.0094226474e+01 0.0000e+00 0.0000e+00
      -13  1    2    2    0    0 +1.5598814550e+01 +1.2216545386e+01 -4.3111514954e+01 4.7446610861e+01 1.0566000000e-01 0.0000e+00 1.0000e+00
       13  1    2    2    0    0 +1.1025526716e+01 +1.3297194723e+00 +4.6205295453e+01 4.7521267714e+01 1.0566000000e-01 0.0000e+00 -1.0000e+00
       22  1    1    0    0    0 -2.6624341267e+01 -1.3546264858e+01 -3.0937804990e+00 3.0032121425e+01 0.0000000000e+00 0.0000e+00 1.0000e+00
</event>
<event>
 4      1 +2.4041262e-06 9.11880000e+01 7.81860800e-03 1.13011600e-01
       25 -1    0    0    0    0 +0.0000000000e+00 +0.0000000000e+00 +9.9999998245e-15 1.2500000000e+02 1.2500000000e+02 0.0000e+00 0.0000e+00
      -13  1    1    0    0    0 +1.7847741422e+01 +5.9313078943e+01 +7.9811088256e+00 6.2452321571e+01 1.0566000000e-01 0.0000e+00 1.0000e+00
       13  1    1    0    0    0 -1.7861684053e+01 -5.9358263535e+01 -7.9872118121e+00 6.2499999389e+01 1.0566000000e-01 0.0000e+00 1.0000e+00
       22  1    1    0    0    0 +1.3942630623e-02 +4.5184592331e-02 +6.1029864487e-03 4.7679039172e-02 0.0000000000e+00 0.0000e+00 -1.0000e+00
</event>
<event>
 4      1 +2.4041262e-06 9.11880000e+01 7.81860800e-03 1.13011600e-01
       25 -1    0    0    0    0 +0.0000000000e+00 +0.0000000000e+00 +9.9999998245e-15 1.2500000000e+02 1.2500000000e+02 0.0000e+00 0.0000e+00
      -13  1    1    0    0    0 +1.8356882041e+01 +1.4306169505e+01 -5.8005148133e+01 6.2499999825e+01 1.0566000000e-01 0.0000e+00 1.0000e+00
       13  1    1    0    0    0 -1.8356882092e+01 -1.4306169546e+01 +5.8005148295e+01 6.2500000000e+01 1.0566000000e-01 0.0000e+00 1.0000e+00
       22  1    1    0    0    0 +5.0578850306e-08 +4.0890256571e-08 -1.6223880828e-07 1.7479034325e-07 0.0000000000e+00 0.0000e+00 1.0000e+00
</event>
<event>
 4      1 +2.4041262e-06 9.11880000e+01 7.81860800e-03 1.13011600e-01
       25 -1    0    0    0    0 +0.0000000000e+00 +0.0000000000e+00 +9.9999998245e-15 1.2500000000e+02 1.2500000000e+02 0.0000e+00 0.0000e+00
      -13  1    1    0    0    0 +2.6424916663e+01 +1.6903669954e+00 +5.6408043821e+01 6.2313819759e+01 1.0566000000e-01 0.0000e+00 -1.0000e+00
       13  1    1    0    0    0 -2.6502813504e+01 -1.6969715307e+00 -5.6577021484e+01 6.2499994881e+01 1.0566000000e-01 0.0000e+00 -1.0000e+00
       22  1    1    0    0    0 +7.7896841317e-02 +6.6045352962e-03 +1.6897766291e-01 1.8618536016e-01 0.0000000000e+00 0.0000e+00 -1.0000e+00
</event>
<event>
 4      1 +2.4041262e-06 9.11880000e+01 7.81860800e-03 1.13011600e-01
       25 -1    0    0    0    0 +0.0000000000e+00 +0.0000000000e+00 +9.9999998245e-15 1.2500000000e+02 1.2500000000e+02 0.0000e+00 0.0000e+00
      -13  1    1    0    0    0 -6.1350142637e+01 -1.1572378984e+01 +2.9118508787e+00 6.2499999972e+01 1.0566000000e-01 0.0000e+00 -1.0000e+00
       13  1    1    0    0    0 +6.1350054547e+01 +1.1572359203e+01 -2.9118472009e+00 6.2499909669e+01 1.0566000000e-01 0.0000e+00 -1.0000e+00
       22  1    1    0    0    0 +8.8090159487e-05 +1.9781673906e-05 -3.6777634214e-06 9.0358822285e-05 0.0000000000e+00 0.0000e+00 1.0000e+00
</event>
<event>
 5      1 +2.4041262e-06 9.11880000e+01 7.81860800e-03 1.13011600e-01
       25 -1    0    0    0    0 +0.0000000000e+00 +0.0000000000e+00 +9.9999998245e-15 1.2500000000e+02 1.2500000000e+02 0.0000e+00 0.0000e+00
       23  2    1    0    0    0 -8.9543474617e+00 -7.2486423875e+00 -2.7304273184e+01 9.5364776211e+01 9.0643223976e+01 0.0000e+00 0.0000e+00
      -13  1    2    2    0    0 +1.9848188298e+01 -3.3836989983e+01 -3.8121854787e+01 5.4700817601e+01 1.0566000000e-01 0.0000e+00 -1.0000e+00
       13  1    2    2    0    0 -2.8802535760e+01 +2.6588347595e+01 +1.0817581603e+01 4.0663958610e+01 1.0566000000e-01 0.0000e+00 1.0000e+00
       22  1    1    0    0    0 +8.9543474617e+00 +7.2486423875e+00 +2.7304273184e+01 2.9635223789e+01 0.0000000000e+00 0.0000e+00 -1.0000e+00
</event>
<event>
 5      1 +2.4041262e-06 9.11880000e+01 7.81860800e-03 1.13011600e-01
       25 -1    0    0    0    0 +0.0000000000e+00 +0.0000000000e+00 +9.9999998245e-15 1.2500000000e+02 1.2500000000e+02 0.0000e+00 0.0000e+00
       23  2    1    0    0    0 +4.5409146201e+00 +2.6467836110e+01 +1.1544157471e+01 9.5769299946e+01 9.1199369441e+01 0.0000e+00 0.0000e+00
      -11  1    2    2    0    0 -3.6470845177e+01 +3.1773083512e+01 +2.1964199711e+01 5.3123228940e+01 5.1100000000e-04 0.0000e+00 1.0000e+00
       11  1    2    2    0    0 +4.1011759798e+01 -5.3052474020e+00 -1.0420042240e+01 4.2646071006e+01 5.1100000000e-04 0.0000e+00 -1.0000e+00
       22  1    1    0    0    0 -4.5409146201e+00 -2.6467836110e+01 -1.1544157471e+01 2.9230700054e+01 0.0000000000e+00 0.0000e+00 1.0000e+00
</event>
<event>
 4      1 +2.4041262e-06 9.11880000e+01 7.81860800e-03 1.13011600e-01
       25 -1    0    0    0    0 +0.0000000000e+00 +0.0000000000e+00 +9.9999998245e-15 1.2500000000e+02 1.2500000000e+02 0.0000e+00 0.0000e+00
      -13  1    1    0    0    0 +8.1977767244e+00 -5.9377853084e+01 +1.4474265145e+01 6.1663996753e+01 1.0566000000e-01 0.0000e+00 1.0000e+00
       13  1    1    0    0    0 +8.3616606268e-01 -3.9818700631e-01 +4.9505442964e-01 1.0554475355e+00 1.0566000000e-01 0.0000e+00 -1.0000e+00
       22  1    1    0    0    0 -9.0339427871e+00 +5.9776040090e+01 -1.4969319575e+01 6.2280555711e+01 0.0000000000e+00 0.0000e+00 1.0000e+00
</event>
<event>
 4      1 +2.4041262e-06 9.11880000e+01 7.81860800e-03 1.13011600e-01
       25 -1    0    0    0    0 +0.0000000000e+00 +0.0000000000e+00 +9.9999998245e-15 1.2500000000e+02 1.2500000000e+02 0.0000e+00 0.0000e+00
      -13  1    1    0    0    0 +3.7616782708e+01 +1.8400725583e+00 +4.9878157818e+01 6.2499999997e+01 1.0566000000e-01 0.0000e+00 1.0000e+00
       13  1    1    0    0    0 -3.7616757065e+01 -1.8400720067e+00 -4.9878123504e+01 6.2499957163e+01 1.0566000000e-01 0.0000e+00 1.0000e+00
       22  1    1    0    0    0 -2.5642446229e-05 -5.5162930024e-07 -3.4313838618e-05 4.2840154811e-05 0.0000000000e+00 0.0000e+00 1.0000e+00
</event>
<event>
 4      1 +2.4041262e-06 9.11880000e+01 7.81860800e-03 1.13011600e-01
       25 -1    0    0    0    0 +0.0000000000e+00 +0.0000000000e+00 +9.9999998245e-15 1.2500000000e+02 1.2500000000e+02 0.0000e+00 0.0000e+00
      -13  1    1    0    0    0 +3.8738577268e+01 +4.7272869236e+01 +1.3070441601e+01 6.2499993138e+01 1.0566000000e-01 0.0000e+00 -1.0000e+00
       13  1    1    0    0    0 -3.8738581530e+01 -4.7272874422e+01 -1.3070443025e+01 6.2500000000e+01 1.0566000000e-01 0.0000e+00 -1.0000e+00
       22  1    1    0    0    0 +4.2621034190e-06 +5.1863590902e-06 +1.4247351521e-06 6.8624861690e-06 0.0000000000e+00 0.0000e+00 -1.0000e+00
</event>
<event>
 4      1 +2.4041262e-06 9.11880000e+01 7.81860800e-03 1.13011600e-01
       25 -1    0    0    0    0 +0.0000000000e+00 +0.0000000000e+00 +9.9999998245e-15 1.2500000000e+02 1.2500000000e+02 0.0000e+00 0.0000e+00
      -13  1    1    0    0    0 -2.5343166530e+01 -2.9682595601e+01 +4.8815020740e+01 6.2499999882e+01 1.0566000000e-01 0.0000e+00 1.0000e+00
       13  1    1    0    0    0 +2.5343166582e+01 +2.9682595647e+01 -4.8815020836e+01 6.2500000000e+01 1.0566000000e-01 0.0000e+00 1.0000e+00
       22  1    1    0    0    0 -5.1922852000e-08 -4.6467211419e-08 +9.5619247819e-08 1.1831409405e-07 0.0000000000e+00 0.0000e+00 1.0000e+00
</event>
<event>
 4      1 +2.4041262e-06 9.11880000e+01 7.81860800e-03 1.13011600e-01
       25 -1    0    0    0    0 +0.0000000000e+00 +0.0000000000e+00 +9.9999998245e-15 1.2500000000e+02 1.2500000000e+02 0.0000e+00 0.0000e+00
      -11  1    1    0    0    0 -3.0939597805e+01 -4.8548548415e+01 -6.7347212343e+00 5.7961855871e+01 5.1100000000e-04 0.0000e+00 -1.0000e+00
       11  1    1    0    0    0 -2.4200080957e+00 -3.8037195468e+00 -5.1967606336e-01 4.5381477549e+00 5.1100000000e-04 0.0000e+00 1.0000e+00
       22  1    1    0    0    0 +3.3359605901e+01 +5.2352267962e+01 +7.2543972977e+00 6.2499996374e+01 0.0000000000e+00 0.0000e+00 -1.0000e+00
</event>
<event>
 4      1 +2.4041262e-06 9.11880000e+01 7.81860800e-03 1.13011600e-01
       25 -1    0    0    0    0 +0.0000000000e+00 +0.0000000000e+00 +9.9999998245e-15 1.2500000000e+02 1.2500000000e+02 0.0000e+00 0.0000e+00
      -13  1    1    0    0    0 +8.3067445302e+00 -2.0284324816e+01 +4.4017563903e+00 2.2357156825e+01 1.0566000000e-01 0.0000e+00 -1.0000e+00
       13  1    1    0    0    0 +1.4348076380e+01 +1.3245516557e+01 -4.8657512017e+01 5.2429721003e+01 1.0566000000e-01 0.0000e+00 1.0000e+00
       22  1    1    0    0    0 -2.2654820911e+01 +7.0388082589e+00 +4.4255755627e+01 5.0213122172e+01 0.0000000000e+00 0.0000e+00 1.0000e+00
</event>
<event>
 5      1 +2.4041262e-06 9.11880000e+01 7.81860800e-03 1.13011600e-01
       25 -1    0    0    0    0 +0.0000000000e+00 +0.0000000000e+00 +9.9999998245e-15 1.2500000000e+02 1.2500000000e+02 0.0000e+00 0.0000e+00
       23  2    1    0    0    0 -7.6670142895e+00 +1.4489971477e+00 -2.7652133204e+01 9.6268080963e+01 9.1880467134e+01 0.0000e+00 0.0000e+00
      -11  1    2    2    0    0 -3.0016645852e+01 +1.6205966645e+01 +2.1479305091e+01 4.0311201056e+01 5.1100000000e-04 0.0000e+00 1.0000e+00
       11  1    2    2    0    0 +2.2349631563e+01 -1.4756969497e+01 -4.9131438295e+01 5.5956879907e+01 5.1100000000e-04 0.0000e+00 -1.0000e+00
       22  1    1    0    0    0 +7.6670142895e+00 -1.4489971477e+00 +2.7652133204e+01 2.8731919037e+01 0.0000000000e+00 0.0000e+00 -1.0000e+00
</event>
<event>
 4      1 +2.4041262e-06 9.11880000e+01 7.81860800e-03 1.13011600e-01
       25 -1    0    0    0    0 +0.0000000000e+00 +0.0000000000e+00 +9.9999998245e-15 1.2500000000e+02 1.2500000000e+02 0.0000e+00 0.0000e+00
      -13  1    1    0    0    0 +3.0852949005e+01 -3.1584632738e+01 -4.4234206213e+01 6.2499357203e+01 1.0566000000e-01 0.0000e+00 1.0000e+00
       13  1    1    0    0    0 -3.0853399076e+01 +3.1584869189e+01 +4.4234616674e+01 6.2499989381e+01 1.0566000000e-01 0.0000e+00 1.0000e+00
       22  1    1    0    0    0 +4.5007189452e-04 -2.3645133187e-04 -4.1046129818e-04 6.5341596237e-04 0.0000000000e+00 0.0000e+00 1.0000e+00
</event>
<event>
 4      1 +2.4041262e-06 9.11880000e+01 7.81860800e-03 1.13011600e-01
       25 -1    0    0    0    0 +0.0000000000e+00 +0.0000000000e+00 +9.9999998245e-15 1.2500000000e+02 1.2500000000e+02 0.0000e+00 0.0000e+00
      -13  1    1    0    0    0 -2.0846597176e+01 +1.2874683338e-01 +5.8920638544e+01 6.2500000000e+01 1.0566000000e-01 0.0000e+00 -1.0000e+00
       13  1    1    0    0    0 +2.0846588076e+01 -1.2874681901e-01 -5.8920612605e+01 6.2499972512e+01 1.0566000000e-01 0.0000e+00 -1.0000e+00
       22  1    1    0    0    0 +9.1001059889e-06 -1.4369817301e-08 -2.5938541966e-05 2.7488544793e-05 0.0000000000e+00 0.0000e+00 -1.0000e+00
</event>
<event>
 4      1 +2.4041262e-06 9.11880000e+01 7.81860800e-03 1.13011600e-01
       25 -1    0    0    0    0 +0.0000000000e+00 +0.0000000000e+00 +9.9999998245e-15 1.2500000000e+02 1.2500000000e+02 0.0000e+00 0.0000e+00
      -13  1    1    0    0    0 +5.7847413214e+01 -5.7663809147e+00 -2.2949030920e+01 6.2499948389e+01 1.0566000000e-01 0.0000e+00 1.0000e+00
       13  1    1    0    0    0 -5.5342037638e+01 +5.5274871586e+00 +2.1934075001e+01 5.9786361776e+01 1.0566000000e-01 0.0000e+00 1.0000e+00
       22  1    1    0    0    0 -2.5053755759e+00 +2.3889375612e-01 +1.0149559187e+00 2.7136898348e+00 0.0000000000e+00 0.0000e+00 -1.0000e+00
</event>
<event>
 4      1 +2.4041262e-06 9.11880000e+01 7.81860800e-03 1.13011600e-01
       25 -1    0    0    0    0 +0.0000000000e+00 +0.0000000000e+00 +9.9999998245e-15 1.2500000000e+02 1.2500000000e+02 0.0000e+00 0.0000e+00
      -13  1    1    0    0    0 -3.0663463996e+01 -3.9262024299e+01 -3.7742340410e+01 6.2500000000e+01 1.0566000000e-01 0.0000e+00 -1.0000e+00
       13  1    1    0    0    0 +3.0663463996e+01 +3.9262024299e+01 +3.7742340410e+01 6.2500000000e+01 1.0566000000e-01 0.0000e+00 -1.0000e+00
       22  1    1    0    0    0 -1.2019704178e-10 -1.7211937635e-10 -9.8196259179e-11 2.3176478138e-10 0.0000000000e+00 0.0000e+00 -1.0000e+00
</event>
<event>
 4      1 +2.4041262e-06 9.11880000e+01 7.81860800e-03 1.13011600e-01
       25 -1    0    0    0    0 +0.0000000000e+00 +0.0000000000e+00 +9.9999998245e-15 1.2500000000e+02 1.2500000000e+02 0.0000e+00 0.0000e+00
      -13  1    1    0    0    0 +5.6149537044e+00 +5.4520570740e+01 -3.0036446179e+01 6.2499756815e+01 1.0566000000e-01 0.0000e+00 1.0000e+00
       13  1    1    0    0    0 -5.6149900537e+00 -5.4520808430e+01 +3.0036504925e+01 6.2499995659e+01 1.0566000000e-01 0.0000e+00 1.0000e+00
       22  1    1    0    0    0 +3.6349280760e-05 +2.3769034322e-04 -5.8746495795e-05 2.4752599912e-04 0.0000000000e+00 0.0000e+00 1.0000e+00
</event>
<event>
 5      1 +2.4041262e-06 9.11880000e+01 7.81860800e-03 1.13011600e-01
       25 -1    0    0    0    0 +0.0000000000e+00 +0.0000000000e+00 +9.9999998245e-15 1.2500000000e+02 1.2500000000e+02 0.0000e+00 0.0000e+00
       23  2    1    0    0    0 +2.8779117254e+01 -2.6536089320e+00 -3.6051963827e+00 9.5874810366e+01 9.1343870027e+01 0.0000e+00 0.0000e+00
      -13  1    2    2    0    0 -1.4249479430e+01 -3.5367181031e+01 -1.4393877208e+01 4.0756349483e+01 1.0566000000e-01 0.0000e+00 1.0000e+00
       13  1    2    2    0    0 +4.3028596684e+01 +3.2713572099e+01 +1.0788680825e+01 5.5118460882e+01 1.0566000000e-01 0.0000e+00 -1.0000e+00
       22  1    1    0    0    0 -2.8779117254e+01 +2.6536089320e+00 +3.6051963827e+00 2.9125189634e+01 0.0000000000e+00 0.0000e+00 -1.0000e+00
</event>
<event>
 5      1 +2.4041262e-06 9.11880000e+01 7.81860800e-03 1.13011600e-01
       25 -1    0    0    0    0 +0.0000000000e+00 +0.0000000000e+00 +9.9999998245e-15 1.2500000000e+02 1.2500000000e+02 0.0000e+00 0.0000e+00
       23  2    1    0    0    0 -7.9814248217e+00 -8.7274313384e+00 -3.3937058633e+01 8.9061230564e+01 8.1488082815e+01 0.0000e+00 0.0000e+00
      -13  1    2    2    0    0 +2.0682768040e+01 -3.0771389463e+01 -3.7489132476e+01 5.2726668026e+01 1.0566000000e-01 0.0000e+00 1.0000e+00
       13  1    2    2    0    0 -2.8664192862e+01 +2.2043958124e+01 +3.5520738431e+00 3.6334562538e+01 1.0566000000e-01 0.0000e+00 1.0000e+00
       22  1    1    0    0    0 +7.9814248217e+00 +8.7274313384e+00 +3.3937058633e+01 3.5938769436e+01 0.0000000000e+00 0.0000e+00 1.0000e+00
</event>
<event>
 5      1 +2.4041262e-06 9.11880000e+01 7.81860800e-03 1.13011600e-01
       25 -1    0    0    0    0 +0.0000000000e+00 +0.0000000000e+00 +9.9999998245e-15 1.2500000000e+02 1.2500000000e+02 0.0000e+00 0.0000e+00
       23  2    1    0    0    0 -2.8425256294e+01 +9.1607243190e+00 -1.0027254097e+01 9.3496668586e+01 8.8029353892e+01 0.0000e+00 0.0000e+00
      -11  1    2    2    0    0 +3.0931018531e+01 -1.6732418977e+00 +4.8475967721e+00 3.1353258850e+01 5.1100000000e-04 0.0000e+00 1.0000e+00
       11  1    2    2    0    0 -5.9356274824e+01 +1.0833966217e+01 -1.4874850870e+01 6.2143409736e+01 5.1100000000e-04 0.0000e+00 -1.0000e+00
       22  1    1    0    0    0 +2.8425256294e+01 -9.1607243190e+00 +1.0027254097e+01 3.1503331414e+01 0.0000000000e+00 0.0000e+00 -1.0000e+00
</event>
<event>
 4      1 +2.4041262e-06 9.11880000e+01 7.81860800e-03 1.13011600e-01
       25 -1    0    0    0    0 +0.0000000000e+00 +0.0000000000e+00 +9.9999998245e-15 1.2500000000e+02 1.2500000000e+02 0.0000e+00 0.0000e+00
      -13  1    1    0    0    0 +1.8792595465e+01 +4.0867150826e+01 +4.3393007007e+01 6.2499999056e+01 1.0566000000e-01 0.0000e+00 -1.0000e+00
       13  1    1    0    0    0 -1.8792595851e+01 -4.0867151389e+01 -4.3393007663e+01 6.2499999996e+01 1.0566000000e-01 0.0000e+00 -1.0000e+00
       22  1    1    0    0    0 +3.8623049684e-07 +5.6305154418e-07 +6.5642751069e-07 9.4715263548e-07 0.0000000000e+00 0.0000e+00 1.0000e+00
</event>
<event>
 4      1 +2.4041262e-06 9.11880000e+01 7.81860800e-03 1.13011600e-01
       25 -1    0    0    0    0 +0.0000000000e+00 +0.0000000000e+00 +9.9999998245e-15 1.2500000000e+02 1.2500000000e+02 0.0000e+00 0.0000e+00
      -13  1    1    0    0    0 -4.9789075437e+01 -5.0734445794e+00 +3.7437240326e+01 6.2500000000e+01 1.0566000000e-01 0.0000e+00 1.0000e+00
       13  1    1    0    0    0 +4.9789075435e+01 +5.0734445789e+00 -3.7437240326e+01 6.2499999999e+01 1.0566000000e-01 0.0000e+00 1.0000e+00
       22  1    1    0    0    0 +1.1594498541e-09 +4.6255018171e-10 -3.2221501213e-10 1.2892242430e-09 0.0000000000e+00 0.0000e+00 1.0000e+00
</event>
<event>
 4      1 +2.4041262e-06 9.11880000e+01 7.81860800e-03 1.13011600e-01
       25 -1    0    0    0    0 +0.0000000000e+00 +0.0000000000e+00 +9.9999998245e-15 1.2500000000e+02 1.2500000000e+02 0.0000e+00 0.0000e+00
      -13  1    1    0    0    0 -3.5108516906e+01 -5.1424916934e+01 +5.3952549386e+00 6.2499999848e+01 1.0566000000e-01 0.0000e+00 -1.0000e+00
       13  1    1    0    0    0 +3.5097115372e+01 +5.1408029342e+01 -5.3935003394e+00 6.2479548640e+01 1.0566000000e-01 0.0000e+00 -1.0000e+00
       22  1    1    0    0    0 +1.1401534392e-02 +1.6887592212e-02 -1.7545991898e-03 2.0451512793e-02 0.0000000000e+00 0.0000e+00 1.0000e+00
</event>
<event>
 4      1 +2.4041262e-06 9.11880000e+01 7.81860800e-03 1.13011600e-01
       25 -1    0    0    0    0 +0.0000000000e+00 +0.0000000000e+00 +9.9999998245e-15 1.2500000000e+02 1.2500000000e+02 0.0000e+00 0.0000e+00
      -13  1    1    0    0    0 -3.9917114201e+01 +4.2642621309e+01 +1.7378460767e+01 6.0940883001e+01 1.0566000000e-01 0.0000e+00 -1.0000e+00
       13  1    1    0    0    0 +4.0923937228e+01 -4.3740796454e+01 -1.7838251054e+01 6.2499922219e+01 1.0566000000e-01 0.0000e+00 -1.0000e+00
       22  1    1    0    0    0 -1.0068230265e+00 +1.0981751453e+00 +4.5979028637e-01 1.5591947806e+00 0.0000000000e+00 0.0000e+00 -1.0000e+00
</event>
<event>
 5      1 +2.4041262e-06 9.11880000e+01 7.81860800e-03 1.13011600e-01
       25 -1    0    0    0    0 +0.0000000000e+00 +0.0000000000e+00 +9.9999998245e-15 1.2500000000e+02 1.2500000000e+02 0.0000e+00 0.0000e+00
       23  2    1    0    0    0 +1.2355537534e+01 +3.1079373934e+00 -2.7940951656e+01 9.4291444807e+01 8.9150777909e+01 0.0000e+00 0.0000e+00
      -13  1    2    2    0    0 +2.9356669783e+01 +1.6924361014e+01 +2.1557235821e+01 4.0161843045e+01 1.0566000000e-01 0.0000e+00 -1.0000e+00
       13  1    2    2    0    0 -1.7001132248e+01 -1.3816423621e+01 -4.9498187477e+01 5.4129601762e+01 1.0566000000e-01 0.0000e+00 1.0000e+00
       22  1    1    0    0    0 -1.2355537534e+01 -3.1079373934e+00 +2.7940951656e+01 3.0708555193e+01 0.0000000000e+00 0.0000e+00 1.0000e+00
</event>
<event>
 4      1 +2.4041262e-06 9.11880000e+01 7.81860800e-03 1.13011600e-01
       25 -1    0    0    0    0 +0.0000000000e+00 +0.0000000000e+00 +9.9999998245e-15 1.2500000000e+02 1.2500000000e+02 0.0000e+00 0.0000e+00
      -13  1    1    0    0    0 -2.6013696756e+01 -1.5719790122e+01 -5.4611391940e+01 6.2499916112e+01 1.0566000000e-01 0.0000e+00 -1.0000e+00
       13  1    1    0    0    0 +2.5760399113e+01 +1.5560966029e+01 +5.4101191615e+01 6.1908738676e+01 1.0566000000e-01 0.0000e+00 -1.0000e+00
       22  1    1    0    0    0 +2.5329764278e-01 +1.5882409343e-01 +5.1020032458e-01 5.9134521195e-01 0.0000000000e+00 0.0000e+00 1.0000e+00
</event>
<event>
 4      1 +2.4041262e-06 9.11880000e+01 7.81860800e-03 1.13011600e-01
       25 -1    0    0    0    0 +0.0000000000e+00 +0.0000000000e+00 +9.9999998245e-15 1.2500000000e+02 1.2500000000e+02 0.0000e+00 0.0000e+00
      -13  1    1    0    0    0 +5.1581292315e+01 +2.1787307081e+01 -2.7765488413e+01 6.2499999821e+01 1.0566000000e-01 0.0000e+00 1.0000e+00
       13  1    1    0    0    0 -5.1581292346e+01 -2.1787307338e+01 +2.7765488189e+01 6.2499999836e+01 1.0566000000e-01 0.0000e+00 1.0000e+00
       22  1    1    0    0    0 +3.1170493340e-08 +2.5740984518e-07 +2.2478618860e-07 3.4316214626e-07 0.0000000000e+00 0.0000e+00 1.0000e+00
</event>
<event>
 5      1 +2.4041262e-06 9.11880000e+01 7.81860800e-03 1.13011600e-01
       25 -1    0    0    0    0 +0.0000000000e+00 +0.0000000000e+00 +9.9999998245e-15 1.2500000000e+02 1.2500000000e+02 0.0000e+00 0.0000e+00
       23  2    1    0    0    0 -2.7831179267e+01 +7.8004527935e-01 -1.6660229643e+01 9.2553948441e+01 8.6680373270e+01 0.0000e+00 0.0000e+00
      -11  1    2    2    0    0 +1.5518244608e+01 +2.5604880036e+01 +1.4922517022e+01 3.3453061323e+01 5.1100000000e-04 0.0000e+00 -1.0000e+00
       11  1    2    2    0    0 -4.3349423875e+01 -2.4824834757e+01 -3.1582746665e+01 5.9100887118e+01 5.1100000000e-04 0.0000e+00 1.0000e+00
       22  1    1    0    0    0 +2.7831179267e+01 -7.8004527935e-01 +1.6660229643e+01 3.2446051559e+01 0.0000000000e+00 0.0000e+00 1.0000e+00
</event>
<event>
 5      1 +2.4041262e-06 9.11880000e+01 7.81860800e-03 1.13011600e-01
       25 -1    0    0    0    0 +0.0000000000e+00 +0.0000000000e+00 +9.9999998245e-15 1.2500000000e+02 1.2500000000e+02 0.0000e+00 0.0000e+00
       23  2    1    0    0    0 -1.5387684139e+01 +1.0472869661e+01 -1.7445344778e+01 9.9489181187e+01 9.6162858198e+01 0.0000e+00 0.0000e+00
      -13  1    2    2    0    0 -4.6412485374e+01 -2.3113380367e+01 -4.9235045426e+00 5.2082619093e+01 1.0566000000e-01 0.0000e+00 -1.0000e+00
       13  1    2    2    0    0 +3.1024801235e+01 +3.3586250028e+01 -1.2521840235e+01 4.7406562094e+01 1.0566000000e-01 0.0000e+00 1.0000e+00
       22  1    1    0    0    0 +1.5387684139e+01 -1.0472869661e+01 +1.7445344778e+01 2.5510818813e+01 0.0000000000e+00 0.0000e+00 -1.0000e+00
</event>
<event>
 4      1 +2.4041262e-06 9.11880000e+01 7.81860800e-03 1.13011600e-01
       25 -1    0    0    0    0 +0.0000000000e+00 +0.0000000000e+00 +9.9999998245e-15 1.2500000000e+02 1.2500000000e+02 0.0000e+00 0.0000e+00
      -13  1    1    0    0    0 +5.4100312313e+01 +1.8371473226e+01 +2.5335417129e+01 6.2499994768e+01 1.0566000000e-01 0.0000e+00 -1.0000e+00
       13  1    1    0    0    0 -5.2903145726e+01 -1.7961136868e+01 -2.4777676102e+01 6.1117016144e+01 1.0566000000e-01 0.0000e+00 -1.0000e+00
       22  1    1    0    0    0 -1.1971665878e+00 -4.1033635705e-01 -5.5774102685e-01 1.3829890881e+00 0.0000000000e+00 0.0000e+00 -1.0000e+00
</event>
<event>
 5      1 +2.4041262e-06 9.11880000e+01 7.81860800e-03 1.13011600e-01
       25 -1    0    0    0    0 +0.0000000000e+00 +0.0000000000e+00 +9.9999998245e-15 1.2500000000e+02 1.2500000000e+02 0.0000e+00 0.0000e+00
       23  2    1    0    0    0 -1.8808129343e+01 +1.9013482064e+01 +1.3370502166e+01 9.5099689671e+01 9.0276920737e+01 0.0000e+00 0.0000e+00
      -11  1    2    2    0    0 +2.5044958008e+01 -1.3670443443e+01 -1.6316757375e+01 3.2868944568e+01 5.1100000000e-04 0.0000e+00 1.0000e+00
       11  1    2    2    0    0 -4.3853087351e+01 +3.2683925507e+01 +2.9687259542e+01 6.2230745103e+01 5.1100000000e-04 0.0000e+00 -1.0000e+00
       22  1    1    0    0    0 +1.8808129343e+01 -1.9013482064e+01 -1.3370502166e+01 2.9900310329e+01 0.0000000000e+00 0.0000e+00 -1.0000e+00
</event>
<event>
 4      1 +2.4041262e-06 9.11880000e+01 7.81860800e-03 1.13011600e-01
       25 -1    0    0    0    0 +0.0000000000e+00 +0.0000000000e+00 +9.9999998245e-15 1.2500000000e+02 1.2500000000e+02 0.0000e+00 0.0000e+00
      -13  1    1    0    0    0 +2.5850968053e+01 +5.2062963298e+01 -2.2965498891e+01 6.2500000000e+01 1.0566000000e-01 0.0000e+00 1.0000e+00
       13  1    1    0    0    0 -2.5850968053e+01 -5.2062963298e+01 +2.2965498891e+01 6.2500000000e+01 1.0566000000e-01 0.0000e+00 1.0000e+00
       22  1    1    0    0    0 -8.8379299648e-11 -6.2908758900e-11 -8.4847852558e-11 1.3772280362e-10 0.0000000000e+00 0.0000e+00 1.0000e+00
</event>
<event>
 4      1 +2.4041262e-06 9.11880000e+01 7.81860800e-03 1.13011600e-01
       25 -1    0    0    0    0 +0.0000000000e+00 +0.0000000000e+00 +9.9999998245e-15 1.2500000000e+02 1.2500000000e+02 0.0000e+00 0.0000e+00
      -11  1    1    0    0    0 +1.1750608699e+01 +3.1445349394e+01 +1.3754556520e+01 3.6277742882e+01 5.1100000000e-04 0.0000e+00 -1.0000e+00
       11  1    1    0    0    0 +7.8844661909e+00 +2.2453255228e+01 +1.1034934214e+01 2.6231341003e+01 5.1100000000e-04 0.0000e+00 1.0000e+00
       22  1    1    0    0    0 -1.9635074889e+01 -5.3898604622e+01 -2.4789490734e+01 6.2490916115e+01 0.0000000000e+00 0.0000e+00 1.0000e+00
</event>
<event>
 4      1 +2.4041262e-06 9.11880000e+01 7.81860800e-03 1.13011600e-01
       25 -1    0    0    0    0 +0.0000000000e+00 +0.0000000000e+00 +9.9999998245e-15 1.2500000000e+02 1.2500000000e+02 0.0000e+00 0.0000e+00
      -13  1    1    0    0    0 -1.7615284769e+01 -5.6016657006e+01 -2.1402674238e+01 6.2499997986e+01 1.0566000000e-01 0.0000e+00 -1.0000e+00
       13  1    1    0    0    0 +1.7610880397e+01 +5.6003031985e+01 +2.1397102304e+01 6.2484636919e+01 1.0566000000e-01 0.0000e+00 -1.0000e+00
       22  1    1    0    0    0 +4.4043721289e-03 +1.3625021443e-02 +5.5719337486e-03 1.5365095147e-02 0.0000000000e+00 0.0000e+00 -1.0000e+00
</event>
<event>
 4      1 +2.4041262e-06 9.11880000e+01 7.81860800e-03 1.13011600e-01
       25 -1    0    0    0    0 +0.0000000000e+00 +0.0000000000e+00 +9.9999998245e-15 1.2500000000e+02 1.2500000000e+02 0.0000e+00 0.0000e+00
      -13  1    1    0    0    0 +6.1296955347e+01 -7.1434586761e+00 +9.8940710254e+00 6.2499996337e+01 1.0566000000e-01 0.0000e+00 -1.0000e+00
       13  1    1    0    0    0 -6.1228343665e+01 +7.1344523802e+00 -9.8830436617e+00 6.2429930280e+01 1.0566000000e-01 0.0000e+00 -1.0000e+00
       22  1    1    0    0    0 -6.8611681570e-02 +9.0062959032e-03 -1.1027363660e-02 7.0073382701e-02 0.0000000000e+00 0.0000e+00 1.0000e+00
</event>
<event>
 5      1 +2.4041262e-06 9.11880000e+01 7.81860800e-03 1.13011600e-01
       25 -1    0    0    0    0 +0.0000000000e+00 +0.0000000000e+00 +9.9999998245e-15 1.2500000000e+02 1.2500000000e+02 0.0000e+00 0.0000e+00
       23  2    1    0    0    0 +1.1907895430e+01 +2.6341782830e+00 -2.7524733350e+01 9.4894388982e+01 8.9992206582e+01 0.0000e+00 0.0000e+00
      -13  1    2    2    0    0 -2.9299982671e+01 +4.1096563407e+00 -4.1841288830e+01 5.1245320516e+01 1.0566000000e-01 0.0000e+00 1.0000e+00
       13  1    2    2    0    0 +4.1207878101e+01 -1.4754780577e+00 +1.4316555480e+01 4.3649068466e+01 1.0566000000e-01 0.0000e+00 -1.0000e+00
       22  1    1    0    0    0 -1.1907895430e+01 -2.6341782830e+00 +2.7524733350e+01 3.0105611018e+01 0.0000000000e+00 0.0000e+00 1.0000e+00
</event>
<event>
 5      1 +2.4041262e-06 9.11880000e+01 7.81860800e-03 1.13011600e-01
       25 -1    0    0    0    0 +0.0000000000e+00 +0.0000000000e+00 +9.9999998245e-15 1.2500000000e+02 1.2500000000e+02 0.0000e+00 0.0000e+00
       23  2    1    0    0    0 +1.9139476855e+00 +1.8151607359e+01 +2.1288085937e+01 9.6958483488e+01 9.2814981937e+01 0.0000e+00 0.0000e+00
      -11  1    2    2    0    0 +1.0684941159e+01 -1.1883731346e+01 -3.1655042672e+01 3.5460298435e+01 5.1100000000e-04 0.0000e+00 -1.0000e+00
       11  1    2    2    0    0 -8.7709934739e+00 +3.0035338704e+01 +5.2943128609e+01 6.1498185053e+01 5.1100000000e-04 0.0000e+00 1.0000e+00
       22  1    1    0    0    0 -1.9139476855e+00 -1.8151607359e+01 -2.1288085937e+01 2.8041516512e+01 0.0000000000e+00 0.0000e+00 1.0000e+00
</event>
<event>
 4      1 +2.4041262e-06 9.11880000e+01 7.81860800e-03 1.13011600e-01
       25 -1    0    0    0    0 +0.0000000000e+00 +0.0000000000e+00 +9.9999998245e-15 1.2500000000e+02 1.2500000000e+02 0.0000e+00 0.0000e+00
      -11  1    1    0    0    0 +1.0399177679e+01 -1.4363756283e+01 -1.9046756871e+01 2.6023822519e+01 5.1100000000e-04 0.0000e+00 -1.0000e+00
       11  1    1    0    0    0 +1.4812087939e+01 -2.0084393921e+01 -2.6603469821e+01 3.6476368173e+01 5.1100000000e-04 0.0000e+00 1.0000e+00
       22  1    1    0    0    0 -2.5211265618e+01 +3.4448150204e+01 +4.5650226692e+01 6.2499809308e+01 0.0000000000e+00 0.0000e+00 -1.0000e+00
</event>
<event>
 4      1 +2.4041262e-06 9.11880000e+01 7.81860800e-03 1.13011600e-01
       25 -1    0    0    0    0 +0.0000000000e+00 +0.0000000000e+00 +9.9999998245e-15 1.2500000000e+02 1.2500000000e+02 0.0000e+00 0.0000e+00
      -13  1    1    0    0    0 +1.8486466289e+01 +1.3488168505e+01 -4.6831295169e+00 2.3358574263e+01 1.0566000000e-01 0.0000e+00 1.0000e+00
       13  1    1    0    0    0 +3.0920457813e+01 +2.2766772832e+01 -7.5942079497e+00 3.9141842253e+01 1.0566000000e-01 0.0000e+00 -1.0000e+00
       22  1    1    0    0    0 -4.9406924102e+01 -3.6254941336e+01 +1.2277337467e+01 6.2499583485e+01 0.0000000000e+00 0.0000e+00 -1.0000e+00
</event>
<event>
 4      1 +2.4041262e-06 9.11880000e+01 7.81860800e-03 1.13011600e-01
       25 -1    0    0    0    0 +0.0000000000e+00 +0.0000000000e+00 +9.9999998245e-15 1.2500000000e+02 1.2500000000e+02 0.0000e+00 0.0000e+00
      -13  1    1    0    0    0 -1.6462602065e+01 -4.6487468500e+01 -3.8394291873e+01 6.2499878454e+01 1.0566000000e-01 0.0000e+00 -1.0000e+00
       13  1    1    0    0    0 +1.6462642820e+01 +4.6487570617e+01 +3.8393928554e+01 6.2499741954e+01 1.0566000000e-01 0.0000e+00 -1.0000e+00
       22  1    1    0    0    0 -4.0755701361e-05 -1.0211731668e-04 +3.6331952020e-04 3.7959194843e-04 0.0000000000e+00 0.0000e+00 1.0000e+00
</event>
<event>
 4      1 +2.4041262e-06 9.11880000e+01 7.81860800e-03 1.13011600e-01
       25 -1    0    0    0    0 +0.0000000000e+00 +0.0000000000e+00 +9.9999998245e-15 1.2500000000e+02 1.2500000000e+02 0.0000e+00 0.0000e+00
      -13  1    1    0    0    0 +2.2877797364e+00 -5.3084233886e+01 +3.2876587790e+01 6.2482405621e+01 1.0566000000e-01 0.0000e+00 -1.0000e+00
       13  1    1    0    0    0 -2.2896895452e+00 +5.3099528986e+01 -3.2885136913e+01 6.2499968405e+01 1.0566000000e-01 0.0000e+00 -1.0000e+00
       22  1    1    0    0    0 +1.9098087866e-03 -1.5295100260e-02 +8.5491235947e-03 1.7625974464e-02 0.0000000000e+00 0.0000e+00 1.0000e+00
</event>
<event>
 4      1 +2.4041262e-06 9.11880000e+01 7.81860800e-03 1.13011600e-01
       25 -1    0    0    0    0 +0.0000000000e+00 +0.0000000000e+00 +9.9999998245e-15 1.2500000000e+02 1.2500000000e+02 0.0000e+00 0.0000e+00
      -13  1    1    0    0    0 +1.3440780455e+01 -5.8071851196e+01 -1.8794794863e+01 6.2499999668e+01 1.0566000000e-01 0.0000e+00 1.0000e+00
       13  1    1    0    0    0 -1.3410137312e+01 +5.7937863067e+01 +1.8751507613e+01 6.2355897567e+01 1.0566000000e-01 0.0000e+00 1.0000e+00
       22  1    1    0    0    0 -3.0643143037e-02 +1.3398812893e-01 +4.3287249312e-02 1.4410276494e-01 0.0000000000e+00 0.0000e+00 1.0000e+00
</event>
<event>
 4      1 +2.4041262e-06 9.11880000e+01 7.81860800e-03 1.13011600e-01
       25 -1    0    0    0    0 +0.0000000000e+00 +0.0000000000e+00 +9.9999998245e-15 1.2500000000e+02 1.2500000000e+02 0.0000e+00 0.0000e+00
      -11  1    1    0    0    0 -4.9425226405e+00 -2.4332979428e+01 -1.9961094418e+01 3.1858557854e+01 5.1100000000e-04 0.0000e+00 -1.0000e+00
       11  1    1    0    0    0 -4.9517989595e+00 -2.3337748334e+01 -1.9228585401e+01 3.0641627030e+01 5.1100000000e-04 0.0000e+00 1.0000e+00
       22  1    1    0    0    0 +9.8943216000e+00 +4.7670727762e+01 +3.9189679819e+01 6.2499815117e+01 0.0000000000e+00 0.0000e+00 -1.0000e+00
</event>
<event>
 4      1 +2.4041262e-06 9.11880000e+01 7.81860800e-03 1.13011600e-01
       25 -1    0    0    0    0 +0.0000000000e+00 +0.0000000000e+00 +9.9999998245e-15 1.2500000000e+02 1.2500000000e+02 0.0000e+00 0.0000e+00
      -13  1    1    0    0    0 +4.6937100121e+01 -9.5160470913e+00 -3.8739226364e+01 6.1598582316e+01 1.0566000000e-01 0.0000e+00 -1.0000e+00
       13  1    1    0    0    0 -4.7409802842e+01 +1.0464651102e+01 +3.9039309642e+01 6.2299897187e+01 1.0566000000e-01 0.0000e+00 -1.0000e+00
       22  1    1    0    0    0 +4.7270272009e-01 -9.4860401113e-01 -3.0008327785e-01 1.1015204969e+00 0.0000000000e+00 0.0000e+00 1.0000e+00
</event>
<event>
 4      1 +2.4041262e-06 9.11880000e+01 7.81860800e-03 1.13011600e-01
       25 -1    0    0    0    0 +0.0000000000e+00 +0.0000000000e+00 +9.9999998245e-15 1.2500000000e+02 1.2500000000e+02 0.0000e+00 0.0000e+00
      -13  1    1    0    0    0 +3.6142444590e+01 -4.0555330939e+01 -3.0906720919e+01 6.2499981844e+01 1.0566000000e-01 0.0000e+00 -1.0000e+00
       13  1    1    0    0    0 -3.6142449041e+01 +4.0555345262e+01 +3.0906732289e+01 6.2499999335e+01 1.0566000000e-01 0.0000e+00 -1.0000e+00
       22  1    1    0    0    0 +4.4515134174e-06 -1.4322662800e-05 -1.1370448303e-05 1.8821310688e-05 0.0000000000e+00 0.0000e+00 -1.0000e+00
</event>
<event>
 4      1 +2.4041262e-06 9.11880000e+01 7.81860800e-03 1.13011600e-01
       25 -1    0    0    0    0 +0.0000000000e+00 +0.0000000000e+00 +9.9999998245e-15 1.2500000000e+02 1.2500000000e+02 0.0000e+00 0.0000e+00
      -13  1    1    0    0    0 -6.1514598921e+00 +2.5985107544e+01 +5.5831383217e+01 6.1888777567e+01 1.0566000000e-01 0.0000e+00 -1.0000e+00
       13  1    1    0    0    0 +6.2119337792e+00 -2.6242143015e+01 -5.6382626546e+01 6.2499999452e+01 1.0566000000e-01 0.0000e+00 -1.0000e+00
       22  1    1    0    0    0 -6.0473887092e-02 +2.5703547070e-01 +5.5124332899e-01 6.1122298056e-01 0.0000000000e+00 0.0000e+00 -1.0000e+00
</event>
<event>
 4      1 +2.4041262e-06 9.11880000e+01 7.81860800e-03 1.13011600e-01
       25 -1    0    0    0    0 +0.0000000000e+00 +0.0000000000e+00 +9.9999998245e-15 1.2500000000e+02 1.2500000000e+02 0.0000e+00 0.0000e+00
      -13  1    1    0    0    0 +1.3831540912e+01 -5.8335121093e+01 -1.7646534705e+01 6.2495673674e+01 1.0566000000e-01 0.0000e+00 1.0000e+00
       13  1    1    0    0    0 -1.3832352863e+01 +5.8339205361e+01 +1.7647713340e+01 6.2499998544e+01 1.0566000000e-01 0.0000e+00 1.0000e+00
       22  1    1    0    0    0 +8.1195077520e-04 -4.0842681676e-03 -1.1786350621e-03 4.3277813179e-03 0.0000000000e+00 0.0000e+00 1.0000e+00
</event>
<event>
 4      1 +2.4041262e-06 9.11880000e+01 7.81860800e-03 1.13011600e-01
       25 -1    0    0    0    0 +0.0000000000e+00 +0.0000000000e+00 +9.9999998245e-15 1.2500000000e+02 1.2500000000e+02 0.0000e+00 0.0000e+00
      -13  1    1    0    0    0 +4.8363769861e+01 +1.3625718696e+01 -3.7151561234e+01 6.2489712044e+01 1.0566000000e-01 0.0000e+00 -1.0000e+00
       13  1    1    0    0    0 -4.8372831747e+01 -1.3620572443e+01 +3.7156709390e+01 6.2498664479e+01 1.0566000000e-01 0.0000e+00 -1.0000e+00
       22  1    1    0    0    0 +9.0618860698e-03 -5.1462528933e-03 -5.1481557696e-03 1.1623476494e-02 0.0000000000e+00 0.0000e+00 -1.0000e+00
</event>
<event>
 5      1 +2.4041262e-06 9.11880000e+01 7.81860800e-03 1.13011600e-01
       25 -1    0    0    0    0 +0.0000000000e+00 +0.0000000000e+00 +9.9999998245e-15 1.2500000000e+02 1.2500000000e+02 0.0000e+00 0.0000e+00
       23  2    1    0    0    0 -2.8448376159e+01 -9.4424699268e+00 +1.4401184648e+01 9.1745459503e+01 8.5506519493e+01 0.0000e+00 0.0000e+00
      -13  1    2    2    0    0 -3.5866018289e+01 +7.5612679845e+00 +4.3718616079e+01 5.7051490755e+01 1.0566000000e-01 0.0000e+00 -1.0000e+00
       13  1    2    2    0    0 +7.4176421308e+00 -1.7003737911e+01 -2.9317431431e+01 3.4693968748e+01 1.0566000000e-01 0.0000e+00 1.0000e+00
       22  1    1    0    0    0 +2.8448376159e+01 +9.4424699268e+00 -1.4401184648e+01 3.3254540497e+01 0.0000000000e+00 0.0000e+00 -1.0000e+00
</event>
<event>
 4      1 +2.4041262e-06 9.11880000e+01 7.81860800e-03 1.13011600e-01
       25 -1    0    0    0    0 +0.0000000000e+00 +0.0000000000e+00 +9.9999998245e-15 1.2500000000e+02 1.2500000000e+02 0.0000e+00 0.0000e+00
      -13  1    1    0    0    0 +6.1582298126e+01 +5.6616065831e+00 -9.0028564943e+00 6.2493966274e+01 1.0566000000e-01 0.0000e+00 1.0000e+00
       13  1    1    0    0    0 -6.1588247442e+01 -5.6621575630e+00 +9.0036981343e+00 6.2499999963e+01 1.0566000000e-01 0.0000e+00 1.0000e+00
       22  1    1    0    0    0 +5.9493157130e-03 +5.5097986042e-04 -8.4164003136e-04 6.0337628560e-03 0.0000000000e+00 0.0000e+00 1.0000e+00
</event>
<event>
 4      1 +2.4041262e-06 9.11880000e+01 7.81860800e-03 1.13011600e-01
       25 -1    0    0    0    0 +0.0000000000e+00 +0.0000000000e+00 +9.9999998245e-15 1.2500000000e+02 1.2500000000e+02 0.0000e+00 0.0000e+00
      -13  1    1    0    0    0 -5.3856922651e+01 -3.1710385825e+01 +3.4949861021e-01 6.2499999999e+01 1.0566000000e-01 0.0000e+00 -1.0000e+00
       13  1    1    0    0    0 +5.3856922652e+01 +3.1710385825e+01 -3.4949861047e-01 6.2500000000e+01 1.0566000000e-01 0.0000e+00 -1.0000e+00
       22  1    1    0    0    0 -6.3315377842e-10 +5.7584982756e-11 +2.5633208218e-10 6.8549680795e-10 0.0000000000e+00 0.0000e+00 1.0000e+00
</event>
<event>
 5      1 +2.4041262e-06 9.11880000e+01 7.81860800e-03 1.13011600e-01
       25 -1    0    0    0    0 +0.0000000000e+00 +0.0000000000e+00 +9.9999998245e-15 1.2500000000e+02 1.2500000000e+02 0.0000e+00 0.0000e+00
       23  2    1    0    0    0 -2.1867532766e+01 +1.3999660162e+01 +1.3396748359e+01 9.5782670544e+01 9.1217693657e+01 0.0000e+00 0.0000e+00
      -13  1    2    2    0    0 +3.4503680562e+01 +7.3838989427e+00 +1.6473476068e+01 3.8941141659e+01 1.0566000000e-01 0.0000e+00 1.0000e+00
       13  1    2    2    0    0 -5.6371213328e+01 +6.6157612198e+00 -3.0767277090e+00 5.6841528885e+01 1.0566000000e-01 0.0000e+00 -1.0000e+00
       22  1    1    0    0    0 +2.1867532766e+01 -1.3999660162e+01 -1.3396748359e+01 2.9217329456e+01 0.0000000000e+00 0.0000e+00 -1.0000e+00
</event>
<event>
 4      1 +2.4041262e-06 9.11880000e+01 7.81860800e-03 1.13011600e-01
       25 -1    0    0    0    0 +0.0000000000e+00 +0.0000000000e+00 +9.9999998245e-15 1.2500000000e+02 1.2500000000e+02 0.0000e+00 0.0000e+00
      -13  1    1    0    0    0 -4.8283217722e+01 -3.4225170537e+01 -2.0089983174e+01 6.2499999999e+01 1.0566000000e-01 0.0000e+00 1.0000e+00
       13  1    1    0    0    0 +4.8283217723e+01 +3.4225170537e+01 +2.0089983175e+01 6.2500000000e+01 1.0566000000e-01 0.0000e+00 1.0000e+00
       22  1    1    0    0    0 -1.2126097816e-09 +1.3747696884e-10 -8.6988553119e-10 1.4986738260e-09 0.0000000000e+00 0.0000e+00 1.0000e+00
</event>
<event>
 4      1 +2.4041262e-06 9.11880000e+01 7.81860800e-03 1.13011600e-01
       25 -1    0    0    0    0 +0.0000000000e+00 +0.0000000000e+00 +9.9999998245e-15 1.2500000000e+02 1.2500000000e+02 0.0000e+00 0.0000e+00
      -13  1    1    0    0    0 +3.5340499023e+01 +5.1426647448e+01 -3.5478154748e+00 6.2499992781e+01 1.0566000000e-01 0.0000e+00 1.0000e+00
       13  1    1    0    0    0 -3.5326827820e+01 -5.1405256341e+01 +3.5462579613e+00 6.2474572851e+01 1.0566000000e-01 0.0000e+00 1.0000e+00
       22  1    1    0    0    0 -1.3671203305e-02 -2.1391106506e-02 +1.5575134782e-03 2.5434368197e-02 0.0000000000e+00 0.0000e+00 1.0000e+00
</event>
<event>
 4      1 +2.4041262e-06 9.11880000e+01 7.81860800e-03 1.13011600e-01
       25 -1    0    0    0    0 +0.0000000000e+00 +0.0000000000e+00 +9.9999998245e-15 1.2500000000e+02 1.2500000000e+02 0.0000e+00 0.0000e+00
      -13  1    1    0    0    0 -2.6769868327e+00 +4.0532822542e+00 +9.6043494708e-01 4.9526714870e+00 1.0566000000e-01 0.0000e+00 1.0000e+00
       13  1    1    0    0    0 -3.3046755515e+01 +4.5921826901e+01 +1.0539042296e+01 5.7549846330e+01 1.0566000000e-01 0.0000e+00 -1.0000e+00
       22  1    1    0    0    0 +3.5723742348e+01 -4.9975109155e+01 -1.1499477243e+01 6.2497482183e+01 0.0000000000e+00 0.0000e+00 -1.0000e+00
</event>
<event>
 5      1 +2.4041262e-06 9.11880000e+01 7.81860800e-03 1.13011600e-01
       25 -1    0    0    0    0 +0.0000000000e+00 +0.0000000000e+00 +9.9999998245e-15 1.2500000000e+02 1.2500000000e+02 0.0000e+00 0.0000e+00
       23  2    1    0    0    0 -2.8734260085e+01 -4.3062230772e+00 +6.6906178890e+00 9.5184473381e+01 9.0394238452e+01 0.0000e+00 0.0000e+00
      -13  1    2    2    0    0 +1.9202153946e+01 +1.9607020792e+01 +2.6422279196e+01 3.8096010059e+01 1.0566000000e-01 0.0000e+00 -1.0000e+00
       13  1    2    2    0    0 -4.7936414031e+01 -2.3913243869e+01 -1.9731661307e+01 5.7088463322e+01 1.0566000000e-01 0.0000e+00 1.0000e+00
       22  1    1    0    0    0 +2.8734260085e+01 +4.3062230772e+00 -6.6906178890e+00 2.9815526619e+01 0.0000000000e+00 0.0000e+00 1.0000e+00
</event>
<event>
 4      1 +2.4041262e-06 9.11880000e+01 7.81860800e-03 1.13011600e-01
       25 -1    0    0    0    0 +0.0000000000e+00 +0.0000000000e+00 +9.9999998245e-15 1.2500000000e+02 1.2500000000e+02 0.0000e+00 0.0000e+00
      -13  1    1    0    0    0 -2.0708782370e+01 +1.4859020661e+01 -5.7066581059e+01 6.2500000000e+01 1.0566000000e-01 0.0000e+00 -1.0000e+00
       13  1    1    0    0    0 +2.0708782370e+01 -1.4859020661e+01 +5.7066581058e+01 6.2500000000e+01 1.0566000000e-01 0.0000e+00 -1.0000e+00
       22  1    1    0    0    0 +1.5108815998e-10 -5.6639169160e-11 +4.2413660270e-10 4.5379233722e-10 0.0000000000e+00 0.0000e+00 -1.0000e+00
</event>
<event>
 4      1 +2.4041262e-06 9.11880000e+01 7.81860800e-03 1.13011600e-01
       25 -1    0    0    0    0 +0.0000000000e+00 +0.0000000000e+00 +9.9999998245e-15 1.2500000000e+02 1.2500000000e+02 0.0000e+00 0.0000e+00
      -13  1    1    0    0    0 +4.9679958794e+01 +1.1947605974e+01 -3.5991599563e+01 6.2499999980e+01 1.0566000000e-01 0.0000e+00 1.0000e+00
       13  1    1    0    0    0 -4.9679109659e+01 -1.1947396577e+01 +3.5990974159e+01 6.2498924842e+01 1.0566000000e-01 0.0000e+00 1.0000e+00
       22  1    1    0    0    0 -8.4913572443e-04 -2.0939728379e-04 +6.2540421940e-04 1.0751786543e-03 0.0000000000e+00 0.0000e+00 -1.0000e+00
</event>
<event>
 4      1 +2.4041262e-06 9.11880000e+01 7.81860800e-03 1.13011600e-01
       25 -1    0    0    0    0 +0.0000000000e+00 +0.0000000000e+00 +9.9999998245e-15 1.2500000000e+02 1.2500000000e+02 0.0000e+00 0.0000e+00
      -13  1    1    0    0    0 +2.6551385554e+01 -5.4127865733e+01 -1.6449198067e+01 6.2493113258e+01 1.0566000000e-01 0.0000e+00 -1.0000e+00
       13  1    1    0    0    0 -2.6553132172e+01 +5.4134593232e+01 +1.6444331020e+01 6.2498401574e+01 1.0566000000e-01 0.0000e+00 -1.0000e+00
       22  1    1    0    0    0 +1.7466187120e-03 -6.7274995832e-03 +4.8670475793e-03 8.4851682191e-03 0.0000000000e+00 0.0000e+00 -1.0000e+00
</event>
<event>
 5      1 +2.4041262e-06 9.11880000e+01 7.81860800e-03 1.13011600e-01
       25 -1    0    0    0    0 +0.0000000000e+00 +0.0000000000e+00 +9.9999998245e-15 1.2500000000e+02 1.2500000000e+02 0.0000e+00 0.0000e+00
       23  2    1    0    0    0 -1.6773925761e+01 +6.3015832626e+00 -2.3891040537e+01 9.5136035846e+01 9.0327232668e+01 0.0000e+00 0.0000e+00
      -11  1    2    2    0    0 +1.8731026725e+01 +2.8977417934e+01 -3.7409238628e+01 5.0891976257e+01 5.1100000000e-04 0.0000e+00 1.0000e+00
       11  1    2    2    0    0 -3.5504952486e+01 -2.2675834671e+01 +1.3518198091e+01 4.4244059589e+01 5.1100000000e-04 0.0000e+00 -1.0000e+00
       22  1    1    0    0    0 +1.6773925761e+01 -6.3015832626e+00 +2.3891040537e+01 2.9863964154e+01 0.0000000000e+00 0.0000e+00 1.0000e+00
</event>
<event>
 4      1 +2.4041262e-06 9.11880000e+01 7.81860800e-03 1.13011600e-01
       25 -1    0    0    0    0 +0.0000000000e+00 +0.0000000000e+00 +9.9999998245e-15 1.2500000000e+02 1.2500000000e+02 0.0000e+00 0.0000e+00
      -11  1    1    0    0    0 +2.0529677909e+00 +1.2464238892e+00 -1.1396423037e+00 2.6583893815e+00 5.1100000000e-04 0.0000e+00 -1.0000e+00
       11  1    1    0    0    0 +4.6234639795e+01 +2.8216909999e+01 -2.5439810564e+01 5.9841623379e+01 5.1100000000e-04 0.0000e+00 1.0000e+00
       22  1    1    0    0    0 -4.8287607586e+01 -2.9463333888e+01 +2.6579452867e+01 6.2499987239e+01 0.0000000000e+00 0.0000e+00 1.0000e+00
</event>
<event>
 4      1 +2.4041262e-06 9.11880000e+01 7.81860800e-03 1.13011600e-01
       25 -1    0    0    0    0 +0.0000000000e+00 +0.0000000000e+00 +9.9999998245e-15 1.2500000000e+02 1.2500000000e+02 0.0000e+00 0.0000e+00
      -13  1    1    0    0    0 +2.4025754337e+01 -8.6608000750e+00 -5.7007369538e+01 6.2466772568e+01 1.0566000000e-01 0.0000e+00 -1.0000e+00
       13  1    1    0    0    0 -2.4095579631e+01 +8.6838704811e+00 +5.6930991984e+01 6.2427202217e+01 1.0566000000e-01 0.0000e+00 -1.0000e+00
       22  1    1    0    0    0 +6.9825294428e-02 -2.3070406166e-02 +7.6377554400e-02 1.0602521492e-01 0.0000000000e+00 0.0000e+00 1.0000e+00
</event>
<event>
 5      1 +2.4041262e-06 9.11880000e+01 7.81860800e-03 1.13011600e-01
       25 -1    0    0    0    0 +0.0000000000e+00 +0.0000000000e+00 +9.9999998245e-15 1.2500000000e+02 1.2500000000e+02 0.0000e+00 0.0000e+00
       23  2    1    0    0    0 -1.2887952270e+01 -2.4090829877e+01 +8.2792970223e+00 9.6451547204e+01 9.2129728106e+01 0.0000e+00 0.0000e+00
      -13  1    2    2    0    0 +5.5380677539e+00 -5.5964621463e+01 -6.8375657432e+00 5.6652206658e+01 1.0566000000e-01 0.0000e+00 1.0000e+00
       13  1    2    2    0    0 -1.8426020023e+01 +3.1873791586e+01 +1.5116862765e+01 3.9799340545e+01 1.0566000000e-01 0.0000e+00 -1.0000e+00
       22  1    1    0    0    0 +1.2887952270e+01 +2.4090829877e+01 -8.2792970223e+00 2.8548452796e+01 0.0000000000e+00 0.0000e+00 1.0000e+00
</event>
<event>
 4      1 +2.4041262e-06 9.11880000e+01 7.81860800e-03 1.13011600e-01
       25 -1    0    0    0    0 +0.0000000000e+00 +0.0000000000e+00 +9.9999998245e-15 1.2500000000e+02 1.2500000000e+02 0.0000e+00 0.0000e+00
      -11  1    1    0    0    0 -6.6729885921e+00 -1.2491565555e+01 +5.9266579719e+00 1.5352304770e+01 5.1100000000e-04 0.0000e+00 -1.0000e+00
       11  1    1    0    0    0 -1.8976857901e+01 -4.1030842569e+01 +1.3531109630e+01 4.7188368332e+01 5.1100000000e-04 0.0000e+00 1.0000e+00
       22  1    1    0    0    0 +2.5649846493e+01 +5.3522408124e+01 -1.9457767602e+01 6.2459326898e+01 0.0000000000e+00 0.0000e+00 1.0000e+00
</event>
<event>
 4      1 +2.4041262e-06 9.11880000e+01 7.81860800e-03 1.13011600e-01
       25 -1    0    0    0    0 +0.0000000000e+00 +0.0000000000e+00 +9.9999998245e-15 1.2500000000e+02 1.2500000000e+02 0.0000e+00 0.0000e+00
      -13  1    1    0    0    0 -4.3353108301e+01 +9.4788085298e+00 -2.9948123344e+01 5.3537286693e+01 1.0566000000e-01 0.0000e+00 1.0000e+00
       13  1    1    0    0    0 -4.7349167947e+00 -1.1348935939e-01 -8.1326135153e+00 9.4118480391e+00 1.0566000000e-01 0.0000e+00 -1.0000e+00
       22  1    1    0    0    0 +4.8088025096e+01 -9.3653191704e+00 +3.8080736860e+01 6.2050865268e+01 0.0000000000e+00 0.0000e+00 1.0000e+00
</event>
<event>
 4      1 +2.4041262e-06 9.11880000e+01 7.81860800e-03 1.13011600e-01
       25 -1    0    0    0    0 +0.0000000000e+00 +0.0000000000e+00 +9.9999998245e-15 1.2500000000e+02 1.2500000000e+02 0.0000e+00 0.0000e+00
      -13  1    1    0    0    0 -4.8168977463e+01 -2.4045773160e+00 -3.9751810701e+01 6.2499999999e+01 1.0566000000e-01 0.0000e+00 1.0000e+00
       13  1    1    0    0    0 +4.8168977412e+01 +2.4045773086e+00 +3.9751810672e+01 6.2499999942e+01 1.0566000000e-01 0.0000e+00 1.0000e+00
       22  1    1    0    0    0 +5.0925504600e-08 +7.4432111724e-09 +2.8218574663e-08 5.8694943286e-08 0.0000000000e+00 0.0000e+00 1.0000e+00
</event>
<event>
 4      1 +2.4041262e-06 9.11880000e+01 7.81860800e-03 1.13011600e-01
       25 -1    0    0    0    0 +0.0000000000e+00 +0.0000000000e+00 +9.9999998245e-15 1.2500000000e+02 1.2500000000e+02 0.0000e+00 0.0000e+00
      -13  1    1    0    0    0 -3.9706231953e+00 -1.1739336990e+01 +6.1253183994e+01 6.2494332503e+01 1.0566000000e-01 0.0000e+00 -1.0000e+00
       13  1    1    0    0    0 +3.9703987133e+00 +1.1740059582e+01 -6.1258821457e+01 6.2499979482e+01 1.0566000000e-01 0.0000e+00 -1.0000e+00
       22  1    1    0    0    0 +2.2448207355e-04 -7.2259207245e-04 +5.6374627336e-03 5.6880152581e-03 0.0000000000e+00 0.0000e+00 1.0000e+00
</event>
<event>
 4      1 +2.4041262e-06 9.11880000e+01 7.81860800e-03 1.13011600e-01
       25 -1    0    0    0    0 +0.0000000000e+00 +0.0000000000e+00 +9.9999998245e-15 1.2500000000e+02 1.2500000000e+02 0.0000e+00 0.0000e+00
      -13  1    1    0    0    0 -3.5798415974e+01 +3.9349369513e+01 -3.2807611442e+01 6.2500000000e+01 1.0566000000e-01 0.0000e+00 1.0000e+00
       13  1    1    0    0    0 +3.5798415954e+01 -3.9349369480e+01 +3.2807611417e+01 6.2499999953e+01 1.0566000000e-01 0.0000e+00 1.0000e+00
       22  1    1    0    0    0 +2.0886289864e-08 -3.3554680886e-08 +2.5287482787e-08 4.6921322438e-08 0.0000000000e+00 0.0000e+00 -1.0000e+00
</event>
<event>
 4      1 +2.4041262e-06 9.11880000e+01 7.81860800e-03 1.13011600e-01
       25 -1    0    0    0    0 +0.0000000000e+00 +0.0000000000e+00 +9.9999998245e-15 1.2500000000e+02 1.2500000000e+02 0.0000e+00 0.0000e+00
      -13  1    1    0    0    0 -5.1801640085e+01 +2.0443716678e+01 +2.8364241480e+01 6.2497174543e+01 1.0566000000e-01 0.0000e+00 -1.0000e+00
       13  1    1    0    0    0 +5.1803979086e+01 -2.0444653832e+01 -2.8365519811e+01 6.2499999981e+01 1.0566000000e-01 0.0000e+00 -1.0000e+00
       22  1    1    0    0    0 -2.3390012443e-03 +9.3715408852e-04 +1.2783309138e-03 2.8254759832e-03 0.0000000000e+00 0.0000e+00 -1.0000e+00
</event>
<event>
 4      1 +2.4041262e-06 9.11880000e+01 7.81860800e-03 1.13011600e-01
       25 -1    0    0    0    0 +0.0000000000e+00 +0.0000000000e+00 +9.9999998245e-15 1.2500000000e+02 1.2500000000e+02 0.0000e+00 0.0000e+00
      -13  1    1    0    0    0 -3.9418612279e+01 +4.8466087956e+01 -1.8574606878e+00 6.2500000000e+01 1.0566000000e-01 0.0000e+00 -1.0000e+00
       13  1    1    0    0    0 +3.9418612265e+01 -4.8466087939e+01 +1.8574606872e+00 6.2499999978e+01 1.0566000000e-01 0.0000e+00 -1.0000e+00
       22  1    1    0    0    0 +1.4114152153e-08 -1.6511579506e-08 +5.3005442396e-10 2.1728380208e-08 0.0000000000e+00 0.0000e+00 1.0000e+00
</event>
<event>
 4      1 +2.4041262e-06 9.11880000e+01 7.81860800e-03 1.13011600e-01
       25 -1    0    0    0    0 +0.0000000000e+00 +0.0000000000e+00 +9.9999998245e-15 1.2500000000e+02 1.2500000000e+02 0.0000e+00 0.0000e+00
      -11  1    1    0    0    0 +5.1457533141e+00 +1.1787818690e+00 +2.9149253812e+00 6.0303477598e+00 5.1100000000e-04 0.0000e+00 -1.0000e+00
       11  1    1    0    0    0 +5.4991473391e+01 +4.5746184700e+00 -1.5381223214e+01 5.7285000722e+01 5.1100000000e-04 0.0000e+00 1.0000e+00
       22  1    1    0    0    0 -6.0137226705e+01 -5.7534003390e+00 +1.2466297833e+01 6.1684651518e+01 0.0000000000e+00 0.0000e+00 1.0000e+00
</event>
<event>
 4      1 +2.4041262e-06 9.11880000e+01 7.81860800e-03 1.13011600e-01
       25 -1    0    0    0    0 +0.0000000000e+00 +0.0000000000e+00 +9.9999998245e-15 1.2500000000e+02 1.2500000000e+02 0.0000e+00 0.0000e+00
      -13  1    1    0    0    0 -6.1776455951e+01 +2.3117333509e+00 -9.1958803294e+00 6.2500000000e+01 1.0566000000e-01 0.0000e+00 -1.0000e+00
       13  1    1    0    0    0 +6.1776454860e+01 -2.3117333336e+00 +9.1958801918e+00 6.2499998901e+01 1.0566000000e-01 0.0000e+00 -1.0000e+00
       22  1    1    0    0    0 +1.0909429504e-06 -1.7310316564e-08 +1.3761089941e-07 1.0997240235e-06 0.0000000000e+00 0.0000e+00 -1.0000e+00
</event>
<event>
 5      1 +2.4041262e-06 9.11880000e+01 7.81860800e-03 1.13011600e-01
       25 -1    0    0    0    0 +0.0000000000e+00 +0.0000000000e+00 +9.9999998245e-15 1.2500000000e+02 1.2500000000e+02 0.0000e+00 0.0000e+00
       23  2    1    0    0    0 +1.3421871297e+01 +3.0232983680e+00 -1.0541910090e+01 1.0766740555e+02 1.0626312336e+02 0.0000e+00 0.0000e+00
      -13  1    2    2    0    0 -3.3919692940e+01 -3.2788245521e+01 +1.0367573297e+00 4.7187929000e+01 1.0566000000e-01 0.0000e+00 -1.0000e+00
       13  1    2    2    0    0 +4.7341564237e+01 +3.5811543889e+01 -1.1578667420e+01 6.0479476547e+01 1.0566000000e-01 0.0000e+00 -1.0000e+00
       22  1    1    0    0    0 -1.3421871297e+01 -3.0232983680e+00 +1.0541910090e+01 1.7332594454e+01 0.0000000000e+00 0.0000e+00 1.0000e+00
</event>
<event>
 4      1 +2.4041262e-06 9.11880000e+01 7.81860800e-03 1.13011600e-01
       25 -1    0    0    0    0 +0.0000000000e+00 +0.0000000000e+00 +9.9999998245e-15 1.2500000000e+02 1.2500000000e+02 0.0000e+00 0.0000e+00
      -11  1    1    0    0    0 -3.0013239892e+00 +3.3787937201e+00 +8.8762902666e+00 9.9605583101e+00 5.1100000000e-04 0.0000e+00 1.0000e+00
       11  1    1    0    0    0 -1.5826538548e+01 +1.7797551161e+01 +4.6831195202e+01 5.2539442270e+01 5.1100000000e-04 0.0000e+00 -1.0000e+00
       22  1    1    0    0    0 +1.8827862537e+01 -2.1176344881e+01 -5.5707485468e+01 6.2499999420e+01 0.0000000000e+00 0.0000e+00 -1.0000e+00
</event>
<event>
 4      1 +2.4041262e-06 9.11880000e+01 7.81860800e-03 1.13011600e-01
       25 -1    0    0    0    0 +0.0000000000e+00 +0.0000000000e+00 +9.9999998245e-15 1.2500000000e+02 1.2500000000e+02 0.0000e+00 0.0000e+00
      -13  1    1    0    0    0 +4.0142226903e+00 +5.6212934605e+01 -2.7022783038e+01 6.2499999743e+01 1.0566000000e-01 0.0000e+00 -1.0000e+00
       13  1    1    0    0    0 -4.0141200463e+00 -5.6210922638e+01 +2.7021844393e+01 6.2497777736e+01 1.0566000000e-01 0.0000e+00 -1.0000e+00
       22  1    1    0    0    0 -1.0264400758e-04 -2.0119671223e-03 +9.3864425588e-04 2.2225212108e-03 0.0000000000e+00 0.0000e+00 1.0000e+00
</event>
<event>
 5      1 +2.4041262e-06 9.11880000e+01 7.81860800e-03 1.13011600e-01
       25 -1    0    0    0    0 +0.0000000000e+00 +0.0000000000e+00 +9.9999998245e-15 1.2500000000e+02 1.2500000000e+02 0.0000e+00 0.0000e+00
       23  2    1    0    0    0 -1.5033682924e+01 -1.9030468415e+01 +1.8737789287e+01 9.4352404699e+01 8.9236209998e+01 0.0000e+00 0.0000e+00
      -13  1    2    2    0    0 -1.3654013136e+01 -1.5025274582e+01 -3.4992183917e+01 4.0455593560e+01 1.0566000000e-01 0.0000e+00 1.0000e+00
       13  1    2    2    0    0 -1.3796697881e+00 -4.0051938331e+00 +5.3729973204e+01 5.3896811139e+01 1.0566000000e-01 0.0000e+00 -1.0000e+00
       22  1    1    0    0    0 +1.5033682924e+01 +1.9030468415e+01 -1.8737789287e+01 3.0647595301e+01 0.0000000000e+00 0.0000e+00 -1.0000e+00
</event>
<event>
 4      1 +2.4041262e-06 9.11880000e+01 7.81860800e-03 1.13011600e-01
       25 -1    0    0    0    0 +0.0000000000e+00 +0.0000000000e+00 +9.9999998245e-15 1.2500000000e+02 1.2500000000e+02 0.0000e+00 0.0000e+00
      -13  1    1    0    0    0 -3.1915403877e+00 -4.5862151427e+01 +4.2340474701e+01 6.2499998604e+01 1.0566000000e-01 0.0000e+00 -1.0000e+00
       13  1    1    0    0    0 +3.1915381660e+00 +4.5862150526e+01 -4.2340475965e+01 6.2499998686e+01 1.0566000000e-01 0.0000e+00 -1.0000e+00
       22  1    1    0    0    0 +2.2216565360e-06 +9.0108165736e-07 +1.2644589552e-06 2.7104542732e-06 0.0000000000e+00 0.0000e+00 1.0000e+00
</event>
<event>
 4      1 +2.4041262e-06 9.11880000e+01 7.81860800e-03 1.13011600e-01
       25 -1    0    0    0    0 +0.0000000000e+00 +0.0000000000e+00 +9.9999998245e-15 1.2500000000e+02 1.2500000000e+02 0.0000e+00 0.0000e+00
      -13  1    1    0    0    0 +1.1596014465e+01 -2.3352779939e+01 -1.7658576971e+00 2.6133298678e+01 1.0566000000e-01 0.0000e+00 -1.0000e+00
       13  1    1    0    0    0 +1.7696671073e+01 -3.1548437787e+01 -3.8979584605e+00 3.6382431723e+01 1.0566000000e-01 0.0000e+00 1.0000e+00
       22  1    1    0    0    0 -2.9292685538e+01 +5.4901217726e+01 +5.6638161576e+00 6.2484269599e+01 0.0000000000e+00 0.0000e+00 -1.0000e+00
</event>
<event>
 4      1 +2.4041262e-06 9.11880000e+01 7.81860800e-03 1.13011600e-01
       25 -1    0    0    0    0 +0.0000000000e+00 +0.0000000000e+00 +9.9999998245e-15 1.2500000000e+02 1.2500000000e+02 0.0000e+00 0.0000e+00
      -13  1    1    0    0    0 +4.3975916731e+01 -3.8033732650e+01 +2.2383856712e+01 6.2301639440e+01 1.0566000000e-01 0.0000e+00 -1.0000e+00
       13  1    1    0    0    0 -4.4119856838e+01 +3.8142625268e+01 -2.2467065160e+01 6.2499614484e+01 1.0566000000e-01 0.0000e+00 -1.0000e+00
       22  1    1    0    0    0 +1.4394010668e-01 -1.0889261852e-01 +8.3208447754e-02 1.9874607532e-01 0.0000000000e+00 0.0000e+00 1.0000e+00
</event>
<event>
 4      1 +2.4041262e-06 9.11880000e+01 7.81860800e-03 1.13011600e-01
       25 -1    0    0    0    0 +0.0000000000e+00 +0.0000000000e+00 +9.9999998245e-15 1.2500000000e+02 1.2500000000e+02 0.0000e+00 0.0000e+00
      -13  1    1    0    0    0 +3.1405225645e+01 +4.6348990372e+01 +2.7779876730e+01 6.2499998572e+01 1.0566000000e-01 0.0000e+00 1.0000e+00
       13  1    1    0    0    0 -3.1405226680e+01 -4.6348991370e+01 -2.7779877022e+01 6.2499999961e+01 1.0566000000e-01 0.0000e+00 1.0000e+00
       22  1    1    0    0    0 +1.0347997516e-06 +9.9778810642e-07 +2.9201348023e-07 1.4668549703e-06 0.0000000000e+00 0.0000e+00 -1.0000e+00
</event>
<event>
 4      1 +2.4041262e-06 9.11880000e+01 7.81860800e-03 1.13011600e-01
       25 -1    0    0    0    0 +0.0000000000e+00 +0.0000000000e+00 +9.9999998245e-15 1.2500000000e+02 1.2500000000e+02 0.0000e+00 0.0000e+00
      -13  1    1    0    0    0 +4.4713728115e+01 -2.4329222947e+01 -3.6262817775e+01 6.2499853506e+01 1.0566000000e-01 0.0000e+00 -1.0000e+00
       13  1    1    0    0    0 -4.4713836106e+01 +2.4329279325e+01 +3.6262899211e+01 6.2499999960e+01 1.0566000000e-01 0.0000e+00 -1.0000e+00
       22  1    1    0    0    0 +1.0799044259e-04 -5.6378212288e-05 -8.1436087436e-05 1.4653421051e-04 0.0000000000e+00 0.0000e+00 1.0000e+00
</event>
<event>
 4      1 +2.4041262e-06 9.11880000e+01 7.81860800e-03 1.13011600e-01
       25 -1    0    0    0    0 +0.0000000000e+00 +0.0000000000e+00 +9.9999998245e-15 1.2500000000e+02 1.2500000000e+02 0.0000e+00 0.0000e+00
      -11  1    1    0    0    0 -8.7265318193e+00 -9.0107311778e-01 -1.1842506485e+01 1.4738020575e+01 5.1100000000e-04 0.0000e+00 -1.0000e+00
       11  1    1    0    0    0 -2.3692098482e+01 -1.6778246965e+01 +4.9586014493e+01 5.7459533024e+01 5.1100000000e-04 0.0000e+00 1.0000e+00
       22  1    1    0    0    0 +3.2418630302e+01 +1.7679320082e+01 -3.7743508009e+01 5.2802446402e+01 0.0000000000e+00 0.0000e+00 1.0000e+00
</event>
<event>
 4      1 +2.4041262e-06 9.11880000e+01 7.81860800e-03 1.13011600e-01
       25 -1    0    0    0    0 +0.0000000000e+00 +0.0000000000e+00 +9.9999998245e-15 1.2500000000e+02 1.2500000000e+02 0.0000e+00 0.0000e+00
      -13  1    1    0    0    0 -1.4147457929e+01 -1.3475587017e+01 +5.9367472176e+01 6.2499999423e+01 1.0566000000e-01 0.0000e+00 -1.0000e+00
       13  1    1    0    0    0 +1.4106813942e+01 +1.3436736888e+01 -5.9194838738e+01 6.2318441853e+01 1.0566000000e-01 0.0000e+00 -1.0000e+00
       22  1    1    0    0    0 +4.0643987267e-02 +3.8850129412e-02 -1.7263343796e-01 1.8155872372e-01 0.0000000000e+00 0.0000e+00 -1.0000e+00
</event>
<event>
 4      1 +2.4041262e-06 9.11880000e+01 7.81860800e-03 1.13011600e-01
       25 -1    0    0    0    0 +0.0000000000e+00 +0.0000000000e+00 +9.9999998245e-15 1.2500000000e+02 1.2500000000e+02 0.0000e+00 0.0000e+00
      -13  1    1    0    0    0 -5.9636137851e+01 +1.8643806297e+01 -1.1562297925e+00 6.2493267496e+01 1.0566000000e-01 0.0000e+00 -1.0000e+00
       13  1    1    0    0    0 +5.9194159656e+01 -1.8438048204e+01 +1.2415608996e+00 6.2011795623e+01 1.0566000000e-01 0.0000e+00 -1.0000e+00
       22  1    1    0    0    0 +4.4197819495e-01 -2.0575809301e-01 -8.5331107139e-02 4.9493688032e-01 0.0000000000e+00 0.0000e+00 -1.0000e+00
</event>
<event>
 4      1 +2.4041262e-06 9.11880000e+01 7.81860800e-03 1.13011600e-01
       25 -1    0    0    0    0 +0.0000000000e+00 +0.0000000000e+00 +9.9999998245e-15 1.2500000000e+02 1.2500000000e+02 0.0000e+00 0.0000e+00
      -13  1    1    0    0    0 +4.8807720706e+01 -3.3056143471e+01 +2.0768644976e+01 6.2499999999e+01 1.0566000000e-01 0.0000e+00 1.0000e+00
       13  1    1    0    0    0 -4.8807720670e+01 +3.3056143455e+01 -2.0768644954e+01 6.2499999955e+01 1.0566000000e-01 0.0000e+00 1.0000e+00
       22  1    1    0    0    0 -3.6201102433e-08 +1.6533348322e-08 -2.2408107688e-08 4.5672691122e-08 0.0000000000e+00 0.0000e+00 -1.0000e+00
</event>
<event>
 4      1 +2.4041262e-06 9.11880000e+01 7.81860800e-03 1.13011600e-01
       25 -1    0    0    0    0 +0.0000000000e+00 +0.0000000000e+00 +9.9999998245e-15 1.2500000000e+02 1.2500000000e+02 0.0000e+00 0.0000e+00
      -13  1    1    0    0    0 +1.1800750173e+01 -4.3795208206e+01 +4.2415756258e+01 6.2099802813e+01 1.0566000000e-01 0.0000e+00 -1.0000e+00
       13  1    1    0    0    0 -1.1918261412e+01 +4.4080725940e+01 -4.2672327348e+01 6.2498752306e+01 1.0566000000e-01 0.0000e+00 -1.0000e+00
       22  1    1    0    0    0 +1.1751123942e-01 -2.8551773394e-01 +2.5657109018e-01 4.0144488052e-01 0.0000000000e+00 0.0000e+00 1.0000e+00
</event>
<event>
 4      1 +2.4041262e-06 9.11880000e+01 7.81860800e-03 1.13011600e-01
       25 -1    0    0    0    0 +0.0000000000e+00 +0.0000000000e+00 +9.9999998245e-15 1.2500000000e+02 1.2500000000e+02 0.0000e+00 0.0000e+00
      -13  1    1    0    0    0 +3.5443906357e+01 +3.9035556160e+01 +3.3558099001e+01 6.2499618520e+01 1.0566000000e-01 0.0000e+00 1.0000e+00
       13  1    1    0    0    0 -3.5443105684e+01 -3.9035917192e+01 -3.3558276720e+01 6.2499485374e+01 1.0566000000e-01 0.0000e+00 1.0000e+00
       22  1    1    0    0    0 -8.0067272408e-04 +3.6103194290e-04 +1.7771876669e-04 8.9610537044e-04 0.0000000000e+00 0.0000e+00 -1.0000e+00
</event>
<event>
 4      1 +2.4041262e-06 9.11880000e+01 7.81860800e-03 1.13011600e-01
       25 -1    0    0    0    0 +0.0000000000e+00 +0.0000000000e+00 +9.9999998245e-15 1.2500000000e+02 1.2500000000e+02 0.0000e+00 0.0000e+00
      -13  1    1    0    0    0 +2.7323909132e+01 -5.1219713936e+01 -2.3155551875e+01 6.2499966821e+01 1.0566000000e-01 0.0000e+00 -1.0000e+00
       13  1    1    0    0    0 -2.7323803719e+01 +5.1219715465e+01 +2.3155443073e+01 6.2499881680e+01 1.0566000000e-01 0.0000e+00 -1.0000e+00
       22  1    1    0    0    0 -1.0541269951e-04 -1.5292831911e-06 +1.0880213838e-04 1.5149944304e-04 0.0000000000e+00 0.0000e+00 -1.0000e+00
</event>
<event>
 4      1 +2.4041262e-06 9.11880000e+01 7.81860800e-03 1.13011600e-01
       25 -1    0    0    0    0 +0.0000000000e+00 +0.0000000000e+00 +9.9999998245e-15 1.2500000000e+02 1.2500000000e+02 0.0000e+00 0.0000e+00
      -11  1    1    0    0    0 +6.4304481295e-01 +6.1917271437e-02 -5.4689654410e+00 5.5069886177e+00 5.1100000000e-04 0.0000e+00 1.0000e+00
       11  1    1    0    0    0 -9.1027351808e+00 -2.0595803256e+00 -5.6323840394e+01 5.7091826524e+01 5.1100000000e-04 0.0000e+00 -1.0000e+00
       22  1    1    0    0    0 +8.4596903679e+00 +1.9976630542e+00 +6.1792805835e+01 6.2401184858e+01 0.0000000000e+00 0.0000e+00 -1.0000e+00
</event>
<event>
 4      1 +2.4041262e-06 9.11880000e+01 7.81860800e-03 1.13011600e-01
       25 -1    0    0    0    0 +0.0000000000e+00 +0.0000000000e+00 +9.9999998245e-15 1.2500000000e+02 1.2500000000e+02 0.0000e+00 0.0000e+00
      -13  1    1    0    0    0 -4.9119066555e+01 +3.4761520894e+01 +1.6063686940e+01 6.2282415145e+01 1.0566000000e-01 0.0000e+00 -1.0000e+00
       13  1    1    0    0    0 +4.9293275647e+01 -3.4779684472e+01 -1.6233189854e+01 6.2473843269e+01 1.0566000000e-01 0.0000e+00 -1.0000e+00
       22  1    1    0    0    0 -1.7420909121e-01 +1.8163578178e-02 +1.6950291411e-01 2.4374158636e-01 0.0000000000e+00 0.0000e+00 -1.0000e+00
</event>
<event>
 4      1 +2.4041262e-06 9.11880000e+01 7.81860800e-03 1.13011600e-01
       25 -1    0    0    0    0 +0.0000000000e+00 +0.0000000000e+00 +9.9999998245e-15 1.2500000000e+02 1.2500000000e+02 0.0000e+00 0.0000e+00
      -11  1    1    0    0    0 -7.7704898937e+00 -2.8133969464e+01 -3.4223562751e+01 4.4979473081e+01 5.1100000000e-04 0.0000e+00 1.0000e+00
       11  1    1    0    0    0 -2.9225490179e+00 -1.0991763593e+01 -1.3327153062e+01 1.7520649778e+01 5.1100000000e-04 0.0000e+00 -1.0000e+00
       22  1    1    0    0    0 +1.0693038912e+01 +3.9125733057e+01 +4.7550715813e+01 6.2499877141e+01 0.0000000000e+00 0.0000e+00 1.0000e+00
</event>
<event>
 4      1 +2.4041262e-06 9.11880000e+01 7.81860800e-03 1.13011600e-01
       25 -1    0    0    0    0 +0.0000000000e+00 +0.0000000000e+00 +9.9999998245e-15 1.2500000000e+02 1.2500000000e+02 0.0000e+00 0.0000e+00
      -11  1    1    0    0    0 -1.3844099117e+00 +6.3503237176e+00 -8.4553609942e+00 1.0664723715e+01 5.1100000000e-04 0.0000e+00 -1.0000e+00
       11  1    1    0    0    0 -7.0112354167e+00 +3.0844358972e+01 -4.1065446433e+01 5.1835343092e+01 5.1100000000e-04 0.0000e+00 1.0000e+00
       22  1    1    0    0    0 +8.3956453284e+00 -3.7194682690e+01 +4.9520807427e+01 6.2499933193e+01 0.0000000000e+00 0.0000e+00 1.0000e+00
</event>
<event>
 4      1 +2.4041262e-06 9.11880000e+01 7.81860800e-03 1.13011600e-01
       25 -1    0    0    0    0 +0.0000000000e+00 +0.0000000000e+00 +9.9999998245e-15 1.2500000000e+02 1.2500000000e+02 0.0000e+00 0.0000e+00
      -13  1    1    0    0    0 -3.3038904908e+01 -5.3025027560e+01 -1.7366779713e+00 6.2499999998e+01 1.0566000000e-01 0.0000e+00 1.0000e+00
       13  1    1    0    0    0 +3.3038784918e+01 +5.3024836144e+01 +1.7366728562e+00 6.2499774029e+01 1.0566000000e-01 0.0000e+00 1.0000e+00
       22  1    1    0    0    0 +1.1999004055e-04 +1.9141615132e-04 +5.1151046407e-06 2.2597326637e-04 0.0000000000e+00 0.0000e+00 1.0000e+00
</event>
<event>
 4      1 +2.4041262e-06 9.11880000e+01 7.81860800e-03 1.13011600e-01
       25 -1    0    0    0    0 +0.0000000000e+00 +0.0000000000e+00 +9.9999998245e-15 1.2500000000e+02 1.2500000000e+02 0.0000e+00 0.0000e+00
      -13  1    1    0    0    0 +5.1290686964e+01 -2.2178346099e+01 -2.7993306895e+01 6.2499999999e+01 1.0566000000e-01 0.0000e+00 1.0000e+00
       13  1    1    0    0    0 -5.1290626383e+01 +2.2178319778e+01 +2.7993274381e+01 6.2499926380e+01 1.0566000000e-01 0.0000e+00 1.0000e+00
       22  1    1    0    0    0 -6.0580789012e-05 +2.6321545524e-05 +3.2513818044e-05 7.3620677258e-05 0.0000000000e+00 0.0000e+00 -1.0000e+00
</event>
<event>
 4      1 +2.4041262e-06 9.11880000e+01 7.81860800e-03 1.13011600e-01
       25 -1    0    0    0    0 +0.0000000000e+00 +0.0000000000e+00 +9.9999998245e-15 1.2500000000e+02 1.2500000000e+02 0.0000e+00 0.0000e+00
      -13  1    1    0    0    0 -2.0119596187e+00 +1.6453648662e+01 -1.2291174406e+01 2.0636246464e+01 1.0566000000e-01 0.0000e+00 1.0000e+00
       13  1    1    0    0    0 -3.4387552893e+00 +3.3251346972e+01 -2.5202882266e+01 4.1864944189e+01 1.0566000000e-01 0.0000e+00 -1.0000e+00
       22  1    1    0    0    0 +5.4507149080e+00 -4.9704995634e+01 +3.7494056673e+01 6.2498809347e+01 0.0000000000e+00 0.0000e+00 -1.0000e+00
</event>
<event>
 4      1 +2.4041262e-06 9.11880000e+01 7.81860800e-03 1.13011600e-01
       25 -1    0    0    0    0 +0.0000000000e+00 +0.0000000000e+00 +9.9999998245e-15 1.2500000000e+02 1.2500000000e+02 0.0000e+00 0.0000e+00
      -13  1    1    0    0    0 -4.1438991583e+01 +3.9419866875e+01 -2.5201467796e+01 6.2499928568e+01 1.0566000000e-01 0.0000e+00 -1.0000e+00
       13  1    1    0    0    0 +4.1439038909e+01 -3.9419911940e+01 +2.5201496641e+01 6.2500000000e+01 1.0566000000e-01 0.0000e+00 -1.0000e+00
       22  1    1    0    0    0 -4.7325977345e-05 +4.5064375147e-05 -2.8845192684e-05 7.1432423871e-05 0.0000000000e+00 0.0000e+00 -1.0000e+00
</event>
<event>
 5      1 +2.4041262e-06 9.11880000e+01 7.81860800e-03 1.13011600e-01
       25 -1    0    0    0    0 +0.0000000000e+00 +0.0000000000e+00 +9.9999998245e-15 1.2500000000e+02 1.2500000000e+02 0.0000e+00 0.0000e+00
       23  2    1    0    0    0 -5.5847918920e-01 -2.0566725221e+01 -2.7211110741e+01 9.0886269142e+01 8.4241125856e+01 0.0000e+00 0.0000e+00
      -13  1    2    2    0    0 +3.7038878218e+01 -2.2218223625e+01 -3.0848685841e+01 5.3077118826e+01 1.0566000000e-01 0.0000e+00 -1.0000e+00
       13  1    2    2    0    0 -3.7597357407e+01 +1.6514984036e+00 +3.6375750999e+00 3.7809150316e+01 1.0566000000e-01 0.0000e+00 1.0000e+00
       22  1    1    0    0    0 +5.5847918920e-01 +2.0566725221e+01 +2.7211110741e+01 3.4113730858e+01 0.0000000000e+00 0.0000e+00 -1.0000e+00
</event>
<event>
 4      1 +2.4041262e-06 9.11880000e+01 7.81860800e-03 1.13011600e-01
       25 -1    0    0    0    0 +0.0000000000e+00 +0.0000000000e+00 +9.9999998245e-15 1.2500000000e+02 1.2500000000e+02 0.0000e+00 0.0000e+00
      -11  1    1    0    0    0 -4.8253216136e+00 +1.1525500386e+01 -7.2393807435e+00 1.4440551293e+01 5.1100000000e-04 0.0000e+00 -1.0000e+00
       11  1    1    0    0    0 -1.6061093721e+01 +3.8354839696e+01 -2.4096849456e+01 4.8059448744e+01 5.1100000000e-04 0.0000e+00 1.0000e+00
       22  1    1    0    0    0 +2.0886415335e+01 -4.9880340082e+01 +3.1336230200e+01 6.2499999963e+01 0.0000000000e+00 0.0000e+00 1.0000e+00
</event>
<event>
 4      1 +2.4041262e-06 9.11880000e+01 7.81860800e-03 1.13011600e-01
       25 -1    0    0    0    0 +0.0000000000e+00 +0.0000000000e+00 +9.9999998245e-15 1.2500000000e+02 1.2500000000e+02 0.0000e+00 0.0000e+00
      -11  1    1    0    0    0 -3.8996536914e+01 +1.7448507729e+00 -1.6145923975e+01 4.2242931442e+01 5.1100000000e-04 0.0000e+00 -1.0000e+00
       11  1    1    0    0    0 -1.8439981652e+01 +1.4368652400e+00 -8.2759967210e+00 2.0263011302e+01 5.1100000000e-04 0.0000e+00 1.0000e+00
       22  1    1    0    0    0 +5.7436518566e+01 -3.1817160129e+00 +2.4421920696e+01 6.2494057256e+01 0.0000000000e+00 0.0000e+00 -1.0000e+00
</event>
<event>
 4      1 +2.4041262e-06 9.11880000e+01 7.81860800e-03 1.13011600e-01
       25 -1    0    0    0    0 +0.0000000000e+00 +0.0000000000e+00 +9.9999998245e-15 1.2500000000e+02 1.2500000000e+02 0.0000e+00 0.0000e+00
      -13  1    1    0    0    0 -2.5476605640e+01 -5.6676458843e+01 -6.7052527205e+00 6.2500000000e+01 1.0566000000e-01 0.0000e+00 1.0000e+00
       13  1    1    0    0    0 +2.5476605638e+01 +5.6676458840e+01 +6.7052527196e+00 6.2499999996e+01 1.0566000000e-01 0.0000e+00 1.0000e+00
       22  1    1    0    0    0 +1.2648211568e-09 +3.2996785583e-09 +9.0300536656e-10 3.6473373630e-09 0.0000000000e+00 0.0000e+00 1.0000e+00
</event>
<event>
 4      1 +2.4041262e-06 9.11880000e+01 7.81860800e-03 1.13011600e-01
       25 -1    0    0    0    0 +0.0000000000e+00 +0.0000000000e+00 +9.9999998245e-15 1.2500000000e+02 1.2500000000e+02 0.0000e+00 0.0000e+00
      -13  1    1    0    0    0 -1.0421442225e+01 +1.9294881056e+01 -5.8525465099e+01 6.2499120971e+01 1.0566000000e-01 0.0000e+00 1.0000e+00
       13  1    1    0    0    0 +1.0421590760e+01 -1.9295152995e+01 +5.8526287706e+01 6.2499999998e+01 1.0566000000e-01 0.0000e+00 1.0000e+00
       22  1    1    0    0    0 -1.4853465784e-04 +2.7193970684e-04 -8.2260686501e-04 8.7903117300e-04 0.0000000000e+00 0.0000e+00 -1.0000e+00
</event>
<event>
 5      1 +2.4041262e-06 9.11880000e+01 7.81860800e-03 1.13011600e-01
       25 -1    0    0    0    0 +0.0000000000e+00 +0.0000000000e+00 +9.9999998245e-15 1.2500000000e+02 1.2500000000e+02 0.0000e+00 0.0000e+00
       23  2    1    0    0    0 +1.9078474490e+01 +2.1091644648e+01 -8.3961079768e+00 9.5346327512e+01 9.0617779040e+01 0.0000e+00 0.0000e+00
      -11  1    2    2    0    0 +2.7932125129e+01 -3.1182095684e+01 -1.5937660090e+00 4.1893517348e+01 5.1100000000e-04 0.0000e+00 -1.0000e+00
       11  1    2    2    0    0 -8.8536506389e+00 +5.2273740332e+01 -6.8023419678e+00 5.3452810164e+01 5.1100000000e-04 0.0000e+00 1.0000e+00
       22  1    1    0    0    0 -1.9078474490e+01 -2.1091644648e+01 +8.3961079768e+00 2.9653672488e+01 0.0000000000e+00 0.0000e+00 1.0000e+00
</event>
<event>
 4      1 +2.4041262e-06 9.11880000e+01 7.81860800e-03 1.13011600e-01
       25 -1    0    0    0    0 +0.0000000000e+00 +0.0000000000e+00 +9.9999998245e-15 1.2500000000e+02 1.2500000000e+02 0.0000e+00 0.0000e+00
      -13  1    1    0    0    0 -4.2074512425e+01 -4.6350146754e+00 +4.5983592939e+01 6.2499999524e+01 1.0566000000e-01 0.0000e+00 -1.0000e+00
       13  1    1    0    0    0 +4.2072638555e+01 +4.6348774778e+00 -4.5981585569e+01 6.2497250978e+01 1.0566000000e-01 0.0000e+00 -1.0000e+00
       22  1    1    0    0    0 +1.8738700606e-03 +1.3719765724e-04 -2.0073692385e-03 2.7494987654e-03 0.0000000000e+00 0.0000e+00 1.0000e+00
</event>
<event>
 5      1 +2.4041262e-06 9.11880000e+01 7.81860800e-03 1.13011600e-01
       25 -1    0    0    0    0 +0.0000000000e+00 +0.0000000000e+00 +9.9999998245e-15 1.2500000000e+02 1.2500000000e+02 0.0000e+00 0.0000e+00
       23  2    1    0    0    0 -4.3998583409e+00 -7.9438929901e+00 -2.8356580327e+01 9.5224845305e+01 9.0450048791e+01 0.0000e+00 0.0000e+00
      -13  1    2    2    0    0 -1.6688316115e+01 +3.6846572683e+01 -2.7238029775e+01 4.8765676898e+01 1.0566000000e-01 0.0000e+00 -1.0000e+00
       13  1    2    2    0    0 +1.2288457774e+01 -4.4790465674e+01 -1.1185505526e+00 4.6459168407e+01 1.0566000000e-01 0.0000e+00 1.0000e+00
       22  1    1    0    0    0 +4.3998583409e+00 +7.9438929901e+00 +2.8356580327e+01 2.9775154695e+01 0.0000000000e+00 0.0000e+00 1.0000e+00
</event>
<event>
 4      1 +2.4041262e-06 9.11880000e+01 7.81860800e-03 1.13011600e-01
       25 -1    0    0    0    0 +0.0000000000e+00 +0.0000000000e+00 +9.9999998245e-15 1.2500000000e+02 1.2500000000e+02 0.0000e+00 0.0000e+00
      -13  1    1    0    0    0 +4.5754348223e+01 -4.0681142609e+01 +1.2522113903e+01 6.2491841435e+01 1.0566000000e-01 0.0000e+00 1.0000e+00
       13  1    1    0    0    0 -4.5708015249e+01 +4.0678370918e+01 -1.2537600118e+01 6.2459227496e+01 1.0566000000e-01 0.0000e+00 1.0000e+00
       22  1    1    0    0    0 -4.6332973387e-02 +2.7716910648e-03 +1.5486215200e-02 4.8931069429e-02 0.0000000000e+00 0.0000e+00 1.0000e+00
</event>
<event>
 4      1 +2.4041262e-06 9.11880000e+01 7.81860800e-03 1.13011600e-01
       25 -1    0    0    0    0 +0.0000000000e+00 +0.0000000000e+00 +9.9999998245e-15 1.2500000000e+02 1.2500000000e+02 0.0000e+00 0.0000e+00
      -13  1    1    0    0    0 +2.4290498007e+00 +5.4970333286e+01 +2.9641048947e+01 6.2499926170e+01 1.0566000000e-01 0.0000e+00 -1.0000e+00
       13  1    1    0    0    0 -2.4290426020e+00 -5.4970404970e+01 -2.9641069800e+01 6.2499998828e+01 1.0566000000e-01 0.0000e+00 -1.0000e+00
       22  1    1    0    0    0 -7.1987285848e-06 +7.1683987687e-05 +2.0852841434e-05 7.5001711846e-05 0.0000000000e+00 0.0000e+00 -1.0000e+00
</event>
<event>
 4      1 +2.4041262e-06 9.11880000e+01 7.81860800e-03 1.13011600e-01
       25 -1    0    0    0    0 +0.0000000000e+00 +0.0000000000e+00 +9.9999998245e-15 1.2500000000e+02 1.2500000000e+02 0.0000e+00 0.0000e+00
      -13  1    1    0    0    0 +1.2085094840e+01 -1.3696908009e+00 -4.4920301011e+00 1.2965919507e+01 1.0566000000e-01 0.0000e+00 1.0000e+00
       13  1    1    0    0    0 +4.9638063583e+01 -3.4062570032e+00 -1.9432900140e+00 4.9792845703e+01 1.0566000000e-01 0.0000e+00 -1.0000e+00
       22  1    1    0    0    0 -6.1723158424e+01 +4.7759478041e+00 +6.4353201151e+00 6.2241234790e+01 0.0000000000e+00 0.0000e+00 -1.0000e+00
</event>
<event>
 4      1 +2.4041262e-06 9.11880000e+01 7.81860800e-03 1.13011600e-01
       25 -1    0    0    0    0 +0.0000000000e+00 +0.0000000000e+00 +9.9999998245e-15 1.2500000000e+02 1.2500000000e+02 0.0000e+00 0.0000e+00
      -13  1    1    0    0    0 +4.3005317273e+01 +4.4595190296e+01 -8.2270050771e+00 6.2497064634e+01 1.0566000000e-01 0.0000e+00 1.0000e+00
       13  1    1    0    0    0 -4.2493039199e+01 -4.3960450924e+01 +8.1849939669e+00 6.1686180916e+01 1.0566000000e-01 0.0000e+00 1.0000e+00
       22  1    1    0    0    0 -5.1227807443e-01 -6.3473937258e-01 +4.2011110186e-02 8.1675444904e-01 0.0000000000e+00 0.0000e+00 -1.0000e+00
</event>
<event>
 4      1 +2.4041262e-06 9.11880000e+01 7.81860800e-03 1.13011600e-01
       25 -1    0    0    0    0 +0.0000000000e+00 +0.0000000000e+00 +9.9999998245e-15 1.2500000000e+02 1.2500000000e+02 0.0000e+00 0.0000e+00
      -11  1    1    0    0    0 -1.2490272616e+01 +7.8646168862e+00 +2.6985709824e+01 3.0758537738e+01 5.1100000000e-04 0.0000e+00 -1.0000e+00
       11  1    1    0    0    0 -6.3772594930e+00 +1.7101631950e+01 +2.6557007676e+01 3.2224368279e+01 5.1100000000e-04 0.0000e+00 1.0000e+00
       22  1    1    0    0    0 +1.8867532109e+01 -2.4966248836e+01 -5.3542717500e+01 6.2017093983e+01 0.0000000000e+00 0.0000e+00 1.0000e+00
</event>
<event>
 4      1 +2.4041262e-06 9.11880000e+01 7.81860800e-03 1.13011600e-01
       25 -1    0    0    0    0 +0.0000000000e+00 +0.0000000000e+00 +9.9999998245e-15 1.2500000000e+02 1.2500000000e+02 0.0000e+00 0.0000e+00
      -13  1    1    0    0    0 -5.4834719751e+01 -1.7193672244e+00 +2.9940184362e+01 6.2499828139e+01 1.0566000000e-01 0.0000e+00 -1.0000e+00
       13  1    1    0    0    0 +5.4834697858e+01 +1.7192586422e+00 -2.9940414690e+01 6.2499916282e+01 1.0566000000e-01 0.0000e+00 -1.0000e+00
       22  1    1    0    0    0 +2.1893266917e-05 +1.0858217285e-04 +2.3032803298e-04 2.5557857143e-04 0.0000000000e+00 0.0000e+00 -1.0000e+00
</event>
<event>
 4      1 +2.4041262e-06 9.11880000e+01 7.81860800e-03 1.13011600e-01
       25 -1    0    0    0    0 +0.0000000000e+00 +0.0000000000e+00 +9.9999998245e-15 1.2500000000e+02 1.2500000000e+02 0.0000e+00 0.0000e+00
      -13  1    1    0    0    0 -6.1161149571e+01 +2.2931291591e+00 -5.5210081504e+00 6.1452724538e+01 1.0566000000e-01 0.0000e+00 1.0000e+00
       13  1    1    0    0    0 +5.3054163224e+01 +1.0431423162e+00 +9.5198235389e+00 5.3911692475e+01 1.0566000000e-01 0.0000e+00 1.0000e+00
       22  1    1    0    0    0 +8.1069863468e+00 -3.3362714753e+00 -3.9988153885e+00 9.6355829868e+00 0.0000000000e+00 0.0000e+00 -1.0000e+00
</event>
<event>
 5      1 +2.4041262e-06 9.11880000e+01 7.81860800e-03 1.13011600e-01
       25 -1    0    0    0    0 +0.0000000000e+00 +0.0000000000e+00 +9.9999998245e-15 1.2500000000e+02 1.2500000000e+02 0.0000e+00 0.0000e+00
       23  2    1    0    0    0 +1.0605645182e+00 +2.9166375070e+01 +5.5738225757e+00 9.5286876133e+01 9.0535733460e+01 0.0000e+00 0.0000e+00
      -11  1    2    2    0    0 -3.5726477769e+01 -6.6899745286e+00 -1.5817739709e+01 3.9640104222e+01 5.1100000000e-04 0.0000e+00 -1.0000e+00
       11  1    2    2    0    0 +3.6787042287e+01 +3.5856349599e+01 +2.1391562285e+01 5.5646771911e+01 5.1100000000e-04 0.0000e+00 1.0000e+00
       22  1    1    0    0    0 -1.0605645182e+00 -2.9166375070e+01 -5.5738225757e+00 2.9713123867e+01 0.0000000000e+00 0.0000e+00 1.0000e+00
</event>
<event>
 4      1 +2.4041262e-06 9.11880000e+01 7.81860800e-03 1.13011600e-01
       25 -1    0    0    0    0 +0.0000000000e+00 +0.0000000000e+00 +9.9999998245e-15 1.2500000000e+02 1.2500000000e+02 0.0000e+00 0.0000e+00
      -13  1    1    0    0    0 -3.3058793103e+01 +6.8231403301e+00 -1.2236825147e+00 3.3777915986e+01 1.0566000000e-01 0.0000e+00 -1.0000e+00
       13  1    1    0    0    0 -2.7155388811e+01 +3.6917500635e+00 -9.8111421959e+00 2.9108655676e+01 1.0566000000e-01 0.0000e+00 1.0000e+00
       22  1    1    0    0    0 +6.0214181914e+01 -1.0514890394e+01 +1.1034824711e+01 6.2113428339e+01 0.0000000000e+00 0.0000e+00 -1.0000e+00
</event>
<event>
 5      1 +2.4041262e-06 9.11880000e+01 7.81860800e-03 1.13011600e-01
       25 -1    0    0    0    0 +0.0000000000e+00 +0.0000000000e+00 +9.9999998245e-15 1.2500000000e+02 1.2500000000e+02 0.0000e+00 0.0000e+00
       23  2    1    0    0    0 -1.1722875692e+01 +2.4696674551e+01 -8.5836464627e+00 9.6346369602e+01 9.1986914290e+01 0.0000e+00 0.0000e+00
      -11  1    2    2    0    0 -5.0915507063e+00 +5.1869851676e+01 -3.0876596754e+01 6.0578623530e+01 5.1100000000e-04 0.0000e+00 -1.0000e+00
       11  1    2    2    0    0 -6.6313249861e+00 -2.7173177125e+01 +2.2292950291e+01 3.5767746072e+01 5.1100000000e-04 0.0000e+00 1.0000e+00
       22  1    1    0    0    0 +1.1722875692e+01 -2.4696674551e+01 +8.5836464627e+00 2.8653630398e+01 0.0000000000e+00 0.0000e+00 -1.0000e+00
</event>
<event>
 4      1 +2.4041262e-06 9.11880000e+01 7.81860800e-03 1.13011600e-01
       25 -1    0    0    0    0 +0.0000000000e+00 +0.0000000000e+00 +9.9999998245e-15 1.2500000000e+02 1.2500000000e+02 0.0000e+00 0.0000e+00
      -13  1    1    0    0    0 -2.4672752828e+01 +5.0514632772e+01 -2.7308716186e+01 6.2500000000e+01 1.0566000000e-01 0.0000e+00 -1.0000e+00
       13  1    1    0    0    0 +2.4672752771e+01 -5.0514632649e+01 +2.7308716122e+01 6.2499999850e+01 1.0566000000e-01 0.0000e+00 -1.0000e+00
       22  1    1    0    0    0 +5.7642766125e-08 -1.2247940567e-07 +6.4189432624e-08 1.4981380630e-07 0.0000000000e+00 0.0000e+00 -1.0000e+00
</event>
<event>
 4      1 +2.4041262e-06 9.11880000e+01 7.81860800e-03 1.13011600e-01
       25 -1    0    0    0    0 +0.0000000000e+00 +0.0000000000e+00 +9.9999998245e-15 1.2500000000e+02 1.2500000000e+02 0.0000e+00 0.0000e+00
      -13  1    1    0    0    0 +4.0949586270e+01 +4.2115522399e+01 +1.3008929071e+01 6.0165016764e+01 1.0566000000e-01 0.0000e+00 1.0000e+00
       13  1    1    0    0    0 +1.7045334613e+00 +1.4219175372e+00 +7.6115763083e-01 2.3490016555e+00 1.0566000000e-01 0.0000e+00 1.0000e+00
       22  1    1    0    0    0 -4.2654119731e+01 -4.3537439936e+01 -1.3770086702e+01 6.2485981580e+01 0.0000000000e+00 0.0000e+00 1.0000e+00
</event>
<event>
 5      1 +2.4041262e-06 9.11880000e+01 7.81860800e-03 1.13011600e-01
       25 -1    0    0    0    0 +0.0000000000e+00 +0.0000000000e+00 +9.9999998245e-15 1.2500000000e+02 1.2500000000e+02 0.0000e+00 0.0000e+00
       23  2    1    0    0    0 +1.5340286414e+01 +2.2179960409e+01 +1.1048208625e+01 9.5856596890e+01 9.1318942298e+01 0.0000e+00 0.0000e+00
      -11  1    2    2    0    0 +2.7527809520e+01 +6.1978470220e-01 -3.4421467299e+01 4.4079494568e+01 5.1100000000e-04 0.0000e+00 -1.0000e+00
       11  1    2    2    0    0 -1.2187523106e+01 +2.1560175706e+01 +4.5469675925e+01 5.1777102322e+01 5.1100000000e-04 0.0000e+00 1.0000e+00
       22  1    1    0    0    0 -1.5340286414e+01 -2.2179960409e+01 -1.1048208625e+01 2.9143403110e+01 0.0000000000e+00 0.0000e+00 -1.0000e+00
</event>
<event>
 4      1 +2.4041262e-06 9.11880000e+01 7.81860800e-03 1.13011600e-01
       25 -1    0    0    0    0 +0.0000000000e+00 +0.0000000000e+00 +9.9999998245e-15 1.2500000000e+02 1.2500000000e+02 0.0000e+00 0.0000e+00
      -13  1    1    0    0    0 +2.9960760214e+01 -5.4158188414e+01 +8.6880556574e+00 6.2500000000e+01 1.0566000000e-01 0.0000e+00 1.0000e+00
       13  1    1    0    0    0 -2.9960760213e+01 +5.4158188410e+01 -8.6880556580e+00 6.2499999997e+01 1.0566000000e-01 0.0000e+00 1.0000e+00
       22  1    1    0    0    0 -6.5772677843e-10 +3.3620540616e-09 +6.3450581616e-10 3.4840507544e-09 0.0000000000e+00 0.0000e+00 -1.0000e+00
</event>
<event>
 4      1 +2.4041262e-06 9.11880000e+01 7.81860800e-03 1.13011600e-01
       25 -1    0    0    0    0 +0.0000000000e+00 +0.0000000000e+00 +9.9999998245e-15 1.2500000000e+02 1.2500000000e+02 0.0000e+00 0.0000e+00
      -11  1    1    0    0    0 +2.2208905768e+00 +7.2723286440e+00 +2.2654503727e+01 2.3896561640e+01 5.1100000000e-04 0.0000e+00 1.0000e+00
       11  1    1    0    0    0 +1.5402887011e+00 +1.3055528365e+01 +3.6311844897e+01 3.8618252035e+01 5.1100000000e-04 0.0000e+00 -1.0000e+00
       22  1    1    0    0    0 -3.7611792780e+00 -2.0327857009e+01 -5.8966348623e+01 6.2485186325e+01 0.0000000000e+00 0.0000e+00 -1.0000e+00
</event>
<event>
 4      1 +2.4041262e-06 9.11880000e+01 7.81860800e-03 1.13011600e-01
       25 -1    0    0    0    0 +0.0000000000e+00 +0.0000000000e+00 +9.9999998245e-15 1.2500000000e+02 1.2500000000e+02 0.0000e+00 0.0000e+00
      -13  1    1    0    0    0 +6.4884347255e+00 +3.2355593405e+01 +3.8487447873e+00 3.3223609229e+01 1.0566000000e-01 0.0000e+00 -1.0000e+00
       13  1    1    0    0    0 +5.3522902692e+00 +2.8517328502e+01 +3.9153245085e+00 2.9278421509e+01 1.0566000000e-01 0.0000e+00 -1.0000e+00
       22  1    1    0    0    0 -1.1840724995e+01 -6.0872921906e+01 -7.7640692958e+00 6.2497969262e+01 0.0000000000e+00 0.0000e+00 -1.0000e+00
</event>
<event>
 4      1 +2.4041262e-06 9.11880000e+01 7.81860800e-03 1.13011600e-01
       25 -1    0    0    0    0 +0.0000000000e+00 +0.0000000000e+00 +9.9999998245e-15 1.2500000000e+02 1.2500000000e+02 0.0000e+00 0.0000e+00
      -13  1    1    0    0    0 -6.0425667345e+01 -1.5880099051e+01 -1.6407594569e+00 6.2499136599e+01 1.0566000000e-01 0.0000e+00 1.0000e+00
       13  1    1    0    0    0 +6.0426504930e+01 +1.5880307269e+01 +1.6407845163e+00 6.2499999959e+01 1.0566000000e-01 0.0000e+00 1.0000e+00
       22  1    1    0    0    0 -8.3758558164e-04 -2.0821769075e-04 -2.5059435817e-05 8.6344205864e-04 0.0000000000e+00 0.0000e+00 -1.0000e+00
</event>
<event>
 5      1 +2.4041262e-06 9.11880000e+01 7.81860800e-03 1.13011600e-01
       25 -1    0    0    0    0 +0.0000000000e+00 +0.0000000000e+00 +9.9999998245e-15 1.2500000000e+02 1.2500000000e+02 0.0000e+00 0.0000e+00
       23  2    1    0    0    0 -1.4531390266e+01 -1.8092097110e+01 -1.7087012703e+01 9.6182448334e+01 9.1763893137e+01 0.0000e+00 0.0000e+00
      -11  1    2    2    0    0 -4.5522057748e+01 -2.7911886436e+01 -2.9946868774e+01 6.1222104632e+01 5.1100000000e-04 0.0000e+00 -1.0000e+00
       11  1    2    2    0    0 +3.0990667481e+01 +9.8197893260e+00 +1.2859856071e+01 3.4960343702e+01 5.1100000000e-04 0.0000e+00 1.0000e+00
       22  1    1    0    0    0 +1.4531390266e+01 +1.8092097110e+01 +1.7087012703e+01 2.8817551666e+01 0.0000000000e+00 0.0000e+00 -1.0000e+00
</event>
<event>
 4      1 +2.4041262e-06 9.11880000e+01 7.81860800e-03 1.13011600e-01
       25 -1    0    0    0    0 +0.0000000000e+00 +0.0000000000e+00 +9.9999998245e-15 1.2500000000e+02 1.2500000000e+02 0.0000e+00 0.0000e+00
      -13  1    1    0    0    0 -3.1145687861e+01 +1.8844475242e+01 +5.0589965082e+01 6.2325948453e+01 1.0566000000e-01 0.0000e+00 -1.0000e+00
       13  1    1    0    0    0 +3.1198810225e+01 -1.8931318207e+01 -5.0735220105e+01 6.2496674244e+01 1.0566000000e-01 0.0000e+00 -1.0000e+00
       22  1    1    0    0    0 -5.3122363179e-02 +8.6842965224e-02 +1.4525502231e-01 1.7737730290e-01 0.0000000000e+00 0.0000e+00 1.0000e+00
</event>
<event>
 4      1 +2.4041262e-06 9.11880000e+01 7.81860800e-03 1.13011600e-01
       25 -1    0    0    0    0 +0.0000000000e+00 +0.0000000000e+00 +9.9999998245e-15 1.2500000000e+02 1.2500000000e+02 0.0000e+00 0.0000e+00
      -13  1    1    0    0    0 +2.0622464247e+01 +4.4164604377e+01 -3.9120845141e+01 6.2500000000e+01 1.0566000000e-01 0.0000e+00 -1.0000e+00
       13  1    1    0    0    0 -2.0622463916e+01 -4.4164603654e+01 +3.9120844499e+01 6.2499998978e+01 1.0566000000e-01 0.0000e+00 -1.0000e+00
       22  1    1    0    0    0 -3.3115358383e-07 -7.2273714054e-07 +6.4202391497e-07 1.0218641680e-06 0.0000000000e+00 0.0000e+00 1.0000e+00
</event>
<event>
 4      1 +2.4041262e-06 9.11880000e+01 7.81860800e-03 1.13011600e-01
       25 -1    0    0    0    0 +0.0000000000e+00 +0.0000000000e+00 +9.9999998245e-15 1.2500000000e+02 1.2500000000e+02 0.0000e+00 0.0000e+00
      -13  1    1    0    0    0 +2.9525366146e+01 -5.4994629559e+01 +3.1750779601e+00 6.2499990484e+01 1.0566000000e-01 0.0000e+00 -1.0000e+00
       13  1    1    0    0    0 -2.9525367056e+01 +5.4994639421e+01 -3.1750782734e+00 6.2499999607e+01 1.0566000000e-01 0.0000e+00 -1.0000e+00
       22  1    1    0    0    0 +9.1046851990e-07 -9.8620329087e-06 +3.1335609844e-07 9.9089271904e-06 0.0000000000e+00 0.0000e+00 1.0000e+00
</event>
<event>
 4      1 +2.4041262e-06 9.11880000e+01 7.81860800e-03 1.13011600e-01
       25 -1    0    0    0    0 +0.0000000000e+00 +0.0000000000e+00 +9.9999998245e-15 1.2500000000e+02 1.2500000000e+02 0.0000e+00 0.0000e+00
      -13  1    1    0    0    0 -3.1343293381e+01 -4.7604904468e+01 -2.5643829013e+01 6.2499968799e+01 1.0566000000e-01 0.0000e+00 -1.0000e+00
       13  1    1    0    0    0 +3.1343327967e+01 +4.7604917177e+01 +2.5643824864e+01 6.2499994121e+01 1.0566000000e-01 0.0000e+00 -1.0000e+00
       22  1    1    0    0    0 -3.4585764080e-05 -1.2708859345e-05 +4.1486582881e-06 3.7079664891e-05 0.0000000000e+00 0.0000e+00 -1.0000e+00
</event>
<event>
 4      1 +2.4041262e-06 9.11880000e+01 7.81860800e-03 1.13011600e-01
       25 -1    0    0    0    0 +0.0000000000e+00 +0.0000000000e+00 +9.9999998245e-15 1.2500000000e+02 1.2500000000e+02 0.0000e+00 0.0000e+00
      -13  1    1    0    0    0 +8.9799296395e+00 -2.7001143742e+01 +5.5643259709e+01 6.2497075250e+01 1.0566000000e-01 0.0000e+00 -1.0000e+00
       13  1    1    0    0    0 -8.8815362066e+00 +2.6874719305e+01 -5.5248279469e+01 6.2076692658e+01 1.0566000000e-01 0.0000e+00 -1.0000e+00
       22  1    1    0    0    0 -9.8393432820e-02 +1.2642443704e-01 -3.9498024061e-01 4.2623209214e-01 0.0000000000e+00 0.0000e+00 -1.0000e+00
</event>
<event>
 4      1 +2.4041262e-06 9.11880000e+01 7.81860800e-03 1.13011600e-01
       25 -1    0    0    0    0 +0.0000000000e+00 +0.0000000000e+00 +9.9999998245e-15 1.2500000000e+02 1.2500000000e+02 0.0000e+00 0.0000e+00
      -13  1    1    0    0    0 -6.1097480667e+01 +1.2622389497e+01 -6.8996457794e-01 6.2391618633e+01 1.0566000000e-01 0.0000e+00 1.0000e+00
       13  1    1    0    0    0 +5.6144878442e+01 -1.1935040532e+01 +2.0179220904e+00 5.7434969674e+01 1.0566000000e-01 0.0000e+00 1.0000e+00
       22  1    1    0    0    0 +4.9526022248e+00 -6.8734896477e-01 -1.3279575124e+00 5.1734116935e+00 0.0000000000e+00 0.0000e+00 1.0000e+00
</event>
<event>
 4      1 +2.4041262e-06 9.11880000e+01 7.81860800e-03 1.13011600e-01
       25 -1    0    0    0    0 +0.0000000000e+00 +0.0000000000e+00 +9.9999998245e-15 1.2500000000e+02 1.2500000000e+02 0.0000e+00 0.0000e+00
      -11  1    1    0    0    0 -6.3398261506e+00 -3.6356639736e-02 +2.2456129973e+00 6.7258825012e+00 5.1100000000e-04 0.0000e+00 -1.0000e+00
       11  1    1    0    0    0 -5.2537036776e+01 +5.6769323639e-01 +1.8717128090e+01 5.5774486936e+01 5.1100000000e-04 0.0000e+00 1.0000e+00
       22  1    1    0    0    0 +5.8876862926e+01 -5.3133659666e-01 -2.0962741087e+01 6.2499630563e+01 0.0000000000e+00 0.0000e+00 1.0000e+00
</event>
<event>
 4      1 +2.4041262e-06 9.11880000e+01 7.81860800e-03 1.13011600e-01
       25 -1    0    0    0    0 +0.0000000000e+00 +0.0000000000e+00 +9.9999998245e-15 1.2500000000e+02 1.2500000000e+02 0.0000e+00 0.0000e+00
      -13  1    1    0    0    0 -4.0639677273e+01 -4.7451362697e+01 +1.7375341615e+00 6.2499963038e+01 1.0566000000e-01 0.0000e+00 -1.0000e+00
       13  1    1    0    0    0 +4.0578218242e+01 +4.7375099553e+01 -1.7323884352e+00 6.2401956597e+01 1.0566000000e-01 0.0000e+00 -1.0000e+00
       22  1    1    0    0    0 +6.1459031290e-02 +7.6263143544e-02 -5.1457262872e-03 9.8080365463e-02 0.0000000000e+00 0.0000e+00 -1.0000e+00
</event>
<event>
 4      1 +2.4041262e-06 9.11880000e+01 7.81860800e-03 1.13011600e-01
       25 -1    0    0    0    0 +0.0000000000e+00 +0.0000000000e+00 +9.9999998245e-15 1.2500000000e+02 1.2500000000e+02 0.0000e+00 0.0000e+00
      -13  1    1    0    0    0 +4.8057841737e+01 +1.9047160586e+01 -3.5126745277e+01 6.2499999013e+01 1.0566000000e-01 0.0000e+00 1.0000e+00
       13  1    1    0    0    0 -4.8057842613e+01 -1.9047160875e+01 +3.5126745658e+01 6.2499999989e+01 1.0566000000e-01 0.0000e+00 1.0000e+00
       22  1    1    0    0    0 +8.7599315001e-07 +2.8860257193e-07 -3.8089774507e-07 9.9786699293e-07 0.0000000000e+00 0.0000e+00 -1.0000e+00
</event>
<event>
 5      1 +2.4041262e-06 9.11880000e+01 7.81860800e-03 1.13011600e-01
       25 -1    0    0    0    0 +0.0000000000e+00 +0.0000000000e+00 +9.9999998245e-15 1.2500000000e+02 1.2500000000e+02 0.0000e+00 0.0000e+00
       23  2    1    0    0    0 -2.9751585164e+01 +4.8607943912e+00 +1.6330931496e-01 9.4853510788e+01 8.9935408471e+01 0.0000e+00 0.0000e+00
      -13  1    2    2    0    0 -4.4041437952e+00 -3.4007679303e+01 +2.4795999141e+01 4.2317507862e+01 1.0566000000e-01 0.0000e+00 -1.0000e+00
       13  1    2    2    0    0 -2.5347441369e+01 +3.8868473695e+01 -2.4632689826e+01 5.2536002926e+01 1.0566000000e-01 0.0000e+00 1.0000e+00
       22  1    1    0    0    0 +2.9751585164e+01 -4.8607943912e+00 -1.6330931496e-01 3.0146489212e+01 0.0000000000e+00 0.0000e+00 1.0000e+00
</event>
<event>
 4      1 +2.4041262e-06 9.11880000e+01 7.81860800e-03 1.13011600e-01
       25 -1    0    0    0    0 +0.0000000000e+00 +0.0000000000e+00 +9.9999998245e-15 1.2500000000e+02 1.2500000000e+02 0.0000e+00 0.0000e+00
      -11  1    1    0    0    0 +7.2096021604e+00 -1.4853616488e-01 +1.3021688215e+00 7.3277602447e+00 5.1100000000e-04 0.0000e+00 -1.0000e+00
       11  1    1    0    0    0 +5.4270169104e+01 -3.6999687711e-01 +9.9308442327e+00 5.5172545888e+01 5.1100000000e-04 0.0000e+00 1.0000e+00
       22  1    1    0    0    0 -6.1479771265e+01 +5.1853304198e-01 -1.1233013054e+01 6.2499693868e+01 0.0000000000e+00 0.0000e+00 1.0000e+00
</event>
<event>
 4      1 +2.4041262e-06 9.11880000e+01 7.81860800e-03 1.13011600e-01
       25 -1    0    0    0    0 +0.0000000000e+00 +0.0000000000e+00 +9.9999998245e-15 1.2500000000e+02 1.2500000000e+02 0.0000e+00 0.0000e+00
      -11  1    1    0    0    0 +1.9081361328e+01 +3.6805991594e+01 +1.8089982311e+01 4.5233028062e+01 5.1100000000e-04 0.0000e+00 -1.0000e+00
       11  1    1    0    0    0 +7.5166801471e+00 +1.4012088974e+01 +6.7335004909e+00 1.7267864574e+01 5.1100000000e-04 0.0000e+00 1.0000e+00
       22  1    1    0    0    0 -2.6598041475e+01 -5.0818080568e+01 -2.4823482802e+01 6.2499107364e+01 0.0000000000e+00 0.0000e+00 -1.0000e+00
</event>
<event>
 4      1 +2.4041262e-06 9.11880000e+01 7.81860800e-03 1.13011600e-01
       25 -1    0    0    0    0 +0.0000000000e+00 +0.0000000000e+00 +9.9999998245e-15 1.2500000000e+02 1.2500000000e+02 0.0000e+00 0.0000e+00
      -13  1    1    0    0    0 -3.8458027838e+01 -1.8355513362e+01 +4.5719680154e+01 6.2499960747e+01 1.0566000000e-01 0.0000e+00 -1.0000e+00
       13  1    1    0    0    0 +3.8458051139e+01 +1.8355525079e+01 -4.5719709499e+01 6.2499999993e+01 1.0566000000e-01 0.0000e+00 -1.0000e+00
       22  1    1    0    0    0 -2.3301323041e-05 -1.1717067886e-05 +2.9345328214e-05 3.9260535189e-05 0.0000000000e+00 0.0000e+00 1.0000e+00
</event>
<event>
 4      1 +2.4041262e-06 9.11880000e+01 7.81860800e-03 1.13011600e-01
       25 -1    0    0    0    0 +0.0000000000e+00 +0.0000000000e+00 +9.9999998245e-15 1.2500000000e+02 1.2500000000e+02 0.0000e+00 0.0000e+00
      -13  1    1    0    0    0 +2.7191233437e+01 +1.9709372184e+01 +5.2710175239e+01 6.2499570122e+01 1.0566000000e-01 0.0000e+00 1.0000e+00
       13  1    1    0    0    0 -2.7191432583e+01 -1.9709655148e+01 -5.2710457019e+01 6.2499983641e+01 1.0566000000e-01 0.0000e+00 1.0000e+00
       22  1    1    0    0    0 +1.9914568243e-04 +2.8296390665e-04 +2.8177964034e-04 4.4623686648e-04 0.0000000000e+00 0.0000e+00 1.0000e+00
</event>
<event>
 4      1 +2.4041262e-06 9.11880000e+01 7.81860800e-03 1.13011600e-01
       25 -1    0    0    0    0 +0.0000000000e+00 +0.0000000000e+00 +9.9999998245e-15 1.2500000000e+02 1.2500000000e+02 0.0000e+00 0.0000e+00
      -13  1    1    0    0    0 +1.3215515138e+01 +5.4691845998e+01 +2.7210124973e+01 6.2499999393e+01 1.0566000000e-01 0.0000e+00 -1.0000e+00
       13  1    1    0    0    0 -1.3200239457e+01 -5.4630168917e+01 -2.7179217388e+01 6.2429341655e+01 1.0566000000e-01 0.0000e+00 -1.0000e+00
       22  1    1    0    0    0 -1.5275680543e-02 -6.1677080769e-02 -3.0907585301e-02 7.0658952281e-02 0.0000000000e+00 0.0000e+00 -1.0000e+00
</event>
<event>
 5      1 +2.4041262e-06 9.11880000e+01 7.81860800e-03 1.13011600e-01
       25 -1    0    0    0    0 +0.0000000000e+00 +0.0000000000e+00 +9.9999998245e-15 1.2500000000e+02 1.2500000000e+02 0.0000e+00 0.0000e+00
       23  2    1    0    0    0 -1.4564307982e+01 +9.8726200781e+00 +2.6965627682e+00 1.0719946223e+02 1.0571123666e+02 0.0000e+00 0.0000e+00
      -13  1    2    2    0    0 -4.5356541632e+01 +1.8406742126e+01 -3.3196396690e+01 5.9144196180e+01 1.0566000000e-01 0.0000e+00 1.0000e+00
       13  1    2    2    0    0 +3.0792233650e+01 -8.5341220482e+00 +3.5892959458e+01 4.8055266049e+01 1.0566000000e-01 0.0000e+00 1.0000e+00
       22  1    1    0    0    0 +1.4564307982e+01 -9.8726200781e+00 -2.6965627682e+00 1.7800537772e+01 0.0000000000e+00 0.0000e+00 1.0000e+00
</event>
<event>
 4      1 +2.4041262e-06 9.11880000e+01 7.81860800e-03 1.13011600e-01
       25 -1    0    0    0    0 +0.0000000000e+00 +0.0000000000e+00 +9.9999998245e-15 1.2500000000e+02 1.2500000000e+02 0.0000e+00 0.0000e+00
      -13  1    1    0    0    0 -4.9124049263e+01 -3.7745804405e+01 +8.2589341547e+00 6.2499112982e+01 1.0566000000e-01 0.0000e+00 1.0000e+00
       13  1    1    0    0    0 +4.9124786604e+01 +3.7746292133e+01 -8.2590216230e+00 6.2499998647e+01 1.0566000000e-01 0.0000e+00 1.0000e+00
       22  1    1    0    0    0 -7.3734108803e-04 -4.8772867781e-04 +8.7468291688e-05 8.8837033117e-04 0.0000000000e+00 0.0000e+00 1.0000e+00
</event>
<event>
 4      1 +2.4041262e-06 9.11880000e+01 7.81860800e-03 1.13011600e-01
       25 -1    0    0    0    0 +0.0000000000e+00 +0.0000000000e+00 +9.9999998245e-15 1.2500000000e+02 1.2500000000e+02 0.0000e+00 0.0000e+00
      -13  1    1    0    0    0 -6.9800555033e+00 +5.6735331321e+01 +2.5266860323e+01 6.2498355095e+01 1.0566000000e-01 0.0000e+00 1.0000e+00
       13  1    1    0    0    0 +4.4859253098e+00 -3.6655174178e+01 -1.5990749843e+01 4.0242273352e+01 1.0566000000e-01 0.0000e+00 1.0000e+00
       22  1    1    0    0    0 +2.4941301935e+00 -2.0080157143e+01 -9.2761104799e+00 2.2259371553e+01 0.0000000000e+00 0.0000e+00 1.0000e+00
</event>
<event>
 4      1 +2.4041262e-06 9.11880000e+01 7.81860800e-03 1.13011600e-01
       25 -1    0    0    0    0 +0.0000000000e+00 +0.0000000000e+00 +9.9999998245e-15 1.2500000000e+02 1.2500000000e+02 0.0000e+00 0.0000e+00
      -13  1    1    0    0    0 -4.6184421305e+01 -4.1775529063e+01 +4.9294165148e+00 6.2470040107e+01 1.0566000000e-01 0.0000e+00 1.0000e+00
       13  1    1    0    0    0 +4.6124497131e+01 +4.1799767105e+01 -4.8621971327e+00 6.2436703073e+01 1.0566000000e-01 0.0000e+00 1.0000e+00
       22  1    1    0    0    0 +5.9924173507e-02 -2.4238042070e-02 -6.7219382146e-02 9.3256820608e-02 0.0000000000e+00 0.0000e+00 -1.0000e+00
</event>
<event>
 4      1 +2.4041262e-06 9.11880000e+01 7.81860800e-03 1.13011600e-01
       25 -1    0    0    0    0 +0.0000000000e+00 +0.0000000000e+00 +9.9999998245e-15 1.2500000000e+02 1.2500000000e+02 0.0000e+00 0.0000e+00
      -13  1    1    0    0    0 +3.1350499406e+01 +2.6561543238e+01 -3.0862129112e+01 5.1389216471e+01 1.0566000000e-01 0.0000e+00 1.0000e+00
       13  1    1    0    0    0 -3.8162241968e+01 -3.2271861708e+01 +3.7528692138e+01 6.2499949342e+01 1.0566000000e-01 0.0000e+00 1.0000e+00
       22  1    1    0    0    0 +6.8117425620e+00 +5.7103184700e+00 -6.6665630256e+00 1.1110834187e+01 0.0000000000e+00 0.0000e+00 1.0000e+00
</event>
<event>
 4      1 +2.4041262e-06 9.11880000e+01 7.81860800e-03 1.13011600e-01
       25 -1    0    0    0    0 +0.0000000000e+00 +0.0000000000e+00 +9.9999998245e-15 1.2500000000e+02 1.2500000000e+02 0.0000e+00 0.0000e+00
      -13  1    1    0    0    0 +2.0295480853e+01 -5.8273996619e+01 -9.9233859145e+00 6.2499999816e+01 1.0566000000e-01 0.0000e+00 -1.0000e+00
       13  1    1    0    0    0 -2.0295472461e+01 +5.8273977849e+01 +9.9233861126e+00 6.2499979622e+01 1.0566000000e-01 0.0000e+00 -1.0000e+00
       22  1    1    0    0    0 -8.3926788998e-06 +1.8769649317e-05 -1.9808262860e-07 2.0561518216e-05 0.0000000000e+00 0.0000e+00 -1.0000e+00
</event>
<event>
 4      1 +2.4041262e-06 9.11880000e+01 7.81860800e-03 1.13011600e-01
       25 -1    0    0    0    0 +0.0000000000e+00 +0.0000000000e+00 +9.9999998245e-15 1.2500000000e+02 1.2500000000e+02 0.0000e+00 0.0000e+00
      -13  1    1    0    0    0 -4.2706022364e+00 -1.0628614350e+01 +7.5529317678e+00 1.3720912097e+01 1.0566000000e-01 0.0000e+00 -1.0000e+00
       13  1    1    0    0    0 -2.7995789363e+01 +1.9007612808e+01 +4.0511779724e+01 5.2785121267e+01 1.0566000000e-01 0.0000e+00 1.0000e+00
       22  1    1    0    0    0 +3.2266391599e+01 -8.3789984583e+00 -4.8064711492e+01 5.8493966636e+01 0.0000000000e+00 0.0000e+00 1.0000e+00
</event>
<event>
 4      1 +2.4041262e-06 9.11880000e+01 7.81860800e-03 1.13011600e-01
       25 -1    0    0    0    0 +0.0000000000e+00 +0.0000000000e+00 +9.9999998245e-15 1.2500000000e+02 1.2500000000e+02 0.0000e+00 0.0000e+00
      -13  1    1    0    0    0 +4.6384010560e+01 +4.9378254959e+00 -9.1721707155e+00 4.7539440846e+01 1.0566000000e-01 0.0000e+00 -1.0000e+00
       13  1    1    0    0    0 +1.4690713443e+01 +1.3735858042e+00 -2.4873676351e+00 1.4963353943e+01 1.0566000000e-01 0.0000e+00 1.0000e+00
       22  1    1    0    0    0 -6.1074724003e+01 -6.3114113001e+00 +1.1659538351e+01 6.2497205211e+01 0.0000000000e+00 0.0000e+00 -1.0000e+00
</event>
<event>
 4      1 +2.4041262e-06 9.11880000e+01 7.81860800e-03 1.13011600e-01
       25 -1    0    0    0    0 +0.0000000000e+00 +0.0000000000e+00 +9.9999998245e-15 1.2500000000e+02 1.2500000000e+02 0.0000e+00 0.0000e+00
      -13  1    1    0    0    0 +2.3703398372e+00 +6.1747768076e+01 -9.3623647979e+00 6.2498563279e+01 1.0566000000e-01 0.0000e+00 1.0000e+00
       13  1    1    0    0    0 -2.3664549201e+00 -6.1714632249e+01 +9.3427681265e+00 6.2462744279e+01 1.0566000000e-01 0.0000e+00 1.0000e+00
       22  1    1    0    0    0 -3.8849171113e-03 -3.3135826200e-02 +1.9596671464e-02 3.8692442304e-02 0.0000000000e+00 0.0000e+00 1.0000e+00
</event>
<event>
 4      1 +2.4041262e-06 9.11880000e+01 7.81860800e-03 1.13011600e-01
       25 -1    0    0    0    0 +0.0000000000e+00 +0.0000000000e+00 +9.9999998245e-15 1.2500000000e+02 1.2500000000e+02 0.0000e+00 0.0000e+00
      -13  1    1    0    0    0 +1.6606822296e+01 +4.1108861542e+01 +4.4051263227e+01 6.2500000000e+01 1.0566000000e-01 0.0000e+00 -1.0000e+00
       13  1    1    0    0    0 -1.6606822169e+01 -4.1108861235e+01 -4.4051262901e+01 6.2499999535e+01 1.0566000000e-01 0.0000e+00 -1.0000e+00
       22  1    1    0    0    0 -1.2713915718e-07 -3.0705098090e-07 -3.2582189086e-07 4.6540796591e-07 0.0000000000e+00 0.0000e+00 1.0000e+00
</event>
<event>
 4      1 +2.4041262e-06 9.11880000e+01 7.81860800e-03 1.13011600e-01
       25 -1    0    0    0    0 +0.0000000000e+00 +0.0000000000e+00 +9.9999998245e-15 1.2500000000e+02 1.2500000000e+02 0.0000e+00 0.0000e+00
      -13  1    1    0    0    0 +2.9101795502e+01 -5.0059888559e+01 +2.3523007715e+01 6.2500000000e+01 1.0566000000e-01 0.0000e+00 -1.0000e+00
       13  1    1    0    0    0 -2.9101795076e+01 +5.0059887820e+01 -2.3523007368e+01 6.2499999079e+01 1.0566000000e-01 0.0000e+00 -1.0000e+00
       22  1    1    0    0    0 -4.2617017301e-07 +7.3904258684e-07 -3.4729053674e-07 9.2109482598e-07 0.0000000000e+00 0.0000e+00 1.0000e+00
</event>
<event>
 4      1 +2.4041262e-06 9.11880000e+01 7.81860800e-03 1.13011600e-01
       25 -1    0    0    0    0 +0.0000000000e+00 +0.0000000000e+00 +9.9999998245e-15 1.2500000000e+02 1.2500000000e+02 0.0000e+00 0.0000e+00
      -13  1    1    0    0    0 -3.9501457336e+01 -3.4923306555e+01 -2.9938741197e+01 6.0632844737e+01 1.0566000000e-01 0.0000e+00 -1.0000e+00
       13  1    1    0    0    0 +3.7640779127e+01 +3.7499078463e+01 +3.0307439058e+01 6.1168301964e+01 1.0566000000e-01 0.0000e+00 -1.0000e+00
       22  1    1    0    0    0 +1.8606782084e+00 -2.5757719077e+00 -3.6869786093e-01 3.1988532990e+00 0.0000000000e+00 0.0000e+00 -1.0000e+00
</event>
<event>
 4      1 +2.4041262e-06 9.11880000e+01 7.81860800e-03 1.13011600e-01
       25 -1    0    0    0    0 +0.0000000000e+00 +0.0000000000e+00 +9.9999998245e-15 1.2500000000e+02 1.2500000000e+02 0.0000e+00 0.0000e+00
      -13  1    1    0    0    0 +2.2333599035e+01 -2.1252343340e+01 +5.4367150796e+01 6.2499999944e+01 1.0566000000e-01 0.0000e+00 -1.0000e+00
       13  1    1    0    0    0 -2.2333599056e+01 +2.1252343357e+01 -5.4367150845e+01 6.2500000000e+01 1.0566000000e-01 0.0000e+00 -1.0000e+00
       22  1    1    0    0    0 +2.0851815726e-08 -1.7603055042e-08 +4.9415809895e-08 5.6449871864e-08 0.0000000000e+00 0.0000e+00 1.0000e+00
</event>
<event>
 5      1 +2.4041262e-06 9.11880000e+01 7.81860800e-03 1.13011600e-01
       25 -1    0    0    0    0 +0.0000000000e+00 +0.0000000000e+00 +9.9999998245e-15 1.2500000000e+02 1.2500000000e+02 0.0000e+00 0.0000e+00
       23  2    1    0    0    0 -8.6940225044e+00 +2.3985093834e+01 +4.1812569420e+00 9.9147463120e+01 9.5717635679e+01 0.0000e+00 0.0000e+00
      -11  1    2    2    0    0 -4.6552019923e+01 +3.6499911694e+01 +1.2774815121e+00 5.9168962065e+01 5.1100000000e-04 0.0000e+00 1.0000e+00
       11  1    2    2    0    0 +3.7857997419e+01 -1.2514817860e+01 +2.9037754299e+00 3.9978501055e+01 5.1100000000e-04 0.0000e+00 -1.0000e+00
       22  1    1    0    0    0 +8.6940225044e+00 -2.3985093834e+01 -4.1812569420e+00 2.5852536880e+01 0.0000000000e+00 0.0000e+00 1.0000e+00
</event>
<event>
 4      1 +2.4041262e-06 9.11880000e+01 7.81860800e-03 1.13011600e-01
       25 -1    0    0    0    0 +0.0000000000e+00 +0.0000000000e+00 +9.9999998245e-15 1.2500000000e+02 1.2500000000e+02 0.0000e+00 0.0000e+00
      -11  1    1    0    0    0 +5.0877730933e+00 -2.0449271114e+01 +3.7102266312e+01 4.2668914796e+01 5.1100000000e-04 0.0000e+00 -1.0000e+00
       11  1    1    0    0    0 -1.0577746453e+01 +2.4873882846e+01 +1.4209582299e+01 3.0537043034e+01 5.1100000000e-04 0.0000e+00 1.0000e+00
       22  1    1    0    0    0 +5.4899733593e+00 -4.4246117327e+00 -5.1311848611e+01 5.1794042170e+01 0.0000000000e+00 0.0000e+00 -1.0000e+00
</event>
<event>
 4      1 +2.4041262e-06 9.11880000e+01 7.81860800e-03 1.13011600e-01
       25 -1    0    0    0    0 +0.0000000000e+00 +0.0000000000e+00 +9.9999998245e-15 1.2500000000e+02 1.2500000000e+02 0.0000e+00 0.0000e+00
      -13  1    1    0    0    0 +1.3964113766e+01 +2.2834553079e+01 -1.5914685178e+01 3.1140033011e+01 1.0566000000e-01 0.0000e+00 1.0000e+00
       13  1    1    0    0    0 -3.2858215248e+01 +2.4517753758e+01 +2.1593525724e+00 4.1054311907e+01 1.0566000000e-01 0.0000e+00 1.0000e+00
       22  1    1    0    0    0 +1.8894101481e+01 -4.7352306837e+01 +1.3755332605e+01 5.2805655082e+01 0.0000000000e+00 0.0000e+00 1.0000e+00
</event>
<event>
 5      1 +2.4041262e-06 9.11880000e+01 7.81860800e-03 1.13011600e-01
       25 -1    0    0    0    0 +0.0000000000e+00 +0.0000000000e+00 +9.9999998245e-15 1.2500000000e+02 1.2500000000e+02 0.0000e+00 0.0000e+00
       23  2    1    0    0    0 -1.8372219864e+01 +2.7201902045e+01 -7.2079290570e+00 9.1392914752e+01 8.4989579879e+01 0.0000e+00 0.0000e+00
      -13  1    2    2    0    0 -8.0459023793e+00 +2.4471461193e+01 -4.5146705626e+01 5.1979083783e+01 1.0566000000e-01 0.0000e+00 1.0000e+00
       13  1    2    2    0    0 -1.0326317485e+01 +2.7304408517e+00 +3.7938776569e+01 3.9413830969e+01 1.0566000000e-01 0.0000e+00 -1.0000e+00
       22  1    1    0    0    0 +1.8372219864e+01 -2.7201902045e+01 +7.2079290570e+00 3.3607085248e+01 0.0000000000e+00 0.0000e+00 1.0000e+00
</event>
<event>
 4      1 +2.4041262e-06 9.11880000e+01 7.81860800e-03 1.13011600e-01
       25 -1    0    0    0    0 +0.0000000000e+00 +0.0000000000e+00 +9.9999998245e-15 1.2500000000e+02 1.2500000000e+02 0.0000e+00 0.0000e+00
      -13  1    1    0    0    0 +4.1324604971e+00 +6.2093157058e+01 +5.7966760083e+00 6.2500000000e+01 1.0566000000e-01 0.0000e+00 1.0000e+00
       13  1    1    0    0    0 -4.1324604971e+00 -6.2093157058e+01 -5.7966760084e+00 6.2500000000e+01 1.0566000000e-01 0.0000e+00 1.0000e+00
       22  1    1    0    0    0 -4.5561098111e-12 +4.4742163256e-10 +6.9731944061e-11 4.5284591137e-10 0.0000000000e+00 0.0000e+00 -1.0000e+00
</event>
<event>
 4      1 +2.4041262e-06 9.11880000e+01 7.81860800e-03 1.13011600e-01
       25 -1    0    0    0    0 +0.0000000000e+00 +0.0000000000e+00 +9.9999998245e-15 1.2500000000e+02 1.2500000000e+02 0.0000e+00 0.0000e+00
      -13  1    1    0    0    0 -1.1273739982e+01 +2.8185076999e+00 -6.1399086793e+01 6.2489200842e+01 1.0566000000e-01 0.0000e+00 1.0000e+00
       13  1    1    0    0    0 +1.1258776790e+01 -2.8162488410e+00 +6.1406684144e+01 6.2493866370e+01 1.0566000000e-01 0.0000e+00 1.0000e+00
       22  1    1    0    0    0 +1.4963192155e-02 -2.2588589373e-03 -7.5973510651e-03 1.6932787909e-02 0.0000000000e+00 0.0000e+00 1.0000e+00
</event>
<event>
 4      1 +2.4041262e-06 9.11880000e+01 7.81860800e-03 1.13011600e-01
       25 -1    0    0    0    0 +0.0000000000e+00 +0.0000000000e+00 +9.9999998245e-15 1.2500000000e+02 1.2500000000e+02 0.0000e+00 0.0000e+00
      -13  1    1    0    0    0 -2.4945720215e+01 +1.7345934154e+01 +5.4617390037e+01 6.2499926778e+01 1.0566000000e-01 0.0000e+00 1.0000e+00
       13  1    1    0    0    0 +2.4945762800e+01 -1.7345943621e+01 -5.4617450159e+01 6.2499998941e+01 1.0566000000e-01 0.0000e+00 1.0000e+00
       22  1    1    0    0    0 -4.2584942343e-05 +9.4677408094e-06 +6.0121520224e-05 7.4281307369e-05 0.0000000000e+00 0.0000e+00 -1.0000e+00
</event>
<event>
 5      1 +2.4041262e-06 9.11880000e+01 7.81860800e-03 1.13011600e-01
       25 -1    0    0    0    0 +0.0000000000e+00 +0.0000000000e+00 +9.9999998245e-15 1.2500000000e+02 1.2500000000e+02 0.0000e+00 0.0000e+00
       23  2    1    0    0    0 +1.5547403862e+01 +6.1454557850e+00 +2.1570565221e+01 9.7709384807e+01 9.3820819660e+01 0.0000e+00 0.0000e+00
      -11  1    2    2    0    0 -6.3891300548e+00 +2.9853608811e+01 -2.6073693993e+01 4.0148430363e+01 5.1100000000e-04 0.0000e+00 1.0000e+00
       11  1    2    2    0    0 +2.1936533917e+01 -2.3708153026e+01 +4.7644259214e+01 5.7560954444e+01 5.1100000000e-04 0.0000e+00 -1.0000e+00
       22  1    1    0    0    0 -1.5547403862e+01 -6.1454557850e+00 -2.1570565221e+01 2.7290615193e+01 0.0000000000e+00 0.0000e+00 -1.0000e+00
</event>
<event>
 4      1 +2.4041262e-06 9.11880000e+01 7.81860800e-03 1.13011600e-01
       25 -1    0    0    0    0 +0.0000000000e+00 +0.0000000000e+00 +9.9999998245e-15 1.2500000000e+02 1.2500000000e+02 0.0000e+00 0.0000e+00
      -13  1    1    0    0    0 -3.6033868467e+01 +1.5335253305e+01 -4.7032602772e+01 6.1202014331e+01 1.0566000000e-01 0.0000e+00 -1.0000e+00
       13  1    1    0    0    0 +3.7313870684e+01 -1.5096617656e+01 +4.7633968919e+01 6.2363763269e+01 1.0566000000e-01 0.0000e+00 -1.0000e+00
       22  1    1    0    0    0 -1.2800022177e+00 -2.3863564869e-01 -6.0136614681e-01 1.4342224000e+00 0.0000000000e+00 0.0000e+00 -1.0000e+00
</event>
<event>
 4      1 +2.4041262e-06 9.11880000e+01 7.81860800e-03 1.13011600e-01
       25 -1    0    0    0    0 +0.0000000000e+00 +0.0000000000e+00 +9.9999998245e-15 1.2500000000e+02 1.2500000000e+02 0.0000e+00 0.0000e+00
      -11  1    1    0    0    0 +8.8179401289e-01 +5.3110564549e+00 +3.4455989558e+00 6.3919507017e+00 5.1100000000e-04 0.0000e+00 1.0000e+00
       11  1    1    0    0    0 +8.8380641605e+00 +4.9865098466e+01 +2.4206181713e+01 5.6130015647e+01 5.1100000000e-04 0.0000e+00 -1.0000e+00
       22  1    1    0    0    0 -9.7198581734e+00 -5.5176154921e+01 -2.7651780668e+01 6.2478033651e+01 0.0000000000e+00 0.0000e+00 -1.0000e+00
</event>
<event>
 4      1 +2.4041262e-06 9.11880000e+01 7.81860800e-03 1.13011600e-01
       25 -1    0    0    0    0 +0.0000000000e+00 +0.0000000000e+00 +9.9999998245e-15 1.2500000000e+02 1.2500000000e+02 0.0000e+00 0.0000e+00
      -13  1    1    0    0    0 -4.5079569296e+01 +2.8287127788e+01 -3.2770561019e+01 6.2500000000e+01 1.0566000000e-01 0.0000e+00 -1.0000e+00
       13  1    1    0    0    0 +4.5079515436e+01 -2.8287094285e+01 +3.2770522123e+01 6.2499925594e+01 1.0566000000e-01 0.0000e+00 -1.0000e+00
       22  1    1    0    0    0 +5.3859724633e-05 -3.3503223051e-05 +3.8896217707e-05 7.4405991992e-05 0.0000000000e+00 0.0000e+00 1.0000e+00
</event>
<event>
 5      1 +2.4041262e-06 9.11880000e+01 7.81860800e-03 1.13011600e-01
       25 -1    0    0    0    0 +0.0000000000e+00 +0.0000000000e+00 +9.9999998245e-15 1.2500000000e+02 1.2500000000e+02 0.0000e+00 0.0000e+00
       23  2    1    0    0    0 +1.6790549220e+00 +2.0576972932e+01 +2.0819338357e+01 9.5679769952e+01 9.1076574858e+01 0.0000e+00 0.0000e+00
      -13  1    2    2    0    0 -1.0760323481e+01 +5.1740750209e+01 +3.0160878774e+01 6.0848825511e+01 1.0566000000e-01 0.0000e+00 1.0000e+00
       13  1    2    2    0    0 +1.2439378403e+01 -3.1163777277e+01 -9.3415404176e+00 3.4830944441e+01 1.0566000000e-01 0.0000e+00 -1.0000e+00
       22  1    1    0    0    0 -1.6790549220e+00 -2.0576972932e+01 -2.0819338357e+01 2.9320230048e+01 0.0000000000e+00 0.0000e+00 1.0000e+00
</event>
<event>
 5      1 +2.4041262e-06 9.11880000e+01 7.81860800e-03 1.13011600e-01
       25 -1    0    0    0    0 +0.0000000000e+00 +0.0000000000e+00 +9.9999998245e-15 1.2500000000e+02 1.2500000000e+02 0.0000e+00 0.0000e+00
       23  2    1    0    0    0 -1.5775091751e+01 -2.6843199165e+01 +2.9672313248e+00 9.3723566013e+01 8.8350956437e+01 0.0000e+00 0.0000e+00
      -11  1    2    2    0    0 -2.4447610807e+01 -4.2632193626e+01 -2.8976138187e+01 5.7050908775e+01 5.1100000000e-04 0.0000e+00 -1.0000e+00
       11  1    2    2    0    0 +8.6725190560e+00 +1.5788994461e+01 +3.1943369512e+01 3.6672657238e+01 5.1100000000e-04 0.0000e+00 1.0000e+00
       22  1    1    0    0    0 +1.5775091751e+01 +2.6843199165e+01 -2.9672313248e+00 3.1276433987e+01 0.0000000000e+00 0.0000e+00 -1.0000e+00
</event>
<event>
 5      1 +2.4041262e-06 9.11880000e+01 7.81860800e-03 1.13011600e-01
       25 -1    0    0    0    0 +0.0000000000e+00 +0.0000000000e+00 +9.9999998245e-15 1.2500000000e+02 1.2500000000e+02 0.0000e+00 0.0000e+00
       23  2    1    0    0    0 +1.3919458574e+01 -1.9555369810e+01 +1.6047532107e+01 9.6126359735e+01 9.1687457887e+01 0.0000e+00 0.0000e+00
      -11  1    2    2    0    0 -2.3803986926e+01 -4.0292187137e+01 +2.3614763726e+01 5.2418958441e+01 5.1100000000e-04 0.0000e+00 1.0000e+00
       11  1    2    2    0    0 +3.7723445501e+01 +2.0736817327e+01 -7.5672316193e+00 4.3707401295e+01 5.1100000000e-04 0.0000e+00 -1.0000e+00
       22  1    1    0    0    0 -1.3919458574e+01 +1.9555369810e+01 -1.6047532107e+01 2.8873640265e+01 0.0000000000e+00 0.0000e+00 -1.0000e+00
</event>
<event>
 4      1 +2.4041262e-06 9.11880000e+01 7.81860800e-03 1.13011600e-01
       25 -1    0    0    0    0 +0.0000000000e+00 +0.0000000000e+00 +9.9999998245e-15 1.2500000000e+02 1.2500000000e+02 0.0000e+00 0.0000e+00
      -13  1    1    0    0    0 +2.3637208789e+01 +2.0902774964e+01 +5.2449366943e+01 6.1209402033e+01 1.0566000000e-01 0.0000e+00 1.0000e+00
       13  1    1    0    0    0 -2.4103956329e+01 -2.1381779955e+01 -5.3553701708e+01 6.2499530842e+01 1.0566000000e-01 0.0000e+00 1.0000e+00
       22  1    1    0    0    0 +4.6674754011e-01 +4.7900499028e-01 +1.1043347653e+00 1.2910671248e+00 0.0000000000e+00 0.0000e+00 -1.0000e+00
</event>
<event>
 4      1 +2.4041262e-06 9.11880000e+01 7.81860800e-03 1.13011600e-01
       25 -1    0    0    0    0 +0.0000000000e+00 +0.0000000000e+00 +9.9999998245e-15 1.2500000000e+02 1.2500000000e+02 0.0000e+00 0.0000e+00
      -13  1    1    0    0    0 +2.3059722043e+01 -8.5216666346e+00 +5.7461893921e+01 6.2500000000e+01 1.0566000000e-01 0.0000e+00 1.0000e+00
       13  1    1    0    0    0 -2.3059722037e+01 +8.5216666303e+00 -5.7461893907e+01 6.2499999984e+01 1.0566000000e-01 0.0000e+00 1.0000e+00
       22  1    1    0    0    0 -5.4625179403e-09 +4.3155606244e-09 -1.4422142743e-08 1.6014411230e-08 0.0000000000e+00 0.0000e+00 -1.0000e+00
</event>
<event>
 4      1 +2.4041262e-06 9.11880000e+01 7.81860800e-03 1.13011600e-01
       25 -1    0    0    0    0 +0.0000000000e+00 +0.0000000000e+00 +9.9999998245e-15 1.2500000000e+02 1.2500000000e+02 0.0000e+00 0.0000e+00
      -13  1    1    0    0    0 -3.1702442631e+01 -8.5778422347e-01 -5.3855901937e+01 6.2500000000e+01 1.0566000000e-01 0.0000e+00 -1.0000e+00
       13  1    1    0    0    0 +3.1702442630e+01 +8.5778422324e-01 +5.3855901936e+01 6.2499999999e+01 1.0566000000e-01 0.0000e+00 -1.0000e+00
       22  1    1    0    0    0 +7.9143501591e-10 +2.3598500658e-10 +7.3924907773e-10 1.1083986226e-09 0.0000000000e+00 0.0000e+00 -1.0000e+00
</event>
<event>
 4      1 +2.4041262e-06 9.11880000e+01 7.81860800e-03 1.13011600e-01
       25 -1    0    0    0    0 +0.0000000000e+00 +0.0000000000e+00 +9.9999998245e-15 1.2500000000e+02 1.2500000000e+02 0.0000e+00 0.0000e+00
      -13  1    1    0    0    0 -1.9336391225e+01 +2.4603207009e+01 +5.4101987062e+01 6.2499999911e+01 1.0566000000e-01 0.0000e+00 -1.0000e+00
       13  1    1    0    0    0 +1.9336391159e+01 -2.4603207107e+01 -5.4101987103e+01 6.2499999964e+01 1.0566000000e-01 0.0000e+00 -1.0000e+00
       22  1    1    0    0    0 +6.5979850180e-08 +9.7793407354e-08 +4.0428442747e-08 1.2470505256e-07 0.0000000000e+00 0.0000e+00 1.0000e+00
</event>
<event>
 5      1 +2.4041262e-06 9.11880000e+01 7.81860800e-03 1.13011600e-01
       25 -1    0    0    0    0 +0.0000000000e+00 +0.0000000000e+00 +9.9999998245e-15 1.2500000000e+02 1.2500000000e+02 0.0000e+00 0.0000e+00
       23  2    1    0    0    0 -8.8706648050e+00 -2.6975623325e+01 +6.4282437643e+00 9.5884793221e+01 9.1357530097e+01 0.0000e+00 0.0000e+00
      -13  1    2    2    0    0 -4.5618305374e+01 +2.9762186199e+00 +1.4143202900e+01 4.7853202764e+01 1.0566000000e-01 0.0000e+00 1.0000e+00
       13  1    2    2    0    0 +3.6747640570e+01 -2.9951841945e+01 -7.7149591354e+00 4.8031590457e+01 1.0566000000e-01 0.0000e+00 -1.0000e+00
       22  1    1    0    0    0 +8.8706648050e+00 +2.6975623325e+01 -6.4282437643e+00 2.9115206779e+01 0.0000000000e+00 0.0000e+00 1.0000e+00
</event>
<event>
 5      1 +2.4041262e-06 9.11880000e+01 7.81860800e-03 1.13011600e-01
       25 -1    0    0    0    0 +0.0000000000e+00 +0.0000000000e+00 +9.9999998245e-15 1.2500000000e+02 1.2500000000e+02 0.0000e+00 0.0000e+00
       23  2    1    0    0    0 -3.2158020854e+00 -2.6376567242e+01 +1.0059208917e+01 9.6587813063e+01 9.2314426097e+01 0.0000e+00 0.0000e+00
      -13  1    2    2    0    0 +3.8053075128e+01 -9.8564397255e+00 -1.8815779014e+01 4.3580163316e+01 1.0566000000e-01 0.0000e+00 1.0000e+00
       13  1    2    2    0    0 -4.1268877213e+01 -1.6520127517e+01 +2.8874987931e+01 5.3007649746e+01 1.0566000000e-01 0.0000e+00 -1.0000e+00
       22  1    1    0    0    0 +3.2158020854e+00 +2.6376567242e+01 -1.0059208917e+01 2.8412186937e+01 0.0000000000e+00 0.0000e+00 -1.0000e+00
</event>
<event>
 4      1 +2.4041262e-06 9.11880000e+01 7.81860800e-03 1.13011600e-01
       25 -1    0    0    0    0 +0.0000000000e+00 +0.0000000000e+00 +9.9999998245e-15 1.2500000000e+02 1.2500000000e+02 0.0000e+00 0.0000e+00
      -13  1    1    0    0    0 +5.5823456581e+01 +1.9620730056e+01 +1.9260605948e+01 6.2227111921e+01 1.0566000000e-01 0.0000e+00 -1.0000e+00
       13  1    1    0    0    0 -4.9411612271e+01 -1.9846467455e+01 -1.8181632273e+01 5.6266976228e+01 1.0566000000e-01 0.0000e+00 -1.0000e+00
       22  1    1    0    0    0 -6.4118443090e+00 +2.2573739935e-01 -1.0789736750e+00 6.5059118506e+00 0.0000000000e+00 0.0000e+00 -1.0000e+00
</event>
<event>
 4      1 +2.4041262e-06 9.11880000e+01 7.81860800e-03 1.13011600e-01
       25 -1    0    0    0    0 +0.0000000000e+00 +0.0000000000e+00 +9.9999998245e-15 1.2500000000e+02 1.2500000000e+02 0.0000e+00 0.0000e+00
      -13  1    1    0    0    0 -3.1687881142e+01 -3.8820929464e+01 -3.5537456238e+01 6.1433771947e+01 1.0566000000e-01 0.0000e+00 1.0000e+00
       13  1    1    0    0    0 +3.2251011384e+01 +3.9506325557e+01 +3.6129414743e+01 6.2499786144e+01 1.0566000000e-01 0.0000e+00 1.0000e+00
       22  1    1    0    0    0 -5.6313024264e-01 -6.8539609288e-01 -5.9195850498e-01 1.0664419093e+00 0.0000000000e+00 0.0000e+00 -1.0000e+00
</event>
<event>
 4      1 +2.4041262e-06 9.11880000e+01 7.81860800e-03 1.13011600e-01
       25 -1    0    0    0    0 +0.0000000000e+00 +0.0000000000e+00 +9.9999998245e-15 1.2500000000e+02 1.2500000000e+02 0.0000e+00 0.0000e+00
      -13  1    1    0    0    0 -1.5600288424e+01 -3.0587879085e+00 +4.1419974132e+01 4.4366097457e+01 1.0566000000e-01 0.0000e+00 1.0000e+00
       13  1    1    0    0    0 -2.6002252749e+00 +1.4190293283e+00 +1.8115778846e+01 1.8356672437e+01 1.0566000000e-01 0.0000e+00 -1.0000e+00
       22  1    1    0    0    0 +1.8200513699e+01 +1.6397585802e+00 -5.9535752978e+01 6.2277230107e+01 0.0000000000e+00 0.0000e+00 1.0000e+00
</event>
<event>
 4      1 +2.4041262e-06 9.11880000e+01 7.81860800e-03 1.13011600e-01
       25 -1    0    0    0    0 +0.0000000000e+00 +0.0000000000e+00 +9.9999998245e-15 1.2500000000e+02 1.2500000000e+02 0.0000e+00 0.0000e+00
      -13  1    1    0    0    0 -3.2963639153e+01 +1.0206174530e+01 +5.2109850993e+01 6.2499721913e+01 1.0566000000e-01 0.0000e+00 1.0000e+00
       13  1    1    0    0    0 +3.2963776198e+01 -1.0206570130e+01 -5.2109851741e+01 6.2499859420e+01 1.0566000000e-01 0.0000e+00 1.0000e+00
       22  1    1    0    0    0 -1.3704547397e-04 +3.9559985830e-04 +7.4824672122e-07 4.1866605988e-04 0.0000000000e+00 0.0000e+00 -1.0000e+00
</event>
<event>
 4      1 +2.4041262e-06 9.11880000e+01 7.81860800e-03 1.13011600e-01
       25 -1    0    0    0    0 +0.0000000000e+00 +0.0000000000e+00 +9.9999998245e-15 1.2500000000e+02 1.2500000000e+02 0.0000e+00 0.0000e+00
      -13  1    1    0    0    0 -5.8643935102e+01 -1.9172384324e+01 -9.2849305205e+00 6.2393209115e+01 1.0566000000e-01 0.0000e+00 -1.0000e+00
       13  1    1    0    0    0 +5.8151614282e+01 +1.8496376417e+01 +8.8396778592e+00 6.1659364681e+01 1.0566000000e-01 0.0000e+00 -1.0000e+00
       22  1    1    0    0    0 +4.9232081954e-01 +6.7600790739e-01 +4.4525266128e-01 9.4742620430e-01 0.0000000000e+00 0.0000e+00 1.0000e+00
</event>
<event>
 4      1 +2.4041262e-06 9.11880000e+01 7.81860800e-03 1.13011600e-01
       25 -1    0    0    0    0 +0.0000000000e+00 +0.0000000000e+00 +9.9999998245e-15 1.2500000000e+02 1.2500000000e+02 0.0000e+00 0.0000e+00
      -13  1    1    0    0    0 +2.1367555037e+01 -3.1782857213e+00 -2.7802526073e+01 3.5208884227e+01 1.0566000000e-01 0.0000e+00 -1.0000e+00
       13  1    1    0    0    0 -3.7967734130e+01 +5.6233826978e+00 +4.9326074650e+01 6.2499952579e+01 1.0566000000e-01 0.0000e+00 -1.0000e+00
       22  1    1    0    0    0 +1.6600179093e+01 -2.4450969765e+00 -2.1523548577e+01 2.7291163194e+01 0.0000000000e+00 0.0000e+00 1.0000e+00
</event>
<event>
 5      1 +2.4041262e-06 9.11880000e+01 7.81860800e-03 1.13011600e-01
       25 -1    0    0    0    0 +0.0000000000e+00 +0.0000000000e+00 +9.9999998245e-15 1.2500000000e+02 1.2500000000e+02 0.0000e+00 0.0000e+00
       23  2    1    0    0    0 -1.0787439750e+01 +1.6609235509e+01 -1.9805203193e+01 9.6991400712e+01 9.2859303131e+01 0.0000e+00 0.0000e+00
      -11  1    2    2    0    0 -1.2482298556e+01 +5.3295807134e+01 -2.4492535957e+01 5.9967784295e+01 5.1100000000e-04 0.0000e+00 1.0000e+00
       11  1    2    2    0    0 +1.6948588063e+00 -3.6686571624e+01 +4.6873327648e+00 3.7023616418e+01 5.1100000000e-04 0.0000e+00 -1.0000e+00
       22  1    1    0    0    0 +1.0787439750e+01 -1.6609235509e+01 +1.9805203193e+01 2.8008599288e+01 0.0000000000e+00 0.0000e+00 1.0000e+00
</event>
<event>
 4      1 +2.4041262e-06 9.11880000e+01 7.81860800e-03 1.13011600e-01
       25 -1    0    0    0    0 +0.0000000000e+00 +0.0000000000e+00 +9.9999998245e-15 1.2500000000e+02 1.2500000000e+02 0.0000e+00 0.0000e+00
      -13  1    1    0    0    0 -3.2598762484e+00 -5.1691680175e+01 -3.4979068278e+01 6.2499623792e+01 1.0566000000e-01 0.0000e+00 1.0000e+00
       13  1    1    0    0    0 +3.2597133192e+00 +5.1692050557e+01 +3.4979144732e+01 6.2499964415e+01 1.0566000000e-01 0.0000e+00 1.0000e+00
       22  1    1    0    0    0 +1.6292912759e-04 -3.7038161475e-04 -7.6453447712e-05 4.1179311654e-04 0.0000000000e+00 0.0000e+00 1.0000e+00
</event>
<event>
 4      1 +2.4041262e-06 9.11880000e+01 7.81860800e-03 1.13011600e-01
       25 -1    0    0    0    0 +0.0000000000e+00 +0.0000000000e+00 +9.9999998245e-15 1.2500000000e+02 1.2500000000e+02 0.0000e+00 0.0000e+00
      -13  1    1    0    0    0 +3.0678830057e+01 +3.2490651194e+01 -4.3690630236e+01 6.2495722759e+01 1.0566000000e-01 0.0000e+00 -1.0000e+00
       13  1    1    0    0    0 -3.0663931036e+01 -3.2493167025e+01 +4.3689810225e+01 6.2489145069e+01 1.0566000000e-01 0.0000e+00 -1.0000e+00
       22  1    1    0    0    0 -1.4899020726e-02 +2.5158309596e-03 +8.2001069766e-04 1.5132172400e-02 0.0000000000e+00 0.0000e+00 1.0000e+00
</event>
<event>
 4      1 +2.4041262e-06 9.11880000e+01 7.81860800e-03 1.13011600e-01
       25 -1    0    0    0    0 +0.0000000000e+00 +0.0000000000e+00 +9.9999998245e-15 1.2500000000e+02 1.2500000000e+02 0.0000e+00 0.0000e+00
      -13  1    1    0    0    0 -1.2132561083e+01 +3.4579339300e+01 +5.0627874490e+01 6.2498980666e+01 1.0566000000e-01 0.0000e+00 1.0000e+00
       13  1    1    0    0    0 +1.2076907747e+01 -3.4496766820e+01 -5.0501588010e+01 6.2340197123e+01 1.0566000000e-01 0.0000e+00 1.0000e+00
       22  1    1    0    0    0 +5.5653335706e-02 -8.2572480467e-02 -1.2628648073e-01 1.6082221090e-01 0.0000000000e+00 0.0000e+00 -1.0000e+00
</event>
<event>
 4      1 +2.4041262e-06 9.11880000e+01 7.81860800e-03 1.13011600e-01
       25 -1    0    0    0    0 +0.0000000000e+00 +0.0000000000e+00 +9.9999998245e-15 1.2500000000e+02 1.2500000000e+02 0.0000e+00 0.0000e+00
      -13  1    1    0    0    0 -3.4028132687e+01 -1.8724692160e+01 -4.8966426498e+01 6.2499999989e+01 1.0566000000e-01 0.0000e+00 1.0000e+00
       13  1    1    0    0    0 +3.4028132096e+01 +1.8724691758e+01 +4.8966425901e+01 6.2499999080e+01 1.0566000000e-01 0.0000e+00 1.0000e+00
       22  1    1    0    0    0 +5.9089564923e-07 +4.0135053499e-07 +5.9699186186e-07 9.3093458596e-07 0.0000000000e+00 0.0000e+00 1.0000e+00
</event>
<event>
 4      1 +2.4041262e-06 9.11880000e+01 7.81860800e-03 1.13011600e-01
       25 -1    0    0    0    0 +0.0000000000e+00 +0.0000000000e+00 +9.9999998245e-15 1.2500000000e+02 1.2500000000e+02 0.0000e+00 0.0000e+00
      -13  1    1    0    0    0 +3.2421546065e+01 +5.3425905801e+01 +6.9382847131e-01 6.2497812937e+01 1.0566000000e-01 0.0000e+00 1.0000e+00
       13  1    1    0    0    0 -3.2422701483e+01 -5.3427762980e+01 -6.9381236790e-01 6.2499999745e+01 1.0566000000e-01 0.0000e+00 1.0000e+00
       22  1    1    0    0    0 +1.1554178566e-03 +1.8571789523e-03 -1.6103411918e-05 2.1873187706e-03 0.0000000000e+00 0.0000e+00 1.0000e+00
</event>
<event>
 4      1 +2.4041262e-06 9.11880000e+01 7.81860800e-03 1.13011600e-01
       25 -1    0    0    0    0 +0.0000000000e+00 +0.0000000000e+00 +9.9999998245e-15 1.2500000000e+02 1.2500000000e+02 0.0000e+00 0.0000e+00
      -13  1    1    0    0    0 +5.7922218287e+01 +3.8923470666e+00 +2.3153936732e+01 6.2499997498e+01 1.0566000000e-01 0.0000e+00 -1.0000e+00
       13  1    1    0    0    0 -5.7921506209e+01 -3.8923848236e+00 -2.3153631783e+01 6.2499226955e+01 1.0566000000e-01 0.0000e+00 -1.0000e+00
       22  1    1    0    0    0 -7.1207786620e-04 +3.7757026009e-05 -3.0494867598e-04 7.7554766168e-04 0.0000000000e+00 0.0000e+00 -1.0000e+00
</event>
<event>
 4      1 +2.4041262e-06 9.11880000e+01 7.81860800e-03 1.13011600e-01
       25 -1    0    0    0    0 +0.0000000000e+00 +0.0000000000e+00 +9.9999998245e-15 1.2500000000e+02 1.2500000000e+02 0.0000e+00 0.0000e+00
      -11  1    1    0    0    0 -1.2617593979e+01 -4.2725015366e+01 -3.2133666166e+00 4.4664934133e+01 5.1100000000e-04 0.0000e+00 1.0000e+00
       11  1    1    0    0    0 -5.2280597563e+00 -1.6946771299e+01 -1.9317727288e+00 1.7839770526e+01 5.1100000000e-04 0.0000e+00 -1.0000e+00
       22  1    1    0    0    0 +1.7845653735e+01 +5.9671786664e+01 +5.1451393454e+00 6.2495295342e+01 0.0000000000e+00 0.0000e+00 1.0000e+00
</event>
<event>
 4      1 +2.4041262e-06 9.11880000e+01 7.81860800e-03 1.13011600e-01
       25 -1    0    0    0    0 +0.0000000000e+00 +0.0000000000e+00 +9.9999998245e-15 1.2500000000e+02 1.2500000000e+02 0.0000e+00 0.0000e+00
      -13  1    1    0    0    0 +1.3325919261e+01 +2.6906563742e+01 +5.4815025665e+01 6.2499931994e+01 1.0566000000e-01 0.0000e+00 1.0000e+00
       13  1    1    0    0    0 -1.3324912003e+01 -2.6902999356e+01 -5.4805163850e+01 6.2489533547e+01 1.0566000000e-01 0.0000e+00 1.0000e+00
       22  1    1    0    0    0 -1.0072579476e-03 -3.5643859239e-03 -9.8618155482e-03 1.0534458766e-02 0.0000000000e+00 0.0000e+00 -1.0000e+00
</event>
<event>
 4      1 +2.4041262e-06 9.11880000e+01 7.81860800e-03 1.13011600e-01
       25 -1    0    0    0    0 +0.0000000000e+00 +0.0000000000e+00 +9.9999998245e-15 1.2500000000e+02 1.2500000000e+02 0.0000e+00 0.0000e+00
      -11  1    1    0    0    0 +2.4714209269e+01 -1.9484624950e+01 +3.4587644274e+01 4.6762676205e+01 5.1100000000e-04 0.0000e+00 -1.0000e+00
       11  1    1    0    0    0 +1.6208468949e+01 +2.2856000721e+00 +6.6313931830e+00 1.7661081767e+01 5.1100000000e-04 0.0000e+00 1.0000e+00
       22  1    1    0    0    0 -4.0922678218e+01 +1.7199024878e+01 -4.1219037457e+01 6.0576242027e+01 0.0000000000e+00 0.0000e+00 -1.0000e+00
</event>
<event>
 4      1 +2.4041262e-06 9.11880000e+01 7.81860800e-03 1.13011600e-01
       25 -1    0    0    0    0 +0.0000000000e+00 +0.0000000000e+00 +9.9999998245e-15 1.2500000000e+02 1.2500000000e+02 0.0000e+00 0.0000e+00
      -11  1    1    0    0    0 -3.1856031582e+01 +2.8922683952e+01 +1.0338437142e+01 4.4251685594e+01 5.1100000000e-04 0.0000e+00 1.0000e+00
       11  1    1    0    0    0 -1.3006425005e+01 +1.2119502902e+01 +4.1204231257e+00 1.8249036386e+01 5.1100000000e-04 0.0000e+00 -1.0000e+00
       22  1    1    0    0    0 +4.4862456587e+01 -4.1042186854e+01 -1.4458860268e+01 6.2499278020e+01 0.0000000000e+00 0.0000e+00 1.0000e+00
</event>
<event>
 4      1 +2.4041262e-06 9.11880000e+01 7.81860800e-03 1.13011600e-01
       25 -1    0    0    0    0 +0.0000000000e+00 +0.0000000000e+00 +9.9999998245e-15 1.2500000000e+02 1.2500000000e+02 0.0000e+00 0.0000e+00
      -13  1    1    0    0    0 -8.5077728547e+00 +1.0955729880e+01 +1.3039962929e+01 1.9038435161e+01 1.0566000000e-01 0.0000e+00 -1.0000e+00
       13  1    1    0    0    0 -1.9111778031e+01 +2.4546313448e+01 +3.0351812490e+01 4.3462918090e+01 1.0566000000e-01 0.0000e+00 -1.0000e+00
       22  1    1    0    0    0 +2.7619550885e+01 -3.5502043328e+01 -4.3391775419e+01 6.2498646750e+01 0.0000000000e+00 0.0000e+00 -1.0000e+00
</event>
<event>
 4      1 +2.4041262e-06 9.11880000e+01 7.81860800e-03 1.13011600e-01
       25 -1    0    0    0    0 +0.0000000000e+00 +0.0000000000e+00 +9.9999998245e-15 1.2500000000e+02 1.2500000000e+02 0.0000e+00 0.0000e+00
      -13  1    1    0    0    0 -4.9332385851e+01 -2.2081136969e+01 +3.1384358084e+01 6.2500000000e+01 1.0566000000e-01 0.0000e+00 1.0000e+00
       13  1    1    0    0    0 +4.9332385851e+01 +2.2081136969e+01 -3.1384358084e+01 6.2500000000e+01 1.0566000000e-01 0.0000e+00 1.0000e+00
       22  1    1    0    0    0 -1.2563738648e-10 +2.6675382424e-11 -2.4596857256e-11 1.3077207001e-10 0.0000000000e+00 0.0000e+00 -1.0000e+00
</event>
<event>
 4      1 +2.4041262e-06 9.11880000e+01 7.81860800e-03 1.13011600e-01
       25 -1    0    0    0    0 +0.0000000000e+00 +0.0000000000e+00 +9.9999998245e-15 1.2500000000e+02 1.2500000000e+02 0.0000e+00 0.0000e+00
      -11  1    1    0    0    0 +1.3456453404e+01 +1.9589555366e+01 +7.5819037962e+00 2.4946183738e+01 5.1100000000e-04 0.0000e+00 1.0000e+00
       11  1    1    0    0    0 +2.0255195696e+01 +2.9492078772e+01 +1.1411987349e+01 3.7553816297e+01 5.1100000000e-04 0.0000e+00 -1.0000e+00
       22  1    1    0    0    0 -3.3711649101e+01 -4.9081634138e+01 -1.8993891145e+01 6.2499999965e+01 0.0000000000e+00 0.0000e+00 -1.0000e+00
</event>
<event>
 4      1 +2.4041262e-06 9.11880000e+01 7.81860800e-03 1.13011600e-01
       25 -1    0    0    0    0 +0.0000000000e+00 +0.0000000000e+00 +9.9999998245e-15 1.2500000000e+02 1.2500000000e+02 0.0000e+00 0.0000e+00
      -13  1    1    0    0    0 -3.1272883779e+01 +4.1231342301e+01 -3.5045998169e+01 6.2499999996e+01 1.0566000000e-01 0.0000e+00 -1.0000e+00
       13  1    1    0    0    0 +3.1271890507e+01 -4.1230038829e+01 +3.5044891043e+01 6.2498022289e+01 1.0566000000e-01 0.0000e+00 -1.0000e+00
       22  1    1    0    0    0 +9.9327270138e-04 -1.3034718987e-03 +1.1071256013e-03 1.9777150318e-03 0.0000000000e+00 0.0000e+00 1.0000e+00
</event>
<event>
 4      1 +2.4041262e-06 9.11880000e+01 7.81860800e-03 1.13011600e-01
       25 -1    0    0    0    0 +0.0000000000e+00 +0.0000000000e+00 +9.9999998245e-15 1.2500000000e+02 1.2500000000e+02 0.0000e+00 0.0000e+00
      -13  1    1    0    0    0 -2.5859797273e+01 +2.7514817909e+00 +5.6832552891e+01 6.2499999993e+01 1.0566000000e-01 0.0000e+00 1.0000e+00
       13  1    1    0    0    0 +2.5859796911e+01 -2.7514818007e+00 -5.6832552390e+01 6.2499999388e+01 1.0566000000e-01 0.0000e+00 1.0000e+00
       22  1    1    0    0    0 +3.6210006549e-07 +9.7998602915e-09 -5.0093581048e-07 6.1818215836e-07 0.0000000000e+00 0.0000e+00 1.0000e+00
</event>
<event>
 4      1 +2.4041262e-06 9.11880000e+01 7.81860800e-03 1.13011600e-01
       25 -1    0    0    0    0 +0.0000000000e+00 +0.0000000000e+00 +9.9999998245e-15 1.2500000000e+02 1.2500000000e+02 0.0000e+00 0.0000e+00
      -11  1    1    0    0    0 -1.1610768438e+01 +2.4782879801e+01 -1.3973596205e+01 3.0728853967e+01 5.1100000000e-04 0.0000e+00 -1.0000e+00
       11  1    1    0    0    0 -1.2191378992e+01 +2.5905044430e+01 -1.3778346642e+01 3.1773320335e+01 5.1100000000e-04 0.0000e+00 1.0000e+00
       22  1    1    0    0    0 +2.3802147430e+01 -5.0687924232e+01 +2.7751942847e+01 6.2497825698e+01 0.0000000000e+00 0.0000e+00 -1.0000e+00
</event>
<event>
 4      1 +2.4041262e-06 9.11880000e+01 7.81860800e-03 1.13011600e-01
       25 -1    0    0    0    0 +0.0000000000e+00 +0.0000000000e+00 +9.9999998245e-15 1.2500000000e+02 1.2500000000e+02 0.0000e+00 0.0000e+00
      -11  1    1    0    0    0 +4.7751779528e+00 +5.5479236361e+01 -4.4528722972e+00 5.5862116534e+01 5.1100000000e-04 0.0000e+00 -1.0000e+00
       11  1    1    0    0    0 +5.6588693798e-01 +6.5929509666e+00 -5.2371799301e-01 6.6378845479e+00 5.1100000000e-04 0.0000e+00 1.0000e+00
       22  1    1    0    0    0 -5.3410648908e+00 -6.2072187328e+01 +4.9765902902e+00 6.2499998918e+01 0.0000000000e+00 0.0000e+00 -1.0000e+00
</event>
<event>
 4      1 +2.4041262e-06 9.11880000e+01 7.81860800e-03 1.13011600e-01
       25 -1    0    0    0    0 +0.0000000000e+00 +0.0000000000e+00 +9.9999998245e-15 1.2500000000e+02 1.2500000000e+02 0.0000e+00 0.0000e+00
      -13  1    1    0    0    0 +2.8371970563e+01 +4.2985592249e+01 -3.5373234423e+01 6.2482051280e+01 1.0566000000e-01 0.0000e+00 -1.0000e+00
       13  1    1    0    0    0 -2.8380053311e+01 -4.2998174732e+01 +3.5383162377e+01 6.2499998400e+01 1.0566000000e-01 0.0000e+00 -1.0000e+00
       22  1    1    0    0    0 +8.0827474800e-03 +1.2582483717e-02 -9.9279534570e-03 1.7950319305e-02 0.0000000000e+00 0.0000e+00 1.0000e+00
</event>
<event>
 4      1 +2.4041262e-06 9.11880000e+01 7.81860800e-03 1.13011600e-01
       25 -1    0    0    0    0 +0.0000000000e+00 +0.0000000000e+00 +9.9999998245e-15 1.2500000000e+02 1.2500000000e+02 0.0000e+00 0.0000e+00
      -11  1    1    0    0    0 -5.2764005421e+00 +1.7296387587e+01 +1.3162505845e+01 2.2366425433e+01 5.1100000000e-04 0.0000e+00 1.0000e+00
       11  1    1    0    0    0 -9.4857113132e+00 +3.1019125692e+01 +2.3633431388e+01 4.0133576433e+01 5.1100000000e-04 0.0000e+00 -1.0000e+00
       22  1    1    0    0    0 +1.4762111855e+01 -4.8315513280e+01 -3.6795937233e+01 6.2499998134e+01 0.0000000000e+00 0.0000e+00 -1.0000e+00
</event>
<event>
 4      1 +2.4041262e-06 9.11880000e+01 7.81860800e-03 1.13011600e-01
       25 -1    0    0    0    0 +0.0000000000e+00 +0.0000000000e+00 +9.9999998245e-15 1.2500000000e+02 1.2500000000e+02 0.0000e+00 0.0000e+00
      -13  1    1    0    0    0 -3.3286442447e+01 +4.9239200050e+01 -1.9332686405e+01 6.2500000000e+01 1.0566000000e-01 0.0000e+00 -1.0000e+00
       13  1    1    0    0    0 +3.3286442388e+01 -4.9239199955e+01 +1.9332686361e+01 6.2499999880e+01 1.0566000000e-01 0.0000e+00 -1.0000e+00
       22  1    1    0    0    0 +5.8882477198e-08 -9.4508164307e-08 +4.4036147162e-08 1.1974189534e-07 0.0000000000e+00 0.0000e+00 1.0000e+00
</event>
<event>
 4      1 +2.4041262e-06 9.11880000e+01 7.81860800e-03 1.13011600e-01
       25 -1    0    0    0    0 +0.0000000000e+00 +0.0000000000e+00 +9.9999998245e-15 1.2500000000e+02 1.2500000000e+02 0.0000e+00 0.0000e+00
      -13  1    1    0    0    0 +3.5634494132e+01 -1.8727948333e+01 +4.7808834609e+01 6.2499992412e+01 1.0566000000e-01 0.0000e+00 1.0000e+00
       13  1    1    0    0    0 -3.5476156271e+01 +1.8647609843e+01 -4.7599944634e+01 6.2225854030e+01 1.0566000000e-01 0.0000e+00 1.0000e+00
       22  1    1    0    0    0 -1.5833786120e-01 +8.0338489830e-02 -2.0888997586e-01 2.7415355780e-01 0.0000000000e+00 0.0000e+00 -1.0000e+00
</event>
<event>
 4      1 +2.4041262e-06 9.11880000e+01 7.81860800e-03 1.13011600e-01
       25 -1    0    0    0    0 +0.0000000000e+00 +0.0000000000e+00 +9.9999998245e-15 1.2500000000e+02 1.2500000000e+02 0.0000e+00 0.0000e+00
      -13  1    1    0    0    0 +1.9099271551e+01 +1.9169366011e+01 +6.6119269629e+00 2.7856336967e+01 1.0566000000e-01 0.0000e+00 -1.0000e+00
       13  1    1    0    0    0 +1.5705687078e+01 +2.9993698652e+01 +8.7701759282e+00 3.4974529522e+01 1.0566000000e-01 0.0000e+00 1.0000e+00
       22  1    1    0    0    0 -3.4804958629e+01 -4.9163064662e+01 -1.5382102891e+01 6.2169133511e+01 0.0000000000e+00 0.0000e+00 -1.0000e+00
</event>
<event>
 4      1 +2.4041262e-06 9.11880000e+01 7.81860800e-03 1.13011600e-01
       25 -1    0    0    0    0 +0.0000000000e+00 +0.0000000000e+00 +9.9999998245e-15 1.2500000000e+02 1.2500000000e+02 0.0000e+00 0.0000e+00
      -13  1    1    0    0    0 -6.9020105998e+00 +6.0891528335e+01 +1.2280995971e+01 6.2499999995e+01 1.0566000000e-01 0.0000e+00 -1.0000e+00
       13  1    1    0    0    0 +6.9020106010e+00 -6.0891528340e+01 -1.2280995971e+01 6.2500000000e+01 1.0566000000e-01 0.0000e+00 -1.0000e+00
       22  1    1    0    0    0 -1.2751991057e-09 +4.7495502950e-09 -5.8766624037e-10 4.9527479619e-09 0.0000000000e+00 0.0000e+00 -1.0000e+00
</event>
<event>
 4      1 +2.4041262e-06 9.11880000e+01 7.81860800e-03 1.13011600e-01
       25 -1    0    0    0    0 +0.0000000000e+00 +0.0000000000e+00 +9.9999998245e-15 1.2500000000e+02 1.2500000000e+02 0.0000e+00 0.0000e+00
      -13  1    1    0    0    0 -1.2466114748e+01 -3.9651667298e+01 +4.6609573895e+01 6.2450958993e+01 1.0566000000e-01 0.0000e+00 -1.0000e+00
       13  1    1    0    0    0 +1.2476199153e+01 +3.9685613284e+01 -4.6643607407e+01 6.2499925784e+01 1.0566000000e-01 0.0000e+00 -1.0000e+00
       22  1    1    0    0    0 -1.0084404936e-02 -3.3945985834e-02 +3.4033512204e-02 4.9115222998e-02 0.0000000000e+00 0.0000e+00 1.0000e+00
</event>
<event>
 4      1 +2.4041262e-06 9.11880000e+01 7.81860800e-03 1.13011600e-01
       25 -1    0    0    0    0 +0.0000000000e+00 +0.0000000000e+00 +9.9999998245e-15 1.2500000000e+02 1.2500000000e+02 0.0000e+00 0.0000e+00
      -13  1    1    0    0    0 -3.1848732776e+01 -3.0129371842e+01 +4.4543420559e+01 6.2499986449e+01 1.0566000000e-01 0.0000e+00 -1.0000e+00
       13  1    1    0    0    0 +3.1848740682e+01 +3.0129377743e+01 -4.4543429889e+01 6.2499999972e+01 1.0566000000e-01 0.0000e+00 -1.0000e+00
       22  1    1    0    0    0 -7.9061653748e-06 -5.9013232058e-06 +9.3296339452e-06 1.3578480624e-05 0.0000000000e+00 0.0000e+00 1.0000e+00
</event>
<event>
 5      1 +2.4041262e-06 9.11880000e+01 7.81860800e-03 1.13011600e-01
       25 -1    0    0    0    0 +0.0000000000e+00 +0.0000000000e+00 +9.9999998245e-15 1.2500000000e+02 1.2500000000e+02 0.0000e+00 0.0000e+00
       23  2    1    0    0    0 +2.1025919516e+01 +2.1893697846e+01 +8.0784575261e-01 9.4634297116e+01 8.9630208518e+01 0.0000e+00 0.0000e+00
      -11  1    2    2    0    0 +2.7039191790e+01 +6.3433704598e+00 +4.1911192640e+01 5.0278268767e+01 5.1100000000e-04 0.0000e+00 1.0000e+00
       11  1    2    2    0    0 -6.0132722737e+00 +1.5550327386e+01 -4.1103346888e+01 4.4356028349e+01 5.1100000000e-04 0.0000e+00 -1.0000e+00
       22  1    1    0    0    0 -2.1025919516e+01 -2.1893697846e+01 -8.0784575261e-01 3.0365702884e+01 0.0000000000e+00 0.0000e+00 1.0000e+00
</event>
<event>
 4      1 +2.4041262e-06 9.11880000e+01 7.81860800e-03 1.13011600e-01
       25 -1    0    0    0    0 +0.0000000000e+00 +0.0000000000e+00 +9.9999998245e-15 1.2500000000e+02 1.2500000000e+02 0.0000e+00 0.0000e+00
      -13  1    1    0    0    0 -8.7469469107e+00 -5.9398884278e+01 +1.7363821645e+01 6.2499999999e+01 1.0566000000e-01 0.0000e+00 1.0000e+00
       13  1    1    0    0    0 +8.7469467722e+00 +5.9398882920e+01 -1.7363821202e+01 6.2499998566e+01 1.0566000000e-01 0.0000e+00 1.0000e+00
       22  1    1    0    0    0 +1.3846851799e-07 +1.3581611826e-06 -4.4364615067e-07 1.4354780512e-06 0.0000000000e+00 0.0000e+00 1.0000e+00
</event>
<event>
 4      1 +2.4041262e-06 9.11880000e+01 7.81860800e-03 1.13011600e-01
       25 -1    0    0    0    0 +0.0000000000e+00 +0.0000000000e+00 +9.9999998245e-15 1.2500000000e+02 1.2500000000e+02 0.0000e+00 0.0000e+00
      -13  1    1    0    0    0 +1.8979188058e+01 +4.1409383680e+01 +4.2793573663e+01 6.2499981976e+01 1.0566000000e-01 0.0000e+00 1.0000e+00
       13  1    1    0    0    0 -1.8824342379e+01 -4.1073517034e+01 -4.2437978350e+01 6.1986957000e+01 1.0566000000e-01 0.0000e+00 1.0000e+00
       22  1    1    0    0    0 -1.5484567898e-01 -3.3586664620e-01 -3.5559531256e-01 5.1306102429e-01 0.0000000000e+00 0.0000e+00 -1.0000e+00
</event>
<event>
 4      1 +2.4041262e-06 9.11880000e+01 7.81860800e-03 1.13011600e-01
       25 -1    0    0    0    0 +0.0000000000e+00 +0.0000000000e+00 +9.9999998245e-15 1.2500000000e+02 1.2500000000e+02 0.0000e+00 0.0000e+00
      -13  1    1    0    0    0 +1.0566506895e+01 +5.9903475979e+01 -1.4358038506e+01 6.2499935489e+01 1.0566000000e-01 0.0000e+00 -1.0000e+00
       13  1    1    0    0    0 -1.0565982080e+01 -5.9897895137e+01 +1.4357857146e+01 6.2494456114e+01 1.0566000000e-01 0.0000e+00 -1.0000e+00
       22  1    1    0    0    0 -5.2481505034e-04 -5.5808419659e-03 +1.8135997367e-04 5.6083972154e-03 0.0000000000e+00 0.0000e+00 1.0000e+00
</event>
<event>
 4      1 +2.4041262e-06 9.11880000e+01 7.81860800e-03 1.13011600e-01
       25 -1    0    0    0    0 +0.0000000000e+00 +0.0000000000e+00 +9.9999998245e-15 1.2500000000e+02 1.2500000000e+02 0.0000e+00 0.0000e+00
      -13  1    1    0    0    0 -4.0756714291e+01 -2.4176233381e+01 -4.0750936370e+01 6.2499999995e+01 1.0566000000e-01 0.0000e+00 -1.0000e+00
       13  1    1    0    0    0 +4.0756714284e+01 +2.4176233363e+01 +4.0750936373e+01 6.2499999985e+01 1.0566000000e-01 0.0000e+00 -1.0000e+00
       22  1    1    0    0    0 +6.8448353047e-09 +1.8422677323e-08 -2.8929848419e-09 1.9864948311e-08 0.0000000000e+00 0.0000e+00 1.0000e+00
</event>
<event>
 4      1 +2.4041262e-06 9.11880000e+01 7.81860800e-03 1.13011600e-01
       25 -1    0    0    0    0 +0.0000000000e+00 +0.0000000000e+00 +9.9999998245e-15 1.2500000000e+02 1.2500000000e+02 0.0000e+00 0.0000e+00
      -13  1    1    0    0    0 -4.7010001175e+01 -1.8686278633e+01 -3.6693278180e+01 6.2494200109e+01 1.0566000000e-01 0.0000e+00 1.0000e+00
       13  1    1    0    0    0 +4.6893366239e+01 +1.8567320214e+01 +3.6569851306e+01 6.2298461985e+01 1.0566000000e-01 0.0000e+00 1.0000e+00
       22  1    1    0    0    0 +1.1663493657e-01 +1.1895841887e-01 +1.2342687377e-01 2.0733790540e-01 0.0000000000e+00 0.0000e+00 1.0000e+00
</event>
<event>
 4      1 +2.4041262e-06 9.11880000e+01 7.81860800e-03 1.13011600e-01
       25 -1    0    0    0    0 +0.0000000000e+00 +0.0000000000e+00 +9.9999998245e-15 1.2500000000e+02 1.2500000000e+02 0.0000e+00 0.0000e+00
      -13  1    1    0    0    0 +1.9682236383e+01 -4.3402685633e+01 -4.0435816879e+01 6.2499999999e+01 1.0566000000e-01 0.0000e+00 1.0000e+00
       13  1    1    0    0    0 -1.9682235573e+01 +4.3402683778e+01 +4.0435815292e+01 6.2499997429e+01 1.0566000000e-01 0.0000e+00 1.0000e+00
       22  1    1    0    0    0 -8.0977522742e-07 +1.8549312295e-06 +1.5865717599e-06 2.5717145515e-06 0.0000000000e+00 0.0000e+00 -1.0000e+00
</event>
<event>
 5      1 +2.4041262e-06 9.11880000e+01 7.81860800e-03 1.13011600e-01
       25 -1    0    0    0    0 +0.0000000000e+00 +0.0000000000e+00 +9.9999998245e-15 1.2500000000e+02 1.2500000000e+02 0.0000e+00 0.0000e+00
       23  2    1    0    0    0 -1.3265848061e+01 -1.1375569689e+01 +2.3856990316e+01 9.5427338681e+01 9.0729458669e+01 0.0000e+00 0.0000e+00
      -13  1    2    2    0    0 -2.4249521063e+01 -2.4632242258e+01 +5.1997487737e+01 6.2438261711e+01 1.0566000000e-01 0.0000e+00 1.0000e+00
       13  1    2    2    0    0 +1.0983673003e+01 +1.3256672569e+01 -2.8140497421e+01 3.2989076971e+01 1.0566000000e-01 0.0000e+00 1.0000e+00
       22  1    1    0    0    0 +1.3265848061e+01 +1.1375569689e+01 -2.3856990316e+01 2.9572661319e+01 0.0000000000e+00 0.0000e+00 1.0000e+00
</event>
<event>
 4      1 +2.4041262e-06 9.11880000e+01 7.81860800e-03 1.13011600e-01
       25 -1    0    0    0    0 +0.0000000000e+00 +0.0000000000e+00 +9.9999998245e-15 1.2500000000e+02 1.2500000000e+02 0.0000e+00 0.0000e+00
      -13  1    1    0    0    0 -4.4148844859e+01 -2.6265779858e+01 +3.5597854617e+01 6.2499840890e+01 1.0566000000e-01 0.0000e+00 1.0000e+00
       13  1    1    0    0    0 +4.4148603832e+01 +2.6264614289e+01 -3.5597027080e+01 6.2498709467e+01 1.0566000000e-01 0.0000e+00 1.0000e+00
       22  1    1    0    0    0 +2.4102705873e-04 +1.1655693329e-03 -8.2753646333e-04 1.4496422010e-03 0.0000000000e+00 0.0000e+00 -1.0000e+00
</event>
<event>
 4      1 +2.4041262e-06 9.11880000e+01 7.81860800e-03 1.13011600e-01
       25 -1    0    0    0    0 +0.0000000000e+00 +0.0000000000e+00 +9.9999998245e-15 1.2500000000e+02 1.2500000000e+02 0.0000e+00 0.0000e+00
      -13  1    1    0    0    0 -5.2786727926e+01 -2.2557100202e+01 -2.4717927710e+01 6.2499988232e+01 1.0566000000e-01 0.0000e+00 -1.0000e+00
       13  1    1    0    0    0 +5.2786741064e+01 +2.2557099631e+01 +2.4717926227e+01 6.2499998535e+01 1.0566000000e-01 0.0000e+00 -1.0000e+00
       22  1    1    0    0    0 -1.3137488417e-05 +5.7129420933e-07 +1.4836681540e-06 1.3233338588e-05 0.0000000000e+00 0.0000e+00 -1.0000e+00
</event>
<event>
 4      1 +2.4041262e-06 9.11880000e+01 7.81860800e-03 1.13011600e-01
       25 -1    0    0    0    0 +0.0000000000e+00 +0.0000000000e+00 +9.9999998245e-15 1.2500000000e+02 1.2500000000e+02 0.0000e+00 0.0000e+00
      -13  1    1    0    0    0 -1.5607866703e+01 -2.7646761555e+01 -5.3835767929e+01 6.2500000000e+01 1.0566000000e-01 0.0000e+00 1.0000e+00
       13  1    1    0    0    0 +1.5607866512e+01 +2.7646761194e+01 +5.3835767252e+01 6.2499999210e+01 1.0566000000e-01 0.0000e+00 1.0000e+00
       22  1    1    0    0    0 +1.9141159392e-07 +3.6129928218e-07 +6.7631200463e-07 7.9029962495e-07 0.0000000000e+00 0.0000e+00 -1.0000e+00
</event>
<event>
 5      1 +2.4041262e-06 9.11880000e+01 7.81860800e-03 1.13011600e-01
       25 -1    0    0    0    0 +0.0000000000e+00 +0.0000000000e+00 +9.9999998245e-15 1.2500000000e+02 1.2500000000e+02 0.0000e+00 0.0000e+00
       23  2    1    0    0    0 +1.8173751729e+01 +2.4588490099e+00 +2.6311218030e+01 9.2928028053e+01 8.7218157588e+01 0.0000e+00 0.0000e+00
      -11  1    2    2    0    0 +9.7166227666e-01 -2.3493520300e+01 -2.4103940392e+01 3.3673276739e+01 5.1100000000e-04 0.0000e+00 1.0000e+00
       11  1    2    2    0    0 +1.7202089453e+01 +2.5952369309e+01 +5.0415158422e+01 5.9254751314e+01 5.1100000000e-04 0.0000e+00 -1.0000e+00
       22  1    1    0    0    0 -1.8173751729e+01 -2.4588490099e+00 -2.6311218030e+01 3.2071971947e+01 0.0000000000e+00 0.0000e+00 -1.0000e+00
</event>
<event>
 4      1 +2.4041262e-06 9.11880000e+01 7.81860800e-03 1.13011600e-01
       25 -1    0    0    0    0 +0.0000000000e+00 +0.0000000000e+00 +9.9999998245e-15 1.2500000000e+02 1.2500000000e+02 0.0000e+00 0.0000e+00
      -13  1    1    0    0    0 +4.8542785287e+01 +3.2629572176e+01 -2.1225966452e+01 6.2222534501e+01 1.0566000000e-01 0.0000e+00 -1.0000e+00
       13  1    1    0    0    0 -4.8685012070e+01 -3.2863180783e+01 +2.1320110138e+01 6.2488217383e+01 1.0566000000e-01 0.0000e+00 -1.0000e+00
       22  1    1    0    0    0 +1.4222678251e-01 +2.3360860704e-01 -9.4143686657e-02 2.8924811613e-01 0.0000000000e+00 0.0000e+00 -1.0000e+00
</event>
<event>
 4      1 +2.4041262e-06 9.11880000e+01 7.81860800e-03 1.13011600e-01
       25 -1    0    0    0    0 +0.0000000000e+00 +0.0000000000e+00 +9.9999998245e-15 1.2500000000e+02 1.2500000000e+02 0.0000e+00 0.0000e+00
      -13  1    1    0    0    0 -1.4015935495e+01 +3.5405371502e+01 +9.7371415497e+00 3.9304069364e+01 1.0566000000e-01 0.0000e+00 1.0000e+00
       13  1    1    0    0    0 +2.2125391980e+01 -5.6356932236e+01 -1.5510420342e+01 6.2499768676e+01 1.0566000000e-01 0.0000e+00 1.0000e+00
       22  1    1    0    0    0 -8.1094564852e+00 +2.0951560734e+01 +5.7732787920e+00 2.3196161960e+01 0.0000000000e+00 0.0000e+00 1.0000e+00
</event>
<event>
 4      1 +2.4041262e-06 9.11880000e+01 7.81860800e-03 1.13011600e-01
       25 -1    0    0    0    0 +0.0000000000e+00 +0.0000000000e+00 +9.9999998245e-15 1.2500000000e+02 1.2500000000e+02 0.0000e+00 0.0000e+00
      -13  1    1    0    0    0 -2.4489140727e-01 +4.4793996213e+01 +4.3585277728e+01 6.2499997337e+01 1.0566000000e-01 0.0000e+00 -1.0000e+00
       13  1    1    0    0    0 +2.4489142553e-01 -4.4793998073e+01 -4.3585279634e+01 6.2500000000e+01 1.0566000000e-01 0.0000e+00 -1.0000e+00
       22  1    1    0    0    0 -1.8258227256e-08 +1.8598708322e-06 +1.9059038578e-06 2.6630663511e-06 0.0000000000e+00 0.0000e+00 1.0000e+00
</event>
<event>
 4      1 +2.4041262e-06 9.11880000e+01 7.81860800e-03 1.13011600e-01
       25 -1    0    0    0    0 +0.0000000000e+00 +0.0000000000e+00 +9.9999998245e-15 1.2500000000e+02 1.2500000000e+02 0.0000e+00 0.0000e+00
      -11  1    1    0    0    0 +1.8598375874e+01 -4.4847243522e+01 -8.4286596687e+00 4.9276943298e+01 5.1100000000e-04 0.0000e+00 -1.0000e+00
       11  1    1    0    0    0 +4.5500219317e+00 -1.2311058780e+01 -1.6805681627e+00 1.3232126717e+01 5.1100000000e-04 0.0000e+00 1.0000e+00
       22  1    1    0    0    0 -2.3148397805e+01 +5.7158302302e+01 +1.0109227831e+01 6.2490929985e+01 0.0000000000e+00 0.0000e+00 -1.0000e+00
</event>
<event>
 4      1 +2.4041262e-06 9.11880000e+01 7.81860800e-03 1.13011600e-01
       25 -1    0    0    0    0 +0.0000000000e+00 +0.0000000000e+00 +9.9999998245e-15 1.2500000000e+02 1.2500000000e+02 0.0000e+00 0.0000e+00
      -13  1    1    0    0    0 -5.1484969934e+01 -2.3445495794e+01 -2.6567681761e+01 6.2499970242e+01 1.0566000000e-01 0.0000e+00 -1.0000e+00
       13  1    1    0    0    0 +5.1217483009e+01 +2.3321957108e+01 +2.6435891798e+01 6.2177261023e+01 1.0566000000e-01 0.0000e+00 -1.0000e+00
       22  1    1    0    0    0 +2.6748692483e-01 +1.2353868629e-01 +1.3178996295e-01 3.2276873501e-01 0.0000000000e+00 0.0000e+00 1.0000e+00
</event>
<event>
 4      1 +2.4041262e-06 9.11880000e+01 7.81860800e-03 1.13011600e-01
       25 -1    0    0    0    0 +0.0000000000e+00 +0.0000000000e+00 +9.9999998245e-15 1.2500000000e+02 1.2500000000e+02 0.0000e+00 0.0000e+00
      -11  1    1    0    0    0 +2.4065514397e+00 -1.5034318901e+00 +2.9794497481e+00 4.1144766790e+00 5.1100000000e-04 0.0000e+00 1.0000e+00
       11  1    1    0    0    0 +2.7071023230e+01 -2.1835868873e+01 +4.6921115679e+01 5.8405792221e+01 5.1100000000e-04 0.0000e+00 -1.0000e+00
       22  1    1    0    0    0 -2.9477574669e+01 +2.3339300763e+01 -4.9900565427e+01 6.2479731100e+01 0.0000000000e+00 0.0000e+00 -1.0000e+00
</event>
<event>
 4      1 +2.4041262e-06 9.11880000e+01 7.81860800e-03 1.13011600e-01
       25 -1    0    0    0    0 +0.0000000000e+00 +0.0000000000e+00 +9.9999998245e-15 1.2500000000e+02 1.2500000000e+02 0.0000e+00 0.0000e+00
      -13  1    1    0    0    0 -3.6407562717e+01 -2.7669709003e+01 +4.2604163227e+01 6.2499994461e+01 1.0566000000e-01 0.0000e+00 1.0000e+00
       13  1    1    0    0    0 +3.6407565628e+01 +2.7669711512e+01 -4.2604167225e+01 6.2499999993e+01 1.0566000000e-01 0.0000e+00 1.0000e+00
       22  1    1    0    0    0 -2.9111659861e-06 -2.5088871268e-06 +3.9982204344e-06 5.5457342756e-06 0.0000000000e+00 0.0000e+00 1.0000e+00
</event>
<event>
 5      1 +2.4041262e-06 9.11880000e+01 7.81860800e-03 1.13011600e-01
       25 -1    0    0    0    0 +0.0000000000e+00 +0.0000000000e+00 +9.9999998245e-15 1.2500000000e+02 1.2500000000e+02 0.0000e+00 0.0000e+00
       23  2    1    0    0    0 +2.2638220980e+01 -1.6466247073e+01 +1.0657184782e+01 9.5046670815e+01 9.0203479444e+01 0.0000e+00 0.0000e+00
      -13  1    2    2    0    0 -2.7226343767e+01 +1.3932643152e+01 +1.9071607292e+01 3.6043441967e+01 1.0566000000e-01 0.0000e+00 1.0000e+00
       13  1    2    2    0    0 +4.9864564747e+01 -3.0398890224e+01 -8.4144225106e+00 5.9003228848e+01 1.0566000000e-01 0.0000e+00 -1.0000e+00
       22  1    1    0    0    0 -2.2638220980e+01 +1.6466247073e+01 -1.0657184782e+01 2.9953329185e+01 0.0000000000e+00 0.0000e+00 -1.0000e+00
</event>
<event>
 4      1 +2.4041262e-06 9.11880000e+01 7.81860800e-03 1.13011600e-01
       25 -1    0    0    0    0 +0.0000000000e+00 +0.0000000000e+00 +9.9999998245e-15 1.2500000000e+02 1.2500000000e+02 0.0000e+00 0.0000e+00
      -13  1    1    0    0    0 +5.1572410823e+01 +1.4015803170e+01 -3.1537528997e+01 6.2054679081e+01 1.0566000000e-01 0.0000e+00 1.0000e+00
       13  1    1    0    0    0 -4.1317784933e+01 -1.3311117699e+01 +2.9451151646e+01 5.2456903296e+01 1.0566000000e-01 0.0000e+00 1.0000e+00
       22  1    1    0    0    0 -1.0254625890e+01 -7.0468547133e-01 +2.0863773509e+00 1.0488417622e+01 0.0000000000e+00 0.0000e+00 1.0000e+00
</event>
<event>
 4      1 +2.4041262e-06 9.11880000e+01 7.81860800e-03 1.13011600e-01
       25 -1    0    0    0    0 +0.0000000000e+00 +0.0000000000e+00 +9.9999998245e-15 1.2500000000e+02 1.2500000000e+02 0.0000e+00 0.0000e+00
      -13  1    1    0    0    0 +4.0056867721e+01 +4.2112426882e+01 +2.6703237521e+00 5.8182050002e+01 1.0566000000e-01 0.0000e+00 -1.0000e+00
       13  1    1    0    0    0 +2.7505208512e+00 +3.3392348282e+00 -1.0809898817e-01 4.3288224286e+00 1.0566000000e-01 0.0000e+00 1.0000e+00
       22  1    1    0    0    0 -4.2807388572e+01 -4.5451661711e+01 -2.5622247640e+00 6.2489127569e+01 0.0000000000e+00 0.0000e+00 -1.0000e+00
</event>
<event>
 4      1 +2.4041262e-06 9.11880000e+01 7.81860800e-03 1.13011600e-01
       25 -1    0    0    0    0 +0.0000000000e+00 +0.0000000000e+00 +9.9999998245e-15 1.2500000000e+02 1.2500000000e+02 0.0000e+00 0.0000e+00
      -13  1    1    0    0    0 -5.8180154814e+01 +1.2683241918e+01 -1.8985355467e+01 6.2499999407e+01 1.0566000000e-01 0.0000e+00 -1.0000e+00
       13  1    1    0    0    0 +5.8180150880e+01 -1.2683243713e+01 +1.8985355913e+01 6.2499996246e+01 1.0566000000e-01 0.0000e+00 -1.0000e+00
       22  1    1    0    0    0 +3.9335862692e-06 +1.7955197087e-06 -4.4628875703e-07 4.3469720054e-06 0.0000000000e+00 0.0000e+00 -1.0000e+00
</event>
<event>
 5      1 +2.4041262e-06 9.11880000e+01 7.81860800e-03 1.13011600e-01
       25 -1    0    0    0    0 +0.0000000000e+00 +0.0000000000e+00 +9.9999998245e-15 1.2500000000e+02 1.2500000000e+02 0.0000e+00 0.0000e+00
       23  2    1    0    0    0 -2.4060549328e+01 -2.0762834959e-01 +1.3563819303e+01 9.7378806369e+01 9.3379342428e+01 0.0000e+00 0.0000e+00
      -11  1    2    2    0    0 -3.6460568866e+01 +1.6980210783e+01 -2.9165382929e+01 4.9682192000e+01 5.1100000000e-04 0.0000e+00 1.0000e+00
       11  1    2    2    0    0 +1.2400019537e+01 -1.7187839133e+01 +4.2729202233e+01 4.7696614369e+01 5.1100000000e-04 0.0000e+00 -1.0000e+00
       22  1    1    0    0    0 +2.4060549328e+01 +2.0762834959e-01 -1.3563819303e+01 2.7621193631e+01 0.0000000000e+00 0.0000e+00 -1.0000e+00
</event>
<event>
 4      1 +2.4041262e-06 9.11880000e+01 7.81860800e-03 1.13011600e-01
       25 -1    0    0    0    0 +0.0000000000e+00 +0.0000000000e+00 +9.9999998245e-15 1.2500000000e+02 1.2500000000e+02 0.0000e+00 0.0000e+00
      -13  1    1    0    0    0 -2.5922776236e+01 -8.8104770201e+00 -5.5815456257e+01 6.2169053027e+01 1.0566000000e-01 0.0000e+00 1.0000e+00
       13  1    1    0    0    0 +1.2075851007e+01 +6.8675462772e+00 +1.9722766726e+01 2.4124428714e+01 1.0566000000e-01 0.0000e+00 1.0000e+00
       22  1    1    0    0    0 +1.3846925229e+01 +1.9429307428e+00 +3.6092689531e+01 3.8706518259e+01 0.0000000000e+00 0.0000e+00 1.0000e+00
</event>
<event>
 4      1 +2.4041262e-06 9.11880000e+01 7.81860800e-03 1.13011600e-01
       25 -1    0    0    0    0 +0.0000000000e+00 +0.0000000000e+00 +9.9999998245e-15 1.2500000000e+02 1.2500000000e+02 0.0000e+00 0.0000e+00
      -13  1    1    0    0    0 -1.5325901098e+01 +2.3057134962e+01 +9.1493518634e+00 2.9158815488e+01 1.0566000000e-01 0.0000e+00 -1.0000e+00
       13  1    1    0    0    0 -1.7173494632e+01 +2.6671396697e+01 +1.0266578173e+01 3.3342257138e+01 1.0566000000e-01 0.0000e+00 1.0000e+00
       22  1    1    0    0    0 +3.2499395730e+01 -4.9728531659e+01 -1.9415930036e+01 6.2498927374e+01 0.0000000000e+00 0.0000e+00 -1.0000e+00
</event>
<event>
 4      1 +2.4041262e-06 9.11880000e+01 7.81860800e-03 1.13011600e-01
       25 -1    0    0    0    0 +0.0000000000e+00 +0.0000000000e+00 +9.9999998245e-15 1.2500000000e+02 1.2500000000e+02 0.0000e+00 0.0000e+00
      -13  1    1    0    0    0 -2.8541741969e+01 +5.4870549402e+01 -8.9905824183e+00 6.2499999701e+01 1.0566000000e-01 0.0000e+00 -1.0000e+00
       13  1    1    0    0    0 +2.8541515070e+01 -5.4870140056e+01 +8.9904938067e+00 6.2499523960e+01 1.0566000000e-01 0.0000e+00 -1.0000e+00
       22  1    1    0    0    0 +2.2689829232e-04 -4.0934628084e-04 +8.8611667264e-05 4.7633941708e-04 0.0000000000e+00 0.0000e+00 -1.0000e+00
</event>
<event>
 4      1 +2.4041262e-06 9.11880000e+01 7.81860800e-03 1.13011600e-01
       25 -1    0    0    0    0 +0.0000000000e+00 +0.0000000000e+00 +9.9999998245e-15 1.2500000000e+02 1.2500000000e+02 0.0000e+00 0.0000e+00
      -11  1    1    0    0    0 -2.5598014183e+01 -9.2806428257e+00 +9.2916723624e+00 2.8770190075e+01 5.1100000000e-04 0.0000e+00 1.0000e+00
       11  1    1    0    0    0 -2.7717096849e+01 +1.1069788081e+01 +1.9460187505e+01 3.5629714620e+01 5.1100000000e-04 0.0000e+00 -1.0000e+00
       22  1    1    0    0    0 +5.3315111032e+01 -1.7891452554e+00 -2.8751859868e+01 6.0600095305e+01 0.0000000000e+00 0.0000e+00 1.0000e+00
</event>
<event>
 4      1 +2.4041262e-06 9.11880000e+01 7.81860800e-03 1.13011600e-01
       25 -1    0    0    0    0 +0.0000000000e+00 +0.0000000000e+00 +9.9999998245e-15 1.2500000000e+02 1.2500000000e+02 0.0000e+00 0.0000e+00
      -13  1    1    0    0    0 +5.4048005226e+01 -1.6500479521e+01 -2.6698050385e+01 6.2499998014e+01 1.0566000000e-01 0.0000e+00 1.0000e+00
       13  1    1    0    0    0 -5.4048006939e+01 +1.6500480045e+01 +2.6698051243e+01 6.2500000000e+01 1.0566000000e-01 0.0000e+00 1.0000e+00
       22  1    1    0    0    0 +1.7136547910e-06 -5.2318230550e-07 -8.5731131479e-07 1.9862817418e-06 0.0000000000e+00 0.0000e+00 -1.0000e+00
</event>
<event>
 4      1 +2.4041262e-06 9.11880000e+01 7.81860800e-03 1.13011600e-01
       25 -1    0    0    0    0 +0.0000000000e+00 +0.0000000000e+00 +9.9999998245e-15 1.2500000000e+02 1.2500000000e+02 0.0000e+00 0.0000e+00
      -13  1    1    0    0    0 +1.0841451759e+00 -2.9067052681e+01 +5.5125089795e+01 6.2328609894e+01 1.0566000000e-01 0.0000e+00 -1.0000e+00
       13  1    1    0    0    0 -1.0737823593e+00 +2.9136400577e+01 -5.5281987508e+01 6.2499537230e+01 1.0566000000e-01 0.0000e+00 -1.0000e+00
       22  1    1    0    0    0 -1.0362816608e-02 -6.9347895825e-02 +1.5689771315e-01 1.7185287608e-01 0.0000000000e+00 0.0000e+00 1.0000e+00
</event>
<event>
 4      1 +2.4041262e-06 9.11880000e+01 7.81860800e-03 1.13011600e-01
       25 -1    0    0    0    0 +0.0000000000e+00 +0.0000000000e+00 +9.9999998245e-15 1.2500000000e+02 1.2500000000e+02 0.0000e+00 0.0000e+00
      -13  1    1    0    0    0 +5.0889627818e+00 -1.5788293606e+01 +5.5574756483e+00 1.7494697963e+01 1.0566000000e-01 0.0000e+00 -1.0000e+00
       13  1    1    0    0    0 -7.1079628328e+00 -4.4918353650e+01 +5.3585280796e+00 4.5791992940e+01 1.0566000000e-01 0.0000e+00 1.0000e+00
       22  1    1    0    0    0 +2.0190000509e+00 +6.0706647256e+01 -1.0916003728e+01 6.1713309097e+01 0.0000000000e+00 0.0000e+00 1.0000e+00
</event>
<event>
 4      1 +2.4041262e-06 9.11880000e+01 7.81860800e-03 1.13011600e-01
       25 -1    0    0    0    0 +0.0000000000e+00 +0.0000000000e+00 +9.9999998245e-15 1.2500000000e+02 1.2500000000e+02 0.0000e+00 0.0000e+00
      -13  1    1    0    0    0 -1.7181619821e+01 -4.3960574004e+01 +4.0969482823e+01 6.2499998506e+01 1.0566000000e-01 0.0000e+00 1.0000e+00
       13  1    1    0    0    0 +1.7181620326e+01 +4.3960574650e+01 -4.0969484127e+01 6.2499999954e+01 1.0566000000e-01 0.0000e+00 1.0000e+00
       22  1    1    0    0    0 -5.0538113434e-07 -6.4608143608e-07 +1.3041941518e-06 1.5406990941e-06 0.0000000000e+00 0.0000e+00 -1.0000e+00
</event>
<event>
 4      1 +2.4041262e-06 9.11880000e+01 7.81860800e-03 1.13011600e-01
       25 -1    0    0    0    0 +0.0000000000e+00 +0.0000000000e+00 +9.9999998245e-15 1.2500000000e+02 1.2500000000e+02 0.0000e+00 0.0000e+00
      -13  1    1    0    0    0 +6.2125657311e+01 -6.7701659343e+00 -8.9799376473e-01 6.2500000000e+01 1.0566000000e-01 0.0000e+00 -1.0000e+00
       13  1    1    0    0    0 -6.2125657046e+01 +6.7701659082e+00 +8.9799376207e-01 6.2499999733e+01 1.0566000000e-01 0.0000e+00 -1.0000e+00
       22  1    1    0    0    0 -2.6571308460e-07 +2.6030043510e-08 +2.6591397611e-09 2.6699827250e-07 0.0000000000e+00 0.0000e+00 1.0000e+00
</event>
<event>
 4      1 +2.4041262e-06 9.11880000e+01 7.81860800e-03 1.13011600e-01
       25 -1    0    0    0    0 +0.0000000000e+00 +0.0000000000e+00 +9.9999998245e-15 1.2500000000e+02 1.2500000000e+02 0.0000e+00 0.0000e+00
      -13  1    1    0    0    0 +3.4643483168e+01 +1.5625863235e+01 -4.4487640594e+01 5.8510681568e+01 1.0566000000e-01 0.0000e+00 -1.0000e+00
       13  1    1    0    0    0 +2.5162194507e+00 +5.4857909199e-01 -3.0682331458e+00 4.0071833021e+00 1.0566000000e-01 0.0000e+00 1.0000e+00
       22  1    1    0    0    0 -3.7159702619e+01 -1.6174442327e+01 +4.7555873740e+01 6.2482135130e+01 0.0000000000e+00 0.0000e+00 -1.0000e+00
</event>
<event>
 4      1 +2.4041262e-06 9.11880000e+01 7.81860800e-03 1.13011600e-01
       25 -1    0    0    0    0 +0.0000000000e+00 +0.0000000000e+00 +9.9999998245e-15 1.2500000000e+02 1.2500000000e+02 0.0000e+00 0.0000e+00
      -13  1    1    0    0    0 -5.4938423330e+01 +1.7485452079e+01 -7.3830303902e+00 5.8124794143e+01 1.0566000000e-01 0.0000e+00 -1.0000e+00
       13  1    1    0    0    0 +5.9035126041e+01 -1.9011093979e+01 +7.6751476147e+00 6.2493894549e+01 1.0566000000e-01 0.0000e+00 -1.0000e+00
       22  1    1    0    0    0 -4.0967027108e+00 +1.5256419007e+00 -2.9211722448e-01 4.3813113086e+00 0.0000000000e+00 0.0000e+00 1.0000e+00
</event>
<event>
 4      1 +2.4041262e-06 9.11880000e+01 7.81860800e-03 1.13011600e-01
       25 -1    0    0    0    0 +0.0000000000e+00 +0.0000000000e+00 +9.9999998245e-15 1.2500000000e+02 1.2500000000e+02 0.0000e+00 0.0000e+00
      -11  1    1    0    0    0 -2.4906726640e+01 +3.1984624752e+01 -5.4394733286e+00 4.0901700732e+01 5.1100000000e-04 0.0000e+00 -1.0000e+00
       11  1    1    0    0    0 -1.2903098228e+01 +1.7133606412e+01 -2.5513904733e+00 2.1600000143e+01 5.1100000000e-04 0.0000e+00 1.0000e+00
       22  1    1    0    0    0 +3.7809824868e+01 -4.9118231164e+01 +7.9908638019e+00 6.2498299125e+01 0.0000000000e+00 0.0000e+00 1.0000e+00
</event>
<event>
 4      1 +2.4041262e-06 9.11880000e+01 7.81860800e-03 1.13011600e-01
       25 -1    0    0    0    0 +0.0000000000e+00 +0.0000000000e+00 +9.9999998245e-15 1.2500000000e+02 1.2500000000e+02 0.0000e+00 0.0000e+00
      -13  1    1    0    0    0 +5.1247805755e+01 +3.2013610824e+01 +1.5969657582e+01 6.2500000000e+01 1.0566000000e-01 0.0000e+00 -1.0000e+00
       13  1    1    0    0    0 -5.1247805755e+01 -3.2013610824e+01 -1.5969657582e+01 6.2500000000e+01 1.0566000000e-01 0.0000e+00 -1.0000e+00
       22  1    1    0    0    0 +2.5524694860e-11 +5.9325206863e-12 -1.9359252149e-11 3.2580446484e-11 0.0000000000e+00 0.0000e+00 1.0000e+00
</event>
<event>
 4      1 +2.4041262e-06 9.11880000e+01 7.81860800e-03 1.13011600e-01
       25 -1    0    0    0    0 +0.0000000000e+00 +0.0000000000e+00 +9.9999998245e-15 1.2500000000e+02 1.2500000000e+02 0.0000e+00 0.0000e+00
      -13  1    1    0    0    0 -4.9502051132e+01 -1.3135032540e+01 +1.7971790060e+01 5.4276869365e+01 1.0566000000e-01 0.0000e+00 -1.0000e+00
       13  1    1    0    0    0 -6.0801698119e+00 -4.8454149287e+00 +3.4429118339e+00 8.5036061000e+00 1.0566000000e-01 0.0000e+00 1.0000e+00
       22  1    1    0    0    0 +5.5582220944e+01 +1.7980447468e+01 -2.1414701894e+01 6.2219524535e+01 0.0000000000e+00 0.0000e+00 -1.0000e+00
</event>
<event>
 4      1 +2.4041262e-06 9.11880000e+01 7.81860800e-03 1.13011600e-01
       25 -1    0    0    0    0 +0.0000000000e+00 +0.0000000000e+00 +9.9999998245e-15 1.2500000000e+02 1.2500000000e+02 0.0000e+00 0.0000e+00
      -13  1    1    0    0    0 +6.0016824347e+01 +1.0829723296e+01 -1.3672480449e+01 6.2499999977e+01 1.0566000000e-01 0.0000e+00 -1.0000e+00
       13  1    1    0    0    0 -6.0016824370e+01 -1.0829723305e+01 +1.3672480438e+01 6.2499999997e+01 1.0566000000e-01 0.0000e+00 -1.0000e+00
       22  1    1    0    0    0 +2.2356406086e-08 +8.8012999124e-09 +1.0360451598e-08 2.6165066990e-08 0.0000000000e+00 0.0000e+00 1.0000e+00
</event>
<event>
 5      1 +2.4041262e-06 9.11880000e+01 7.81860800e-03 1.13011600e-01
       25 -1    0    0    0    0 +0.0000000000e+00 +0.0000000000e+00 +9.9999998245e-15 1.2500000000e+02 1.2500000000e+02 0.0000e+00 0.0000e+00
       23  2    1    0    0    0 -2.4115564403e+01 -1.2399555680e+01 +1.1161426182e+01 9.5676172454e+01 9.1071637261e+01 0.0000e+00 0.0000e+00
      -13  1    2    2    0    0 -4.0178121528e+01 +2.6658474048e+01 +2.0547894101e+01 5.2413574617e+01 1.0566000000e-01 0.0000e+00 1.0000e+00
       13  1    2    2    0    0 +1.6062557125e+01 -3.9058029728e+01 -9.3864679187e+00 4.3262597837e+01 1.0566000000e-01 0.0000e+00 -1.0000e+00
       22  1    1    0    0    0 +2.4115564403e+01 +1.2399555680e+01 -1.1161426182e+01 2.9323827546e+01 0.0000000000e+00 0.0000e+00 -1.0000e+00
</event>
<event>
 4      1 +2.4041262e-06 9.11880000e+01 7.81860800e-03 1.13011600e-01
       25 -1    0    0    0    0 +0.0000000000e+00 +0.0000000000e+00 +9.9999998245e-15 1.2500000000e+02 1.2500000000e+02 0.0000e+00 0.0000e+00
      -13  1    1    0    0    0 +4.2221832276e+01 +2.1908664816e+01 -1.5153714709e+01 4.9923130394e+01 1.0566000000e-01 0.0000e+00 -1.0000e+00
       13  1    1    0    0    0 +1.1106010038e+01 +5.2337485466e+00 -2.8205822676e+00 1.2597715316e+01 1.0566000000e-01 0.0000e+00 1.0000e+00
       22  1    1    0    0    0 -5.3327842314e+01 -2.7142413362e+01 +1.7974296977e+01 6.2479154290e+01 0.0000000000e+00 0.0000e+00 -1.0000e+00
</event>
<event>
 5      1 +2.4041262e-06 9.11880000e+01 7.81860800e-03 1.13011600e-01
       25 -1    0    0    0    0 +0.0000000000e+00 +0.0000000000e+00 +9.9999998245e-15 1.2500000000e+02 1.2500000000e+02 0.0000e+00 0.0000e+00
       23  2    1    0    0    0 -1.6948633475e+01 +1.3721898448e+01 -1.9610949900e+01 9.5671924208e+01 9.1065806162e+01 0.0000e+00 0.0000e+00
      -11  1    2    2    0    0 +3.1888513055e+01 +1.5625216886e+01 +1.1979414710e+01 3.7477073587e+01 5.1100000000e-04 0.0000e+00 -1.0000e+00
       11  1    2    2    0    0 -4.8837146530e+01 -1.9033184382e+00 -3.1590364610e+01 5.8194850621e+01 5.1100000000e-04 0.0000e+00 1.0000e+00
       22  1    1    0    0    0 +1.6948633475e+01 -1.3721898448e+01 +1.9610949900e+01 2.9328075792e+01 0.0000000000e+00 0.0000e+00 1.0000e+00
</event>
<event>
 5      1 +2.4041262e-06 9.11880000e+01 7.81860800e-03 1.13011600e-01
       25 -1    0    0    0    0 +0.0000000000e+00 +0.0000000000e+00 +9.9999998245e-15 1.2500000000e+02 1.2500000000e+02 0.0000e+00 0.0000e+00
       23  2    1    0    0    0 +2.0971651030e+01 -3.2796904953e+00 +1.9080418703e+01 9.6458295521e+01 9.2138883649e+01 0.0000e+00 0.0000e+00
      -13  1    2    2    0    0 +1.4932997082e+01 +1.1316134557e+01 +5.4524342557e+01 5.7653832470e+01 1.0566000000e-01 0.0000e+00 -1.0000e+00
       13  1    2    2    0    0 +6.0386539481e+00 -1.4595825053e+01 -3.5443923854e+01 3.8804463051e+01 1.0566000000e-01 0.0000e+00 1.0000e+00
       22  1    1    0    0    0 -2.0971651030e+01 +3.2796904953e+00 -1.9080418703e+01 2.8541704479e+01 0.0000000000e+00 0.0000e+00 -1.0000e+00
</event>
<event>
 4      1 +2.4041262e-06 9.11880000e+01 7.81860800e-03 1.13011600e-01
       25 -1    0    0    0    0 +0.0000000000e+00 +0.0000000000e+00 +9.9999998245e-15 1.2500000000e+02 1.2500000000e+02 0.0000e+00 0.0000e+00
      -13  1    1    0    0    0 -3.1878735456e+01 +4.0501542902e+01 -3.5349782363e+01 6.2499976231e+01 1.0566000000e-01 0.0000e+00 1.0000e+00
       13  1    1    0    0    0 +3.1478176833e+01 -3.9988929573e+01 +3.4893647804e+01 6.1705493485e+01 1.0566000000e-01 0.0000e+00 1.0000e+00
       22  1    1    0    0    0 +4.0055862360e-01 -5.1261332970e-01 +4.5613455829e-01 7.9453028387e-01 0.0000000000e+00 0.0000e+00 1.0000e+00
</event>
<event>
 4      1 +2.4041262e-06 9.11880000e+01 7.81860800e-03 1.13011600e-01
       25 -1    0    0    0    0 +0.0000000000e+00 +0.0000000000e+00 +9.9999998245e-15 1.2500000000e+02 1.2500000000e+02 0.0000e+00 0.0000e+00
      -13  1    1    0    0    0 -5.0906011461e+01 +2.1350354320e+01 +2.9308345905e+01 6.2499999490e+01 1.0566000000e-01 0.0000e+00 -1.0000e+00
       13  1    1    0    0    0 +5.0902218104e+01 -2.1348659494e+01 -2.9306118518e+01 6.2495286356e+01 1.0566000000e-01 0.0000e+00 -1.0000e+00
       22  1    1    0    0    0 +3.7933576677e-03 -1.6948257522e-03 -2.2273868342e-03 4.7141540954e-03 0.0000000000e+00 0.0000e+00 1.0000e+00
</event>
<event>
 4      1 +2.4041262e-06 9.11880000e+01 7.81860800e-03 1.13011600e-01
       25 -1    0    0    0    0 +0.0000000000e+00 +0.0000000000e+00 +9.9999998245e-15 1.2500000000e+02 1.2500000000e+02 0.0000e+00 0.0000e+00
      -13  1    1    0    0    0 -9.7487579145e+00 -3.4975989484e+00 +5.4743582140e+01 5.5714831319e+01 1.0566000000e-01 0.0000e+00 1.0000e+00
       13  1    1    0    0    0 +1.1358444388e+01 +4.6146015102e+00 -6.1262951207e+01 6.2477749325e+01 1.0566000000e-01 0.0000e+00 1.0000e+00
       22  1    1    0    0    0 -1.6096864739e+00 -1.1170025619e+00 +6.5193690670e+00 6.8074193568e+00 0.0000000000e+00 0.0000e+00 1.0000e+00
</event>
<event>
 4      1 +2.4041262e-06 9.11880000e+01 7.81860800e-03 1.13011600e-01
       25 -1    0    0    0    0 +0.0000000000e+00 +0.0000000000e+00 +9.9999998245e-15 1.2500000000e+02 1.2500000000e+02 0.0000e+00 0.0000e+00
      -13  1    1    0    0    0 +1.3273173596e+01 +4.0477012093e+01 -4.5734813446e+01 6.2499999762e+01 1.0566000000e-01 0.0000e+00 1.0000e+00
       13  1    1    0    0    0 -1.3273173643e+01 -4.0477012325e+01 +4.5734813533e+01 6.2499999986e+01 1.0566000000e-01 0.0000e+00 1.0000e+00
       22  1    1    0    0    0 +4.7544257977e-08 +2.3184831378e-07 -8.7040791880e-08 2.5217096685e-07 0.0000000000e+00 0.0000e+00 1.0000e+00
</event>
<event>
 4      1 +2.4041262e-06 9.11880000e+01 7.81860800e-03 1.13011600e-01
       25 -1    0    0    0    0 +0.0000000000e+00 +0.0000000000e+00 +9.9999998245e-15 1.2500000000e+02 1.2500000000e+02 0.0000e+00 0.0000e+00
      -13  1    1    0    0    0 -5.2428356261e+00 -5.4963905455e+00 -1.0372101122e+01 1.2856487862e+01 1.0566000000e-01 0.0000e+00 -1.0000e+00
       13  1    1    0    0    0 +3.7239894056e+01 +4.0430942117e+01 -1.6866641607e+01 5.7497526494e+01 1.0566000000e-01 0.0000e+00 1.0000e+00
       22  1    1    0    0    0 -3.1997058430e+01 -3.4934551571e+01 +2.7238742728e+01 5.4645985645e+01 0.0000000000e+00 0.0000e+00 1.0000e+00
</event>
<event>
 4      1 +2.4041262e-06 9.11880000e+01 7.81860800e-03 1.13011600e-01
       25 -1    0    0    0    0 +0.0000000000e+00 +0.0000000000e+00 +9.9999998245e-15 1.2500000000e+02 1.2500000000e+02 0.0000e+00 0.0000e+00
      -13  1    1    0    0    0 -4.8690538839e+01 +3.8882959665e+01 +2.4026654915e-01 6.2311491851e+01 1.0566000000e-01 0.0000e+00 -1.0000e+00
       13  1    1    0    0    0 +4.8837522357e+01 -3.9000978094e+01 -2.4219294860e-01 6.2499997630e+01 1.0566000000e-01 0.0000e+00 -1.0000e+00
       22  1    1    0    0    0 -1.4698351871e-01 +1.1801842986e-01 +1.9263994421e-03 1.8851051847e-01 0.0000000000e+00 0.0000e+00 1.0000e+00
</event>
<event>
 4      1 +2.4041262e-06 9.11880000e+01 7.81860800e-03 1.13011600e-01
       25 -1    0    0    0    0 +0.0000000000e+00 +0.0000000000e+00 +9.9999998245e-15 1.2500000000e+02 1.2500000000e+02 0.0000e+00 0.0000e+00
      -13  1    1    0    0    0 +2.2942180907e+01 -2.9757709460e+00 +5.8060657551e+01 6.2499999974e+01 1.0566000000e-01 0.0000e+00 -1.0000e+00
       13  1    1    0    0    0 -2.2942150132e+01 +2.9757645137e+00 -5.8060573948e+01 6.2499910707e+01 1.0566000000e-01 0.0000e+00 -1.0000e+00
       22  1    1    0    0    0 -3.0774753031e-05 +6.4322705103e-06 -8.3602692461e-05 8.9318921371e-05 0.0000000000e+00 0.0000e+00 -1.0000e+00
</event>
<event>
 4      1 +2.4041262e-06 9.11880000e+01 7.81860800e-03 1.13011600e-01
       25 -1    0    0    0    0 +0.0000000000e+00 +0.0000000000e+00 +9.9999998245e-15 1.2500000000e+02 1.2500000000e+02 0.0000e+00 0.0000e+00
      -13  1    1    0    0    0 -9.1654486102e+00 -2.1692381759e+01 +2.7735722857e+01 3.6384699545e+01 1.0566000000e-01 0.0000e+00 1.0000e+00
       13  1    1    0    0    0 -1.3295569800e+01 -1.9799796036e+01 +1.2211161597e+01 2.6794173452e+01 1.0566000000e-01 0.0000e+00 -1.0000e+00
       22  1    1    0    0    0 +2.2461018411e+01 +4.1492177795e+01 -3.9946884454e+01 6.1821127002e+01 0.0000000000e+00 0.0000e+00 -1.0000e+00
</event>
<event>
 4      1 +2.4041262e-06 9.11880000e+01 7.81860800e-03 1.13011600e-01
       25 -1    0    0    0    0 +0.0000000000e+00 +0.0000000000e+00 +9.9999998245e-15 1.2500000000e+02 1.2500000000e+02 0.0000e+00 0.0000e+00
      -13  1    1    0    0    0 +7.5208163355e+00 +8.0964264395e+00 -1.0277872685e-01 1.1051539573e+01 1.0566000000e-01 0.0000e+00 1.0000e+00
       13  1    1    0    0    0 +3.5497697478e+01 +3.7174450891e+01 -2.2967312579e+00 5.1452040424e+01 1.0566000000e-01 0.0000e+00 1.0000e+00
       22  1    1    0    0    0 -4.3018513813e+01 -4.5270877331e+01 +2.3995099848e+00 6.2496420003e+01 0.0000000000e+00 0.0000e+00 1.0000e+00
</event>
<event>
 4      1 +2.4041262e-06 9.11880000e+01 7.81860800e-03 1.13011600e-01
       25 -1    0    0    0    0 +0.0000000000e+00 +0.0000000000e+00 +9.9999998245e-15 1.2500000000e+02 1.2500000000e+02 0.0000e+00 0.0000e+00
      -13  1    1    0    0    0 -2.8062413449e+01 +1.2096557974e+01 +5.4455703848e+01 6.2444059838e+01 1.0566000000e-01 0.0000e+00 -1.0000e+00
       13  1    1    0    0    0 +2.5456306343e+01 -1.2087561786e+01 -4.9872848238e+01 5.7283896847e+01 1.0566000000e-01 0.0000e+00 -1.0000e+00
       22  1    1    0    0    0 +2.6061071059e+00 -8.9961884500e-03 -4.5828556099e+00 5.2720433155e+00 0.0000000000e+00 0.0000e+00 1.0000e+00
</event>
<event>
 4      1 +2.4041262e-06 9.11880000e+01 7.81860800e-03 1.13011600e-01
       25 -1    0    0    0    0 +0.0000000000e+00 +0.0000000000e+00 +9.9999998245e-15 1.2500000000e+02 1.2500000000e+02 0.0000e+00 0.0000e+00
      -13  1    1    0    0    0 +4.1458408162e+01 +1.2012491041e+01 -4.5198635155e+01 6.2498218633e+01 1.0566000000e-01 0.0000e+00 1.0000e+00
       13  1    1    0    0    0 -4.0687341839e+01 -1.1878870614e+01 +4.4410119013e+01 6.1390855897e+01 1.0566000000e-01 0.0000e+00 1.0000e+00
       22  1    1    0    0    0 -7.7106632275e-01 -1.3362042660e-01 +7.8851614236e-01 1.1109254697e+00 0.0000000000e+00 0.0000e+00 -1.0000e+00
</event>
<event>
 5      1 +2.4041262e-06 9.11880000e+01 7.81860800e-03 1.13011600e-01
       25 -1    0    0    0    0 +0.0000000000e+00 +0.0000000000e+00 +9.9999998245e-15 1.2500000000e+02 1.2500000000e+02 0.0000e+00 0.0000e+00
       23  2    1    0    0    0 -6.0731387275e+00 -2.4941641966e+01 -1.2554627877e+01 9.6424010094e+01 9.2092358660e+01 0.0000e+00 0.0000e+00
      -13  1    2    2    0    0 -1.4833259436e+01 -2.1994885332e+01 +3.7270804953e+01 4.5748493223e+01 1.0566000000e-01 0.0000e+00 1.0000e+00
       13  1    2    2    0    0 +8.7601207083e+00 -2.9467566348e+00 -4.9825432830e+01 5.0675516872e+01 1.0566000000e-01 0.0000e+00 -1.0000e+00
       22  1    1    0    0    0 +6.0731387275e+00 +2.4941641966e+01 +1.2554627877e+01 2.8575989906e+01 0.0000000000e+00 0.0000e+00 -1.0000e+00
</event>
<event>
 4      1 +2.4041262e-06 9.11880000e+01 7.81860800e-03 1.13011600e-01
       25 -1    0    0    0    0 +0.0000000000e+00 +0.0000000000e+00 +9.9999998245e-15 1.2500000000e+02 1.2500000000e+02 0.0000e+00 0.0000e+00
      -13  1    1    0    0    0 -3.4262064638e-01 +6.2374438093e+01 -3.9434654267e+00 6.2499999999e+01 1.0566000000e-01 0.0000e+00 -1.0000e+00
       13  1    1    0    0    0 +3.4262064636e-01 -6.2374438094e+01 +3.9434654267e+00 6.2500000000e+01 1.0566000000e-01 0.0000e+00 -1.0000e+00
       22  1    1    0    0    0 +1.7929247039e-11 +7.5005362253e-10 +4.3615719698e-11 7.5153458042e-10 0.0000000000e+00 0.0000e+00 -1.0000e+00
</event>
<event>
 4      1 +2.4041262e-06 9.11880000e+01 7.81860800e-03 1.13011600e-01
       25 -1    0    0    0    0 +0.0000000000e+00 +0.0000000000e+00 +9.9999998245e-15 1.2500000000e+02 1.2500000000e+02 0.0000e+00 0.0000e+00
      -13  1    1    0    0    0 -1.0183403865e+01 -3.9795428885e+01 -4.7104786826e+01 6.2499999843e+01 1.0566000000e-01 0.0000e+00 1.0000e+00
       13  1    1    0    0    0 +1.0183403895e+01 +3.9795428963e+01 +4.7104786960e+01 6.2499999999e+01 1.0566000000e-01 0.0000e+00 1.0000e+00
       22  1    1    0    0    0 -3.0343785778e-08 -7.8632793739e-08 -1.3426635092e-07 1.5852859229e-07 0.0000000000e+00 0.0000e+00 1.0000e+00
</event>
<event>
 4      1 +2.4041262e-06 9.11880000e+01 7.81860800e-03 1.13011600e-01
       25 -1    0    0    0    0 +0.0000000000e+00 +0.0000000000e+00 +9.9999998245e-15 1.2500000000e+02 1.2500000000e+02 0.0000e+00 0.0000e+00
      -13  1    1    0    0    0 +5.9533518328e+00 +6.0171590363e+01 +1.5816743852e+01 6.2499945880e+01 1.0566000000e-01 0.0000e+00 -1.0000e+00
       13  1    1    0    0    0 -5.9531179930e+00 -6.0171402161e+01 -1.5816538557e+01 6.2499690462e+01 1.0566000000e-01 0.0000e+00 -1.0000e+00
       22  1    1    0    0    0 -2.3383978336e-04 -1.8820209287e-04 -2.0529445887e-04 3.6365765066e-04 0.0000000000e+00 0.0000e+00 -1.0000e+00
</event>
<event>
 4      1 +2.4041262e-06 9.11880000e+01 7.81860800e-03 1.13011600e-01
       25 -1    0    0    0    0 +0.0000000000e+00 +0.0000000000e+00 +9.9999998245e-15 1.2500000000e+02 1.2500000000e+02 0.0000e+00 0.0000e+00
      -11  1    1    0    0    0 -1.1151097351e+01 +4.6202933620e+00 -2.6764529910e+01 2.9360417989e+01 5.1100000000e-04 0.0000e+00 1.0000e+00
       11  1    1    0    0    0 -2.6757971151e+01 -2.8678950250e+00 -2.1355993342e+01 3.4355382313e+01 5.1100000000e-04 0.0000e+00 -1.0000e+00
       22  1    1    0    0    0 +3.7909068502e+01 -1.7523983370e+00 +4.8120523252e+01 6.1284199699e+01 0.0000000000e+00 0.0000e+00 -1.0000e+00
</event>
<event>
 4      1 +2.4041262e-06 9.11880000e+01 7.81860800e-03 1.13011600e-01
       25 -1    0    0    0    0 +0.0000000000e+00 +0.0000000000e+00 +9.9999998245e-15 1.2500000000e+02 1.2500000000e+02 0.0000e+00 0.0000e+00
      -11  1    1    0    0    0 +2.3303634178e+00 +6.0236282251e+00 +1.6379248402e+00 6.6631440549e+00 5.1100000000e-04 0.0000e+00 1.0000e+00
       11  1    1    0    0    0 +1.5592608897e+00 +5.4233382989e+01 -1.5414051030e+01 5.6402873104e+01 5.1100000000e-04 0.0000e+00 -1.0000e+00
       22  1    1    0    0    0 -3.8896243075e+00 -6.0257011214e+01 +1.3776126190e+01 6.1933982841e+01 0.0000000000e+00 0.0000e+00 -1.0000e+00
</event>
<event>
 4      1 +2.4041262e-06 9.11880000e+01 7.81860800e-03 1.13011600e-01
       25 -1    0    0    0    0 +0.0000000000e+00 +0.0000000000e+00 +9.9999998245e-15 1.2500000000e+02 1.2500000000e+02 0.0000e+00 0.0000e+00
      -13  1    1    0    0    0 +5.6301153325e+01 +2.1108723434e+01 +1.7054054073e+01 6.2499999961e+01 1.0566000000e-01 0.0000e+00 -1.0000e+00
       13  1    1    0    0    0 -5.6301153355e+01 -2.1108723458e+01 -1.7054054085e+01 6.2499999999e+01 1.0566000000e-01 0.0000e+00 -1.0000e+00
       22  1    1    0    0    0 +3.0221310867e-08 +2.3265110484e-08 +1.2555538330e-08 4.0152640500e-08 0.0000000000e+00 0.0000e+00 1.0000e+00
</event>
<event>
 4      1 +2.4041262e-06 9.11880000e+01 7.81860800e-03 1.13011600e-01
       25 -1    0    0    0    0 +0.0000000000e+00 +0.0000000000e+00 +9.9999998245e-15 1.2500000000e+02 1.2500000000e+02 0.0000e+00 0.0000e+00
      -13  1    1    0    0    0 -1.5536725234e+01 +1.5330658933e+01 +5.8564664060e+01 6.2499999798e+01 1.0566000000e-01 0.0000e+00 1.0000e+00
       13  1    1    0    0    0 +1.5536725282e+01 -1.5330658985e+01 -5.8564664249e+01 6.2500000000e+01 1.0566000000e-01 0.0000e+00 1.0000e+00
       22  1    1    0    0    0 -4.7812013574e-08 +5.2395414944e-08 +1.8865859682e-07 2.0155231158e-07 0.0000000000e+00 0.0000e+00 1.0000e+00
</event>
<event>
 4      1 +2.4041262e-06 9.11880000e+01 7.81860800e-03 1.13011600e-01
       25 -1    0    0    0    0 +0.0000000000e+00 +0.0000000000e+00 +9.9999998245e-15 1.2500000000e+02 1.2500000000e+02 0.0000e+00 0.0000e+00
      -11  1    1    0    0    0 +4.5581848650e-01 -4.8643270341e-01 -3.8005742698e+00 3.8585946028e+00 5.1100000000e-04 0.0000e+00 -1.0000e+00
       11  1    1    0    0    0 +6.9332100277e+00 -7.3684640484e+00 -5.7762018527e+01 5.8641405579e+01 5.1100000000e-04 0.0000e+00 1.0000e+00
       22  1    1    0    0    0 -7.3890285142e+00 +7.8548967519e+00 +6.1562592797e+01 6.2499999818e+01 0.0000000000e+00 0.0000e+00 1.0000e+00
</event>
<event>
 5      1 +2.4041262e-06 9.11880000e+01 7.81860800e-03 1.13011600e-01
       25 -1    0    0    0    0 +0.0000000000e+00 +0.0000000000e+00 +9.9999998245e-15 1.2500000000e+02 1.2500000000e+02 0.0000e+00 0.0000e+00
       23  2    1    0    0    0 -2.4977607589e+01 +7.2922989386e-01 +7.9988126622e+00 9.8762742881e+01 9.5213894576e+01 0.0000e+00 0.0000e+00
      -13  1    2    2    0    0 +1.8503065795e+01 +3.1791603611e+01 +2.2846665281e+01 4.3301856571e+01 1.0566000000e-01 0.0000e+00 1.0000e+00
       13  1    2    2    0    0 -4.3480673385e+01 -3.1062373717e+01 -1.4847852619e+01 5.5460886310e+01 1.0566000000e-01 0.0000e+00 -1.0000e+00
       22  1    1    0    0    0 +2.4977607589e+01 -7.2922989386e-01 -7.9988126622e+00 2.6237257119e+01 0.0000000000e+00 0.0000e+00 -1.0000e+00
</event>
<event>
 4      1 +2.4041262e-06 9.11880000e+01 7.81860800e-03 1.13011600e-01
       25 -1    0    0    0    0 +0.0000000000e+00 +0.0000000000e+00 +9.9999998245e-15 1.2500000000e+02 1.2500000000e+02 0.0000e+00 0.0000e+00
      -11  1    1    0    0    0 +1.0807152590e+00 +2.7015533770e+00 +2.7838676873e+00 4.0269412314e+00 5.1100000000e-04 0.0000e+00 1.0000e+00
       11  1    1    0    0    0 +1.5908491528e+01 +3.9216135107e+01 +4.0349906170e+01 5.8473073150e+01 5.1100000000e-04 0.0000e+00 -1.0000e+00
       22  1    1    0    0    0 -1.6989206787e+01 -4.1917688484e+01 -4.3133773858e+01 6.2499985618e+01 0.0000000000e+00 0.0000e+00 -1.0000e+00
</event>
<event>
 4      1 +2.4041262e-06 9.11880000e+01 7.81860800e-03 1.13011600e-01
       25 -1    0    0    0    0 +0.0000000000e+00 +0.0000000000e+00 +9.9999998245e-15 1.2500000000e+02 1.2500000000e+02 0.0000e+00 0.0000e+00
      -13  1    1    0    0    0 +3.0346196745e+01 -5.2909419244e+01 +1.3613542406e+01 6.2495103828e+01 1.0566000000e-01 0.0000e+00 -1.0000e+00
       13  1    1    0    0    0 -1.8987819344e+01 +3.3490950983e+01 -8.0831685159e+00 3.9338656033e+01 1.0566000000e-01 0.0000e+00 -1.0000e+00
       22  1    1    0    0    0 -1.1358377401e+01 +1.9418468261e+01 -5.5303738905e+00 2.3166240139e+01 0.0000000000e+00 0.0000e+00 -1.0000e+00
</event>
<event>
 4      1 +2.4041262e-06 9.11880000e+01 7.81860800e-03 1.13011600e-01
       25 -1    0    0    0    0 +0.0000000000e+00 +0.0000000000e+00 +9.9999998245e-15 1.2500000000e+02 1.2500000000e+02 0.0000e+00 0.0000e+00
      -13  1    1    0    0    0 -3.8088515319e+01 -3.6859283835e+01 -3.1743469726e+01 6.1781881149e+01 1.0566000000e-01 0.0000e+00 -1.0000e+00
       13  1    1    0    0    0 +3.8344624080e+01 +3.7371523136e+01 +3.2204726353e+01 6.2482769632e+01 1.0566000000e-01 0.0000e+00 -1.0000e+00
       22  1    1    0    0    0 -2.5610876108e-01 -5.1223930063e-01 -4.6125662619e-01 7.3534921896e-01 0.0000000000e+00 0.0000e+00 -1.0000e+00
</event>
<event>
 5      1 +2.4041262e-06 9.11880000e+01 7.81860800e-03 1.13011600e-01
       25 -1    0    0    0    0 +0.0000000000e+00 +0.0000000000e+00 +9.9999998245e-15 1.2500000000e+02 1.2500000000e+02 0.0000e+00 0.0000e+00
       23  2    1    0    0    0 -1.5490864617e+01 +1.4708204669e+01 -1.9789039444e+01 9.5881204467e+01 9.1352619649e+01 0.0000e+00 0.0000e+00
      -11  1    2    2    0    0 -2.0025337791e+01 +1.5657361677e+01 -5.4882372762e+01 6.0483402422e+01 5.1100000000e-04 0.0000e+00 -1.0000e+00
       11  1    2    2    0    0 +4.5344731736e+00 -9.4915700876e-01 +3.5093333318e+01 3.5397802045e+01 5.1100000000e-04 0.0000e+00 1.0000e+00
       22  1    1    0    0    0 +1.5490864617e+01 -1.4708204669e+01 +1.9789039444e+01 2.9118795533e+01 0.0000000000e+00 0.0000e+00 -1.0000e+00
</event>
<event>
 4      1 +2.4041262e-06 9.11880000e+01 7.81860800e-03 1.13011600e-01
       25 -1    0    0    0    0 +0.0000000000e+00 +0.0000000000e+00 +9.9999998245e-15 1.2500000000e+02 1.2500000000e+02 0.0000e+00 0.0000e+00
      -13  1    1    0    0    0 +3.0189377711e+00 -6.3314532377e+00 -2.2884588363e+00 7.3789899883e+00 1.0566000000e-01 0.0000e+00 1.0000e+00
       13  1    1    0    0    0 -5.0906869101e+01 -2.8368403194e+01 -2.1420100119e+00 5.8317021464e+01 1.0566000000e-01 0.0000e+00 -1.0000e+00
       22  1    1    0    0    0 +4.7887931330e+01 +3.4699856432e+01 +4.4304688483e+00 5.9303988548e+01 0.0000000000e+00 0.0000e+00 -1.0000e+00
</event>
<event>
 4      1 +2.4041262e-06 9.11880000e+01 7.81860800e-03 1.13011600e-01
       25 -1    0    0    0    0 +0.0000000000e+00 +0.0000000000e+00 +9.9999998245e-15 1.2500000000e+02 1.2500000000e+02 0.0000e+00 0.0000e+00
      -13  1    1    0    0    0 -4.8288915209e-02 +3.5143416719e+01 -1.2036422096e+01 3.7147660645e+01 1.0566000000e-01 0.0000e+00 1.0000e+00
       13  1    1    0    0    0 -5.6640424923e-01 -5.9062628198e+01 +2.0425168852e+01 6.2497308343e+01 1.0566000000e-01 0.0000e+00 1.0000e+00
       22  1    1    0    0    0 +6.1469316444e-01 +2.3919211479e+01 -8.3887467560e+00 2.5355031012e+01 0.0000000000e+00 0.0000e+00 1.0000e+00
</event>
<event>
 4      1 +2.4041262e-06 9.11880000e+01 7.81860800e-03 1.13011600e-01
       25 -1    0    0    0    0 +0.0000000000e+00 +0.0000000000e+00 +9.9999998245e-15 1.2500000000e+02 1.2500000000e+02 0.0000e+00 0.0000e+00
      -13  1    1    0    0    0 -4.9210213526e+01 +2.0859913637e+01 +3.2395334646e+01 6.2499999864e+01 1.0566000000e-01 0.0000e+00 -1.0000e+00
       13  1    1    0    0    0 +4.9210088345e+01 -2.0859864235e+01 -3.2395242856e+01 6.2499837236e+01 1.0566000000e-01 0.0000e+00 -1.0000e+00
       22  1    1    0    0    0 +1.2518107881e-04 -4.9401329311e-05 -9.1789802099e-05 1.6289923756e-04 0.0000000000e+00 0.0000e+00 -1.0000e+00
</event>
<event>
 5      1 +2.4041262e-06 9.11880000e+01 7.81860800e-03 1.13011600e-01
       25 -1    0    0    0    0 +0.0000000000e+00 +0.0000000000e+00 +9.9999998245e-15 1.2500000000e+02 1.2500000000e+02 0.0000e+00 0.0000e+00
       23  2    1    0    0    0 -3.1240763891e+00 +2.0688468881e+01 -2.3485583389e+01 9.3546141333e+01 8.8099576238e+01 0.0000e+00 0.0000e+00
      -11  1    2    2    0    0 -3.8303981364e+01 +3.0316175151e+01 -2.8769732298e+01 5.6691824462e+01 5.1100000000e-04 0.0000e+00 -1.0000e+00
       11  1    2    2    0    0 +3.5179904975e+01 -9.6277062701e+00 +5.2841489086e+00 3.6854316871e+01 5.1100000000e-04 0.0000e+00 1.0000e+00
       22  1    1    0    0    0 +3.1240763891e+00 -2.0688468881e+01 +2.3485583389e+01 3.1453858667e+01 0.0000000000e+00 0.0000e+00 -1.0000e+00
</event>
<event>
 4      1 +2.4041262e-06 9.11880000e+01 7.81860800e-03 1.13011600e-01
       25 -1    0    0    0    0 +0.0000000000e+00 +0.0000000000e+00 +9.9999998245e-15 1.2500000000e+02 1.2500000000e+02 0.0000e+00 0.0000e+00
      -13  1    1    0    0    0 +4.6506856353e+01 +3.2830204511e+01 -2.5797831310e+01 6.2499994243e+01 1.0566000000e-01 0.0000e+00 1.0000e+00
       13  1    1    0    0    0 -4.6505971268e+01 -3.2829730664e+01 +2.5797263537e+01 6.2498852382e+01 1.0566000000e-01 0.0000e+00 1.0000e+00
       22  1    1    0    0    0 -8.8508498851e-04 -4.7384687105e-04 +5.6777262875e-04 1.1533742030e-03 0.0000000000e+00 0.0000e+00 1.0000e+00
</event>
<event>
 4      1 +2.4041262e-06 9.11880000e+01 7.81860800e-03 1.13011600e-01
       25 -1    0    0    0    0 +0.0000000000e+00 +0.0000000000e+00 +9.9999998245e-15 1.2500000000e+02 1.2500000000e+02 0.0000e+00 0.0000e+00
      -11  1    1    0    0    0 -4.2384391233e+00 +4.7802988270e+01 +1.7744120189e+01 5.1165846571e+01 5.1100000000e-04 0.0000e+00 1.0000e+00
       11  1    1    0    0    0 -3.0594270874e-01 +4.3089118701e+00 +1.2627998092e+01 1.3346409949e+01 5.1100000000e-04 0.0000e+00 -1.0000e+00
       22  1    1    0    0    0 +4.5443818321e+00 -5.2111900140e+01 -3.0372118281e+01 6.0487743480e+01 0.0000000000e+00 0.0000e+00 1.0000e+00
</event>
<event>
 4      1 +2.4041262e-06 9.11880000e+01 7.81860800e-03 1.13011600e-01
       25 -1    0    0    0    0 +0.0000000000e+00 +0.0000000000e+00 +9.9999998245e-15 1.2500000000e+02 1.2500000000e+02 0.0000e+00 0.0000e+00
      -13  1    1    0    0    0 +4.5574703935e+01 -3.9661950275e+01 +1.6003492105e+01 6.2499974896e+01 1.0566000000e-01 0.0000e+00 -1.0000e+00
       13  1    1    0    0    0 -4.5574722221e+01 +3.9661966216e+01 -1.6003498565e+01 6.2500000000e+01 1.0566000000e-01 0.0000e+00 -1.0000e+00
       22  1    1    0    0    0 +1.8286346284e-05 -1.5940827848e-05 +6.4593602401e-06 2.5104258357e-05 0.0000000000e+00 0.0000e+00 -1.0000e+00
</event>
<event>
 4      1 +2.4041262e-06 9.11880000e+01 7.81860800e-03 1.13011600e-01
       25 -1    0    0    0    0 +0.0000000000e+00 +0.0000000000e+00 +9.9999998245e-15 1.2500000000e+02 1.2500000000e+02 0.0000e+00 0.0000e+00
      -13  1    1    0    0    0 -5.5700470523e+01 +2.7835672397e+00 +2.8212553462e+01 6.2500000000e+01 1.0566000000e-01 0.0000e+00 1.0000e+00
       13  1    1    0    0    0 +5.5700470523e+01 -2.7835672399e+00 -2.8212553462e+01 6.2500000000e+01 1.0566000000e-01 0.0000e+00 1.0000e+00
       22  1    1    0    0    0 -1.3950736994e-10 +1.7849506802e-10 +9.2602993341e-11 2.4474090371e-10 0.0000000000e+00 0.0000e+00 1.0000e+00
</event>
<event>
 4      1 +2.4041262e-06 9.11880000e+01 7.81860800e-03 1.13011600e-01
       25 -1    0    0    0    0 +0.0000000000e+00 +0.0000000000e+00 +9.9999998245e-15 1.2500000000e+02 1.2500000000e+02 0.0000e+00 0.0000e+00
      -11  1    1    0    0    0 -5.9540649189e+01 +1.3739601554e+01 -5.0503395297e+00 6.1313713689e+01 5.1100000000e-04 0.0000e+00 1.0000e+00
       11  1    1    0    0    0 -7.5039124935e-01 +9.8392462339e-01 -5.8390039681e-01 1.3682597071e+00 5.1100000000e-04 0.0000e+00 -1.0000e+00
       22  1    1    0    0    0 +6.0291040438e+01 -1.4723526177e+01 +5.6342399265e+00 6.2318026604e+01 0.0000000000e+00 0.0000e+00 1.0000e+00
</event>
<event>
 4      1 +2.4041262e-06 9.11880000e+01 7.81860800e-03 1.13011600e-01
       25 -1    0    0    0    0 +0.0000000000e+00 +0.0000000000e+00 +9.9999998245e-15 1.2500000000e+02 1.2500000000e+02 0.0000e+00 0.0000e+00
      -11  1    1    0    0    0 +1.6591183483e+01 -1.4513526236e+01 -2.9494761029e+01 3.6821878572e+01 5.1100000000e-04 0.0000e+00 1.0000e+00
       11  1    1    0    0    0 +1.1598914388e+01 -1.0028428250e+01 -2.0597688267e+01 2.5678180433e+01 5.1100000000e-04 0.0000e+00 -1.0000e+00
       22  1    1    0    0    0 -2.8190097871e+01 +2.4541954486e+01 +5.0092449296e+01 6.2499940995e+01 0.0000000000e+00 0.0000e+00 1.0000e+00
</event>
<event>
 4      1 +2.4041262e-06 9.11880000e+01 7.81860800e-03 1.13011600e-01
       25 -1    0    0    0    0 +0.0000000000e+00 +0.0000000000e+00 +9.9999998245e-15 1.2500000000e+02 1.2500000000e+02 0.0000e+00 0.0000e+00
      -13  1    1    0    0    0 -4.2673092756e+01 +4.4083984774e+01 +1.1910007418e+01 6.2499999997e+01 1.0566000000e-01 0.0000e+00 -1.0000e+00
       13  1    1    0    0    0 +4.2673092103e+01 -4.4083983967e+01 -1.1910007285e+01 6.2499998957e+01 1.0566000000e-01 0.0000e+00 -1.0000e+00
       22  1    1    0    0    0 +6.5254583749e-07 -8.0696254833e-07 -1.3232293384e-07 1.0461902233e-06 0.0000000000e+00 0.0000e+00 -1.0000e+00
</event>
<event>
 4      1 +2.4041262e-06 9.11880000e+01 7.81860800e-03 1.13011600e-01
       25 -1    0    0    0    0 +0.0000000000e+00 +0.0000000000e+00 +9.9999998245e-15 1.2500000000e+02 1.2500000000e+02 0.0000e+00 0.0000e+00
      -13  1    1    0    0    0 +3.2533491643e+01 +2.9591069576e+01 +4.4409226055e+01 6.2500000000e+01 1.0566000000e-01 0.0000e+00 1.0000e+00
       13  1    1    0    0    0 -3.2533490958e+01 -2.9591068952e+01 -4.4409225111e+01 6.2499998677e+01 1.0566000000e-01 0.0000e+00 1.0000e+00
       22  1    1    0    0    0 -6.8547068394e-07 -6.2407715350e-07 -9.4365349548e-07 1.3228092348e-06 0.0000000000e+00 0.0000e+00 -1.0000e+00
</event>
<event>
 4      1 +2.4041262e-06 9.11880000e+01 7.81860800e-03 1.13011600e-01
       25 -1    0    0    0    0 +0.0000000000e+00 +0.0000000000e+00 +9.9999998245e-15 1.2500000000e+02 1.2500000000e+02 0.0000e+00 0.0000e+00
      -13  1    1    0    0    0 -5.3875111533e+01 -3.0295033199e+01 -9.2694202041e+00 6.2499999953e+01 1.0566000000e-01 0.0000e+00 1.0000e+00
       13  1    1    0    0    0 +5.3874996812e+01 +3.0294974104e+01 +9.2693994304e+00 6.2499869338e+01 1.0566000000e-01 0.0000e+00 1.0000e+00
       22  1    1    0    0    0 +1.1472113495e-04 +5.9094698578e-05 +2.0773719980e-05 1.3070833809e-04 0.0000000000e+00 0.0000e+00 -1.0000e+00
</event>
<event>
 4      1 +2.4041262e-06 9.11880000e+01 7.81860800e-03 1.13011600e-01
       25 -1    0    0    0    0 +0.0000000000e+00 +0.0000000000e+00 +9.9999998245e-15 1.2500000000e+02 1.2500000000e+02 0.0000e+00 0.0000e+00
      -13  1    1    0    0    0 -2.0883817615e+01 +4.3638216611e+01 -3.9570330382e+01 6.2499999982e+01 1.0566000000e-01 0.0000e+00 -1.0000e+00
       13  1    1    0    0    0 +2.0883252499e+01 -4.3637060132e+01 +3.9569279985e+01 6.2498338653e+01 1.0566000000e-01 0.0000e+00 -1.0000e+00
       22  1    1    0    0    0 +5.6511663040e-04 -1.1564791366e-03 +1.0503970674e-03 1.6613653417e-03 0.0000000000e+00 0.0000e+00 -1.0000e+00
</event>
<event>
 4      1 +2.4041262e-06 9.11880000e+01 7.81860800e-03 1.13011600e-01
       25 -1    0    0    0    0 +0.0000000000e+00 +0.0000000000e+00 +9.9999998245e-15 1.2500000000e+02 1.2500000000e+02 0.0000e+00 0.0000e+00
      -13  1    1    0    0    0 +2.0033059577e+00 -2.7557472467e+01 -5.6060778779e+01 6.2499996839e+01 1.0566000000e-01 0.0000e+00 1.0000e+00
       13  1    1    0    0    0 -2.0033266721e+00 +2.7557389245e+01 +5.6060680973e+01 6.2499873080e+01 1.0566000000e-01 0.0000e+00 1.0000e+00
       22  1    1    0    0    0 +2.0714345077e-05 +8.3222050665e-05 +9.7806061755e-05 1.3008081920e-04 0.0000000000e+00 0.0000e+00 -1.0000e+00
</event>
<event>
 4      1 +2.4041262e-06 9.11880000e+01 7.81860800e-03 1.13011600e-01
       25 -1    0    0    0    0 +0.0000000000e+00 +0.0000000000e+00 +9.9999998245e-15 1.2500000000e+02 1.2500000000e+02 0.0000e+00 0.0000e+00
      -13  1    1    0    0    0 -3.6839718588e+01 +4.7062176871e+01 +1.8281834659e+01 6.2500000000e+01 1.0566000000e-01 0.0000e+00 -1.0000e+00
       13  1    1    0    0    0 +3.6839718479e+01 -4.7062176728e+01 -1.8281834603e+01 6.2499999812e+01 1.0566000000e-01 0.0000e+00 -1.0000e+00
       22  1    1    0    0    0 +1.0831911064e-07 -1.4282782736e-07 -5.6122364748e-08 1.8783646564e-07 0.0000000000e+00 0.0000e+00 -1.0000e+00
</event>
<event>
 4      1 +2.4041262e-06 9.11880000e+01 7.81860800e-03 1.13011600e-01
       25 -1    0    0    0    0 +0.0000000000e+00 +0.0000000000e+00 +9.9999998245e-15 1.2500000000e+02 1.2500000000e+02 0.0000e+00 0.0000e+00
      -13  1    1    0    0    0 +5.8432543508e+01 +1.0493671739e+01 +1.9538668036e+01 6.2500000000e+01 1.0566000000e-01 0.0000e+00 -1.0000e+00
       13  1    1    0    0    0 -5.8432543507e+01 -1.0493671739e+01 -1.9538668036e+01 6.2500000000e+01 1.0566000000e-01 0.0000e+00 -1.0000e+00
       22  1    1    0    0    0 -4.1696781726e-10 +4.8863735571e-11 -7.2614548782e-11 4.2605480630e-10 0.0000000000e+00 0.0000e+00 1.0000e+00
</event>
<event>
 4      1 +2.4041262e-06 9.11880000e+01 7.81860800e-03 1.13011600e-01
       25 -1    0    0    0    0 +0.0000000000e+00 +0.0000000000e+00 +9.9999998245e-15 1.2500000000e+02 1.2500000000e+02 0.0000e+00 0.0000e+00
      -13  1    1    0    0    0 +5.1752377594e+01 -2.7910843452e+01 +2.1187560118e+01 6.2499981093e+01 1.0566000000e-01 0.0000e+00 -1.0000e+00
       13  1    1    0    0    0 -5.1752271948e+01 +2.7910812211e+01 -2.1187401724e+01 6.2499825967e+01 1.0566000000e-01 0.0000e+00 -1.0000e+00
       22  1    1    0    0    0 -1.0564560992e-04 +3.1241081246e-05 -1.5839421037e-04 1.9293969506e-04 0.0000000000e+00 0.0000e+00 1.0000e+00
</event>
<event>
 4      1 +2.4041262e-06 9.11880000e+01 7.81860800e-03 1.13011600e-01
       25 -1    0    0    0    0 +0.0000000000e+00 +0.0000000000e+00 +9.9999998245e-15 1.2500000000e+02 1.2500000000e+02 0.0000e+00 0.0000e+00
      -13  1    1    0    0    0 -1.2906815683e+01 -6.1124049986e+01 +1.8674292056e+00 6.2499870669e+01 1.0566000000e-01 0.0000e+00 -1.0000e+00
       13  1    1    0    0    0 +1.2906765103e+01 +6.1124171999e+01 -1.8674955286e+00 6.2499981533e+01 1.0566000000e-01 0.0000e+00 -1.0000e+00
       22  1    1    0    0    0 +5.0579591845e-05 -1.2201317270e-04 +6.6322988899e-05 1.4779799822e-04 0.0000000000e+00 0.0000e+00 -1.0000e+00
</event>
<event>
 4      1 +2.4041262e-06 9.11880000e+01 7.81860800e-03 1.13011600e-01
       25 -1    0    0    0    0 +0.0000000000e+00 +0.0000000000e+00 +9.9999998245e-15 1.2500000000e+02 1.2500000000e+02 0.0000e+00 0.0000e+00
      -13  1    1    0    0    0 +3.0900625431e+01 -3.4405728745e+01 -4.2043253710e+01 6.2499993353e+01 1.0566000000e-01 0.0000e+00 -1.0000e+00
       13  1    1    0    0    0 -3.0537838371e+01 +3.4007407590e+01 +4.1550894293e+01 6.1770149134e+01 1.0566000000e-01 0.0000e+00 -1.0000e+00
       22  1    1    0    0    0 -3.6278706029e-01 +3.9832115506e-01 +4.9235941719e-01 7.2985751306e-01 0.0000000000e+00 0.0000e+00 -1.0000e+00
</event>
<event>
 4      1 +2.4041262e-06 9.11880000e+01 7.81860800e-03 1.13011600e-01
       25 -1    0    0    0    0 +0.0000000000e+00 +0.0000000000e+00 +9.9999998245e-15 1.2500000000e+02 1.2500000000e+02 0.0000e+00 0.0000e+00
      -13  1    1    0    0    0 -4.2334579346e+01 -3.3601000733e+01 +3.1384629633e+01 6.2499999999e+01 1.0566000000e-01 0.0000e+00 1.0000e+00
       13  1    1    0    0    0 +4.2334579347e+01 +3.3601000733e+01 -3.1384629633e+01 6.2500000000e+01 1.0566000000e-01 0.0000e+00 1.0000e+00
       22  1    1    0    0    0 -5.1919111812e-10 -2.2446973295e-10 +4.3814051205e-10 7.1548108741e-10 0.0000000000e+00 0.0000e+00 -1.0000e+00
</event>
<event>
 4      1 +2.4041262e-06 9.11880000e+01 7.81860800e-03 1.13011600e-01
       25 -1    0    0    0    0 +0.0000000000e+00 +0.0000000000e+00 +9.9999998245e-15 1.2500000000e+02 1.2500000000e+02 0.0000e+00 0.0000e+00
      -13  1    1    0    0    0 +3.4783348643e+01 -4.7355011732e+01 -2.1303998614e+01 6.2500000000e+01 1.0566000000e-01 0.0000e+00 -1.0000e+00
       13  1    1    0    0    0 -3.4783348644e+01 +4.7355011732e+01 +2.1303998614e+01 6.2500000000e+01 1.0566000000e-01 0.0000e+00 -1.0000e+00
       22  1    1    0    0    0 +4.6160979687e-11 -2.6823080105e-11 +2.5510567389e-11 5.9170116786e-11 0.0000000000e+00 0.0000e+00 1.0000e+00
</event>
<event>
 4      1 +2.4041262e-06 9.11880000e+01 7.81860800e-03 1.13011600e-01
       25 -1    0    0    0    0 +0.0000000000e+00 +0.0000000000e+00 +9.9999998245e-15 1.2500000000e+02 1.2500000000e+02 0.0000e+00 0.0000e+00
      -13  1    1    0    0    0 -5.0206270534e+01 +3.5207090771e+01 +1.2084276502e+01 6.2499997953e+01 1.0566000000e-01 0.0000e+00 1.0000e+00
       13  1    1    0    0    0 +5.0206270104e+01 -3.5207093622e+01 -1.2084276101e+01 6.2499999136e+01 1.0566000000e-01 0.0000e+00 1.0000e+00
       22  1    1    0    0    0 +4.2992804309e-07 +2.8514277006e-06 -4.0114595093e-07 2.9114251026e-06 0.0000000000e+00 0.0000e+00 -1.0000e+00
</event>
<event>
 4      1 +2.4041262e-06 9.11880000e+01 7.81860800e-03 1.13011600e-01
       25 -1    0    0    0    0 +0.0000000000e+00 +0.0000000000e+00 +9.9999998245e-15 1.2500000000e+02 1.2500000000e+02 0.0000e+00 0.0000e+00
      -11  1    1    0    0    0 -3.4208129827e+00 -2.6395139860e+01 +4.7643812221e+01 5.4574153341e+01 5.1100000000e-04 0.0000e+00 -1.0000e+00
       11  1    1    0    0    0 -6.4658952878e-01 -3.9406736413e+00 +6.8475637292e+00 7.9269234923e+00 5.1100000000e-04 0.0000e+00 1.0000e+00
       22  1    1    0    0    0 +4.0674025115e+00 +3.0335813502e+01 -5.4491375950e+01 6.2498923166e+01 0.0000000000e+00 0.0000e+00 -1.0000e+00
</event>
<event>
 4      1 +2.4041262e-06 9.11880000e+01 7.81860800e-03 1.13011600e-01
       25 -1    0    0    0    0 +0.0000000000e+00 +0.0000000000e+00 +9.9999998245e-15 1.2500000000e+02 1.2500000000e+02 0.0000e+00 0.0000e+00
      -13  1    1    0    0    0 -1.6405830161e+01 -5.8977618458e+01 -9.3119334840e+00 6.1921191941e+01 1.0566000000e-01 0.0000e+00 -1.0000e+00
       13  1    1    0    0    0 +1.5730639805e+01 +5.9076706363e+01 +1.0177445484e+01 6.1976623205e+01 1.0566000000e-01 0.0000e+00 -1.0000e+00
       22  1    1    0    0    0 +6.7519035578e-01 -9.9087904946e-02 -8.6551199954e-01 1.1021848533e+00 0.0000000000e+00 0.0000e+00 -1.0000e+00
</event>
<event>
 4      1 +2.4041262e-06 9.11880000e+01 7.81860800e-03 1.13011600e-01
       25 -1    0    0    0    0 +0.0000000000e+00 +0.0000000000e+00 +9.9999998245e-15 1.2500000000e+02 1.2500000000e+02 0.0000e+00 0.0000e+00
      -11  1    1    0    0    0 -3.7058243624e+00 -1.1595000974e+01 +3.0368511215e+00 1.2545901593e+01 5.1100000000e-04 0.0000e+00 1.0000e+00
       11  1    1    0    0    0 -1.4470738577e+01 -4.6408573689e+01 +1.1502295404e+01 4.9954587243e+01 5.1100000000e-04 0.0000e+00 -1.0000e+00
       22  1    1    0    0    0 +1.8176562940e+01 +5.8003574663e+01 -1.4539146526e+01 6.2499511164e+01 0.0000000000e+00 0.0000e+00 -1.0000e+00
</event>
<event>
 4      1 +2.4041262e-06 9.11880000e+01 7.81860800e-03 1.13011600e-01
       25 -1    0    0    0    0 +0.0000000000e+00 +0.0000000000e+00 +9.9999998245e-15 1.2500000000e+02 1.2500000000e+02 0.0000e+00 0.0000e+00
      -13  1    1    0    0    0 -2.2464832598e+01 -2.0284045686e+01 -5.4682059362e+01 6.2499999945e+01 1.0566000000e-01 0.0000e+00 -1.0000e+00
       13  1    1    0    0    0 +2.2464832602e+01 +2.0284045682e+01 +5.4682059420e+01 6.2499999996e+01 1.0566000000e-01 0.0000e+00 -1.0000e+00
       22  1    1    0    0    0 -4.3865967696e-09 +4.1037121639e-09 -5.8562711112e-08 5.8869973820e-08 0.0000000000e+00 0.0000e+00 -1.0000e+00
</event>
<event>
 4      1 +2.4041262e-06 9.11880000e+01 7.81860800e-03 1.13011600e-01
       25 -1    0    0    0    0 +0.0000000000e+00 +0.0000000000e+00 +9.9999998245e-15 1.2500000000e+02 1.2500000000e+02 0.0000e+00 0.0000e+00
      -13  1    1    0    0    0 -5.7097497927e+01 +6.6444852097e+00 -2.4511554754e+01 6.2490806794e+01 1.0566000000e-01 0.0000e+00 -1.0000e+00
       13  1    1    0    0    0 +5.7106357446e+01 -6.6418691304e+00 +2.4514083705e+01 6.2499615600e+01 1.0566000000e-01 0.0000e+00 -1.0000e+00
       22  1    1    0    0    0 -8.8595189683e-03 -2.6160793087e-03 -2.5289506700e-03 9.5776061096e-03 0.0000000000e+00 0.0000e+00 -1.0000e+00
</event>
<event>
 4      1 +2.4041262e-06 9.11880000e+01 7.81860800e-03 1.13011600e-01
       25 -1    0    0    0    0 +0.0000000000e+00 +0.0000000000e+00 +9.9999998245e-15 1.2500000000e+02 1.2500000000e+02 0.0000e+00 0.0000e+00
      -13  1    1    0    0    0 +3.5130620980e+00 -4.7927978308e+01 -3.9960056594e+01 6.2499999976e+01 1.0566000000e-01 0.0000e+00 1.0000e+00
       13  1    1    0    0    0 -3.5130620990e+00 +4.7927978326e+01 +3.9960056610e+01 6.2500000000e+01 1.0566000000e-01 0.0000e+00 1.0000e+00
       22  1    1    0    0    0 +1.0250052851e-09 -1.7959733370e-08 -1.5746543615e-08 2.3907243555e-08 0.0000000000e+00 0.0000e+00 1.0000e+00
</event>
<event>
 5      1 +2.4041262e-06 9.11880000e+01 7.81860800e-03 1.13011600e-01
       25 -1    0    0    0    0 +0.0000000000e+00 +0.0000000000e+00 +9.9999998245e-15 1.2500000000e+02 1.2500000000e+02 0.0000e+00 0.0000e+00
       23  2    1    0    0    0 -2.1343090492e+01 -1.1666541211e+01 +1.7239181310e+01 9.5186830632e+01 9.0397498073e+01 0.0000e+00 0.0000e+00
      -11  1    2    2    0    0 +1.0775523635e+01 +3.5037248543e+01 +3.2270425103e+00 3.6798566530e+01 5.1100000000e-04 0.0000e+00 1.0000e+00
       11  1    2    2    0    0 -3.2118614127e+01 -4.6703789754e+01 +1.4012138799e+01 5.8388264101e+01 5.1100000000e-04 0.0000e+00 -1.0000e+00
       22  1    1    0    0    0 +2.1343090492e+01 +1.1666541211e+01 -1.7239181310e+01 2.9813169368e+01 0.0000000000e+00 0.0000e+00 -1.0000e+00
</event>
<event>
 4      1 +2.4041262e-06 9.11880000e+01 7.81860800e-03 1.13011600e-01
       25 -1    0    0    0    0 +0.0000000000e+00 +0.0000000000e+00 +9.9999998245e-15 1.2500000000e+02 1.2500000000e+02 0.0000e+00 0.0000e+00
      -13  1    1    0    0    0 -5.7779942497e+00 -1.5130949565e+01 -1.3211891614e+01 2.0902059620e+01 1.0566000000e-01 0.0000e+00 -1.0000e+00
       13  1    1    0    0    0 +1.7411979618e+01 +4.5090471857e+01 +3.9621789021e+01 6.2499800126e+01 1.0566000000e-01 0.0000e+00 -1.0000e+00
       22  1    1    0    0    0 -1.1633985368e+01 -2.9959522292e+01 -2.6409897407e+01 4.1598140254e+01 0.0000000000e+00 0.0000e+00 -1.0000e+00
</event>
<event>
 4      1 +2.4041262e-06 9.11880000e+01 7.81860800e-03 1.13011600e-01
       25 -1    0    0    0    0 +0.0000000000e+00 +0.0000000000e+00 +9.9999998245e-15 1.2500000000e+02 1.2500000000e+02 0.0000e+00 0.0000e+00
      -13  1    1    0    0    0 +3.6238397346e+01 +2.1456914111e+00 +5.0876452335e+01 6.2500000000e+01 1.0566000000e-01 0.0000e+00 1.0000e+00
       13  1    1    0    0    0 -3.6238397345e+01 -2.1456914110e+00 -5.0876452334e+01 6.2499999999e+01 1.0566000000e-01 0.0000e+00 1.0000e+00
       22  1    1    0    0    0 -4.8587956121e-10 -1.3503819028e-10 -7.3761223002e-10 8.9352451713e-10 0.0000000000e+00 0.0000e+00 -1.0000e+00
</event>
<event>
 4      1 +2.4041262e-06 9.11880000e+01 7.81860800e-03 1.13011600e-01
       25 -1    0    0    0    0 +0.0000000000e+00 +0.0000000000e+00 +9.9999998245e-15 1.2500000000e+02 1.2500000000e+02 0.0000e+00 0.0000e+00
      -11  1    1    0    0    0 +2.1813638937e+01 -1.1856463372e+01 +3.9361346622e+01 4.6537363221e+01 5.1100000000e-04 0.0000e+00 1.0000e+00
       11  1    1    0    0    0 +7.4810387739e+00 -4.0700755118e+00 +1.3500900766e+01 1.5962636924e+01 5.1100000000e-04 0.0000e+00 -1.0000e+00
       22  1    1    0    0    0 -2.9294677711e+01 +1.5926538884e+01 -5.2862247388e+01 6.2499999855e+01 0.0000000000e+00 0.0000e+00 1.0000e+00
</event>
<event>
 4      1 +2.4041262e-06 9.11880000e+01 7.81860800e-03 1.13011600e-01
       25 -1    0    0    0    0 +0.0000000000e+00 +0.0000000000e+00 +9.9999998245e-15 1.2500000000e+02 1.2500000000e+02 0.0000e+00 0.0000e+00
      -13  1    1    0    0    0 +5.5380321195e+01 -1.3359585947e+01 -2.5705647698e+01 6.2500000000e+01 1.0566000000e-01 0.0000e+00 -1.0000e+00
       13  1    1    0    0    0 -5.5380321191e+01 +1.3359585946e+01 +2.5705647696e+01 6.2499999995e+01 1.0566000000e-01 0.0000e+00 -1.0000e+00
       22  1    1    0    0    0 -4.7492120733e-09 +1.2646662025e-09 +2.2352356696e-09 5.3991364512e-09 0.0000000000e+00 0.0000e+00 -1.0000e+00
</event>
<event>
 4      1 +2.4041262e-06 9.11880000e+01 7.81860800e-03 1.13011600e-01
       25 -1    0    0    0    0 +0.0000000000e+00 +0.0000000000e+00 +9.9999998245e-15 1.2500000000e+02 1.2500000000e+02 0.0000e+00 0.0000e+00
      -13  1    1    0    0    0 -1.0494682026e+01 -1.0650166116e+01 +1.8321948719e+01 2.3648876464e+01 1.0566000000e-01 0.0000e+00 -1.0000e+00
       13  1    1    0    0    0 -2.6698055096e+01 -2.5771407102e+01 +1.4468528825e+01 3.9828395151e+01 1.0566000000e-01 0.0000e+00 1.0000e+00
       22  1    1    0    0    0 +3.7192737122e+01 +3.6421573218e+01 -3.2790477544e+01 6.1522728385e+01 0.0000000000e+00 0.0000e+00 1.0000e+00
</event>
<event>
 5      1 +2.4041262e-06 9.11880000e+01 7.81860800e-03 1.13011600e-01
       25 -1    0    0    0    0 +0.0000000000e+00 +0.0000000000e+00 +9.9999998245e-15 1.2500000000e+02 1.2500000000e+02 0.0000e+00 0.0000e+00
       23  2    1    0    0    0 -2.8654071206e+01 -6.0328953776e+00 -4.8314304180e+00 9.5321820420e+01 9.0583967152e+01 0.0000e+00 0.0000e+00
      -11  1    2    2    0    0 -4.8870319931e+01 -3.3190628602e+01 -1.3011386653e+01 6.0491505023e+01 5.1100000000e-04 0.0000e+00 1.0000e+00
       11  1    2    2    0    0 +2.0216248725e+01 +2.7157733224e+01 +8.1799562348e+00 3.4830315397e+01 5.1100000000e-04 0.0000e+00 -1.0000e+00
       22  1    1    0    0    0 +2.8654071206e+01 +6.0328953776e+00 +4.8314304180e+00 2.9678179580e+01 0.0000000000e+00 0.0000e+00 1.0000e+00
</event>
<event>
 4      1 +2.4041262e-06 9.11880000e+01 7.81860800e-03 1.13011600e-01
       25 -1    0    0    0    0 +0.0000000000e+00 +0.0000000000e+00 +9.9999998245e-15 1.2500000000e+02 1.2500000000e+02 0.0000e+00 0.0000e+00
      -13  1    1    0    0    0 +1.8859671995e+01 +5.8258441286e+01 -1.2448276883e+01 6.2487630538e+01 1.0566000000e-01 0.0000e+00 1.0000e+00
       13  1    1    0    0    0 -1.8869286411e+01 -5.8266122546e+01 +1.2453940916e+01 6.2498822506e+01 1.0566000000e-01 0.0000e+00 1.0000e+00
       22  1    1    0    0    0 +9.6144159437e-03 +7.6812608583e-03 -5.6640326218e-03 1.3546956406e-02 0.0000000000e+00 0.0000e+00 -1.0000e+00
</event>
<event>
 5      1 +2.4041262e-06 9.11880000e+01 7.81860800e-03 1.13011600e-01
       25 -1    0    0    0    0 +0.0000000000e+00 +0.0000000000e+00 +9.9999998245e-15 1.2500000000e+02 1.2500000000e+02 0.0000e+00 0.0000e+00
       23  2    1    0    0    0 -1.2867111384e+01 -1.0462889957e+01 +2.4816201247e+01 9.5152412728e+01 9.0349893094e+01 0.0000e+00 0.0000e+00
      -13  1    2    2    0    0 +3.4733532220e+01 -7.8961884692e+00 -8.9597624086e+00 3.6729505296e+01 1.0566000000e-01 0.0000e+00 -1.0000e+00
       13  1    2    2    0    0 -4.7600643603e+01 -2.5667014877e+00 +3.3775963656e+01 5.8422907433e+01 1.0566000000e-01 0.0000e+00 1.0000e+00
       22  1    1    0    0    0 +1.2867111384e+01 +1.0462889957e+01 -2.4816201247e+01 2.9847587272e+01 0.0000000000e+00 0.0000e+00 1.0000e+00
</event>
<event>
 4      1 +2.4041262e-06 9.11880000e+01 7.81860800e-03 1.13011600e-01
       25 -1    0    0    0    0 +0.0000000000e+00 +0.0000000000e+00 +9.9999998245e-15 1.2500000000e+02 1.2500000000e+02 0.0000e+00 0.0000e+00
      -13  1    1    0    0    0 +4.9494033452e+01 -2.3574749226e+01 -3.0001947984e+01 6.2494449316e+01 1.0566000000e-01 0.0000e+00 1.0000e+00
       13  1    1    0    0    0 -4.9498816606e+01 +2.3578067613e+01 +3.0002409546e+01 6.2499710882e+01 1.0566000000e-01 0.0000e+00 1.0000e+00
       22  1    1    0    0    0 +4.7831537853e-03 -3.3183865980e-03 -4.6156230290e-04 5.8398021805e-03 0.0000000000e+00 0.0000e+00 1.0000e+00
</event>
<event>
 4      1 +2.4041262e-06 9.11880000e+01 7.81860800e-03 1.13011600e-01
       25 -1    0    0    0    0 +0.0000000000e+00 +0.0000000000e+00 +9.9999998245e-15 1.2500000000e+02 1.2500000000e+02 0.0000e+00 0.0000e+00
      -13  1    1    0    0    0 -1.3409063407e+01 -1.3489378433e+01 +5.6197607497e+01 5.9329154421e+01 1.0566000000e-01 0.0000e+00 1.0000e+00
       13  1    1    0    0    0 +1.4123371553e+01 +1.4212915848e+01 -5.9201028896e+01 6.2499996699e+01 1.0566000000e-01 0.0000e+00 1.0000e+00
       22  1    1    0    0    0 -7.1430814573e-01 -7.2353741531e-01 +3.0034213992e+00 3.1708488800e+00 0.0000000000e+00 0.0000e+00 -1.0000e+00
</event>
<event>
 4      1 +2.4041262e-06 9.11880000e+01 7.81860800e-03 1.13011600e-01
       25 -1    0    0    0    0 +0.0000000000e+00 +0.0000000000e+00 +9.9999998245e-15 1.2500000000e+02 1.2500000000e+02 0.0000e+00 0.0000e+00
      -13  1    1    0    0    0 -3.7145534638e+01 +4.9373605181e+01 -9.4136930091e+00 6.2499379294e+01 1.0566000000e-01 0.0000e+00 1.0000e+00
       13  1    1    0    0    0 +3.7138765821e+01 -4.9358043322e+01 +9.4162857776e+00 6.2483453563e+01 1.0566000000e-01 0.0000e+00 1.0000e+00
       22  1    1    0    0    0 +6.7688169702e-03 -1.5561858630e-02 -2.5927684736e-03 1.7167142324e-02 0.0000000000e+00 0.0000e+00 -1.0000e+00
</event>
<event>
 4      1 +2.4041262e-06 9.11880000e+01 7.81860800e-03 1.13011600e-01
       25 -1    0    0    0    0 +0.0000000000e+00 +0.0000000000e+00 +9.9999998245e-15 1.2500000000e+02 1.2500000000e+02 0.0000e+00 0.0000e+00
      -11  1    1    0    0    0 -8.7413787458e+00 -4.4925549516e+01 +3.2982741028e+01 5.6414341330e+01 5.1100000000e-04 0.0000e+00 -1.0000e+00
       11  1    1    0    0    0 -8.4092875955e-01 -4.9558422530e+00 +3.4329117491e+00 6.0870696524e+00 5.1100000000e-04 0.0000e+00 1.0000e+00
       22  1    1    0    0    0 +9.5823075054e+00 +4.9881391769e+01 -3.6415652777e+01 6.2498589017e+01 0.0000000000e+00 0.0000e+00 -1.0000e+00
</event>
<event>
 4      1 +2.4041262e-06 9.11880000e+01 7.81860800e-03 1.13011600e-01
       25 -1    0    0    0    0 +0.0000000000e+00 +0.0000000000e+00 +9.9999998245e-15 1.2500000000e+02 1.2500000000e+02 0.0000e+00 0.0000e+00
      -11  1    1    0    0    0 -1.7932578366e+01 +3.8561368675e+01 +3.2759060823e+00 4.2653113390e+01 5.1100000000e-04 0.0000e+00 1.0000e+00
       11  1    1    0    0    0 -8.3444786117e+00 +1.7942859200e+01 +1.5239385037e+00 1.9846886617e+01 5.1100000000e-04 0.0000e+00 1.0000e+00
       22  1    1    0    0    0 +2.6277056978e+01 -5.6504227874e+01 -4.7998445861e+00 6.2499999993e+01 0.0000000000e+00 0.0000e+00 1.0000e+00
</event>
<event>
 4      1 +2.4041262e-06 9.11880000e+01 7.81860800e-03 1.13011600e-01
       25 -1    0    0    0    0 +0.0000000000e+00 +0.0000000000e+00 +9.9999998245e-15 1.2500000000e+02 1.2500000000e+02 0.0000e+00 0.0000e+00
      -13  1    1    0    0    0 +3.3328138676e+01 +7.0608276724e-01 +5.2867527419e+01 6.2499999999e+01 1.0566000000e-01 0.0000e+00 1.0000e+00
       13  1    1    0    0    0 -3.3328133066e+01 -7.0608265151e-01 -5.2867518194e+01 6.2499989203e+01 1.0566000000e-01 0.0000e+00 1.0000e+00
       22  1    1    0    0    0 -5.6099778339e-06 -1.1572642907e-07 -9.2253515723e-06 1.0797794013e-05 0.0000000000e+00 0.0000e+00 -1.0000e+00
</event>
<event>
 4      1 +2.4041262e-06 9.11880000e+01 7.81860800e-03 1.13011600e-01
       25 -1    0    0    0    0 +0.0000000000e+00 +0.0000000000e+00 +9.9999998245e-15 1.2500000000e+02 1.2500000000e+02 0.0000e+00 0.0000e+00
      -13  1    1    0    0    0 -1.2186757261e+01 +5.6536587212e+01 -2.3692532365e+01 6.2500000000e+01 1.0566000000e-01 0.0000e+00 1.0000e+00
       13  1    1    0    0    0 +1.2186757076e+01 -5.6536586359e+01 +2.3692532008e+01 6.2499999057e+01 1.0566000000e-01 0.0000e+00 1.0000e+00
       22  1    1    0    0    0 +1.8479881236e-07 -8.5302229534e-07 +3.5710370681e-07 9.4303801345e-07 0.0000000000e+00 0.0000e+00 1.0000e+00
</event>
<event>
 5      1 +2.4041262e-06 9.11880000e+01 7.81860800e-03 1.13011600e-01
       25 -1    0    0    0    0 +0.0000000000e+00 +0.0000000000e+00 +9.9999998245e-15 1.2500000000e+02 1.2500000000e+02 0.0000e+00 0.0000e+00
       23  2    1    0    0    0 -1.7011012517e+01 -2.0308775054e+01 +1.1699633794e+01 9.6039642234e+01 9.1569157244e+01 0.0000e+00 0.0000e+00
      -13  1    2    2    0    0 -2.6025518523e+01 +3.2226722432e+01 -2.0106110883e-01 4.1423916313e+01 1.0566000000e-01 0.0000e+00 1.0000e+00
       13  1    2    2    0    0 +9.0145060061e+00 -5.2535497486e+01 +1.1900694903e+01 5.4615725920e+01 1.0566000000e-01 0.0000e+00 -1.0000e+00
       22  1    1    0    0    0 +1.7011012517e+01 +2.0308775054e+01 -1.1699633794e+01 2.8960357766e+01 0.0000000000e+00 0.0000e+00 -1.0000e+00
</event>
<event>
 4      1 +2.4041262e-06 9.11880000e+01 7.81860800e-03 1.13011600e-01
       25 -1    0    0    0    0 +0.0000000000e+00 +0.0000000000e+00 +9.9999998245e-15 1.2500000000e+02 1.2500000000e+02 0.0000e+00 0.0000e+00
      -13  1    1    0    0    0 +3.4104008188e+01 -1.0742462346e+01 +5.1261632469e+01 6.2499999993e+01 1.0566000000e-01 0.0000e+00 -1.0000e+00
       13  1    1    0    0    0 -3.4104008184e+01 +1.0742462349e+01 -5.1261632477e+01 6.2499999998e+01 1.0566000000e-01 0.0000e+00 -1.0000e+00
       22  1    1    0    0    0 -4.0309541900e-09 -3.7108137478e-09 +7.4963892647e-09 9.2851807929e-09 0.0000000000e+00 0.0000e+00 -1.0000e+00
</event>
<event>
 4      1 +2.4041262e-06 9.11880000e+01 7.81860800e-03 1.13011600e-01
       25 -1    0    0    0    0 +0.0000000000e+00 +0.0000000000e+00 +9.9999998245e-15 1.2500000000e+02 1.2500000000e+02 0.0000e+00 0.0000e+00
      -11  1    1    0    0    0 +5.3360951163e+01 +1.7343883845e+01 +2.3399845722e+01 6.0792714990e+01 5.1100000000e-04 0.0000e+00 1.0000e+00
       11  1    1    0    0    0 +1.4823615175e+00 +5.7117596766e-01 +6.2860843993e-01 1.7084456346e+00 5.1100000000e-04 0.0000e+00 -1.0000e+00
       22  1    1    0    0    0 -5.4843312680e+01 -1.7915059813e+01 -2.4028454162e+01 6.2498839375e+01 0.0000000000e+00 0.0000e+00 1.0000e+00
</event>
<event>
 4      1 +2.4041262e-06 9.11880000e+01 7.81860800e-03 1.13011600e-01
       25 -1    0    0    0    0 +0.0000000000e+00 +0.0000000000e+00 +9.9999998245e-15 1.2500000000e+02 1.2500000000e+02 0.0000e+00 0.0000e+00
      -13  1    1    0    0    0 -1.9834810842e+01 +4.0838651106e+01 +4.2953712695e+01 6.2499981949e+01 1.0566000000e-01 0.0000e+00 1.0000e+00
       13  1    1    0    0    0 +1.9834816276e+01 -4.0838662985e+01 -4.2953725155e+01 6.2499999999e+01 1.0566000000e-01 0.0000e+00 1.0000e+00
       22  1    1    0    0    0 -5.4338554111e-06 +1.1879244773e-05 +1.2459139008e-05 1.8051963489e-05 0.0000000000e+00 0.0000e+00 1.0000e+00
</event>
<event>
 4      1 +2.4041262e-06 9.11880000e+01 7.81860800e-03 1.13011600e-01
       25 -1    0    0    0    0 +0.0000000000e+00 +0.0000000000e+00 +9.9999998245e-15 1.2500000000e+02 1.2500000000e+02 0.0000e+00 0.0000e+00
      -13  1    1    0    0    0 +2.7930031040e+01 +2.0402105906e+01 -5.2056760140e+01 6.2499999997e+01 1.0566000000e-01 0.0000e+00 -1.0000e+00
       13  1    1    0    0    0 -2.7930031041e+01 -2.0402105906e+01 +5.2056760143e+01 6.2500000000e+01 1.0566000000e-01 0.0000e+00 -1.0000e+00
       22  1    1    0    0    0 +1.3777136696e-09 -6.1880086301e-10 -3.2624551575e-09 3.5950831865e-09 0.0000000000e+00 0.0000e+00 -1.0000e+00
</event>
<event>
 4      1 +2.4041262e-06 9.11880000e+01 7.81860800e-03 1.13011600e-01
       25 -1    0    0    0    0 +0.0000000000e+00 +0.0000000000e+00 +9.9999998245e-15 1.2500000000e+02 1.2500000000e+02 0.0000e+00 0.0000e+00
      -13  1    1    0    0    0 +3.2089912024e+01 +3.0109310511e+01 +4.4383596263e+01 6.2499982516e+01 1.0566000000e-01 0.0000e+00 1.0000e+00
       13  1    1    0    0    0 -3.1517283966e+01 -2.9566708843e+01 -4.3577032355e+01 6.1371804383e+01 1.0566000000e-01 0.0000e+00 1.0000e+00
       22  1    1    0    0    0 -5.7262805869e-01 -5.4260166747e-01 -8.0656390845e-01 1.1282131011e+00 0.0000000000e+00 0.0000e+00 1.0000e+00
</event>
<event>
 5      1 +2.4041262e-06 9.11880000e+01 7.81860800e-03 1.13011600e-01
       25 -1    0    0    0    0 +0.0000000000e+00 +0.0000000000e+00 +9.9999998245e-15 1.2500000000e+02 1.2500000000e+02 0.0000e+00 0.0000e+00
       23  2    1    0    0    0 -1.1133608507e+01 +2.5340806092e+01 -6.0931358014e+00 9.6658511053e+01 9.2410106392e+01 0.0000e+00 0.0000e+00
      -11  1    2    2    0    0 +2.4890855687e+01 -1.2729758841e+01 +2.3452562091e+01 3.6491425375e+01 5.1100000000e-04 0.0000e+00 -1.0000e+00
       11  1    2    2    0    0 -3.6024464195e+01 +3.8070564933e+01 -2.9545697892e+01 6.0167085679e+01 5.1100000000e-04 0.0000e+00 1.0000e+00
       22  1    1    0    0    0 +1.1133608507e+01 -2.5340806092e+01 +6.0931358014e+00 2.8341488947e+01 0.0000000000e+00 0.0000e+00 1.0000e+00
</event>
<event>
 4      1 +2.4041262e-06 9.11880000e+01 7.81860800e-03 1.13011600e-01
       25 -1    0    0    0    0 +0.0000000000e+00 +0.0000000000e+00 +9.9999998245e-15 1.2500000000e+02 1.2500000000e+02 0.0000e+00 0.0000e+00
      -13  1    1    0    0    0 +4.9228124003e+01 -2.1839063527e+01 -2.0812060478e+01 5.7736521491e+01 1.0566000000e-01 0.0000e+00 -1.0000e+00
       13  1    1    0    0    0 -5.3289455245e+01 +2.3561660592e+01 +2.2610665200e+01 6.2499369877e+01 1.0566000000e-01 0.0000e+00 -1.0000e+00
       22  1    1    0    0    0 +4.0613312425e+00 -1.7225970652e+00 -1.7986047217e+00 4.7641086317e+00 0.0000000000e+00 0.0000e+00 -1.0000e+00
</event>
<event>
 4      1 +2.4041262e-06 9.11880000e+01 7.81860800e-03 1.13011600e-01
       25 -1    0    0    0    0 +0.0000000000e+00 +0.0000000000e+00 +9.9999998245e-15 1.2500000000e+02 1.2500000000e+02 0.0000e+00 0.0000e+00
      -11  1    1    0    0    0 +9.8084549739e+00 +1.8339489733e+00 -1.8226518755e+01 2.0779199792e+01 5.1100000000e-04 0.0000e+00 -1.0000e+00
       11  1    1    0    0    0 +1.9933721556e+01 +3.7133426029e+00 -3.6462250355e+01 4.1720952405e+01 5.1100000000e-04 0.0000e+00 1.0000e+00
       22  1    1    0    0    0 -2.9742176530e+01 -5.5472915763e+00 +5.4688769110e+01 6.2499847803e+01 0.0000000000e+00 0.0000e+00 1.0000e+00
</event>
<event>
 4      1 +2.4041262e-06 9.11880000e+01 7.81860800e-03 1.13011600e-01
       25 -1    0    0    0    0 +0.0000000000e+00 +0.0000000000e+00 +9.9999998245e-15 1.2500000000e+02 1.2500000000e+02 0.0000e+00 0.0000e+00
      -11  1    1    0    0    0 -9.1457142744e+00 +3.9379956588e+00 -1.2866044371e+00 1.0040281402e+01 5.1100000000e-04 0.0000e+00 1.0000e+00
       11  1    1    0    0    0 -4.7850110394e+01 +2.0413991270e+01 -6.7572556513e+00 5.2459742741e+01 5.1100000000e-04 0.0000e+00 -1.0000e+00
       22  1    1    0    0    0 +5.6995824668e+01 -2.4351986928e+01 +8.0438600883e+00 6.2499975857e+01 0.0000000000e+00 0.0000e+00 -1.0000e+00
</event>
<event>
 4      1 +2.4041262e-06 9.11880000e+01 7.81860800e-03 1.13011600e-01
       25 -1    0    0    0    0 +0.0000000000e+00 +0.0000000000e+00 +9.9999998245e-15 1.2500000000e+02 1.2500000000e+02 0.0000e+00 0.0000e+00
      -13  1    1    0    0    0 -4.1540895482e+01 -4.5970018551e+01 +8.2067187575e+00 6.2499999999e+01 1.0566000000e-01 0.0000e+00 1.0000e+00
       13  1    1    0    0    0 +4.1540894213e+01 +4.5970017034e+01 -8.2067184288e+00 6.2499997996e+01 1.0566000000e-01 0.0000e+00 1.0000e+00
       22  1    1    0    0    0 +1.2684504132e-06 +1.5174213671e-06 -3.2863987786e-07 2.0048786061e-06 0.0000000000e+00 0.0000e+00 -1.0000e+00
</event>
<event>
 4      1 +2.4041262e-06 9.11880000e+01 7.81860800e-03 1.13011600e-01
       25 -1    0    0    0    0 +0.0000000000e+00 +0.0000000000e+00 +9.9999998245e-15 1.2500000000e+02 1.2500000000e+02 0.0000e+00 0.0000e+00
      -13  1    1    0    0    0 -3.1304253566e+01 +1.4872459637e+01 -5.2010503594e+01 6.2499999961e+01 1.0566000000e-01 0.0000e+00 -1.0000e+00
       13  1    1    0    0    0 +3.1303892311e+01 -1.4872299397e+01 +5.2009914555e+01 6.2499290710e+01 1.0566000000e-01 0.0000e+00 -1.0000e+00
       22  1    1    0    0    0 +3.6125507465e-04 -1.6023955212e-04 +5.8903820315e-04 7.0932922384e-04 0.0000000000e+00 0.0000e+00 -1.0000e+00
</event>
<event>
 4      1 +2.4041262e-06 9.11880000e+01 7.81860800e-03 1.13011600e-01
       25 -1    0    0    0    0 +0.0000000000e+00 +0.0000000000e+00 +9.9999998245e-15 1.2500000000e+02 1.2500000000e+02 0.0000e+00 0.0000e+00
      -13  1    1    0    0    0 +5.9325676916e+00 -5.5011288331e+01 +2.9065471471e+01 6.2499999993e+01 1.0566000000e-01 0.0000e+00 1.0000e+00
       13  1    1    0    0    0 -5.9325676896e+00 +5.5011288330e+01 -2.9065471481e+01 6.2499999996e+01 1.0566000000e-01 0.0000e+00 1.0000e+00
       22  1    1    0    0    0 -2.0771138857e-09 +1.4356369357e-09 +1.0627190668e-08 1.0923032408e-08 0.0000000000e+00 0.0000e+00 1.0000e+00
</event>
<event>
 5      1 +2.4041262e-06 9.11880000e+01 7.81860800e-03 1.13011600e-01
       25 -1    0    0    0    0 +0.0000000000e+00 +0.0000000000e+00 +9.9999998245e-15 1.2500000000e+02 1.2500000000e+02 0.0000e+00 0.0000e+00
       23  2    1    0    0    0 +1.8498004256e+01 +1.8825931909e+01 +1.2520771191e+01 9.5787646707e+01 9.1224512478e+01 0.0000e+00 0.0000e+00
      -13  1    2    2    0    0 +3.2000996574e+01 +1.0209985048e+01 -3.3268825012e+01 4.7277198078e+01 1.0566000000e-01 0.0000e+00 1.0000e+00
       13  1    2    2    0    0 -1.3502992318e+01 +8.6159468609e+00 +4.5789596202e+01 4.8510448630e+01 1.0566000000e-01 0.0000e+00 -1.0000e+00
       22  1    1    0    0    0 -1.8498004256e+01 -1.8825931909e+01 -1.2520771191e+01 2.9212353293e+01 0.0000000000e+00 0.0000e+00 1.0000e+00
</event>
<event>
 4      1 +2.4041262e-06 9.11880000e+01 7.81860800e-03 1.13011600e-01
       25 -1    0    0    0    0 +0.0000000000e+00 +0.0000000000e+00 +9.9999998245e-15 1.2500000000e+02 1.2500000000e+02 0.0000e+00 0.0000e+00
      -13  1    1    0    0    0 +1.1050002172e+01 -5.9396395529e+01 -1.6006384264e+01 6.2499998809e+01 1.0566000000e-01 0.0000e+00 -1.0000e+00
       13  1    1    0    0    0 -1.1050002474e+01 +5.9396396637e+01 +1.6006384587e+01 6.2499999998e+01 1.0566000000e-01 0.0000e+00 -1.0000e+00
       22  1    1    0    0    0 +3.0122367119e-07 -1.1079766252e-06 -3.2293174996e-07 1.1927417228e-06 0.0000000000e+00 0.0000e+00 1.0000e+00
</event>
<event>
 4      1 +2.4041262e-06 9.11880000e+01 7.81860800e-03 1.13011600e-01
       25 -1    0    0    0    0 +0.0000000000e+00 +0.0000000000e+00 +9.9999998245e-15 1.2500000000e+02 1.2500000000e+02 0.0000e+00 0.0000e+00
      -13  1    1    0    0    0 -5.9923388068e+01 -1.7292060035e+01 +4.0510564233e+00 6.2500000000e+01 1.0566000000e-01 0.0000e+00 1.0000e+00
       13  1    1    0    0    0 +5.9923388022e+01 +1.7292060020e+01 -4.0510564213e+00 6.2499999951e+01 1.0566000000e-01 0.0000e+00 1.0000e+00
       22  1    1    0    0    0 +4.6541639956e-08 +1.4618063390e-08 -2.0510138889e-09 4.8826413805e-08 0.0000000000e+00 0.0000e+00 -1.0000e+00
</event>
<event>
 5      1 +2.4041262e-06 9.11880000e+01 7.81860800e-03 1.13011600e-01
       25 -1    0    0    0    0 +0.0000000000e+00 +0.0000000000e+00 +9.9999998245e-15 1.2500000000e+02 1.2500000000e+02 0.0000e+00 0.0000e+00
       23  2    1    0    0    0 -7.7502922349e+00 +1.3142184187e+01 +2.2842037644e+01 9.7531059018e+01 9.3582929824e+01 0.0000e+00 0.0000e+00
      -13  1    2    2    0    0 -4.3337870519e+01 +2.5672762282e+01 -5.0318314589e+00 5.0622052864e+01 1.0566000000e-01 0.0000e+00 -1.0000e+00
       13  1    2    2    0    0 +3.5587578285e+01 -1.2530578094e+01 +2.7873869103e+01 4.6909006154e+01 1.0566000000e-01 0.0000e+00 1.0000e+00
       22  1    1    0    0    0 +7.7502922349e+00 -1.3142184187e+01 -2.2842037644e+01 2.7468940982e+01 0.0000000000e+00 0.0000e+00 -1.0000e+00
</event>
<event>
 4      1 +2.4041262e-06 9.11880000e+01 7.81860800e-03 1.13011600e-01
       25 -1    0    0    0    0 +0.0000000000e+00 +0.0000000000e+00 +9.9999998245e-15 1.2500000000e+02 1.2500000000e+02 0.0000e+00 0.0000e+00
      -13  1    1    0    0    0 +4.5123500042e+01 -2.8544033451e+01 +3.2483885095e+01 6.2498848442e+01 1.0566000000e-01 0.0000e+00 -1.0000e+00
       13  1    1    0    0    0 -4.5124336874e+01 +2.8544559095e+01 -3.2484476314e+01 6.2499999981e+01 1.0566000000e-01 0.0000e+00 -1.0000e+00
       22  1    1    0    0    0 +8.3683212095e-04 -5.2564383424e-04 +5.9121857162e-04 1.1515766751e-03 0.0000000000e+00 0.0000e+00 -1.0000e+00
</event>
<event>
 4      1 +2.4041262e-06 9.11880000e+01 7.81860800e-03 1.13011600e-01
       25 -1    0    0    0    0 +0.0000000000e+00 +0.0000000000e+00 +9.9999998245e-15 1.2500000000e+02 1.2500000000e+02 0.0000e+00 0.0000e+00
      -11  1    1    0    0    0 +2.6749820324e+01 +1.5541039206e+00 +9.8870760297e+00 2.8560854312e+01 5.1100000000e-04 0.0000e+00 1.0000e+00
       11  1    1    0    0    0 +3.1781341700e+01 +1.8629316737e+00 +1.1761867242e+01 3.3939147249e+01 5.1100000000e-04 0.0000e+00 -1.0000e+00
       22  1    1    0    0    0 -5.8531162024e+01 -3.4170355943e+00 -2.1648943272e+01 6.2499998439e+01 0.0000000000e+00 0.0000e+00 1.0000e+00
</event>
<event>
 4      1 +2.4041262e-06 9.11880000e+01 7.81860800e-03 1.13011600e-01
       25 -1    0    0    0    0 +0.0000000000e+00 +0.0000000000e+00 +9.9999998245e-15 1.2500000000e+02 1.2500000000e+02 0.0000e+00 0.0000e+00
      -11  1    1    0    0    0 +2.1355293556e+01 -2.2647442977e+01 -5.2110517957e+01 6.0699763742e+01 5.1100000000e-04 0.0000e+00 1.0000e+00
       11  1    1    0    0    0 +6.2266513691e-01 -6.9187921685e-01 -1.5410078435e+00 1.8003094618e+00 5.1100000000e-04 0.0000e+00 -1.0000e+00
       22  1    1    0    0    0 -2.1977958693e+01 +2.3339322194e+01 +5.3651525801e+01 6.2499926796e+01 0.0000000000e+00 0.0000e+00 1.0000e+00
</event>
<event>
 4      1 +2.4041262e-06 9.11880000e+01 7.81860800e-03 1.13011600e-01
       25 -1    0    0    0    0 +0.0000000000e+00 +0.0000000000e+00 +9.9999998245e-15 1.2500000000e+02 1.2500000000e+02 0.0000e+00 0.0000e+00
      -13  1    1    0    0    0 -4.4613988976e+00 -1.1791983404e+01 +6.1214833983e+01 6.2499776130e+01 1.0566000000e-01 0.0000e+00 -1.0000e+00
       13  1    1    0    0    0 +4.4614110642e+00 +1.1792026213e+01 -6.1215053402e+01 6.2499999983e+01 1.0566000000e-01 0.0000e+00 -1.0000e+00
       22  1    1    0    0    0 -1.2166602281e-05 -4.2808577397e-05 +2.1941915249e-04 2.2388694690e-04 0.0000000000e+00 0.0000e+00 1.0000e+00
</event>
<event>
 5      1 +2.4041262e-06 9.11880000e+01 7.81860800e-03 1.13011600e-01
       25 -1    0    0    0    0 +0.0000000000e+00 +0.0000000000e+00 +9.9999998245e-15 1.2500000000e+02 1.2500000000e+02 0.0000e+00 0.0000e+00
       23  2    1    0    0    0 +9.0892265787e-01 +2.9502169321e+01 -5.7773507459e-01 9.5478179038e+01 9.0799475547e+01 0.0000e+00 0.0000e+00
      -13  1    2    2    0    0 -4.0775572581e+01 +3.1487847487e+01 +9.8770234971e+00 5.2456635575e+01 1.0566000000e-01 0.0000e+00 1.0000e+00
       13  1    2    2    0    0 +4.1684495239e+01 -1.9856781652e+00 -1.0454758572e+01 4.3021543463e+01 1.0566000000e-01 0.0000e+00 -1.0000e+00
       22  1    1    0    0    0 -9.0892265787e-01 -2.9502169321e+01 +5.7773507459e-01 2.9521820962e+01 0.0000000000e+00 0.0000e+00 1.0000e+00
</event>
<event>
 4      1 +2.4041262e-06 9.11880000e+01 7.81860800e-03 1.13011600e-01
       25 -1    0    0    0    0 +0.0000000000e+00 +0.0000000000e+00 +9.9999998245e-15 1.2500000000e+02 1.2500000000e+02 0.0000e+00 0.0000e+00
      -13  1    1    0    0    0 +1.0199040897e+01 -5.9318777249e+01 +1.6837488121e+01 6.2499999519e+01 1.0566000000e-01 0.0000e+00 -1.0000e+00
       13  1    1    0    0    0 -1.0199041249e+01 +5.9318777630e+01 -1.6837488195e+01 6.2499999957e+01 1.0566000000e-01 0.0000e+00 -1.0000e+00
       22  1    1    0    0    0 +3.5248815456e-07 -3.8060058823e-07 +7.3484470903e-08 5.2393193673e-07 0.0000000000e+00 0.0000e+00 1.0000e+00
</event>
<event>
 5      1 +2.4041262e-06 9.11880000e+01 7.81860800e-03 1.13011600e-01
       25 -1    0    0    0    0 +0.0000000000e+00 +0.0000000000e+00 +9.9999998245e-15 1.2500000000e+02 1.2500000000e+02 0.0000e+00 0.0000e+00
       23  2    1    0    0    0 -6.2016218542e+00 +1.7968530436e+01 -2.2050488281e+01 9.5887249648e+01 9.1360891042e+01 0.0000e+00 0.0000e+00
      -11  1    2    2    0    0 +2.3973467889e+01 +2.4395965816e+01 +2.3048788628e+01 4.1244841716e+01 5.1100000000e-04 0.0000e+00 1.0000e+00
       11  1    2    2    0    0 -3.0175089743e+01 -6.4274353801e+00 -4.5099276909e+01 5.4642407932e+01 5.1100000000e-04 0.0000e+00 -1.0000e+00
       22  1    1    0    0    0 +6.2016218542e+00 -1.7968530436e+01 +2.2050488281e+01 2.9112750352e+01 0.0000000000e+00 0.0000e+00 -1.0000e+00
</event>
<event>
 4      1 +2.4041262e-06 9.11880000e+01 7.81860800e-03 1.13011600e-01
       25 -1    0    0    0    0 +0.0000000000e+00 +0.0000000000e+00 +9.9999998245e-15 1.2500000000e+02 1.2500000000e+02 0.0000e+00 0.0000e+00
      -13  1    1    0    0    0 -5.6097133751e+01 +2.1206202828e+01 +1.7570685359e+01 6.2492652380e+01 1.0566000000e-01 0.0000e+00 1.0000e+00
       13  1    1    0    0    0 +5.6103914399e+01 -2.1208480617e+01 -1.7572395800e+01 6.2499992953e+01 1.0566000000e-01 0.0000e+00 1.0000e+00
       22  1    1    0    0    0 -6.7806478443e-03 +2.2777890966e-03 +1.7104417504e-03 7.3546665009e-03 0.0000000000e+00 0.0000e+00 -1.0000e+00
</event>
<event>
 4      1 +2.4041262e-06 9.11880000e+01 7.81860800e-03 1.13011600e-01
       25 -1    0    0    0    0 +0.0000000000e+00 +0.0000000000e+00 +9.9999998245e-15 1.2500000000e+02 1.2500000000e+02 0.0000e+00 0.0000e+00
      -13  1    1    0    0    0 +5.0801066120e+01 +6.4240590484e+00 -3.5836043063e+01 6.2500000000e+01 1.0566000000e-01 0.0000e+00 -1.0000e+00
       13  1    1    0    0    0 -5.0801065923e+01 -6.4240590214e+00 +3.5836042921e+01 6.2499999756e+01 1.0566000000e-01 0.0000e+00 -1.0000e+00
       22  1    1    0    0    0 -1.9637934047e-07 -2.7050116542e-08 +1.4231161513e-07 2.4402694517e-07 0.0000000000e+00 0.0000e+00 -1.0000e+00
</event>
<event>
 4      1 +2.4041262e-06 9.11880000e+01 7.81860800e-03 1.13011600e-01
       25 -1    0    0    0    0 +0.0000000000e+00 +0.0000000000e+00 +9.9999998245e-15 1.2500000000e+02 1.2500000000e+02 0.0000e+00 0.0000e+00
      -13  1    1    0    0    0 +1.3376546225e+01 +4.1804491576e+00 +5.3431533569e+00 1.4998953160e+01 1.0566000000e-01 0.0000e+00 1.0000e+00
       13  1    1    0    0    0 +3.7259349171e+01 +2.1705930179e+01 +2.0249128547e+01 4.7638690962e+01 1.0566000000e-01 0.0000e+00 -1.0000e+00
       22  1    1    0    0    0 -5.0635895396e+01 -2.5886379336e+01 -2.5592281904e+01 6.2362355879e+01 0.0000000000e+00 0.0000e+00 -1.0000e+00
</event>
<event>
 4      1 +2.4041262e-06 9.11880000e+01 7.81860800e-03 1.13011600e-01
       25 -1    0    0    0    0 +0.0000000000e+00 +0.0000000000e+00 +9.9999998245e-15 1.2500000000e+02 1.2500000000e+02 0.0000e+00 0.0000e+00
      -13  1    1    0    0    0 +1.7080245398e+01 +1.6845263473e+00 +5.6251949688e+01 5.8812119666e+01 1.0566000000e-01 0.0000e+00 -1.0000e+00
       13  1    1    0    0    0 -1.8137463828e+01 -1.7976049445e+00 -5.9783253661e+01 6.2499980480e+01 1.0566000000e-01 0.0000e+00 -1.0000e+00
       22  1    1    0    0    0 +1.0572184307e+00 +1.1307859723e-01 +3.5313039729e+00 3.6878998534e+00 0.0000000000e+00 0.0000e+00 1.0000e+00
</event>
<event>
 4      1 +2.4041262e-06 9.11880000e+01 7.81860800e-03 1.13011600e-01
       25 -1    0    0    0    0 +0.0000000000e+00 +0.0000000000e+00 +9.9999998245e-15 1.2500000000e+02 1.2500000000e+02 0.0000e+00 0.0000e+00
      -13  1    1    0    0    0 +2.8187752190e+01 -4.7786242929e+01 -2.8775935514e+01 6.2499120118e+01 1.0566000000e-01 0.0000e+00 -1.0000e+00
       13  1    1    0    0    0 -2.8188171764e+01 +4.7786896309e+01 +2.8776349923e+01 6.2499999721e+01 1.0566000000e-01 0.0000e+00 -1.0000e+00
       22  1    1    0    0    0 +4.1957360450e-04 -6.5338012091e-04 -4.1440853149e-04 8.8016022574e-04 0.0000000000e+00 0.0000e+00 -1.0000e+00
</event>
<event>
 4      1 +2.4041262e-06 9.11880000e+01 7.81860800e-03 1.13011600e-01
       25 -1    0    0    0    0 +0.0000000000e+00 +0.0000000000e+00 +9.9999998245e-15 1.2500000000e+02 1.2500000000e+02 0.0000e+00 0.0000e+00
      -13  1    1    0    0    0 +5.9824488330e+01 -2.6056528164e+00 -1.7899997102e+01 6.2499439124e+01 1.0566000000e-01 0.0000e+00 -1.0000e+00
       13  1    1    0    0    0 -5.9825033335e+01 +2.6057075162e+00 +1.7900122429e+01 6.2499998978e+01 1.0566000000e-01 0.0000e+00 -1.0000e+00
       22  1    1    0    0    0 +5.4500554895e-04 -5.4699782489e-05 -1.2532737097e-04 5.6189862476e-04 0.0000000000e+00 0.0000e+00 1.0000e+00
</event>
<event>
 4      1 +2.4041262e-06 9.11880000e+01 7.81860800e-03 1.13011600e-01
       25 -1    0    0    0    0 +0.0000000000e+00 +0.0000000000e+00 +9.9999998245e-15 1.2500000000e+02 1.2500000000e+02 0.0000e+00 0.0000e+00
      -13  1    1    0    0    0 -4.8774184607e+01 +1.9741694442e+01 -3.3727349521e+01 6.2499606825e+01 1.0566000000e-01 0.0000e+00 1.0000e+00
       13  1    1    0    0    0 +4.8772466613e+01 -1.9738339543e+01 +3.3725335923e+01 6.2496119836e+01 1.0566000000e-01 0.0000e+00 1.0000e+00
       22  1    1    0    0    0 +1.7179943496e-03 -3.3548991421e-03 +2.0135973155e-03 4.2733390911e-03 0.0000000000e+00 0.0000e+00 -1.0000e+00
</event>
<event>
 4      1 +2.4041262e-06 9.11880000e+01 7.81860800e-03 1.13011600e-01
       25 -1    0    0    0    0 +0.0000000000e+00 +0.0000000000e+00 +9.9999998245e-15 1.2500000000e+02 1.2500000000e+02 0.0000e+00 0.0000e+00
      -13  1    1    0    0    0 -2.6253708558e+01 +1.6772830568e+01 +5.4181657727e+01 6.2499986051e+01 1.0566000000e-01 0.0000e+00 -1.0000e+00
       13  1    1    0    0    0 +2.6253716649e+01 -1.6772837529e+01 -5.4181667297e+01 6.2499999614e+01 1.0566000000e-01 0.0000e+00 -1.0000e+00
       22  1    1    0    0    0 -8.0909410001e-06 +6.9609991214e-06 +9.5696146680e-06 1.4335144224e-05 0.0000000000e+00 0.0000e+00 -1.0000e+00
</event>
<event>
 4      1 +2.4041262e-06 9.11880000e+01 7.81860800e-03 1.13011600e-01
       25 -1    0    0    0    0 +0.0000000000e+00 +0.0000000000e+00 +9.9999998245e-15 1.2500000000e+02 1.2500000000e+02 0.0000e+00 0.0000e+00
      -13  1    1    0    0    0 -3.5448372067e+01 +2.0789003148e+01 -4.7089907526e+01 6.2499922312e+01 1.0566000000e-01 0.0000e+00 -1.0000e+00
       13  1    1    0    0    0 +3.5448421180e+01 -2.0789020658e+01 +4.7089965530e+01 6.2499999694e+01 1.0566000000e-01 0.0000e+00 -1.0000e+00
       22  1    1    0    0    0 -4.9113394181e-05 +1.7509541391e-05 -5.8003454935e-05 7.7994296664e-05 0.0000000000e+00 0.0000e+00 1.0000e+00
</event>
<event>
 4      1 +2.4041262e-06 9.11880000e+01 7.81860800e-03 1.13011600e-01
       25 -1    0    0    0    0 +0.0000000000e+00 +0.0000000000e+00 +9.9999998245e-15 1.2500000000e+02 1.2500000000e+02 0.0000e+00 0.0000e+00
      -13  1    1    0    0    0 -2.6948337674e+01 -5.1364751473e+01 -2.3274196839e+01 6.2499999999e+01 1.0566000000e-01 0.0000e+00 1.0000e+00
       13  1    1    0    0    0 +2.6948336293e+01 +5.1364748924e+01 +2.3274195556e+01 6.2499996830e+01 1.0566000000e-01 0.0000e+00 1.0000e+00
       22  1    1    0    0    0 +1.3811933986e-06 +2.5498036665e-06 +1.2825251897e-06 3.1708145333e-06 0.0000000000e+00 0.0000e+00 -1.0000e+00
</event>
<event>
 4      1 +2.4041262e-06 9.11880000e+01 7.81860800e-03 1.13011600e-01
       25 -1    0    0    0    0 +0.0000000000e+00 +0.0000000000e+00 +9.9999998245e-15 1.2500000000e+02 1.2500000000e+02 0.0000e+00 0.0000e+00
      -13  1    1    0    0    0 +5.0088528792e+01 +2.0740973103e+01 +3.1099661311e+01 6.2499990236e+01 1.0566000000e-01 0.0000e+00 1.0000e+00
       13  1    1    0    0    0 -5.0088532773e+01 -2.0740980378e+01 -3.1099667947e+01 6.2499999143e+01 1.0566000000e-01 0.0000e+00 1.0000e+00
       22  1    1    0    0    0 +3.9804966480e-06 +7.2749810788e-06 +6.6363802960e-06 1.0621263893e-05 0.0000000000e+00 0.0000e+00 -1.0000e+00
</event>
<event>
 4      1 +2.4041262e-06 9.11880000e+01 7.81860800e-03 1.13011600e-01
       25 -1    0    0    0    0 +0.0000000000e+00 +0.0000000000e+00 +9.9999998245e-15 1.2500000000e+02 1.2500000000e+02 0.0000e+00 0.0000e+00
      -13  1    1    0    0    0 +5.1665988897e+01 +1.4139486396e+01 -3.2201542684e+01 6.2499999996e+01 1.0566000000e-01 0.0000e+00 -1.0000e+00
       13  1    1    0    0    0 -5.1665988900e+01 -1.4139486396e+01 +3.2201542686e+01 6.2500000000e+01 1.0566000000e-01 0.0000e+00 -1.0000e+00
       22  1    1    0    0    0 +3.4526144525e-09 +6.7060442294e-10 -1.9619298989e-09 4.0273348232e-09 0.0000000000e+00 0.0000e+00 -1.0000e+00
</event>
<event>
 4      1 +2.4041262e-06 9.11880000e+01 7.81860800e-03 1.13011600e-01
       25 -1    0    0    0    0 +0.0000000000e+00 +0.0000000000e+00 +9.9999998245e-15 1.2500000000e+02 1.2500000000e+02 0.0000e+00 0.0000e+00
      -13  1    1    0    0    0 -3.5098078273e+00 +5.6109206097e+01 +2.7305410593e+01 6.2499266967e+01 1.0566000000e-01 0.0000e+00 -1.0000e+00
       13  1    1    0    0    0 +3.5148679396e+00 -5.6099726600e+01 -2.7301057831e+01 6.2489139408e+01 1.0566000000e-01 0.0000e+00 -1.0000e+00
       22  1    1    0    0    0 -5.0601123024e-03 -9.4794963260e-03 -4.3527618648e-03 1.1593624237e-02 0.0000000000e+00 0.0000e+00 -1.0000e+00
</event>
<event>
 4      1 +2.4041262e-06 9.11880000e+01 7.81860800e-03 1.13011600e-01
       25 -1    0    0    0    0 +0.0000000000e+00 +0.0000000000e+00 +9.9999998245e-15 1.2500000000e+02 1.2500000000e+02 0.0000e+00 0.0000e+00
      -13  1    1    0    0    0 -4.0630923030e+00 -6.2366634522e+01 +3.6470758402e-01 6.2499999970e+01 1.0566000000e-01 0.0000e+00 -1.0000e+00
       13  1    1    0    0    0 +4.0630922791e+00 +6.2366634545e+01 -3.6470760029e-01 6.2499999992e+01 1.0566000000e-01 0.0000e+00 -1.0000e+00
       22  1    1    0    0    0 +2.3938684294e-08 -2.3761097094e-08 +1.6272945441e-08 3.7449420477e-08 0.0000000000e+00 0.0000e+00 1.0000e+00
</event>
<event>
 5      1 +2.4041262e-06 9.11880000e+01 7.81860800e-03 1.13011600e-01
       25 -1    0    0    0    0 +0.0000000000e+00 +0.0000000000e+00 +9.9999998245e-15 1.2500000000e+02 1.2500000000e+02 0.0000e+00 0.0000e+00
       23  2    1    0    0    0 +8.3398240402e+00 -1.7251696834e+01 +2.3315913319e+01 9.4820445289e+01 8.9889439436e+01 0.0000e+00 0.0000e+00
      -11  1    2    2    0    0 +5.1004384800e+00 +3.0300601233e+01 -1.4501948435e+01 3.3977160218e+01 5.1100000000e-04 0.0000e+00 1.0000e+00
       11  1    2    2    0    0 +3.2393855602e+00 -4.7552298068e+01 +3.7817861754e+01 6.0843285071e+01 5.1100000000e-04 0.0000e+00 -1.0000e+00
       22  1    1    0    0    0 -8.3398240402e+00 +1.7251696834e+01 -2.3315913319e+01 3.0179554711e+01 0.0000000000e+00 0.0000e+00 -1.0000e+00
</event>
<event>
 4      1 +2.4041262e-06 9.11880000e+01 7.81860800e-03 1.13011600e-01
       25 -1    0    0    0    0 +0.0000000000e+00 +0.0000000000e+00 +9.9999998245e-15 1.2500000000e+02 1.2500000000e+02 0.0000e+00 0.0000e+00
      -13  1    1    0    0    0 -9.8018104093e+00 -6.1342232555e+01 +6.8770526961e+00 6.2500000000e+01 1.0566000000e-01 0.0000e+00 -1.0000e+00
       13  1    1    0    0    0 +9.8018104093e+00 +6.1342232555e+01 -6.8770526961e+00 6.2500000000e+01 1.0566000000e-01 0.0000e+00 -1.0000e+00
       22  1    1    0    0    0 +4.4435081691e-11 +4.2124934940e-10 -8.6660109744e-11 4.3236034216e-10 0.0000000000e+00 0.0000e+00 -1.0000e+00
</event>
<event>
 4      1 +2.4041262e-06 9.11880000e+01 7.81860800e-03 1.13011600e-01
       25 -1    0    0    0    0 +0.0000000000e+00 +0.0000000000e+00 +9.9999998245e-15 1.2500000000e+02 1.2500000000e+02 0.0000e+00 0.0000e+00
      -13  1    1    0    0    0 +1.6944852309e+01 -1.7611197833e+01 -4.0612255766e+00 2.4774725551e+01 1.0566000000e-01 0.0000e+00 -1.0000e+00
       13  1    1    0    0    0 -4.3659101208e+01 -2.1484611296e+01 -1.2190162603e+01 5.0162903316e+01 1.0566000000e-01 0.0000e+00 1.0000e+00
       22  1    1    0    0    0 +2.6714248898e+01 +3.9095809129e+01 +1.6251388179e+01 5.0062371133e+01 0.0000000000e+00 0.0000e+00 1.0000e+00
</event>
<event>
 5      1 +2.4041262e-06 9.11880000e+01 7.81860800e-03 1.13011600e-01
       25 -1    0    0    0    0 +0.0000000000e+00 +0.0000000000e+00 +9.9999998245e-15 1.2500000000e+02 1.2500000000e+02 0.0000e+00 0.0000e+00
       23  2    1    0    0    0 -2.4386483725e+00 +2.7735893670e+01 -2.2688621687e+00 9.7064815392e+01 9.2958075755e+01 0.0000e+00 0.0000e+00
      -13  1    2    2    0    0 +3.3970426049e+01 -4.6973213774e+00 -2.5808306902e+01 4.2920094865e+01 1.0566000000e-01 0.0000e+00 -1.0000e+00
       13  1    2    2    0    0 -3.6409074421e+01 +3.2433215047e+01 +2.3539444734e+01 5.4144720527e+01 1.0566000000e-01 0.0000e+00 1.0000e+00
       22  1    1    0    0    0 +2.4386483725e+00 -2.7735893670e+01 +2.2688621687e+00 2.7935184608e+01 0.0000000000e+00 0.0000e+00 1.0000e+00
</event>
<event>
 4      1 +2.4041262e-06 9.11880000e+01 7.81860800e-03 1.13011600e-01
       25 -1    0    0    0    0 +0.0000000000e+00 +0.0000000000e+00 +9.9999998245e-15 1.2500000000e+02 1.2500000000e+02 0.0000e+00 0.0000e+00
      -11  1    1    0    0    0 +1.6674418732e+01 +5.4897287864e+01 +6.7637059625e+00 5.7771066924e+01 5.1100000000e-04 0.0000e+00 -1.0000e+00
       11  1    1    0    0    0 +1.3649161870e+00 +4.4937291563e+00 +5.5336247702e-01 4.7289330953e+00 5.1100000000e-04 0.0000e+00 -1.0000e+00
       22  1    1    0    0    0 -1.8039334919e+01 -5.9391017021e+01 -7.3170684395e+00 6.2499999981e+01 0.0000000000e+00 0.0000e+00 -1.0000e+00
</event>
<event>
 4      1 +2.4041262e-06 9.11880000e+01 7.81860800e-03 1.13011600e-01
       25 -1    0    0    0    0 +0.0000000000e+00 +0.0000000000e+00 +9.9999998245e-15 1.2500000000e+02 1.2500000000e+02 0.0000e+00 0.0000e+00
      -13  1    1    0    0    0 +4.8770680382e+01 +1.1056895857e+01 -3.3395605068e+01 6.0134115216e+01 1.0566000000e-01 0.0000e+00 -1.0000e+00
       13  1    1    0    0    0 -5.0677379512e+01 -1.1479095020e+01 +3.4731285882e+01 6.2499918398e+01 1.0566000000e-01 0.0000e+00 -1.0000e+00
       22  1    1    0    0    0 +1.9066991295e+00 +4.2219916273e-01 -1.3356808138e+00 2.3659663860e+00 0.0000000000e+00 0.0000e+00 -1.0000e+00
</event>
<event>
 4      1 +2.4041262e-06 9.11880000e+01 7.81860800e-03 1.13011600e-01
       25 -1    0    0    0    0 +0.0000000000e+00 +0.0000000000e+00 +9.9999998245e-15 1.2500000000e+02 1.2500000000e+02 0.0000e+00 0.0000e+00
      -13  1    1    0    0    0 -5.2406140172e+01 +3.3619436148e+01 -5.4344868971e+00 6.2499718611e+01 1.0566000000e-01 0.0000e+00 -1.0000e+00
       13  1    1    0    0    0 +5.2384773469e+01 -3.3611650611e+01 +5.4332356266e+00 6.2477506045e+01 1.0566000000e-01 0.0000e+00 -1.0000e+00
       22  1    1    0    0    0 +2.1366703245e-02 -7.7855360645e-03 +1.2512705252e-03 2.2775343187e-02 0.0000000000e+00 0.0000e+00 1.0000e+00
</event>
<event>
 4      1 +2.4041262e-06 9.11880000e+01 7.81860800e-03 1.13011600e-01
       25 -1    0    0    0    0 +0.0000000000e+00 +0.0000000000e+00 +9.9999998245e-15 1.2500000000e+02 1.2500000000e+02 0.0000e+00 0.0000e+00
      -13  1    1    0    0    0 +1.3115701868e+01 +5.1498129224e+01 -3.2894589468e+01 6.2499153029e+01 1.0566000000e-01 0.0000e+00 -1.0000e+00
       13  1    1    0    0    0 -1.3115846538e+01 -5.1498799137e+01 +3.2895089527e+01 6.2499998577e+01 1.0566000000e-01 0.0000e+00 -1.0000e+00
       22  1    1    0    0    0 +1.4467069925e-04 +6.6991312377e-04 -5.0005937734e-04 8.4839412156e-04 0.0000000000e+00 0.0000e+00 1.0000e+00
</event>
<event>
 5      1 +2.4041262e-06 9.11880000e+01 7.81860800e-03 1.13011600e-01
       25 -1    0    0    0    0 +0.0000000000e+00 +0.0000000000e+00 +9.9999998245e-15 1.2500000000e+02 1.2500000000e+02 0.0000e+00 0.0000e+00
       23  2    1    0    0    0 +2.4060326124e+01 -2.4868979775e+01 +4.9529247114e+00 9.0044357946e+01 8.2982464933e+01 0.0000e+00 0.0000e+00
      -13  1    2    2    0    0 +5.2528472408e+00 -1.3188676446e+01 +4.3408496247e+01 4.5671022552e+01 1.0566000000e-01 0.0000e+00 -1.0000e+00
       13  1    2    2    0    0 +1.8807478883e+01 -1.1680303329e+01 -3.8455571535e+01 4.4373335393e+01 1.0566000000e-01 0.0000e+00 1.0000e+00
       22  1    1    0    0    0 -2.4060326124e+01 +2.4868979775e+01 -4.9529247114e+00 3.4955642054e+01 0.0000000000e+00 0.0000e+00 -1.0000e+00
</event>
<event>
 5      1 +2.4041262e-06 9.11880000e+01 7.81860800e-03 1.13011600e-01
       25 -1    0    0    0    0 +0.0000000000e+00 +0.0000000000e+00 +9.9999998245e-15 1.2500000000e+02 1.2500000000e+02 0.0000e+00 0.0000e+00
       23  2    1    0    0    0 -8.7035690127e+00 +8.9968006809e+00 +1.9315280513e+01 1.0198316709e+02 9.9351858421e+01 0.0000e+00 0.0000e+00
      -11  1    2    2    0    0 -5.2569150649e+01 -7.1820403452e+00 +6.1619997229e+00 5.3414113719e+01 5.1100000000e-04 0.0000e+00 1.0000e+00
       11  1    2    2    0    0 +4.3865581637e+01 +1.6178841026e+01 +1.3153280790e+01 4.8569053368e+01 5.1100000000e-04 0.0000e+00 -1.0000e+00
       22  1    1    0    0    0 +8.7035690127e+00 -8.9968006809e+00 -1.9315280513e+01 2.3016832913e+01 0.0000000000e+00 0.0000e+00 1.0000e+00
</event>
<event>
 4      1 +2.4041262e-06 9.11880000e+01 7.81860800e-03 1.13011600e-01
       25 -1    0    0    0    0 +0.0000000000e+00 +0.0000000000e+00 +9.9999998245e-15 1.2500000000e+02 1.2500000000e+02 0.0000e+00 0.0000e+00
      -13  1    1    0    0    0 +8.0940304192e+00 -3.6755474761e+01 -4.9897500717e+01 6.2499999961e+01 1.0566000000e-01 0.0000e+00 1.0000e+00
       13  1    1    0    0    0 -8.0940305066e+00 +3.6755474767e+01 +4.9897500489e+01 6.2499999794e+01 1.0566000000e-01 0.0000e+00 1.0000e+00
       22  1    1    0    0    0 +8.7474475783e-08 -6.1123030790e-09 +2.2843309629e-07 2.4468515207e-07 0.0000000000e+00 0.0000e+00 -1.0000e+00
</event>
<event>
 4      1 +2.4041262e-06 9.11880000e+01 7.81860800e-03 1.13011600e-01
       25 -1    0    0    0    0 +0.0000000000e+00 +0.0000000000e+00 +9.9999998245e-15 1.2500000000e+02 1.2500000000e+02 0.0000e+00 0.0000e+00
      -13  1    1    0    0    0 -2.6566676607e+01 +4.3126127334e+01 +1.8115064815e+01 5.3794218110e+01 1.0566000000e-01 0.0000e+00 1.0000e+00
       13  1    1    0    0    0 -6.1453114985e+00 +4.2043693711e+00 +5.2462127162e+00 9.1090881608e+00 1.0566000000e-01 0.0000e+00 -1.0000e+00
       22  1    1    0    0    0 +3.2711988106e+01 -4.7330496705e+01 -2.3361277531e+01 6.2096693729e+01 0.0000000000e+00 0.0000e+00 1.0000e+00
</event>
<event>
 5      1 +2.4041262e-06 9.11880000e+01 7.81860800e-03 1.13011600e-01
       25 -1    0    0    0    0 +0.0000000000e+00 +0.0000000000e+00 +9.9999998245e-15 1.2500000000e+02 1.2500000000e+02 0.0000e+00 0.0000e+00
       23  2    1    0    0    0 -2.0558561436e+01 +6.5725762534e+00 +1.5815392646e+01 9.8242200175e+01 9.4528038400e+01 0.0000e+00 0.0000e+00
      -11  1    2    2    0    0 +3.4303626183e+01 -4.5021891813e+00 -1.0831596704e+01 3.6253716556e+01 5.1100000000e-04 0.0000e+00 1.0000e+00
       11  1    2    2    0    0 -5.4862187619e+01 +1.1074765435e+01 +2.6646989350e+01 6.1988483619e+01 5.1100000000e-04 0.0000e+00 -1.0000e+00
       22  1    1    0    0    0 +2.0558561436e+01 -6.5725762534e+00 -1.5815392646e+01 2.6757799825e+01 0.0000000000e+00 0.0000e+00 -1.0000e+00
</event>
<event>
 4      1 +2.4041262e-06 9.11880000e+01 7.81860800e-03 1.13011600e-01
       25 -1    0    0    0    0 +0.0000000000e+00 +0.0000000000e+00 +9.9999998245e-15 1.2500000000e+02 1.2500000000e+02 0.0000e+00 0.0000e+00
      -13  1    1    0    0    0 -4.8101994522e+01 -8.1193827912e+00 +3.9070610208e+01 6.2500000000e+01 1.0566000000e-01 0.0000e+00 1.0000e+00
       13  1    1    0    0    0 +4.8101991876e+01 +8.1193823452e+00 -3.9070608091e+01 6.2499996582e+01 1.0566000000e-01 0.0000e+00 1.0000e+00
       22  1    1    0    0    0 +2.6459138666e-06 +4.4602639084e-07 -2.1170410893e-06 3.4178447456e-06 0.0000000000e+00 0.0000e+00 -1.0000e+00
</event>
<event>
 4      1 +2.4041262e-06 9.11880000e+01 7.81860800e-03 1.13011600e-01
       25 -1    0    0    0    0 +0.0000000000e+00 +0.0000000000e+00 +9.9999998245e-15 1.2500000000e+02 1.2500000000e+02 0.0000e+00 0.0000e+00
      -13  1    1    0    0    0 +6.0775373229e+01 +1.4487193632e+01 +1.6403102416e+00 6.2499812417e+01 1.0566000000e-01 0.0000e+00 -1.0000e+00
       13  1    1    0    0    0 -6.0775555613e+01 -1.4487234653e+01 -1.6403284741e+00 6.2499999756e+01 1.0566000000e-01 0.0000e+00 -1.0000e+00
       22  1    1    0    0    0 +1.8238405939e-04 +4.1021179371e-05 +1.8232527237e-05 1.8782733381e-04 0.0000000000e+00 0.0000e+00 1.0000e+00
</event>
<event>
 4      1 +2.4041262e-06 9.11880000e+01 7.81860800e-03 1.13011600e-01
       25 -1    0    0    0    0 +0.0000000000e+00 +0.0000000000e+00 +9.9999998245e-15 1.2500000000e+02 1.2500000000e+02 0.0000e+00 0.0000e+00
      -13  1    1    0    0    0 -3.4428186480e+01 +4.2941366573e+01 +2.9596080241e+01 6.2491600372e+01 1.0566000000e-01 0.0000e+00 1.0000e+00
       13  1    1    0    0    0 +3.4432599488e+01 -4.2947225294e+01 -2.9600177618e+01 6.2499997976e+01 1.0566000000e-01 0.0000e+00 1.0000e+00
       22  1    1    0    0    0 -4.4130078064e-03 +5.8587215703e-03 +4.0973768124e-03 8.4016518067e-03 0.0000000000e+00 0.0000e+00 -1.0000e+00
</event>
<event>
 4      1 +2.4041262e-06 9.11880000e+01 7.81860800e-03 1.13011600e-01
       25 -1    0    0    0    0 +0.0000000000e+00 +0.0000000000e+00 +9.9999998245e-15 1.2500000000e+02 1.2500000000e+02 0.0000e+00 0.0000e+00
      -13  1    1    0    0    0 +2.8748243568e+01 -5.2730960730e+01 +7.1671401783e+00 6.0484665744e+01 1.0566000000e-01 0.0000e+00 -1.0000e+00
       13  1    1    0    0    0 -2.1561812887e+01 +5.2650196203e+01 -5.6894338939e+00 5.7178105576e+01 1.0566000000e-01 0.0000e+00 -1.0000e+00
       22  1    1    0    0    0 -7.1864306810e+00 +8.0764526463e-02 -1.4777062844e+00 7.3372286801e+00 0.0000000000e+00 0.0000e+00 -1.0000e+00
</event>
<event>
 4      1 +2.4041262e-06 9.11880000e+01 7.81860800e-03 1.13011600e-01
       25 -1    0    0    0    0 +0.0000000000e+00 +0.0000000000e+00 +9.9999998245e-15 1.2500000000e+02 1.2500000000e+02 0.0000e+00 0.0000e+00
      -11  1    1    0    0    0 -1.1648959082e+01 +1.4907869881e+01 -2.4621289436e+01 3.1050776574e+01 5.1100000000e-04 0.0000e+00 -1.0000e+00
       11  1    1    0    0    0 -1.1798940317e+01 +1.5099080822e+01 -2.4937049142e+01 3.1449223431e+01 5.1100000000e-04 0.0000e+00 -1.0000e+00
       22  1    1    0    0    0 +2.3447899399e+01 -3.0006950703e+01 +4.9558338578e+01 6.2499999995e+01 0.0000000000e+00 0.0000e+00 -1.0000e+00
</event>
<event>
 4      1 +2.4041262e-06 9.11880000e+01 7.81860800e-03 1.13011600e-01
       25 -1    0    0    0    0 +0.0000000000e+00 +0.0000000000e+00 +9.9999998245e-15 1.2500000000e+02 1.2500000000e+02 0.0000e+00 0.0000e+00
      -13  1    1    0    0    0 -1.6333281557e+01 -5.0309917881e+01 -3.3292124743e+01 6.2499925260e+01 1.0566000000e-01 0.0000e+00 -1.0000e+00
       13  1    1    0    0    0 +1.6333292586e+01 +5.0309952092e+01 +3.3292196905e+01 6.2499994120e+01 1.0566000000e-01 0.0000e+00 -1.0000e+00
       22  1    1    0    0    0 -1.1029130823e-05 -3.4211555097e-05 -7.2162812164e-05 8.0619747507e-05 0.0000000000e+00 0.0000e+00 -1.0000e+00
</event>
<event>
 4      1 +2.4041262e-06 9.11880000e+01 7.81860800e-03 1.13011600e-01
       25 -1    0    0    0    0 +0.0000000000e+00 +0.0000000000e+00 +9.9999998245e-15 1.2500000000e+02 1.2500000000e+02 0.0000e+00 0.0000e+00
      -13  1    1    0    0    0 -3.0742562513e+01 -4.2675041194e+01 +3.3763509075e+01 6.2499999999e+01 1.0566000000e-01 0.0000e+00 1.0000e+00
       13  1    1    0    0    0 +3.0742562514e+01 +4.2675041195e+01 -3.3763509075e+01 6.2500000000e+01 1.0566000000e-01 0.0000e+00 1.0000e+00
       22  1    1    0    0    0 -3.7096748716e-10 -4.2956298365e-10 +3.4592385934e-10 6.6468379694e-10 0.0000000000e+00 0.0000e+00 -1.0000e+00
</event>
<event>
 4      1 +2.4041262e-06 9.11880000e+01 7.81860800e-03 1.13011600e-01
       25 -1    0    0    0    0 +0.0000000000e+00 +0.0000000000e+00 +9.9999998245e-15 1.2500000000e+02 1.2500000000e+02 0.0000e+00 0.0000e+00
      -13  1    1    0    0    0 -6.1478660075e+01 +2.8976013950e-01 -1.1243042628e+01 6.2499014209e+01 1.0566000000e-01 0.0000e+00 -1.0000e+00
       13  1    1    0    0    0 +6.1479629908e+01 -2.8976077559e-01 +1.1243219310e+01 6.2499999995e+01 1.0566000000e-01 0.0000e+00 -1.0000e+00
       22  1    1    0    0    0 -9.6983272767e-04 +6.3609098603e-07 -1.7668166877e-04 9.8579528115e-04 0.0000000000e+00 0.0000e+00 -1.0000e+00
</event>
<event>
 4      1 +2.4041262e-06 9.11880000e+01 7.81860800e-03 1.13011600e-01
       25 -1    0    0    0    0 +0.0000000000e+00 +0.0000000000e+00 +9.9999998245e-15 1.2500000000e+02 1.2500000000e+02 0.0000e+00 0.0000e+00
      -11  1    1    0    0    0 -2.0226439746e+00 +1.6207983998e+00 -1.2129415555e+01 1.2403257558e+01 5.1100000000e-04 0.0000e+00 -1.0000e+00
       11  1    1    0    0    0 -7.4686961332e+00 +5.6033056127e+00 -4.9220395839e+01 5.0098161867e+01 5.1100000000e-04 0.0000e+00 1.0000e+00
       22  1    1    0    0    0 +9.4913401079e+00 -7.2241040125e+00 +6.1349811393e+01 6.2498580574e+01 0.0000000000e+00 0.0000e+00 1.0000e+00
</event>
<event>
 4      1 +2.4041262e-06 9.11880000e+01 7.81860800e-03 1.13011600e-01
       25 -1    0    0    0    0 +0.0000000000e+00 +0.0000000000e+00 +9.9999998245e-15 1.2500000000e+02 1.2500000000e+02 0.0000e+00 0.0000e+00
      -13  1    1    0    0    0 +4.0066854946e+01 +1.9901108548e+01 +4.3644379350e+01 6.2499999997e+01 1.0566000000e-01 0.0000e+00 -1.0000e+00
       13  1    1    0    0    0 -4.0066854949e+01 -1.9901108550e+01 -4.3644379350e+01 6.2499999999e+01 1.0566000000e-01 0.0000e+00 -1.0000e+00
       22  1    1    0    0    0 +2.9147647840e-09 +2.0244309772e-09 -1.0156198367e-10 3.5502801809e-09 0.0000000000e+00 0.0000e+00 -1.0000e+00
</event>
<event>
 5      1 +2.4041262e-06 9.11880000e+01 7.81860800e-03 1.13011600e-01
       25 -1    0    0    0    0 +0.0000000000e+00 +0.0000000000e+00 +9.9999998245e-15 1.2500000000e+02 1.2500000000e+02 0.0000e+00 0.0000e+00
       23  2    1    0    0    0 +1.1660701813e+01 +4.5360425864e+00 +2.6501365477e+01 9.5693515713e+01 9.1095438570e+01 0.0000e+00 0.0000e+00
      -13  1    2    2    0    0 -3.9105542069e+01 -9.2328813654e-01 +2.0839619671e+01 4.4321516147e+01 1.0566000000e-01 0.0000e+00 -1.0000e+00
       13  1    2    2    0    0 +5.0766243882e+01 +5.4593307230e+00 +5.6617458059e+00 5.1371999566e+01 1.0566000000e-01 0.0000e+00 1.0000e+00
       22  1    1    0    0    0 -1.1660701813e+01 -4.5360425864e+00 -2.6501365477e+01 2.9306484287e+01 0.0000000000e+00 0.0000e+00 -1.0000e+00
</event>
<event>
 4      1 +2.4041262e-06 9.11880000e+01 7.81860800e-03 1.13011600e-01
       25 -1    0    0    0    0 +0.0000000000e+00 +0.0000000000e+00 +9.9999998245e-15 1.2500000000e+02 1.2500000000e+02 0.0000e+00 0.0000e+00
      -11  1    1    0    0    0 +3.5702347149e+01 +4.6991508687e+01 -1.5873595747e+01 6.1113259796e+01 5.1100000000e-04 0.0000e+00 -1.0000e+00
       11  1    1    0    0    0 +8.1051345608e-01 +1.0665551999e+00 -3.5857717058e-01 1.3867407491e+00 5.1100000000e-04 0.0000e+00 1.0000e+00
       22  1    1    0    0    0 -3.6512860606e+01 -4.8058063887e+01 +1.6232172918e+01 6.2499999455e+01 0.0000000000e+00 0.0000e+00 -1.0000e+00
</event>
<event>
 4      1 +2.4041262e-06 9.11880000e+01 7.81860800e-03 1.13011600e-01
       25 -1    0    0    0    0 +0.0000000000e+00 +0.0000000000e+00 +9.9999998245e-15 1.2500000000e+02 1.2500000000e+02 0.0000e+00 0.0000e+00
      -13  1    1    0    0    0 -4.5025382776e+01 -2.3203372536e+01 -3.6613619009e+01 6.2499998817e+01 1.0566000000e-01 0.0000e+00 1.0000e+00
       13  1    1    0    0    0 +4.5025348334e+01 +2.3203364061e+01 +3.6613606661e+01 6.2499963625e+01 1.0566000000e-01 0.0000e+00 1.0000e+00
       22  1    1    0    0    0 +3.4441950943e-05 +8.4749748050e-06 +1.2347850244e-05 3.7557190901e-05 0.0000000000e+00 0.0000e+00 1.0000e+00
</event>
<event>
 4      1 +2.4041262e-06 9.11880000e+01 7.81860800e-03 1.13011600e-01
       25 -1    0    0    0    0 +0.0000000000e+00 +0.0000000000e+00 +9.9999998245e-15 1.2500000000e+02 1.2500000000e+02 0.0000e+00 0.0000e+00
      -11  1    1    0    0    0 +6.9917128913e+00 -1.6040735582e+01 +3.7164852635e+01 4.1078163528e+01 5.1100000000e-04 0.0000e+00 1.0000e+00
       11  1    1    0    0    0 +1.7504191943e+00 -8.8639135549e+00 +1.9455777966e+01 2.1451345585e+01 5.1100000000e-04 0.0000e+00 -1.0000e+00
       22  1    1    0    0    0 -8.7421320855e+00 +2.4904649137e+01 -5.6620630601e+01 6.2470490887e+01 0.0000000000e+00 0.0000e+00 1.0000e+00
</event>
<event>
 4      1 +2.4041262e-06 9.11880000e+01 7.81860800e-03 1.13011600e-01
       25 -1    0    0    0    0 +0.0000000000e+00 +0.0000000000e+00 +9.9999998245e-15 1.2500000000e+02 1.2500000000e+02 0.0000e+00 0.0000e+00
      -13  1    1    0    0    0 -3.0771025056e+01 -3.8357722855e+01 +3.8514053893e+01 6.2462103686e+01 1.0566000000e-01 0.0000e+00 -1.0000e+00
       13  1    1    0    0    0 +2.7977380617e+01 +3.5840782636e+01 -3.4845183711e+01 5.7284321747e+01 1.0566000000e-01 0.0000e+00 -1.0000e+00
       22  1    1    0    0    0 +2.7936444390e+00 +2.5169402191e+00 -3.6688701823e+00 5.2535745671e+00 0.0000000000e+00 0.0000e+00 -1.0000e+00
</event>
<event>
 4      1 +2.4041262e-06 9.11880000e+01 7.81860800e-03 1.13011600e-01
       25 -1    0    0    0    0 +0.0000000000e+00 +0.0000000000e+00 +9.9999998245e-15 1.2500000000e+02 1.2500000000e+02 0.0000e+00 0.0000e+00
      -11  1    1    0    0    0 -5.5519693429e+01 -4.6137660391e+00 +1.3288275878e+01 5.7273916154e+01 5.1100000000e-04 0.0000e+00 1.0000e+00
       11  1    1    0    0    0 -5.0660725623e+00 -4.2185449786e-01 +1.2119819704e+00 5.2260839049e+00 5.1100000000e-04 0.0000e+00 -1.0000e+00
       22  1    1    0    0    0 +6.0585765991e+01 +5.0356205370e+00 -1.4500257849e+01 6.2499999941e+01 0.0000000000e+00 0.0000e+00 1.0000e+00
</event>
<event>
 4      1 +2.4041262e-06 9.11880000e+01 7.81860800e-03 1.13011600e-01
       25 -1    0    0    0    0 +0.0000000000e+00 +0.0000000000e+00 +9.9999998245e-15 1.2500000000e+02 1.2500000000e+02 0.0000e+00 0.0000e+00
      -11  1    1    0    0    0 -1.9760044020e+01 +3.1221706794e+01 -2.8364286328e+00 3.7058057726e+01 5.1100000000e-04 0.0000e+00 -1.0000e+00
       11  1    1    0    0    0 -1.3568455172e+01 +2.1433540970e+01 -1.9475047169e+00 2.5441942323e+01 5.1100000000e-04 0.0000e+00 1.0000e+00
       22  1    1    0    0    0 +3.3328499193e+01 -5.2655247764e+01 +4.7839333497e+00 6.2499999951e+01 0.0000000000e+00 0.0000e+00 -1.0000e+00
</event>
<event>
 4      1 +2.4041262e-06 9.11880000e+01 7.81860800e-03 1.13011600e-01
       25 -1    0    0    0    0 +0.0000000000e+00 +0.0000000000e+00 +9.9999998245e-15 1.2500000000e+02 1.2500000000e+02 0.0000e+00 0.0000e+00
      -13  1    1    0    0    0 +9.4014105152e+00 +1.1085259894e+01 +1.1828697621e+01 1.8740297704e+01 1.0566000000e-01 0.0000e+00 -1.0000e+00
       13  1    1    0    0    0 +2.3560450688e+01 +2.5925413902e+01 +2.6236843305e+01 4.3767625401e+01 1.0566000000e-01 0.0000e+00 1.0000e+00
       22  1    1    0    0    0 -3.2961861203e+01 -3.7010673795e+01 -3.8065540926e+01 6.2492076895e+01 0.0000000000e+00 0.0000e+00 1.0000e+00
</event>
<event>
 4      1 +2.4041262e-06 9.11880000e+01 7.81860800e-03 1.13011600e-01
       25 -1    0    0    0    0 +0.0000000000e+00 +0.0000000000e+00 +9.9999998245e-15 1.2500000000e+02 1.2500000000e+02 0.0000e+00 0.0000e+00
      -11  1    1    0    0    0 +3.0166290407e+01 -2.7523347828e+01 -4.6765512790e+01 6.2085046020e+01 5.1100000000e-04 0.0000e+00 1.0000e+00
       11  1    1    0    0    0 +1.9894474633e-01 -1.8594146884e-01 -3.1311195654e-01 4.1496096247e-01 5.1100000000e-04 0.0000e+00 -1.0000e+00
       22  1    1    0    0    0 -3.0365235153e+01 +2.7709289296e+01 +4.7078624746e+01 6.2499993018e+01 0.0000000000e+00 0.0000e+00 1.0000e+00
</event>
<event>
 4      1 +2.4041262e-06 9.11880000e+01 7.81860800e-03 1.13011600e-01
       25 -1    0    0    0    0 +0.0000000000e+00 +0.0000000000e+00 +9.9999998245e-15 1.2500000000e+02 1.2500000000e+02 0.0000e+00 0.0000e+00
      -13  1    1    0    0    0 -6.0170757823e+01 +1.6663674440e+01 +2.7111949890e+00 6.2494478837e+01 1.0566000000e-01 0.0000e+00 1.0000e+00
       13  1    1    0    0    0 +6.0171207383e+01 -1.6652066993e+01 -2.7178997327e+00 6.2492108910e+01 1.0566000000e-01 0.0000e+00 1.0000e+00
       22  1    1    0    0    0 -4.4955954308e-04 -1.1607447101e-02 +6.7047436236e-03 1.3412252571e-02 0.0000000000e+00 0.0000e+00 -1.0000e+00
</event>
<event>
 4      1 +2.4041262e-06 9.11880000e+01 7.81860800e-03 1.13011600e-01
       25 -1    0    0    0    0 +0.0000000000e+00 +0.0000000000e+00 +9.9999998245e-15 1.2500000000e+02 1.2500000000e+02 0.0000e+00 0.0000e+00
      -13  1    1    0    0    0 -1.1862048354e+01 -2.7413181313e+00 -6.1300384410e+01 6.2497770433e+01 1.0566000000e-01 0.0000e+00 -1.0000e+00
       13  1    1    0    0    0 +1.1729119601e+01 +2.7057758597e+00 +6.0915199563e+01 6.2093205518e+01 1.0566000000e-01 0.0000e+00 -1.0000e+00
       22  1    1    0    0    0 +1.3292875266e-01 +3.5542271605e-02 +3.8518484730e-01 4.0902404935e-01 0.0000000000e+00 0.0000e+00 1.0000e+00
</event>
<event>
 4      1 +2.4041262e-06 9.11880000e+01 7.81860800e-03 1.13011600e-01
       25 -1    0    0    0    0 +0.0000000000e+00 +0.0000000000e+00 +9.9999998245e-15 1.2500000000e+02 1.2500000000e+02 0.0000e+00 0.0000e+00
      -13  1    1    0    0    0 +2.7975310667e+00 +9.3175696664e+00 -2.4960722397e+01 2.6789776244e+01 1.0566000000e-01 0.0000e+00 -1.0000e+00
       13  1    1    0    0    0 -7.0070900258e+00 -3.7020972100e+01 -2.1921958317e+01 4.3591686207e+01 1.0566000000e-01 0.0000e+00 1.0000e+00
       22  1    1    0    0    0 +4.2095589592e+00 +2.7703402433e+01 +4.6882680715e+01 5.4618537549e+01 0.0000000000e+00 0.0000e+00 -1.0000e+00
</event>
<event>
 4      1 +2.4041262e-06 9.11880000e+01 7.81860800e-03 1.13011600e-01
       25 -1    0    0    0    0 +0.0000000000e+00 +0.0000000000e+00 +9.9999998245e-15 1.2500000000e+02 1.2500000000e+02 0.0000e+00 0.0000e+00
      -13  1    1    0    0    0 +8.0090145502e-01 +2.2838685183e+00 -2.3054027713e+00 3.3441806953e+00 1.0566000000e-01 0.0000e+00 1.0000e+00
       13  1    1    0    0    0 +8.6490450447e+00 +3.8131462774e+01 -4.4407138860e+01 5.9167724135e+01 1.0566000000e-01 0.0000e+00 -1.0000e+00
       22  1    1    0    0    0 -9.4499464997e+00 -4.0415331293e+01 +4.6712541631e+01 6.2488095170e+01 0.0000000000e+00 0.0000e+00 -1.0000e+00
</event>
<event>
 5      1 +2.4041262e-06 9.11880000e+01 7.81860800e-03 1.13011600e-01
       25 -1    0    0    0    0 +0.0000000000e+00 +0.0000000000e+00 +9.9999998245e-15 1.2500000000e+02 1.2500000000e+02 0.0000e+00 0.0000e+00
       23  2    1    0    0    0 +2.0378635228e+01 +1.2285180199e+01 -1.8619984358e+01 9.4785463038e+01 8.9840780048e+01 0.0000e+00 0.0000e+00
      -11  1    2    2    0    0 +3.1213975292e+01 -3.3541942850e+01 -1.0366359739e+01 4.6976968805e+01 5.1100000000e-04 0.0000e+00 1.0000e+00
       11  1    2    2    0    0 -1.0835340063e+01 +4.5827123049e+01 -8.2536246194e+00 4.7808494233e+01 5.1100000000e-04 0.0000e+00 -1.0000e+00
       22  1    1    0    0    0 -2.0378635228e+01 -1.2285180199e+01 +1.8619984358e+01 3.0214536962e+01 0.0000000000e+00 0.0000e+00 1.0000e+00
</event>
<event>
 4      1 +2.4041262e-06 9.11880000e+01 7.81860800e-03 1.13011600e-01
       25 -1    0    0    0    0 +0.0000000000e+00 +0.0000000000e+00 +9.9999998245e-15 1.2500000000e+02 1.2500000000e+02 0.0000e+00 0.0000e+00
      -13  1    1    0    0    0 -5.5065356077e+01 +2.3560519737e+01 -1.7859088567e+01 6.2499997909e+01 1.0566000000e-01 0.0000e+00 -1.0000e+00
       13  1    1    0    0    0 +5.4959015607e+01 -2.3514737986e+01 +1.7823575826e+01 6.2378901227e+01 1.0566000000e-01 0.0000e+00 -1.0000e+00
       22  1    1    0    0    0 +1.0634047049e-01 -4.5781750543e-02 +3.5512741474e-02 1.2110086356e-01 0.0000000000e+00 0.0000e+00 1.0000e+00
</event>
<event>
 5      1 +2.4041262e-06 9.11880000e+01 7.81860800e-03 1.13011600e-01
       25 -1    0    0    0    0 +0.0000000000e+00 +0.0000000000e+00 +9.9999998245e-15 1.2500000000e+02 1.2500000000e+02 0.0000e+00 0.0000e+00
       23  2    1    0    0    0 +1.2111199661e+01 +2.5536554023e+01 -3.4562119295e+00 9.6526465806e+01 9.2231320339e+01 0.0000e+00 0.0000e+00
      -11  1    2    2    0    0 -3.8617877828e+01 +2.0851353954e+01 +7.2127585259e+00 4.4476323313e+01 5.1100000000e-04 0.0000e+00 -1.0000e+00
       11  1    2    2    0    0 +5.0729077490e+01 +4.6852000692e+00 -1.0668970455e+01 5.2050142492e+01 5.1100000000e-04 0.0000e+00 1.0000e+00
       22  1    1    0    0    0 -1.2111199661e+01 -2.5536554023e+01 +3.4562119295e+00 2.8473534194e+01 0.0000000000e+00 0.0000e+00 1.0000e+00
</event>
<event>
 4      1 +2.4041262e-06 9.11880000e+01 7.81860800e-03 1.13011600e-01
       25 -1    0    0    0    0 +0.0000000000e+00 +0.0000000000e+00 +9.9999998245e-15 1.2500000000e+02 1.2500000000e+02 0.0000e+00 0.0000e+00
      -13  1    1    0    0    0 +2.9300824412e+01 -5.2370123310e+01 -1.7394048815e+01 6.2479854553e+01 1.0566000000e-01 0.0000e+00 1.0000e+00
       13  1    1    0    0    0 -2.9310204051e+01 +5.2387099046e+01 +1.7399499064e+01 6.2499999518e+01 1.0566000000e-01 0.0000e+00 1.0000e+00
       22  1    1    0    0    0 +9.3796394715e-03 -1.6975736462e-02 -5.4502483946e-03 2.0145929430e-02 0.0000000000e+00 0.0000e+00 -1.0000e+00
</event>
<event>
 5      1 +2.4041262e-06 9.11880000e+01 7.81860800e-03 1.13011600e-01
       25 -1    0    0    0    0 +0.0000000000e+00 +0.0000000000e+00 +9.9999998245e-15 1.2500000000e+02 1.2500000000e+02 0.0000e+00 0.0000e+00
       23  2    1    0    0    0 -1.1863052644e+01 +1.8357030985e+01 -1.8236608615e+01 9.6534468240e+01 9.2242165304e+01 0.0000e+00 0.0000e+00
      -13  1    2    2    0    0 -4.8731522613e+01 +2.8620592748e+01 -1.0151575977e+01 5.7419206580e+01 1.0566000000e-01 0.0000e+00 -1.0000e+00
       13  1    2    2    0    0 +3.6868469969e+01 -1.0263561763e+01 -8.0850326388e+00 3.9115261660e+01 1.0566000000e-01 0.0000e+00 1.0000e+00
       22  1    1    0    0    0 +1.1863052644e+01 -1.8357030985e+01 +1.8236608615e+01 2.8465531760e+01 0.0000000000e+00 0.0000e+00 -1.0000e+00
</event>
<event>
 4      1 +2.4041262e-06 9.11880000e+01 7.81860800e-03 1.13011600e-01
       25 -1    0    0    0    0 +0.0000000000e+00 +0.0000000000e+00 +9.9999998245e-15 1.2500000000e+02 1.2500000000e+02 0.0000e+00 0.0000e+00
      -13  1    1    0    0    0 +2.8566593301e+01 +5.4770467154e+01 -9.5070768858e+00 6.2500000000e+01 1.0566000000e-01 0.0000e+00 -1.0000e+00
       13  1    1    0    0    0 -2.8566593301e+01 -5.4770467154e+01 +9.5070768857e+00 6.2500000000e+01 1.0566000000e-01 0.0000e+00 -1.0000e+00
       22  1    1    0    0    0 -5.4547138731e-12 +1.2642734029e-11 +4.9762596957e-12 1.4640894362e-11 0.0000000000e+00 0.0000e+00 -1.0000e+00
</event>
<event>
 4      1 +2.4041262e-06 9.11880000e+01 7.81860800e-03 1.13011600e-01
       25 -1    0    0    0    0 +0.0000000000e+00 +0.0000000000e+00 +9.9999998245e-15 1.2500000000e+02 1.2500000000e+02 0.0000e+00 0.0000e+00
      -13  1    1    0    0    0 +1.8741654341e+01 -4.4030060552e+01 -4.0121400691e+01 6.2447047945e+01 1.0566000000e-01 0.0000e+00 1.0000e+00
       13  1    1    0    0    0 -1.8863167570e+01 +4.3687423814e+01 +4.0015092786e+01 6.2174181981e+01 1.0566000000e-01 0.0000e+00 1.0000e+00
       22  1    1    0    0    0 +1.2151322909e-01 +3.4263673738e-01 +1.0630790464e-01 3.7877007437e-01 0.0000000000e+00 0.0000e+00 -1.0000e+00
</event>
<event>
 5      1 +2.4041262e-06 9.11880000e+01 7.81860800e-03 1.13011600e-01
       25 -1    0    0    0    0 +0.0000000000e+00 +0.0000000000e+00 +9.9999998245e-15 1.2500000000e+02 1.2500000000e+02 0.0000e+00 0.0000e+00
       23  2    1    0    0    0 -1.4545651452e+01 -1.8455132551e+01 +1.5194505603e+01 9.7017132131e+01 9.2893934317e+01 0.0000e+00 0.0000e+00
      -13  1    2    2    0    0 -2.7610085634e+01 -1.3402241986e+00 +4.9394660795e+01 5.6603504385e+01 1.0566000000e-01 0.0000e+00 -1.0000e+00
       13  1    2    2    0    0 +1.3064434182e+01 -1.7114908353e+01 -3.4200155192e+01 4.0413627746e+01 1.0566000000e-01 0.0000e+00 1.0000e+00
       22  1    1    0    0    0 +1.4545651452e+01 +1.8455132551e+01 -1.5194505603e+01 2.7982867869e+01 0.0000000000e+00 0.0000e+00 -1.0000e+00
</event>
<event>
 4      1 +2.4041262e-06 9.11880000e+01 7.81860800e-03 1.13011600e-01
       25 -1    0    0    0    0 +0.0000000000e+00 +0.0000000000e+00 +9.9999998245e-15 1.2500000000e+02 1.2500000000e+02 0.0000e+00 0.0000e+00
      -13  1    1    0    0    0 -4.3632322524e+00 +4.9674532100e+01 +2.8811086117e+01 5.7590683121e+01 1.0566000000e-01 0.0000e+00 1.0000e+00
       13  1    1    0    0    0 -6.8591187127e-02 +4.1131122514e+00 +2.6923693860e+00 4.9175618034e+00 1.0566000000e-01 0.0000e+00 -1.0000e+00
       22  1    1    0    0    0 +4.4318234395e+00 -5.3787644351e+01 -3.1503455503e+01 6.2491755076e+01 0.0000000000e+00 0.0000e+00 1.0000e+00
</event>
<event>
 4      1 +2.4041262e-06 9.11880000e+01 7.81860800e-03 1.13011600e-01
       25 -1    0    0    0    0 +0.0000000000e+00 +0.0000000000e+00 +9.9999998245e-15 1.2500000000e+02 1.2500000000e+02 0.0000e+00 0.0000e+00
      -13  1    1    0    0    0 +5.6736186959e+01 +3.3290981301e+00 -2.6003096565e+01 6.2500000000e+01 1.0566000000e-01 0.0000e+00 1.0000e+00
       13  1    1    0    0    0 -5.6736181710e+01 -3.3290978725e+00 +2.6003094148e+01 6.2499994215e+01 1.0566000000e-01 0.0000e+00 1.0000e+00
       22  1    1    0    0    0 -5.2493908356e-06 -2.5760079614e-07 +2.4166338348e-06 5.7846850741e-06 0.0000000000e+00 0.0000e+00 1.0000e+00
</event>
<event>
 4      1 +2.4041262e-06 9.11880000e+01 7.81860800e-03 1.13011600e-01
       25 -1    0    0    0    0 +0.0000000000e+00 +0.0000000000e+00 +9.9999998245e-15 1.2500000000e+02 1.2500000000e+02 0.0000e+00 0.0000e+00
      -11  1    1    0    0    0 -3.4347149738e-02 -7.9303214382e-01 +2.3759610601e-01 8.2857219271e-01 5.1100000000e-04 0.0000e+00 -1.0000e+00
       11  1    1    0    0    0 -9.4327691518e-01 -5.8814905015e+01 +1.8528477054e+01 6.1671608423e+01 5.1100000000e-04 0.0000e+00 1.0000e+00
       22  1    1    0    0    0 +9.7762406491e-01 +5.9607937159e+01 -1.8766073160e+01 6.2499819384e+01 0.0000000000e+00 0.0000e+00 1.0000e+00
</event>
<event>
 5      1 +2.4041262e-06 9.11880000e+01 7.81860800e-03 1.13011600e-01
       25 -1    0    0    0    0 +0.0000000000e+00 +0.0000000000e+00 +9.9999998245e-15 1.2500000000e+02 1.2500000000e+02 0.0000e+00 0.0000e+00
       23  2    1    0    0    0 -9.7698258812e+00 -2.5902313711e+01 +8.7770993092e+00 9.5958360487e+01 9.1458133163e+01 0.0000e+00 0.0000e+00
      -11  1    2    2    0    0 +7.7768442577e+00 -3.4512363635e+01 +4.3525820438e+01 5.6089924187e+01 5.1100000000e-04 0.0000e+00 -1.0000e+00
       11  1    2    2    0    0 -1.7546670139e+01 +8.6100499244e+00 -3.4748721128e+01 3.9868436300e+01 5.1100000000e-04 0.0000e+00 1.0000e+00
       22  1    1    0    0    0 +9.7698258812e+00 +2.5902313711e+01 -8.7770993092e+00 2.9041639513e+01 0.0000000000e+00 0.0000e+00 -1.0000e+00
</event>
<event>
 4      1 +2.4041262e-06 9.11880000e+01 7.81860800e-03 1.13011600e-01
       25 -1    0    0    0    0 +0.0000000000e+00 +0.0000000000e+00 +9.9999998245e-15 1.2500000000e+02 1.2500000000e+02 0.0000e+00 0.0000e+00
      -11  1    1    0    0    0 -1.1665815701e+00 -6.2238575430e+00 -1.0192983898e+00 6.4137574591e+00 5.1100000000e-04 0.0000e+00 -1.0000e+00
       11  1    1    0    0    0 +3.4616760657e+01 -1.2843216289e+01 +4.6254139574e+01 5.9183728769e+01 5.1100000000e-04 0.0000e+00 1.0000e+00
       22  1    1    0    0    0 -3.3450179087e+01 +1.9067073832e+01 -4.5234841184e+01 5.9402513772e+01 0.0000000000e+00 0.0000e+00 1.0000e+00
</event>
<event>
 4      1 +2.4041262e-06 9.11880000e+01 7.81860800e-03 1.13011600e-01
       25 -1    0    0    0    0 +0.0000000000e+00 +0.0000000000e+00 +9.9999998245e-15 1.2500000000e+02 1.2500000000e+02 0.0000e+00 0.0000e+00
      -13  1    1    0    0    0 +1.6493461572e+01 +3.8580382393e+00 +6.0129941878e+01 6.2470311413e+01 1.0566000000e-01 0.0000e+00 -1.0000e+00
       13  1    1    0    0    0 -1.6556743344e+01 -3.8447011307e+00 -6.0101821817e+01 6.2459167676e+01 1.0566000000e-01 0.0000e+00 -1.0000e+00
       22  1    1    0    0    0 +6.3281772228e-02 -1.3337108680e-02 -2.8120060589e-02 7.0520911592e-02 0.0000000000e+00 0.0000e+00 -1.0000e+00
</event>
<event>
 5      1 +2.4041262e-06 9.11880000e+01 7.81860800e-03 1.13011600e-01
       25 -1    0    0    0    0 +0.0000000000e+00 +0.0000000000e+00 +9.9999998245e-15 1.2500000000e+02 1.2500000000e+02 0.0000e+00 0.0000e+00
       23  2    1    0    0    0 +2.4260968959e+01 -4.6023794604e+00 +1.7743172399e+01 9.4592818639e+01 8.9572343164e+01 0.0000e+00 0.0000e+00
      -13  1    2    2    0    0 +3.0137199487e+01 -3.2327852347e+01 +3.9175506007e+01 5.9059904040e+01 1.0566000000e-01 0.0000e+00 -1.0000e+00
       13  1    2    2    0    0 -5.8762305287e+00 +2.7725472887e+01 -2.1432333608e+01 3.5532914599e+01 1.0566000000e-01 0.0000e+00 1.0000e+00
       22  1    1    0    0    0 -2.4260968959e+01 +4.6023794604e+00 -1.7743172399e+01 3.0407181361e+01 0.0000000000e+00 0.0000e+00 1.0000e+00
</event>
<event>
 4      1 +2.4041262e-06 9.11880000e+01 7.81860800e-03 1.13011600e-01
       25 -1    0    0    0    0 +0.0000000000e+00 +0.0000000000e+00 +9.9999998245e-15 1.2500000000e+02 1.2500000000e+02 0.0000e+00 0.0000e+00
      -13  1    1    0    0    0 +6.3293350855e+00 -3.6036924931e+00 -6.2074082786e+01 6.2500000000e+01 1.0566000000e-01 0.0000e+00 1.0000e+00
       13  1    1    0    0    0 -6.3293350761e+00 +3.6036924894e+00 +6.2074082697e+01 6.2499999910e+01 1.0566000000e-01 0.0000e+00 1.0000e+00
       22  1    1    0    0    0 -9.4023262619e-09 +3.6875319342e-09 +8.9237178954e-08 8.9806880241e-08 0.0000000000e+00 0.0000e+00 -1.0000e+00
</event>
<event>
 4      1 +2.4041262e-06 9.11880000e+01 7.81860800e-03 1.13011600e-01
       25 -1    0    0    0    0 +0.0000000000e+00 +0.0000000000e+00 +9.9999998245e-15 1.2500000000e+02 1.2500000000e+02 0.0000e+00 0.0000e+00
      -13  1    1    0    0    0 +6.0436769826e+01 +1.5752395810e+01 +2.3447091689e+00 6.2499999567e+01 1.0566000000e-01 0.0000e+00 -1.0000e+00
       13  1    1    0    0    0 -6.0434817728e+01 -1.5751907374e+01 -2.3446891831e+00 6.2497988057e+01 1.0566000000e-01 0.0000e+00 -1.0000e+00
       22  1    1    0    0    0 -1.9520984375e-03 -4.8843612237e-04 -1.9985723732e-05 2.0123761041e-03 0.0000000000e+00 0.0000e+00 1.0000e+00
</event>
<event>
 5      1 +2.4041262e-06 9.11880000e+01 7.81860800e-03 1.13011600e-01
       25 -1    0    0    0    0 +0.0000000000e+00 +0.0000000000e+00 +9.9999998245e-15 1.2500000000e+02 1.2500000000e+02 0.0000e+00 0.0000e+00
       23  2    1    0    0    0 +1.4737551593e+01 +5.4881653882e+00 +2.4106601686e+01 9.6217303269e+01 9.1811359958e+01 0.0000e+00 0.0000e+00
      -13  1    2    2    0    0 +2.9738470479e+00 -3.5039812191e+01 -1.5418299358e+01 3.8397491113e+01 1.0566000000e-01 0.0000e+00 1.0000e+00
       13  1    2    2    0    0 +1.1763704545e+01 +4.0527977579e+01 +3.9524901044e+01 5.7819812156e+01 1.0566000000e-01 0.0000e+00 -1.0000e+00
       22  1    1    0    0    0 -1.4737551593e+01 -5.4881653882e+00 -2.4106601686e+01 2.8782696731e+01 0.0000000000e+00 0.0000e+00 -1.0000e+00
</event>
<event>
 4      1 +2.4041262e-06 9.11880000e+01 7.81860800e-03 1.13011600e-01
       25 -1    0    0    0    0 +0.0000000000e+00 +0.0000000000e+00 +9.9999998245e-15 1.2500000000e+02 1.2500000000e+02 0.0000e+00 0.0000e+00
      -13  1    1    0    0    0 -5.2001532433e+01 -1.7968742563e+01 +2.9651370104e+01 6.2499999982e+01 1.0566000000e-01 0.0000e+00 -1.0000e+00
       13  1    1    0    0    0 +5.2001532448e+01 +1.7968742568e+01 -2.9651370113e+01 6.2500000000e+01 1.0566000000e-01 0.0000e+00 -1.0000e+00
       22  1    1    0    0    0 -1.4503450211e-08 -5.3289698278e-09 +8.4600687862e-09 1.7615923232e-08 0.0000000000e+00 0.0000e+00 -1.0000e+00
</event>
<event>
 4      1 +2.4041262e-06 9.11880000e+01 7.81860800e-03 1.13011600e-01
       25 -1    0    0    0    0 +0.0000000000e+00 +0.0000000000e+00 +9.9999998245e-15 1.2500000000e+02 1.2500000000e+02 0.0000e+00 0.0000e+00
      -13  1    1    0    0    0 +4.6000511850e+00 +2.5420902620e+01 +1.3526559256e+01 2.9160962437e+01 1.0566000000e-01 0.0000e+00 -1.0000e+00
       13  1    1    0    0    0 -9.8526260462e+00 -5.4877215176e+01 -2.8237088507e+01 6.2497418482e+01 1.0566000000e-01 0.0000e+00 -1.0000e+00
       22  1    1    0    0    0 +5.2525748612e+00 +2.9456312556e+01 +1.4710529251e+01 3.3341619081e+01 0.0000000000e+00 0.0000e+00 -1.0000e+00
</event>
<event>
 4      1 +2.4041262e-06 9.11880000e+01 7.81860800e-03 1.13011600e-01
       25 -1    0    0    0    0 +0.0000000000e+00 +0.0000000000e+00 +9.9999998245e-15 1.2500000000e+02 1.2500000000e+02 0.0000e+00 0.0000e+00
      -13  1    1    0    0    0 -1.8073597622e+01 +1.2094675053e+00 -5.9817397915e+01 6.2500000000e+01 1.0566000000e-01 0.0000e+00 -1.0000e+00
       13  1    1    0    0    0 +1.8073597616e+01 -1.2094675044e+00 +5.9817397895e+01 6.2499999980e+01 1.0566000000e-01 0.0000e+00 -1.0000e+00
       22  1    1    0    0    0 +5.7194233448e-09 -9.0826563840e-10 +1.9576289219e-08 2.0414892835e-08 0.0000000000e+00 0.0000e+00 1.0000e+00
</event>
<event>
 4      1 +2.4041262e-06 9.11880000e+01 7.81860800e-03 1.13011600e-01
       25 -1    0    0    0    0 +0.0000000000e+00 +0.0000000000e+00 +9.9999998245e-15 1.2500000000e+02 1.2500000000e+02 0.0000e+00 0.0000e+00
      -13  1    1    0    0    0 +9.2046067179e+00 +8.4346395133e+00 +6.1237091579e+01 6.2496883743e+01 1.0566000000e-01 0.0000e+00 -1.0000e+00
       13  1    1    0    0    0 -9.2102857849e+00 -8.4453293304e+00 -6.1218382064e+01 6.2480832407e+01 1.0566000000e-01 0.0000e+00 -1.0000e+00
       22  1    1    0    0    0 +5.6790670240e-03 +1.0689817078e-02 -1.8709514840e-02 2.2283849240e-02 0.0000000000e+00 0.0000e+00 -1.0000e+00
</event>
<event>
 4      1 +2.4041262e-06 9.11880000e+01 7.81860800e-03 1.13011600e-01
       25 -1    0    0    0    0 +0.0000000000e+00 +0.0000000000e+00 +9.9999998245e-15 1.2500000000e+02 1.2500000000e+02 0.0000e+00 0.0000e+00
      -13  1    1    0    0    0 +1.6723832578e+01 +4.1104129765e+01 +4.4011235403e+01 6.2499888525e+01 1.0566000000e-01 0.0000e+00 -1.0000e+00
       13  1    1    0    0    0 -1.6723697257e+01 -4.1104269009e+01 -4.4011190316e+01 6.2499912143e+01 1.0566000000e-01 0.0000e+00 -1.0000e+00
       22  1    1    0    0    0 -1.3532080436e-04 +1.3924398929e-04 -4.5086561925e-05 1.9933240257e-04 0.0000000000e+00 0.0000e+00 1.0000e+00
</event>
<event>
 5      1 +2.4041262e-06 9.11880000e+01 7.81860800e-03 1.13011600e-01
       25 -1    0    0    0    0 +0.0000000000e+00 +0.0000000000e+00 +9.9999998245e-15 1.2500000000e+02 1.2500000000e+02 0.0000e+00 0.0000e+00
       23  2    1    0    0    0 -1.9993582576e+01 +1.1671919723e+01 +2.8282728905e+01 8.8450173618e+01 8.0545287910e+01 0.0000e+00 0.0000e+00
      -11  1    2    2    0    0 -2.9521613046e+01 -5.6907113567e+00 +5.0446932589e+01 5.8726508840e+01 5.1100000000e-04 0.0000e+00 1.0000e+00
       11  1    2    2    0    0 +9.5280304697e+00 +1.7362631079e+01 -2.2164203685e+01 2.9723664778e+01 5.1100000000e-04 0.0000e+00 -1.0000e+00
       22  1    1    0    0    0 +1.9993582576e+01 -1.1671919723e+01 -2.8282728905e+01 3.6549826382e+01 0.0000000000e+00 0.0000e+00 1.0000e+00
</event>
<event>
 4      1 +2.4041262e-06 9.11880000e+01 7.81860800e-03 1.13011600e-01
       25 -1    0    0    0    0 +0.0000000000e+00 +0.0000000000e+00 +9.9999998245e-15 1.2500000000e+02 1.2500000000e+02 0.0000e+00 0.0000e+00
      -11  1    1    0    0    0 -1.5184381366e+01 +2.9753021003e+00 -3.3847171723e+01 3.7216245028e+01 5.1100000000e-04 0.0000e+00 1.0000e+00
       11  1    1    0    0    0 -2.9447927328e+00 -2.6468554547e+00 -2.5460333716e+01 2.5766378117e+01 5.1100000000e-04 0.0000e+00 -1.0000e+00
       22  1    1    0    0    0 +1.8129174099e+01 -3.2844664554e-01 +5.9307505439e+01 6.2017376856e+01 0.0000000000e+00 0.0000e+00 -1.0000e+00
</event>
<event>
 4      1 +2.4041262e-06 9.11880000e+01 7.81860800e-03 1.13011600e-01
       25 -1    0    0    0    0 +0.0000000000e+00 +0.0000000000e+00 +9.9999998245e-15 1.2500000000e+02 1.2500000000e+02 0.0000e+00 0.0000e+00
      -13  1    1    0    0    0 -4.5935544156e+01 +3.0345973188e+01 -2.9585211629e+01 6.2499985735e+01 1.0566000000e-01 0.0000e+00 -1.0000e+00
       13  1    1    0    0    0 +4.5935555469e+01 -3.0345979187e+01 +2.9585217984e+01 6.2499999970e+01 1.0566000000e-01 0.0000e+00 -1.0000e+00
       22  1    1    0    0    0 -1.1313094949e-05 +5.9989685790e-06 -6.3548290594e-06 1.4295369659e-05 0.0000000000e+00 0.0000e+00 1.0000e+00
</event>
<event>
 5      1 +2.4041262e-06 9.11880000e+01 7.81860800e-03 1.13011600e-01
       25 -1    0    0    0    0 +0.0000000000e+00 +0.0000000000e+00 +9.9999998245e-15 1.2500000000e+02 1.2500000000e+02 0.0000e+00 0.0000e+00
       23  2    1    0    0    0 +1.7264970818e+00 -1.1742319978e+01 +2.9631326820e+01 9.3080125317e+01 8.7435869810e+01 0.0000e+00 0.0000e+00
      -13  1    2    2    0    0 -3.4808637930e+01 -9.4114043768e+00 -1.1659513318e+01 3.7896849760e+01 1.0566000000e-01 0.0000e+00 -1.0000e+00
       13  1    2    2    0    0 +3.6535135012e+01 -2.3309156008e+00 +4.1290840138e+01 5.5183275557e+01 1.0566000000e-01 0.0000e+00 1.0000e+00
       22  1    1    0    0    0 -1.7264970818e+00 +1.1742319978e+01 -2.9631326820e+01 3.1919874683e+01 0.0000000000e+00 0.0000e+00 -1.0000e+00
</event>
<event>
 4      1 +2.4041262e-06 9.11880000e+01 7.81860800e-03 1.13011600e-01
       25 -1    0    0    0    0 +0.0000000000e+00 +0.0000000000e+00 +9.9999998245e-15 1.2500000000e+02 1.2500000000e+02 0.0000e+00 0.0000e+00
      -11  1    1    0    0    0 -1.2751757989e+00 +2.8123102647e+00 -5.7513085826e+00 6.5278413749e+00 5.1100000000e-04 0.0000e+00 1.0000e+00
       11  1    1    0    0    0 -2.5377900557e+01 +1.8497503217e+01 -4.6472185586e+01 5.6087962125e+01 5.1100000000e-04 0.0000e+00 -1.0000e+00
       22  1    1    0    0    0 +2.6653076355e+01 -2.1309813481e+01 +5.2223494169e+01 6.2384196500e+01 0.0000000000e+00 0.0000e+00 -1.0000e+00
</event>
<event>
 4      1 +2.4041262e-06 9.11880000e+01 7.81860800e-03 1.13011600e-01
       25 -1    0    0    0    0 +0.0000000000e+00 +0.0000000000e+00 +9.9999998245e-15 1.2500000000e+02 1.2500000000e+02 0.0000e+00 0.0000e+00
      -11  1    1    0    0    0 -1.7946899800e+01 +5.1615196553e+00 -8.3321406809e+00 2.0448889119e+01 5.1100000000e-04 0.0000e+00 1.0000e+00
       11  1    1    0    0    0 -1.1744200316e+01 +1.4259685712e+01 -4.0311959450e+01 4.4343195110e+01 5.1100000000e-04 0.0000e+00 -1.0000e+00
       22  1    1    0    0    0 +2.9691100116e+01 -1.9421205367e+01 +4.8644100130e+01 6.0207915771e+01 0.0000000000e+00 0.0000e+00 1.0000e+00
</event>
<event>
 4      1 +2.4041262e-06 9.11880000e+01 7.81860800e-03 1.13011600e-01
       25 -1    0    0    0    0 +0.0000000000e+00 +0.0000000000e+00 +9.9999998245e-15 1.2500000000e+02 1.2500000000e+02 0.0000e+00 0.0000e+00
      -13  1    1    0    0    0 -1.8881766061e+01 +5.9285632442e+01 -5.9102881409e+00 6.2499999789e+01 1.0566000000e-01 0.0000e+00 1.0000e+00
       13  1    1    0    0    0 +1.8881766121e+01 -5.9285632644e+01 +5.9102881542e+00 6.2500000000e+01 1.0566000000e-01 0.0000e+00 1.0000e+00
       22  1    1    0    0    0 -5.9867249551e-08 +2.0197171853e-07 -1.3299475164e-08 2.1107709182e-07 0.0000000000e+00 0.0000e+00 1.0000e+00
</event>
<event>
 4      1 +2.4041262e-06 9.11880000e+01 7.81860800e-03 1.13011600e-01
       25 -1    0    0    0    0 +0.0000000000e+00 +0.0000000000e+00 +9.9999998245e-15 1.2500000000e+02 1.2500000000e+02 0.0000e+00 0.0000e+00
      -13  1    1    0    0    0 +4.9256765483e+01 +1.8496328896e+01 -3.3732707640e+01 6.2499998858e+01 1.0566000000e-01 0.0000e+00 1.0000e+00
       13  1    1    0    0    0 -4.9256766386e+01 -1.8496329233e+01 +3.3732708253e+01 6.2500000000e+01 1.0566000000e-01 0.0000e+00 1.0000e+00
       22  1    1    0    0    0 +9.0326309060e-07 +3.3665164324e-07 -6.1278947728e-07 1.1422475578e-06 0.0000000000e+00 0.0000e+00 1.0000e+00
</event>
<event>
 4      1 +2.4041262e-06 9.11880000e+01 7.81860800e-03 1.13011600e-01
       25 -1    0    0    0    0 +0.0000000000e+00 +0.0000000000e+00 +9.9999998245e-15 1.2500000000e+02 1.2500000000e+02 0.0000e+00 0.0000e+00
      -13  1    1    0    0    0 -3.4929176357e+01 -3.0011157370e+01 +3.9506368656e+01 6.0675211216e+01 1.0566000000e-01 0.0000e+00 1.0000e+00
       13  1    1    0    0    0 +3.6081986426e+01 +3.0633362267e+01 -4.0795567880e+01 6.2486815817e+01 1.0566000000e-01 0.0000e+00 1.0000e+00
       22  1    1    0    0    0 -1.1528100685e+00 -6.2220489684e-01 +1.2891992238e+00 1.8379729667e+00 0.0000000000e+00 0.0000e+00 1.0000e+00
</event>
<event>
 4      1 +2.4041262e-06 9.11880000e+01 7.81860800e-03 1.13011600e-01
       25 -1    0    0    0    0 +0.0000000000e+00 +0.0000000000e+00 +9.9999998245e-15 1.2500000000e+02 1.2500000000e+02 0.0000e+00 0.0000e+00
      -13  1    1    0    0    0 +4.3514996268e+01 +2.0679304760e+00 -2.2526151716e+01 4.9043551175e+01 1.0566000000e-01 0.0000e+00 -1.0000e+00
       13  1    1    0    0    0 +1.2625219596e+01 -5.9880038302e+00 -2.7866821894e+00 1.4248828772e+01 1.0566000000e-01 0.0000e+00 1.0000e+00
       22  1    1    0    0    0 -5.6140215864e+01 +3.9200733542e+00 +2.5312833905e+01 6.1707620053e+01 0.0000000000e+00 0.0000e+00 -1.0000e+00
</event>
<event>
 4      1 +2.4041262e-06 9.11880000e+01 7.81860800e-03 1.13011600e-01
       25 -1    0    0    0    0 +0.0000000000e+00 +0.0000000000e+00 +9.9999998245e-15 1.2500000000e+02 1.2500000000e+02 0.0000e+00 0.0000e+00
      -13  1    1    0    0    0 -4.0786723215e+01 -3.0941575967e+01 +3.5851083143e+01 6.2499993924e+01 1.0566000000e-01 0.0000e+00 -1.0000e+00
       13  1    1    0    0    0 +4.0783429792e+01 +3.0939490332e+01 -3.5848456482e+01 6.2495305454e+01 1.0566000000e-01 0.0000e+00 -1.0000e+00
       22  1    1    0    0    0 +3.2934234961e-03 +2.0856342799e-03 -2.6266607473e-03 4.7006228689e-03 0.0000000000e+00 0.0000e+00 1.0000e+00
</event>
<event>
 4      1 +2.4041262e-06 9.11880000e+01 7.81860800e-03 1.13011600e-01
       25 -1    0    0    0    0 +0.0000000000e+00 +0.0000000000e+00 +9.9999998245e-15 1.2500000000e+02 1.2500000000e+02 0.0000e+00 0.0000e+00
      -13  1    1    0    0    0 -2.6477791486e+01 +5.6166651303e+01 +7.1044119414e+00 6.2499999949e+01 1.0566000000e-01 0.0000e+00 1.0000e+00
       13  1    1    0    0    0 +2.6477548206e+01 -5.6166159556e+01 -7.1043510423e+00 6.2499448046e+01 1.0566000000e-01 0.0000e+00 1.0000e+00
       22  1    1    0    0    0 +2.4327991588e-04 -4.9174752161e-04 -6.0899085464e-05 5.5200492850e-04 0.0000000000e+00 0.0000e+00 -1.0000e+00
</event>
<event>
 4      1 +2.4041262e-06 9.11880000e+01 7.81860800e-03 1.13011600e-01
       25 -1    0    0    0    0 +0.0000000000e+00 +0.0000000000e+00 +9.9999998245e-15 1.2500000000e+02 1.2500000000e+02 0.0000e+00 0.0000e+00
      -13  1    1    0    0    0 -2.7939378520e+01 -4.8238048269e+01 -2.8261642798e+01 6.2499998324e+01 1.0566000000e-01 0.0000e+00 1.0000e+00
       13  1    1    0    0    0 +2.7939379555e+01 +4.8238049378e+01 +2.8261643550e+01 6.2499999983e+01 1.0566000000e-01 0.0000e+00 1.0000e+00
       22  1    1    0    0    0 -1.0352371005e-06 -1.1092301229e-06 -7.5121507198e-07 1.6930538692e-06 0.0000000000e+00 0.0000e+00 -1.0000e+00
</event>
<event>
 5      1 +2.4041262e-06 9.11880000e+01 7.81860800e-03 1.13011600e-01
       25 -1    0    0    0    0 +0.0000000000e+00 +0.0000000000e+00 +9.9999998245e-15 1.2500000000e+02 1.2500000000e+02 0.0000e+00 0.0000e+00
       23  2    1    0    0    0 -2.2470548361e+01 +1.9127083437e+01 +2.4375069710e+00 9.5390671999e+01 9.0678928091e+01 0.0000e+00 0.0000e+00
      -13  1    2    2    0    0 -5.2219208960e+01 +3.6250933202e+00 -1.8878775881e+01 5.5645363048e+01 1.0566000000e-01 0.0000e+00 -1.0000e+00
       13  1    2    2    0    0 +2.9748660598e+01 +1.5501990116e+01 +2.1316282852e+01 3.9745308951e+01 1.0566000000e-01 0.0000e+00 1.0000e+00
       22  1    1    0    0    0 +2.2470548361e+01 -1.9127083437e+01 -2.4375069710e+00 2.9609328001e+01 0.0000000000e+00 0.0000e+00 -1.0000e+00
</event>
<event>
 5      1 +2.4041262e-06 9.11880000e+01 7.81860800e-03 1.13011600e-01
       25 -1    0    0    0    0 +0.0000000000e+00 +0.0000000000e+00 +9.9999998245e-15 1.2500000000e+02 1.2500000000e+02 0.0000e+00 0.0000e+00
       23  2    1    0    0    0 -2.3867661569e+01 -6.3197950197e+00 +9.2028164794e+00 9.8650485602e+01 9.5066405215e+01 0.0000e+00 0.0000e+00
      -13  1    2    2    0    0 +1.9454492282e-01 +5.1295044130e+00 -4.1263082139e+01 4.1581279140e+01 1.0566000000e-01 0.0000e+00 -1.0000e+00
       13  1    2    2    0    0 -2.4062206492e+01 -1.1449299433e+01 +5.0465898619e+01 5.7069206462e+01 1.0566000000e-01 0.0000e+00 1.0000e+00
       22  1    1    0    0    0 +2.3867661569e+01 +6.3197950197e+00 -9.2028164794e+00 2.6349514398e+01 0.0000000000e+00 0.0000e+00 1.0000e+00
</event>
<event>
 4      1 +2.4041262e-06 9.11880000e+01 7.81860800e-03 1.13011600e-01
       25 -1    0    0    0    0 +0.0000000000e+00 +0.0000000000e+00 +9.9999998245e-15 1.2500000000e+02 1.2500000000e+02 0.0000e+00 0.0000e+00
      -13  1    1    0    0    0 -3.0443187529e+01 +2.4686441650e+01 +3.5980422154e+01 5.3205356973e+01 1.0566000000e-01 0.0000e+00 -1.0000e+00
       13  1    1    0    0    0 -5.2656864249e+00 +4.4032874091e+00 +6.2669143245e+00 9.2952553875e+00 1.0566000000e-01 0.0000e+00 -1.0000e+00
       22  1    1    0    0    0 +3.5708873954e+01 -2.9089729059e+01 -4.2247336478e+01 6.2499387639e+01 0.0000000000e+00 0.0000e+00 -1.0000e+00
</event>
<event>
 5      1 +2.4041262e-06 9.11880000e+01 7.81860800e-03 1.13011600e-01
       25 -1    0    0    0    0 +0.0000000000e+00 +0.0000000000e+00 +9.9999998245e-15 1.2500000000e+02 1.2500000000e+02 0.0000e+00 0.0000e+00
       23  2    1    0    0    0 +7.3744900702e+00 -2.0014325832e+01 +2.1362510502e+01 9.4812035556e+01 8.9877744125e+01 0.0000e+00 0.0000e+00
      -11  1    2    2    0    0 -1.3688213701e+01 -5.1577589735e+01 +1.9521512249e+01 5.6821689503e+01 5.1100000000e-04 0.0000e+00 1.0000e+00
       11  1    2    2    0    0 +2.1062703771e+01 +3.1563263904e+01 +1.8409982533e+00 3.7990346053e+01 5.1100000000e-04 0.0000e+00 -1.0000e+00
       22  1    1    0    0    0 -7.3744900702e+00 +2.0014325832e+01 -2.1362510502e+01 3.0187964444e+01 0.0000000000e+00 0.0000e+00 1.0000e+00
</event>
<event>
 4      1 +2.4041262e-06 9.11880000e+01 7.81860800e-03 1.13011600e-01
       25 -1    0    0    0    0 +0.0000000000e+00 +0.0000000000e+00 +9.9999998245e-15 1.2500000000e+02 1.2500000000e+02 0.0000e+00 0.0000e+00
      -13  1    1    0    0    0 +5.5176668101e+01 -2.2036681600e+01 +1.9361721660e+01 6.2489738904e+01 1.0566000000e-01 0.0000e+00 1.0000e+00
       13  1    1    0    0    0 -5.5185080284e+01 +2.2035282512e+01 -1.9369125705e+01 6.2498967639e+01 1.0566000000e-01 0.0000e+00 1.0000e+00
       22  1    1    0    0    0 +8.4121827105e-03 +1.3990874245e-03 +7.4040455541e-03 1.1293456253e-02 0.0000000000e+00 0.0000e+00 1.0000e+00
</event>
<event>
 4      1 +2.4041262e-06 9.11880000e+01 7.81860800e-03 1.13011600e-01
       25 -1    0    0    0    0 +0.0000000000e+00 +0.0000000000e+00 +9.9999998245e-15 1.2500000000e+02 1.2500000000e+02 0.0000e+00 0.0000e+00
      -13  1    1    0    0    0 +2.4885417371e+01 +3.3102566622e+01 +4.6809987408e+01 6.2499999999e+01 1.0566000000e-01 0.0000e+00 1.0000e+00
       13  1    1    0    0    0 -2.4885417372e+01 -3.3102566622e+01 -4.6809987409e+01 6.2500000000e+01 1.0566000000e-01 0.0000e+00 1.0000e+00
       22  1    1    0    0    0 +4.7812420449e-10 +5.7307941238e-10 +1.0463154632e-09 1.2852232554e-09 0.0000000000e+00 0.0000e+00 -1.0000e+00
</event>
<event>
 5      1 +2.4041262e-06 9.11880000e+01 7.81860800e-03 1.13011600e-01
       25 -1    0    0    0    0 +0.0000000000e+00 +0.0000000000e+00 +9.9999998245e-15 1.2500000000e+02 1.2500000000e+02 0.0000e+00 0.0000e+00
       23  2    1    0    0    0 +2.3712375592e+01 -3.0342982058e+00 -1.3914430139e+01 9.7339647726e+01 9.3326908936e+01 0.0000e+00 0.0000e+00
      -11  1    2    2    0    0 +1.5959878388e+01 +4.4102653080e+01 +2.1219121378e+00 4.6949592525e+01 5.1100000000e-04 0.0000e+00 1.0000e+00
       11  1    2    2    0    0 +7.7524972035e+00 -4.7136951285e+01 -1.6036342277e+01 5.0390055202e+01 5.1100000000e-04 0.0000e+00 -1.0000e+00
       22  1    1    0    0    0 -2.3712375592e+01 +3.0342982058e+00 +1.3914430139e+01 2.7660352274e+01 0.0000000000e+00 0.0000e+00 -1.0000e+00
</event>
<event>
 4      1 +2.4041262e-06 9.11880000e+01 7.81860800e-03 1.13011600e-01
       25 -1    0    0    0    0 +0.0000000000e+00 +0.0000000000e+00 +9.9999998245e-15 1.2500000000e+02 1.2500000000e+02 0.0000e+00 0.0000e+00
      -13  1    1    0    0    0 +6.0291934906e+01 -8.9301062271e+00 -1.3833809315e+01 6.2499997249e+01 1.0566000000e-01 0.0000e+00 -1.0000e+00
       13  1    1    0    0    0 -6.0291937560e+01 +8.9301066224e+00 +1.3833809919e+01 6.2500000000e+01 1.0566000000e-01 0.0000e+00 -1.0000e+00
       22  1    1    0    0    0 +2.6542119018e-06 -3.9525621604e-07 -6.0451440071e-07 2.7507282593e-06 0.0000000000e+00 0.0000e+00 -1.0000e+00
</event>
<event>
 4      1 +2.4041262e-06 9.11880000e+01 7.81860800e-03 1.13011600e-01
       25 -1    0    0    0    0 +0.0000000000e+00 +0.0000000000e+00 +9.9999998245e-15 1.2500000000e+02 1.2500000000e+02 0.0000e+00 0.0000e+00
      -13  1    1    0    0    0 +4.9555756479e+01 +2.9044636419e+01 -2.4634446304e+01 6.2499848109e+01 1.0566000000e-01 0.0000e+00 1.0000e+00
       13  1    1    0    0    0 -4.9555873644e+01 -2.9044715551e+01 +2.4634502258e+01 6.2499999837e+01 1.0566000000e-01 0.0000e+00 1.0000e+00
       22  1    1    0    0    0 +1.1716536565e-04 +7.9131478642e-05 -5.5954380090e-05 1.5205395908e-04 0.0000000000e+00 0.0000e+00 -1.0000e+00
</event>
<event>
 4      1 +2.4041262e-06 9.11880000e+01 7.81860800e-03 1.13011600e-01
       25 -1    0    0    0    0 +0.0000000000e+00 +0.0000000000e+00 +9.9999998245e-15 1.2500000000e+02 1.2500000000e+02 0.0000e+00 0.0000e+00
      -13  1    1    0    0    0 -5.1859174796e+01 -3.3377168019e+01 +1.0140388331e+01 6.2499983960e+01 1.0566000000e-01 0.0000e+00 1.0000e+00
       13  1    1    0    0    0 +5.1859188960e+01 +3.3377174849e+01 -1.0140391839e+01 6.2499999929e+01 1.0566000000e-01 0.0000e+00 1.0000e+00
       22  1    1    0    0    0 -1.4163369164e-05 -6.8305248361e-06 +3.5071044317e-06 1.6110768980e-05 0.0000000000e+00 0.0000e+00 -1.0000e+00
</event>
<event>
 4      1 +2.4041262e-06 9.11880000e+01 7.81860800e-03 1.13011600e-01
       25 -1    0    0    0    0 +0.0000000000e+00 +0.0000000000e+00 +9.9999998245e-15 1.2500000000e+02 1.2500000000e+02 0.0000e+00 0.0000e+00
      -13  1    1    0    0    0 -5.7485853645e+01 +8.6559957487e+00 +2.2949705943e+01 6.2499998389e+01 1.0566000000e-01 0.0000e+00 -1.0000e+00
       13  1    1    0    0    0 +5.7485855029e+01 -8.6559967466e+00 -2.2949706184e+01 6.2499999888e+01 1.0566000000e-01 0.0000e+00 -1.0000e+00
       22  1    1    0    0    0 -1.3836970692e-06 +9.9793836039e-07 +2.4046993200e-07 1.7228825667e-06 0.0000000000e+00 0.0000e+00 1.0000e+00
</event>
<event>
 4      1 +2.4041262e-06 9.11880000e+01 7.81860800e-03 1.13011600e-01
       25 -1    0    0    0    0 +0.0000000000e+00 +0.0000000000e+00 +9.9999998245e-15 1.2500000000e+02 1.2500000000e+02 0.0000e+00 0.0000e+00
      -13  1    1    0    0    0 -5.7528878331e+01 -3.6731888738e-01 +2.4417674874e+01 6.2497526155e+01 1.0566000000e-01 0.0000e+00 -1.0000e+00
       13  1    1    0    0    0 +5.5688053683e+01 +2.9140464407e-01 -2.3500740982e+01 6.0444521922e+01 1.0566000000e-01 0.0000e+00 -1.0000e+00
       22  1    1    0    0    0 +1.8408246475e+00 +7.5914243307e-02 -9.1693389224e-01 2.0579519231e+00 0.0000000000e+00 0.0000e+00 -1.0000e+00
</event>
<event>
 5      1 +2.4041262e-06 9.11880000e+01 7.81860800e-03 1.13011600e-01
       25 -1    0    0    0    0 +0.0000000000e+00 +0.0000000000e+00 +9.9999998245e-15 1.2500000000e+02 1.2500000000e+02 0.0000e+00 0.0000e+00
       23  2    1    0    0    0 -3.1118484595e+00 +3.0465774839e+01 -1.2211647725e+01 9.2030751032e+01 8.5922568386e+01 0.0000e+00 0.0000e+00
      -11  1    2    2    0    0 +4.0221240544e+01 +4.0132143119e+00 -4.3016228435e+00 4.0649207119e+01 5.1100000000e-04 0.0000e+00 -1.0000e+00
       11  1    2    2    0    0 -4.3333089004e+01 +2.6452560527e+01 -7.9100248812e+00 5.1381543913e+01 5.1100000000e-04 0.0000e+00 1.0000e+00
       22  1    1    0    0    0 +3.1118484595e+00 -3.0465774839e+01 +1.2211647725e+01 3.2969248968e+01 0.0000000000e+00 0.0000e+00 1.0000e+00
</event>
<event>
 4      1 +2.4041262e-06 9.11880000e+01 7.81860800e-03 1.13011600e-01
       25 -1    0    0    0    0 +0.0000000000e+00 +0.0000000000e+00 +9.9999998245e-15 1.2500000000e+02 1.2500000000e+02 0.0000e+00 0.0000e+00
      -11  1    1    0    0    0 +1.2080859716e+01 -2.3414202634e+00 -1.4889333722e+01 1.9316357816e+01 5.1100000000e-04 0.0000e+00 -1.0000e+00
       11  1    1    0    0    0 +2.7187704505e+01 -4.7427183218e+00 -3.3214536934e+01 4.3184141966e+01 5.1100000000e-04 0.0000e+00 1.0000e+00
       22  1    1    0    0    0 -3.9268564221e+01 +7.0841385851e+00 +4.8103870656e+01 6.2499500218e+01 0.0000000000e+00 0.0000e+00 -1.0000e+00
</event>
<event>
 4      1 +2.4041262e-06 9.11880000e+01 7.81860800e-03 1.13011600e-01
       25 -1    0    0    0    0 +0.0000000000e+00 +0.0000000000e+00 +9.9999998245e-15 1.2500000000e+02 1.2500000000e+02 0.0000e+00 0.0000e+00
      -13  1    1    0    0    0 +5.3210476543e+01 -2.2590606019e+01 +2.3760230163e+01 6.2499999965e+01 1.0566000000e-01 0.0000e+00 -1.0000e+00
       13  1    1    0    0    0 -5.3210476574e+01 +2.2590606026e+01 -2.3760230178e+01 6.2500000000e+01 1.0566000000e-01 0.0000e+00 -1.0000e+00
       22  1    1    0    0    0 +3.1238426548e-08 -7.2789761657e-09 +1.4765837144e-08 3.5310801942e-08 0.0000000000e+00 0.0000e+00 1.0000e+00
</event>
<event>
 4      1 +2.4041262e-06 9.11880000e+01 7.81860800e-03 1.13011600e-01
       25 -1    0    0    0    0 +0.0000000000e+00 +0.0000000000e+00 +9.9999998245e-15 1.2500000000e+02 1.2500000000e+02 0.0000e+00 0.0000e+00
      -11  1    1    0    0    0 -1.8959947807e+01 -3.7768164303e+01 +2.4508498162e+01 4.8852639008e+01 5.1100000000e-04 0.0000e+00 1.0000e+00
       11  1    1    0    0    0 -5.2912411884e+00 -1.0545354446e+01 +6.8592137324e+00 1.3647364104e+01 5.1100000000e-04 0.0000e+00 -1.0000e+00
       22  1    1    0    0    0 +2.4251188996e+01 +4.8313518748e+01 -3.1367711894e+01 6.2499996888e+01 0.0000000000e+00 0.0000e+00 1.0000e+00
</event>
<event>
 4      1 +2.4041262e-06 9.11880000e+01 7.81860800e-03 1.13011600e-01
       25 -1    0    0    0    0 +0.0000000000e+00 +0.0000000000e+00 +9.9999998245e-15 1.2500000000e+02 1.2500000000e+02 0.0000e+00 0.0000e+00
      -11  1    1    0    0    0 +2.9269092539e+00 -2.7569530768e+01 -1.8444011494e+01 3.3299059819e+01 5.1100000000e-04 0.0000e+00 -1.0000e+00
       11  1    1    0    0    0 +2.6132393072e+00 -2.4225913916e+01 -1.6092668387e+01 2.9200991435e+01 5.1100000000e-04 0.0000e+00 1.0000e+00
       22  1    1    0    0    0 -5.5401485611e+00 +5.1795444684e+01 +3.4536679881e+01 6.2499948746e+01 0.0000000000e+00 0.0000e+00 -1.0000e+00
</event>
<event>
 4      1 +2.4041262e-06 9.11880000e+01 7.81860800e-03 1.13011600e-01
       25 -1    0    0    0    0 +0.0000000000e+00 +0.0000000000e+00 +9.9999998245e-15 1.2500000000e+02 1.2500000000e+02 0.0000e+00 0.0000e+00
      -13  1    1    0    0    0 +2.9519074271e+01 +5.3828570930e+01 -1.1719320349e+01 6.2499955421e+01 1.0566000000e-01 0.0000e+00 -1.0000e+00
       13  1    1    0    0    0 -2.9519096187e+01 -5.3828608866e+01 +1.1719328616e+01 6.2499999995e+01 1.0566000000e-01 0.0000e+00 -1.0000e+00
       22  1    1    0    0    0 +2.1915834383e-05 +3.7935614666e-05 -8.2668577715e-06 4.4584252760e-05 0.0000000000e+00 0.0000e+00 1.0000e+00
</event>
<event>
 4      1 +2.4041262e-06 9.11880000e+01 7.81860800e-03 1.13011600e-01
       25 -1    0    0    0    0 +0.0000000000e+00 +0.0000000000e+00 +9.9999998245e-15 1.2500000000e+02 1.2500000000e+02 0.0000e+00 0.0000e+00
      -11  1    1    0    0    0 -4.4888142951e+00 +5.6645217892e+01 -2.0543732121e+00 5.6859920976e+01 5.1100000000e-04 0.0000e+00 -1.0000e+00
       11  1    1    0    0    0 -4.4488275994e-01 +5.6185421418e+00 -2.1113868342e-01 5.6400812294e+00 5.1100000000e-04 0.0000e+00 1.0000e+00
       22  1    1    0    0    0 +4.9336970551e+00 -6.2263760034e+01 +2.2655118955e+00 6.2499997795e+01 0.0000000000e+00 0.0000e+00 -1.0000e+00
</event>
<event>
 4      1 +2.4041262e-06 9.11880000e+01 7.81860800e-03 1.13011600e-01
       25 -1    0    0    0    0 +0.0000000000e+00 +0.0000000000e+00 +9.9999998245e-15 1.2500000000e+02 1.2500000000e+02 0.0000e+00 0.0000e+00
      -13  1    1    0    0    0 -1.9217509710e+01 +5.9445212142e+01 +1.7868715444e+00 6.2500000000e+01 1.0566000000e-01 0.0000e+00 -1.0000e+00
       13  1    1    0    0    0 +1.9217509710e+01 -5.9445212142e+01 -1.7868715443e+00 6.2500000000e+01 1.0566000000e-01 0.0000e+00 -1.0000e+00
       22  1    1    0    0    0 -1.1139255429e-11 -1.4707417229e-10 -6.0047899812e-11 1.5925026040e-10 0.0000000000e+00 0.0000e+00 -1.0000e+00
</event>
<event>
 4      1 +2.4041262e-06 9.11880000e+01 7.81860800e-03 1.13011600e-01
       25 -1    0    0    0    0 +0.0000000000e+00 +0.0000000000e+00 +9.9999998245e-15 1.2500000000e+02 1.2500000000e+02 0.0000e+00 0.0000e+00
      -13  1    1    0    0    0 -4.0819756313e+01 +4.3022429695e+01 -1.9724524653e+01 6.2499999993e+01 1.0566000000e-01 0.0000e+00 1.0000e+00
       13  1    1    0    0    0 +4.0819756317e+01 -4.3022429700e+01 +1.9724524655e+01 6.2500000000e+01 1.0566000000e-01 0.0000e+00 1.0000e+00
       22  1    1    0    0    0 -4.5301846730e-09 +4.9867313870e-09 -2.2730449760e-09 7.1103302709e-09 0.0000000000e+00 0.0000e+00 1.0000e+00
</event>
<event>
 4      1 +2.4041262e-06 9.11880000e+01 7.81860800e-03 1.13011600e-01
       25 -1    0    0    0    0 +0.0000000000e+00 +0.0000000000e+00 +9.9999998245e-15 1.2500000000e+02 1.2500000000e+02 0.0000e+00 0.0000e+00
      -13  1    1    0    0    0 -3.0980652075e+01 +5.7024960907e-01 +5.4062123739e+01 6.2312521814e+01 1.0566000000e-01 0.0000e+00 -1.0000e+00
       13  1    1    0    0    0 +3.0512011591e+01 -1.5377252022e+00 -5.3008806278e+01 6.1182449748e+01 1.0566000000e-01 0.0000e+00 -1.0000e+00
       22  1    1    0    0    0 +4.6864048412e-01 +9.6747559309e-01 -1.0533174611e+00 1.5050284384e+00 0.0000000000e+00 0.0000e+00 -1.0000e+00
</event>
<event>
 4      1 +2.4041262e-06 9.11880000e+01 7.81860800e-03 1.13011600e-01
       25 -1    0    0    0    0 +0.0000000000e+00 +0.0000000000e+00 +9.9999998245e-15 1.2500000000e+02 1.2500000000e+02 0.0000e+00 0.0000e+00
      -13  1    1    0    0    0 -3.0312418540e+01 +5.4534920148e+01 -3.6522006867e+00 6.2499999738e+01 1.0566000000e-01 0.0000e+00 -1.0000e+00
       13  1    1    0    0    0 +3.0312418667e+01 -5.4534920378e+01 +3.6522007011e+00 6.2500000000e+01 1.0566000000e-01 0.0000e+00 -1.0000e+00
       22  1    1    0    0    0 -1.2646379473e-07 +2.2941094652e-07 -1.4417869743e-08 2.6235538632e-07 0.0000000000e+00 0.0000e+00 1.0000e+00
</event>
<event>
 4      1 +2.4041262e-06 9.11880000e+01 7.81860800e-03 1.13011600e-01
       25 -1    0    0    0    0 +0.0000000000e+00 +0.0000000000e+00 +9.9999998245e-15 1.2500000000e+02 1.2500000000e+02 0.0000e+00 0.0000e+00
      -13  1    1    0    0    0 +3.5343189109e+01 -8.7649215830e-01 +5.1539592364e+01 6.2500000000e+01 1.0566000000e-01 0.0000e+00 -1.0000e+00
       13  1    1    0    0    0 -3.5343189109e+01 +8.7649215824e-01 -5.1539592364e+01 6.2500000000e+01 1.0566000000e-01 0.0000e+00 -1.0000e+00
       22  1    1    0    0    0 -1.0819899622e-10 +5.7262241644e-11 -1.1069164022e-10 1.6504128670e-10 0.0000000000e+00 0.0000e+00 -1.0000e+00
</event>
<event>
 4      1 +2.4041262e-06 9.11880000e+01 7.81860800e-03 1.13011600e-01
       25 -1    0    0    0    0 +0.0000000000e+00 +0.0000000000e+00 +9.9999998245e-15 1.2500000000e+02 1.2500000000e+02 0.0000e+00 0.0000e+00
      -13  1    1    0    0    0 -4.5813812005e+01 +4.1471117342e+01 -9.3476668228e+00 6.2499191860e+01 1.0566000000e-01 0.0000e+00 1.0000e+00
       13  1    1    0    0    0 +4.5787182688e+01 -4.1446512166e+01 +9.3308113375e+00 6.2460825111e+01 1.0566000000e-01 0.0000e+00 1.0000e+00
       22  1    1    0    0    0 +2.6629317043e-02 -2.4605176833e-02 +1.6855485258e-02 3.9983029356e-02 0.0000000000e+00 0.0000e+00 1.0000e+00
</event>
<event>
 4      1 +2.4041262e-06 9.11880000e+01 7.81860800e-03 1.13011600e-01
       25 -1    0    0    0    0 +0.0000000000e+00 +0.0000000000e+00 +9.9999998245e-15 1.2500000000e+02 1.2500000000e+02 0.0000e+00 0.0000e+00
      -13  1    1    0    0    0 -2.8144309273e+00 +5.0889077080e+01 -3.6173910209e+01 6.2499457048e+01 1.0566000000e-01 0.0000e+00 -1.0000e+00
       13  1    1    0    0    0 +2.8144557004e+00 -5.0889519978e+01 +3.6174223300e+01 6.2499999999e+01 1.0566000000e-01 0.0000e+00 -1.0000e+00
       22  1    1    0    0    0 -2.4773144517e-05 +4.4289809857e-04 -3.1309122496e-04 5.4295354272e-04 0.0000000000e+00 0.0000e+00 -1.0000e+00
</event>
<event>
 4      1 +2.4041262e-06 9.11880000e+01 7.81860800e-03 1.13011600e-01
       25 -1    0    0    0    0 +0.0000000000e+00 +0.0000000000e+00 +9.9999998245e-15 1.2500000000e+02 1.2500000000e+02 0.0000e+00 0.0000e+00
      -13  1    1    0    0    0 +1.6143633065e+01 +5.8952191159e+01 -1.3001973412e+01 6.2490320912e+01 1.0566000000e-01 0.0000e+00 -1.0000e+00
       13  1    1    0    0    0 -1.6146257845e+01 -5.8961315783e+01 +1.3003858279e+01 6.2499999163e+01 1.0566000000e-01 0.0000e+00 -1.0000e+00
       22  1    1    0    0    0 +2.6247793387e-03 +9.1246235807e-03 -1.8848675227e-03 9.6799249813e-03 0.0000000000e+00 0.0000e+00 1.0000e+00
</event>
<event>
 4      1 +2.4041262e-06 9.11880000e+01 7.81860800e-03 1.13011600e-01
       25 -1    0    0    0    0 +0.0000000000e+00 +0.0000000000e+00 +9.9999998245e-15 1.2500000000e+02 1.2500000000e+02 0.0000e+00 0.0000e+00
      -13  1    1    0    0    0 -2.0536940780e+01 +2.3699181110e+01 -5.4063124697e+01 6.2499997904e+01 1.0566000000e-01 0.0000e+00 -1.0000e+00
       13  1    1    0    0    0 +2.0536941568e+01 -2.3699182035e+01 +5.4063126411e+01 6.2499999996e+01 1.0566000000e-01 0.0000e+00 -1.0000e+00
       22  1    1    0    0    0 -7.8776794736e-07 +9.2460534742e-07 -1.7137419036e-06 2.1005677088e-06 0.0000000000e+00 0.0000e+00 -1.0000e+00
</event>
<event>
 4      1 +2.4041262e-06 9.11880000e+01 7.81860800e-03 1.13011600e-01
       25 -1    0    0    0    0 +0.0000000000e+00 +0.0000000000e+00 +9.9999998245e-15 1.2500000000e+02 1.2500000000e+02 0.0000e+00 0.0000e+00
      -13  1    1    0    0    0 -3.2947716330e+01 -2.6847205520e+00 +5.3039109923e+01 6.2497344593e+01 1.0566000000e-01 0.0000e+00 1.0000e+00
       13  1    1    0    0    0 +3.2950501887e+01 +2.6873357709e+00 -5.3039000911e+01 6.2498833027e+01 1.0566000000e-01 0.0000e+00 1.0000e+00
       22  1    1    0    0    0 -2.7855575259e-03 -2.6152189723e-03 -1.0901219871e-04 3.8223794504e-03 0.0000000000e+00 0.0000e+00 -1.0000e+00
</event>
<event>
 4      1 +2.4041262e-06 9.11880000e+01 7.81860800e-03 1.13011600e-01
       25 -1    0    0    0    0 +0.0000000000e+00 +0.0000000000e+00 +9.9999998245e-15 1.2500000000e+02 1.2500000000e+02 0.0000e+00 0.0000e+00
      -11  1    1    0    0    0 -3.5414140406e+00 -1.8132447565e+00 -8.2148383595e+00 9.1275976844e+00 5.1100000000e-04 0.0000e+00 1.0000e+00
       11  1    1    0    0    0 -2.0660865288e+01 -1.0482604517e+01 -4.8081788148e+01 5.3372415194e+01 5.1100000000e-04 0.0000e+00 -1.0000e+00
       22  1    1    0    0    0 +2.4202279329e+01 +1.2295849273e+01 +5.6296626507e+01 6.2499987121e+01 0.0000000000e+00 0.0000e+00 -1.0000e+00
</event>
<event>
 4      1 +2.4041262e-06 9.11880000e+01 7.81860800e-03 1.13011600e-01
       25 -1    0    0    0    0 +0.0000000000e+00 +0.0000000000e+00 +9.9999998245e-15 1.2500000000e+02 1.2500000000e+02 0.0000e+00 0.0000e+00
      -11  1    1    0    0    0 -1.2410309439e+01 -4.8329933215e+01 -1.6512625711e+01 5.2559157462e+01 5.1100000000e-04 0.0000e+00 -1.0000e+00
       11  1    1    0    0    0 -2.0466379431e-01 -1.0207018612e+01 -4.0179296596e-01 1.0216973821e+01 5.1100000000e-04 0.0000e+00 1.0000e+00
       22  1    1    0    0    0 +1.2614973233e+01 +5.8536951827e+01 +1.6914418677e+01 6.2223868717e+01 0.0000000000e+00 0.0000e+00 -1.0000e+00
</event>
<event>
 5      1 +2.4041262e-06 9.11880000e+01 7.81860800e-03 1.13011600e-01
       25 -1    0    0    0    0 +0.0000000000e+00 +0.0000000000e+00 +9.9999998245e-15 1.2500000000e+02 1.2500000000e+02 0.0000e+00 0.0000e+00
       23  2    1    0    0    0 +2.9911725763e+01 +1.7004915741e-01 +1.0966716656e+01 9.3140792084e+01 8.7522557212e+01 0.0000e+00 0.0000e+00
      -11  1    2    2    0    0 -6.2546190912e+00 +3.1334584368e+01 -1.8612951086e+01 3.6978620660e+01 5.1100000000e-04 0.0000e+00 -1.0000e+00
       11  1    2    2    0    0 +3.6166344854e+01 -3.1164535211e+01 +2.9579667742e+01 5.6162171424e+01 5.1100000000e-04 0.0000e+00 1.0000e+00
       22  1    1    0    0    0 -2.9911725763e+01 -1.7004915741e-01 -1.0966716656e+01 3.1859207916e+01 0.0000000000e+00 0.0000e+00 1.0000e+00
</event>
<event>
 4      1 +2.4041262e-06 9.11880000e+01 7.81860800e-03 1.13011600e-01
       25 -1    0    0    0    0 +0.0000000000e+00 +0.0000000000e+00 +9.9999998245e-15 1.2500000000e+02 1.2500000000e+02 0.0000e+00 0.0000e+00
      -11  1    1    0    0    0 -8.6009144675e+00 +4.4065432158e+01 +3.3521291827e+01 5.6030483194e+01 5.1100000000e-04 0.0000e+00 -1.0000e+00
       11  1    1    0    0    0 -9.7888117183e-01 +5.3958525809e+00 +3.4500828285e+00 6.4789277823e+00 5.1100000000e-04 0.0000e+00 1.0000e+00
       22  1    1    0    0    0 +9.5797956393e+00 -4.9461284739e+01 -3.6971374656e+01 6.2490589023e+01 0.0000000000e+00 0.0000e+00 -1.0000e+00
</event>
<event>
 4      1 +2.4041262e-06 9.11880000e+01 7.81860800e-03 1.13011600e-01
       25 -1    0    0    0    0 +0.0000000000e+00 +0.0000000000e+00 +9.9999998245e-15 1.2500000000e+02 1.2500000000e+02 0.0000e+00 0.0000e+00
      -13  1    1    0    0    0 -2.8995633338e+01 +2.0034891881e+01 -4.6873584189e+01 5.8645440608e+01 1.0566000000e-01 0.0000e+00 1.0000e+00
       13  1    1    0    0    0 +3.0885293160e+01 -2.1366622120e+01 +4.9957990653e+01 6.2499966948e+01 1.0566000000e-01 0.0000e+00 1.0000e+00
       22  1    1    0    0    0 -1.8896598212e+00 +1.3317302392e+00 -3.0844064644e+00 3.8545924438e+00 0.0000000000e+00 0.0000e+00 1.0000e+00
</event>
<event>
 4      1 +2.4041262e-06 9.11880000e+01 7.81860800e-03 1.13011600e-01
       25 -1    0    0    0    0 +0.0000000000e+00 +0.0000000000e+00 +9.9999998245e-15 1.2500000000e+02 1.2500000000e+02 0.0000e+00 0.0000e+00
      -13  1    1    0    0    0 -2.0843634348e-02 -2.5862962267e+01 +5.6897001818e+01 6.2499385850e+01 1.0566000000e-01 0.0000e+00 1.0000e+00
       13  1    1    0    0    0 -2.8521927015e-03 +2.3977934943e+01 -5.2984076353e+01 5.8157242742e+01 1.0566000000e-01 0.0000e+00 1.0000e+00
       22  1    1    0    0    0 +2.3695827049e-02 +1.8850273240e+00 -3.9129254645e+00 4.3433714089e+00 0.0000000000e+00 0.0000e+00 -1.0000e+00
</event>
<event>
 5      1 +2.4041262e-06 9.11880000e+01 7.81860800e-03 1.13011600e-01
       25 -1    0    0    0    0 +0.0000000000e+00 +0.0000000000e+00 +9.9999998245e-15 1.2500000000e+02 1.2500000000e+02 0.0000e+00 0.0000e+00
       23  2    1    0    0    0 -1.9011783923e+01 -2.2091756131e+01 +6.4131870262e-01 9.5846871410e+01 9.1305628811e+01 0.0000e+00 0.0000e+00
      -11  1    2    2    0    0 -4.1285344216e+01 -4.4030605185e+01 +1.3817268056e+01 6.1920035019e+01 5.1100000000e-04 0.0000e+00 -1.0000e+00
       11  1    2    2    0    0 +2.2273560293e+01 +2.1938849053e+01 -1.3175949354e+01 3.3926836391e+01 5.1100000000e-04 0.0000e+00 1.0000e+00
       22  1    1    0    0    0 +1.9011783923e+01 +2.2091756131e+01 -6.4131870262e-01 2.9153128590e+01 0.0000000000e+00 0.0000e+00 -1.0000e+00
</event>
<event>
 4      1 +2.4041262e-06 9.11880000e+01 7.81860800e-03 1.13011600e-01
       25 -1    0    0    0    0 +0.0000000000e+00 +0.0000000000e+00 +9.9999998245e-15 1.2500000000e+02 1.2500000000e+02 0.0000e+00 0.0000e+00
      -13  1    1    0    0    0 -9.3635260212e+00 -5.9395078014e+01 +1.7052494559e+01 6.2499997172e+01 1.0566000000e-01 0.0000e+00 1.0000e+00
       13  1    1    0    0    0 +9.3635257218e+00 +5.9395080566e+01 -1.7052495914e+01 6.2499999923e+01 1.0566000000e-01 0.0000e+00 1.0000e+00
       22  1    1    0    0    0 +2.9945548150e-07 -2.5523147531e-06 +1.3552715634e-06 2.9052960598e-06 0.0000000000e+00 0.0000e+00 1.0000e+00
</event>
<event>
 4      1 +2.4041262e-06 9.11880000e+01 7.81860800e-03 1.13011600e-01
       25 -1    0    0    0    0 +0.0000000000e+00 +0.0000000000e+00 +9.9999998245e-15 1.2500000000e+02 1.2500000000e+02 0.0000e+00 0.0000e+00
      -13  1    1    0    0    0 +3.4264884684e+01 +8.8579569118e+00 -2.5775859071e+01 4.3783008096e+01 1.0566000000e-01 0.0000e+00 1.0000e+00
       13  1    1    0    0    0 -4.8900282539e+01 -1.2689849730e+01 +3.6796249210e+01 6.2499960308e+01 1.0566000000e-01 0.0000e+00 1.0000e+00
       22  1    1    0    0    0 +1.4635397855e+01 +3.8318928177e+00 -1.1020390140e+01 1.8717031596e+01 0.0000000000e+00 0.0000e+00 1.0000e+00
</event>
<event>
 5      1 +2.4041262e-06 9.11880000e+01 7.81860800e-03 1.13011600e-01
       25 -1    0    0    0    0 +0.0000000000e+00 +0.0000000000e+00 +9.9999998245e-15 1.2500000000e+02 1.2500000000e+02 0.0000e+00 0.0000e+00
       23  2    1    0    0    0 +2.6939591233e-01 -3.7982918803e+00 +2.8092856402e+01 9.6650252625e+01 9.2398934822e+01 0.0000e+00 0.0000e+00
      -11  1    2    2    0    0 -1.6375265052e+01 -7.7570882091e+00 +5.8783576715e+01 6.1512849184e+01 5.1100000000e-04 0.0000e+00 1.0000e+00
       11  1    2    2    0    0 +1.6644660965e+01 +3.9587963288e+00 -3.0690720313e+01 3.5137403441e+01 5.1100000000e-04 0.0000e+00 -1.0000e+00
       22  1    1    0    0    0 -2.6939591233e-01 +3.7982918803e+00 -2.8092856402e+01 2.8349747375e+01 0.0000000000e+00 0.0000e+00 1.0000e+00
</event>
<event>
 4      1 +2.4041262e-06 9.11880000e+01 7.81860800e-03 1.13011600e-01
       25 -1    0    0    0    0 +0.0000000000e+00 +0.0000000000e+00 +9.9999998245e-15 1.2500000000e+02 1.2500000000e+02 0.0000e+00 0.0000e+00
      -13  1    1    0    0    0 -1.3442000532e+01 +4.7204336629e+01 -3.8694987545e+01 6.2500000000e+01 1.0566000000e-01 0.0000e+00 -1.0000e+00
       13  1    1    0    0    0 +1.3442000354e+01 -4.7204336011e+01 +3.8694987038e+01 6.2499999181e+01 1.0566000000e-01 0.0000e+00 -1.0000e+00
       22  1    1    0    0    0 +1.7739298734e-07 -6.1840241287e-07 +5.0651279175e-07 8.1880707399e-07 0.0000000000e+00 0.0000e+00 1.0000e+00
</event>
<event>
 4      1 +2.4041262e-06 9.11880000e+01 7.81860800e-03 1.13011600e-01
       25 -1    0    0    0    0 +0.0000000000e+00 +0.0000000000e+00 +9.9999998245e-15 1.2500000000e+02 1.2500000000e+02 0.0000e+00 0.0000e+00
      -13  1    1    0    0    0 +1.0683128771e+01 +5.1122458924e+01 -3.4329899613e+01 6.2499505744e+01 1.0566000000e-01 0.0000e+00 1.0000e+00
       13  1    1    0    0    0 -1.0325072441e+01 -4.9191141674e+01 +3.3097860304e+01 6.0181849929e+01 1.0566000000e-01 0.0000e+00 1.0000e+00
       22  1    1    0    0    0 -3.5805632916e-01 -1.9313172499e+00 +1.2320393094e+00 2.3186443269e+00 0.0000000000e+00 0.0000e+00 1.0000e+00
</event>
<event>
 4      1 +2.4041262e-06 9.11880000e+01 7.81860800e-03 1.13011600e-01
       25 -1    0    0    0    0 +0.0000000000e+00 +0.0000000000e+00 +9.9999998245e-15 1.2500000000e+02 1.2500000000e+02 0.0000e+00 0.0000e+00
      -13  1    1    0    0    0 -5.5063208862e+01 +1.4311488994e+00 -2.0487077646e+01 5.8768500677e+01 1.0566000000e-01 0.0000e+00 1.0000e+00
       13  1    1    0    0    0 -3.2637384706e+00 +1.5153040180e+00 +4.3407421321e+00 5.6392678039e+00 1.0566000000e-01 0.0000e+00 -1.0000e+00
       22  1    1    0    0    0 +5.8326947332e+01 -2.9464529173e+00 +1.6146335514e+01 6.0592231519e+01 0.0000000000e+00 0.0000e+00 1.0000e+00
</event>
<event>
 4      1 +2.4041262e-06 9.11880000e+01 7.81860800e-03 1.13011600e-01
       25 -1    0    0    0    0 +0.0000000000e+00 +0.0000000000e+00 +9.9999998245e-15 1.2500000000e+02 1.2500000000e+02 0.0000e+00 0.0000e+00
      -13  1    1    0    0    0 -8.2509285735e+00 +3.1730904300e+01 -5.3210061643e+01 6.2499999473e+01 1.0566000000e-01 0.0000e+00 -1.0000e+00
       13  1    1    0    0    0 +8.2506623686e+00 -3.1729966148e+01 +5.3208364201e+01 6.2498042899e+01 1.0566000000e-01 0.0000e+00 -1.0000e+00
       22  1    1    0    0    0 +2.6620481402e-04 -9.3815225631e-04 +1.6974426700e-03 1.9576277166e-03 0.0000000000e+00 0.0000e+00 1.0000e+00
</event>
<event>
 4      1 +2.4041262e-06 9.11880000e+01 7.81860800e-03 1.13011600e-01
       25 -1    0    0    0    0 +0.0000000000e+00 +0.0000000000e+00 +9.9999998245e-15 1.2500000000e+02 1.2500000000e+02 0.0000e+00 0.0000e+00
      -13  1    1    0    0    0 -5.0953512596e+01 -2.7234149989e+01 +2.3838612875e+01 6.2499999995e+01 1.0566000000e-01 0.0000e+00 -1.0000e+00
       13  1    1    0    0    0 +5.0953512596e+01 +2.7234149971e+01 -2.3838612862e+01 6.2499999982e+01 1.0566000000e-01 0.0000e+00 -1.0000e+00
       22  1    1    0    0    0 +5.4238166840e-10 +1.8329070507e-08 -1.3535002158e-08 2.2791342368e-08 0.0000000000e+00 0.0000e+00 1.0000e+00
</event>
<event>
 4      1 +2.4041262e-06 9.11880000e+01 7.81860800e-03 1.13011600e-01
       25 -1    0    0    0    0 +0.0000000000e+00 +0.0000000000e+00 +9.9999998245e-15 1.2500000000e+02 1.2500000000e+02 0.0000e+00 0.0000e+00
      -13  1    1    0    0    0 +1.8794096469e+01 +5.6675394035e+01 -1.8464032188e+01 6.2499999998e+01 1.0566000000e-01 0.0000e+00 -1.0000e+00
       13  1    1    0    0    0 -1.8794080823e+01 -5.6675344841e+01 +1.8464016445e+01 6.2499946033e+01 1.0566000000e-01 0.0000e+00 -1.0000e+00
       22  1    1    0    0    0 -1.5645916983e-05 -4.9193384205e-05 +1.5743118310e-05 5.3968783031e-05 0.0000000000e+00 0.0000e+00 -1.0000e+00
</event>
<event>
 4      1 +2.4041262e-06 9.11880000e+01 7.81860800e-03 1.13011600e-01
       25 -1    0    0    0    0 +0.0000000000e+00 +0.0000000000e+00 +9.9999998245e-15 1.2500000000e+02 1.2500000000e+02 0.0000e+00 0.0000e+00
      -13  1    1    0    0    0 -1.1858856907e+01 -2.1572263213e+01 +1.9955529840e+01 3.1689578137e+01 1.0566000000e-01 0.0000e+00 -1.0000e+00
       13  1    1    0    0    0 +2.6536219536e+01 +4.1913436890e+01 -3.7933990329e+01 6.2449226781e+01 1.0566000000e-01 0.0000e+00 -1.0000e+00
       22  1    1    0    0    0 -1.4677362629e+01 -2.0341173677e+01 +1.7978460489e+01 3.0861195082e+01 0.0000000000e+00 0.0000e+00 1.0000e+00
</event>
<event>
 5      1 +2.4041262e-06 9.11880000e+01 7.81860800e-03 1.13011600e-01
       25 -1    0    0    0    0 +0.0000000000e+00 +0.0000000000e+00 +9.9999998245e-15 1.2500000000e+02 1.2500000000e+02 0.0000e+00 0.0000e+00
       23  2    1    0    0    0 -1.1735408425e+01 -1.4466926539e+01 +2.4037848528e+01 9.4588983308e+01 8.9566990722e+01 0.0000e+00 0.0000e+00
      -11  1    2    2    0    0 -1.2832518119e+01 -5.0725041988e+01 +2.4582873082e+00 5.2380784479e+01 5.1100000000e-04 0.0000e+00 -1.0000e+00
       11  1    2    2    0    0 +1.0971096936e+00 +3.6258115449e+01 +2.1579561220e+01 4.2208198828e+01 5.1100000000e-04 0.0000e+00 1.0000e+00
       22  1    1    0    0    0 +1.1735408425e+01 +1.4466926539e+01 -2.4037848528e+01 3.0411016692e+01 0.0000000000e+00 0.0000e+00 -1.0000e+00
</event>
<event>
 4      1 +2.4041262e-06 9.11880000e+01 7.81860800e-03 1.13011600e-01
       25 -1    0    0    0    0 +0.0000000000e+00 +0.0000000000e+00 +9.9999998245e-15 1.2500000000e+02 1.2500000000e+02 0.0000e+00 0.0000e+00
      -13  1    1    0    0    0 +2.5230096001e+01 -4.2575415569e+01 -3.8170843176e+01 6.2499985503e+01 1.0566000000e-01 0.0000e+00 1.0000e+00
       13  1    1    0    0    0 -2.5230101858e+01 +4.2575425461e+01 +3.8170852007e+01 6.2500000000e+01 1.0566000000e-01 0.0000e+00 1.0000e+00
       22  1    1    0    0    0 +5.8570411738e-06 -9.8927088503e-06 -8.8313090035e-06 1.4496987219e-05 0.0000000000e+00 0.0000e+00 -1.0000e+00
</event>
<event>
 4      1 +2.4041262e-06 9.11880000e+01 7.81860800e-03 1.13011600e-01
       25 -1    0    0    0    0 +0.0000000000e+00 +0.0000000000e+00 +9.9999998245e-15 1.2500000000e+02 1.2500000000e+02 0.0000e+00 0.0000e+00
      -13  1    1    0    0    0 -3.1620790838e+00 +5.2176441235e+01 -3.4261626780e+01 6.2499999982e+01 1.0566000000e-01 0.0000e+00 1.0000e+00
       13  1    1    0    0    0 +3.1620787461e+00 -5.2176437134e+01 +3.4261624765e+01 6.2499995436e+01 1.0566000000e-01 0.0000e+00 1.0000e+00
       22  1    1    0    0    0 +3.3770404348e-07 -4.1009188044e-06 +2.0155873322e-06 4.5819396935e-06 0.0000000000e+00 0.0000e+00 -1.0000e+00
</event>
<event>
 4      1 +2.4041262e-06 9.11880000e+01 7.81860800e-03 1.13011600e-01
       25 -1    0    0    0    0 +0.0000000000e+00 +0.0000000000e+00 +9.9999998245e-15 1.2500000000e+02 1.2500000000e+02 0.0000e+00 0.0000e+00
      -11  1    1    0    0    0 -4.6702962863e+00 +6.8299196953e-01 -1.7530786727e+00 5.0350204097e+00 5.1100000000e-04 0.0000e+00 1.0000e+00
       11  1    1    0    0    0 -4.3958695479e+01 +3.0855183796e+01 +2.2738956251e+01 5.8322117648e+01 5.1100000000e-04 0.0000e+00 -1.0000e+00
       22  1    1    0    0    0 +4.8628991765e+01 -3.1538175766e+01 -2.0985877578e+01 6.1642861942e+01 0.0000000000e+00 0.0000e+00 -1.0000e+00
</event>
<event>
 5      1 +2.4041262e-06 9.11880000e+01 7.81860800e-03 1.13011600e-01
       25 -1    0    0    0    0 +0.0000000000e+00 +0.0000000000e+00 +9.9999998245e-15 1.2500000000e+02 1.2500000000e+02 0.0000e+00 0.0000e+00
       23  2    1    0    0    0 -3.9794835482e-04 +2.7949677578e+01 -9.1103937550e+00 9.5602997581e+01 9.0971145949e+01 0.0000e+00 0.0000e+00
      -13  1    2    2    0    0 -2.6483231389e+01 +3.9145407557e+01 +2.2948702011e+01 5.2539304959e+01 1.0566000000e-01 0.0000e+00 1.0000e+00
       13  1    2    2    0    0 +2.6482833441e+01 -1.1195729979e+01 -3.2059095766e+01 4.3063692621e+01 1.0566000000e-01 0.0000e+00 -1.0000e+00
       22  1    1    0    0    0 +3.9794835482e-04 -2.7949677578e+01 +9.1103937550e+00 2.9397002419e+01 0.0000000000e+00 0.0000e+00 1.0000e+00
</event>
<event>
 4      1 +2.4041262e-06 9.11880000e+01 7.81860800e-03 1.13011600e-01
       25 -1    0    0    0    0 +0.0000000000e+00 +0.0000000000e+00 +9.9999998245e-15 1.2500000000e+02 1.2500000000e+02 0.0000e+00 0.0000e+00
      -13  1    1    0    0    0 -5.3716629954e+01 -3.1852315927e+01 -2.4884666960e+00 6.2499999953e+01 1.0566000000e-01 0.0000e+00 1.0000e+00
       13  1    1    0    0    0 +5.3716628504e+01 +3.1852314369e+01 +2.4884668002e+00 6.2499997917e+01 1.0566000000e-01 0.0000e+00 1.0000e+00
       22  1    1    0    0    0 +1.4498474854e-06 +1.5580938000e-06 -1.0425674385e-07 2.1308644934e-06 0.0000000000e+00 0.0000e+00 -1.0000e+00
</event>
<event>
 4      1 +2.4041262e-06 9.11880000e+01 7.81860800e-03 1.13011600e-01
       25 -1    0    0    0    0 +0.0000000000e+00 +0.0000000000e+00 +9.9999998245e-15 1.2500000000e+02 1.2500000000e+02 0.0000e+00 0.0000e+00
      -13  1    1    0    0    0 +4.8088673782e+01 +3.7678206809e+01 -1.3187486282e+01 6.2498710170e+01 1.0566000000e-01 0.0000e+00 -1.0000e+00
       13  1    1    0    0    0 -3.1403787995e+01 -2.4387650727e+01 +8.3717704055e+00 4.0633152870e+01 1.0566000000e-01 0.0000e+00 -1.0000e+00
       22  1    1    0    0    0 -1.6684885787e+01 -1.3290556082e+01 +4.8157158769e+00 2.1868136960e+01 0.0000000000e+00 0.0000e+00 -1.0000e+00
</event>
<event>
 5      1 +2.4041262e-06 9.11880000e+01 7.81860800e-03 1.13011600e-01
       25 -1    0    0    0    0 +0.0000000000e+00 +0.0000000000e+00 +9.9999998245e-15 1.2500000000e+02 1.2500000000e+02 0.0000e+00 0.0000e+00
       23  2    1    0    0    0 -1.2296439960e+01 -2.6363722477e+01 -4.3013721865e+00 9.5593366374e+01 9.0957911110e+01 0.0000e+00 0.0000e+00
      -11  1    2    2    0    0 +1.8329493083e+01 +3.8815939612e+00 +3.3450449401e+01 3.8340183277e+01 5.1100000000e-04 0.0000e+00 -1.0000e+00
       11  1    2    2    0    0 -3.0625933043e+01 -3.0245316438e+01 -3.7751821588e+01 5.7253183096e+01 5.1100000000e-04 0.0000e+00 1.0000e+00
       22  1    1    0    0    0 +1.2296439960e+01 +2.6363722477e+01 +4.3013721865e+00 2.9406633626e+01 0.0000000000e+00 0.0000e+00 1.0000e+00
</event>
<event>
 4      1 +2.4041262e-06 9.11880000e+01 7.81860800e-03 1.13011600e-01
       25 -1    0    0    0    0 +0.0000000000e+00 +0.0000000000e+00 +9.9999998245e-15 1.2500000000e+02 1.2500000000e+02 0.0000e+00 0.0000e+00
      -11  1    1    0    0    0 -4.9959785757e+01 +2.0062152446e+01 +1.0463942998e+01 5.4844910949e+01 5.1100000000e-04 0.0000e+00 -1.0000e+00
       11  1    1    0    0    0 -7.0198571289e+00 +2.5381807977e+00 +1.7143476358e+00 7.6589649399e+00 5.1100000000e-04 0.0000e+00 1.0000e+00
       22  1    1    0    0    0 +5.6979642886e+01 -2.2600333243e+01 -1.2178290634e+01 6.2496124111e+01 0.0000000000e+00 0.0000e+00 -1.0000e+00
</event>
<event>
 4      1 +2.4041262e-06 9.11880000e+01 7.81860800e-03 1.13011600e-01
       25 -1    0    0    0    0 +0.0000000000e+00 +0.0000000000e+00 +9.9999998245e-15 1.2500000000e+02 1.2500000000e+02 0.0000e+00 0.0000e+00
      -13  1    1    0    0    0 -3.3385325625e+01 +5.1606527208e+01 +1.0597901170e+01 6.2370989176e+01 1.0566000000e-01 0.0000e+00 1.0000e+00
       13  1    1    0    0    0 +3.2848419111e+01 -5.1576870434e+01 -1.0709676018e+01 6.2079791609e+01 1.0566000000e-01 0.0000e+00 1.0000e+00
       22  1    1    0    0    0 +5.3690651419e-01 -2.9656773925e-02 +1.1177484867e-01 5.4921921490e-01 0.0000000000e+00 0.0000e+00 1.0000e+00
</event>
<event>
 5      1 +2.4041262e-06 9.11880000e+01 7.81860800e-03 1.13011600e-01
       25 -1    0    0    0    0 +0.0000000000e+00 +0.0000000000e+00 +9.9999998245e-15 1.2500000000e+02 1.2500000000e+02 0.0000e+00 0.0000e+00
       23  2    1    0    0    0 -1.8916188260e+01 -1.5468851326e+01 -4.4382307308e+00 1.0016443213e+02 9.7036632420e+01 0.0000e+00 0.0000e+00
      -13  1    2    2    0    0 -4.4712360046e+01 -4.3132362684e+01 -5.0901120343e+00 6.2333909360e+01 1.0566000000e-01 0.0000e+00 -1.0000e+00
       13  1    2    2    0    0 +2.5796171786e+01 +2.7663511358e+01 +6.5188130353e-01 3.7830522766e+01 1.0566000000e-01 0.0000e+00 -1.0000e+00
       22  1    1    0    0    0 +1.8916188260e+01 +1.5468851326e+01 +4.4382307308e+00 2.4835567874e+01 0.0000000000e+00 0.0000e+00 -1.0000e+00
</event>
<event>
 5      1 +2.4041262e-06 9.11880000e+01 7.81860800e-03 1.13011600e-01
       25 -1    0    0    0    0 +0.0000000000e+00 +0.0000000000e+00 +9.9999998245e-15 1.2500000000e+02 1.2500000000e+02 0.0000e+00 0.0000e+00
       23  2    1    0    0    0 -2.1557195933e+01 -1.9411729876e+01 -3.5782536872e+00 9.5771044276e+01 9.1201760229e+01 0.0000e+00 0.0000e+00
      -13  1    2    2    0    0 -3.4149190603e+01 -4.6045719115e+01 +1.7047107114e+01 5.9807946735e+01 1.0566000000e-01 0.0000e+00 1.0000e+00
       13  1    2    2    0    0 +1.2591994670e+01 +2.6633989239e+01 -2.0625360801e+01 3.5963097541e+01 1.0566000000e-01 0.0000e+00 -1.0000e+00
       22  1    1    0    0    0 +2.1557195933e+01 +1.9411729876e+01 +3.5782536872e+00 2.9228955724e+01 0.0000000000e+00 0.0000e+00 1.0000e+00
</event>
<event>
 4      1 +2.4041262e-06 9.11880000e+01 7.81860800e-03 1.13011600e-01
       25 -1    0    0    0    0 +0.0000000000e+00 +0.0000000000e+00 +9.9999998245e-15 1.2500000000e+02 1.2500000000e+02 0.0000e+00 0.0000e+00
      -11  1    1    0    0    0 -7.1356585023e-01 +1.6803380714e+00 -9.0519021123e+00 9.2341563972e+00 5.1100000000e-04 0.0000e+00 -1.0000e+00
       11  1    1    0    0    0 -4.1172608835e+00 +9.6905690027e+00 -5.2214855463e+01 5.3265843615e+01 5.1100000000e-04 0.0000e+00 -1.0000e+00
       22  1    1    0    0    0 +4.8308267338e+00 -1.1370907074e+01 +6.1266757575e+01 6.2499999987e+01 0.0000000000e+00 0.0000e+00 -1.0000e+00
</event>
<event>
 5      1 +2.4041262e-06 9.11880000e+01 7.81860800e-03 1.13011600e-01
       25 -1    0    0    0    0 +0.0000000000e+00 +0.0000000000e+00 +9.9999998245e-15 1.2500000000e+02 1.2500000000e+02 0.0000e+00 0.0000e+00
       23  2    1    0    0    0 +2.7349547825e+01 +6.8821942640e+00 -1.1842216706e+01 9.4412413292e+01 8.9320229080e+01 0.0000e+00 0.0000e+00
      -13  1    2    2    0    0 -1.0571373438e+01 +2.9927410166e+01 +2.1988855960e+01 3.8612494948e+01 1.0566000000e-01 0.0000e+00 -1.0000e+00
       13  1    2    2    0    0 +3.7920921263e+01 -2.3045215902e+01 -3.3831072666e+01 5.5799918344e+01 1.0566000000e-01 0.0000e+00 1.0000e+00
       22  1    1    0    0    0 -2.7349547825e+01 -6.8821942640e+00 +1.1842216706e+01 3.0587586708e+01 0.0000000000e+00 0.0000e+00 -1.0000e+00
</event>
<event>
 4      1 +2.4041262e-06 9.11880000e+01 7.81860800e-03 1.13011600e-01
       25 -1    0    0    0    0 +0.0000000000e+00 +0.0000000000e+00 +9.9999998245e-15 1.2500000000e+02 1.2500000000e+02 0.0000e+00 0.0000e+00
      -11  1    1    0    0    0 -7.3522916247e+00 -5.5965097449e-01 -4.2348928446e+00 8.5031593549e+00 5.1100000000e-04 0.0000e+00 -1.0000e+00
       11  1    1    0    0    0 -5.3070347808e+01 -6.5166418839e+00 -9.0452037794e+00 5.4228628506e+01 5.1100000000e-04 0.0000e+00 1.0000e+00
       22  1    1    0    0    0 +6.0422639433e+01 +7.0762928584e+00 +1.3280096624e+01 6.2268212139e+01 0.0000000000e+00 0.0000e+00 1.0000e+00
</event>
<event>
 4      1 +2.4041262e-06 9.11880000e+01 7.81860800e-03 1.13011600e-01
       25 -1    0    0    0    0 +0.0000000000e+00 +0.0000000000e+00 +9.9999998245e-15 1.2500000000e+02 1.2500000000e+02 0.0000e+00 0.0000e+00
      -13  1    1    0    0    0 -1.2408174034e+01 +2.8061857896e+01 -5.4450052199e+01 6.2500000000e+01 1.0566000000e-01 0.0000e+00 1.0000e+00
       13  1    1    0    0    0 +1.2408173994e+01 -2.8061857802e+01 +5.4450052020e+01 6.2499999794e+01 1.0566000000e-01 0.0000e+00 1.0000e+00
       22  1    1    0    0    0 +4.0504250880e-08 -9.4261549512e-08 +1.7888010006e-07 2.0621329795e-07 0.0000000000e+00 0.0000e+00 1.0000e+00
</event>
<event>
 4      1 +2.4041262e-06 9.11880000e+01 7.81860800e-03 1.13011600e-01
       25 -1    0    0    0    0 +0.0000000000e+00 +0.0000000000e+00 +9.9999998245e-15 1.2500000000e+02 1.2500000000e+02 0.0000e+00 0.0000e+00
      -13  1    1    0    0    0 -4.5608635344e+01 +1.7676741471e+00 +4.1769697136e+01 6.1870760887e+01 1.0566000000e-01 0.0000e+00 1.0000e+00
       13  1    1    0    0    0 +4.6061351628e+01 -1.7826092510e+00 -4.2206625052e+01 6.2499889374e+01 1.0566000000e-01 0.0000e+00 1.0000e+00
       22  1    1    0    0    0 -4.5271628323e-01 +1.4935103944e-02 +4.3692791527e-01 6.2934973868e-01 0.0000000000e+00 0.0000e+00 -1.0000e+00
</event>
<event>
 4      1 +2.4041262e-06 9.11880000e+01 7.81860800e-03 1.13011600e-01
       25 -1    0    0    0    0 +0.0000000000e+00 +0.0000000000e+00 +9.9999998245e-15 1.2500000000e+02 1.2500000000e+02 0.0000e+00 0.0000e+00
      -11  1    1    0    0    0 -1.6188665737e+00 -1.1174266534e+01 +8.7563678006e+00 1.4288419747e+01 5.1100000000e-04 0.0000e+00 -1.0000e+00
       11  1    1    0    0    0 -6.0140622150e+00 -3.7971963909e+01 +2.9092678304e+01 4.8212269379e+01 5.1100000000e-04 0.0000e+00 1.0000e+00
       22  1    1    0    0    0 +7.6329287887e+00 +4.9146230443e+01 -3.7849046105e+01 6.2499310874e+01 0.0000000000e+00 0.0000e+00 1.0000e+00
</event>
<event>
 5      1 +2.4041262e-06 9.11880000e+01 7.81860800e-03 1.13011600e-01
       25 -1    0    0    0    0 +0.0000000000e+00 +0.0000000000e+00 +9.9999998245e-15 1.2500000000e+02 1.2500000000e+02 0.0000e+00 0.0000e+00
       23  2    1    0    0    0 -2.5979388267e+01 -1.3703720210e+01 -7.4858942485e+00 9.4688959519e+01 8.9706409357e+01 0.0000e+00 0.0000e+00
      -11  1    2    2    0    0 +1.8724701371e+01 -3.7928556492e+01 -1.1050119940e+01 4.3718359873e+01 5.1100000000e-04 0.0000e+00 1.0000e+00
       11  1    2    2    0    0 -4.4704089638e+01 +2.4224836282e+01 +3.5642256911e+00 5.0970599647e+01 5.1100000000e-04 0.0000e+00 -1.0000e+00
       22  1    1    0    0    0 +2.5979388267e+01 +1.3703720210e+01 +7.4858942485e+00 3.0311040481e+01 0.0000000000e+00 0.0000e+00 1.0000e+00
</event>
<event>
 4      1 +2.4041262e-06 9.11880000e+01 7.81860800e-03 1.13011600e-01
       25 -1    0    0    0    0 +0.0000000000e+00 +0.0000000000e+00 +9.9999998245e-15 1.2500000000e+02 1.2500000000e+02 0.0000e+00 0.0000e+00
      -11  1    1    0    0    0 +2.8234265941e+01 +2.7725253938e+00 +2.0032694017e+01 3.4729951053e+01 5.1100000000e-04 0.0000e+00 -1.0000e+00
       11  1    1    0    0    0 +2.2580296378e+01 +2.2085077549e+00 +1.6013380600e+01 2.7770049505e+01 5.1100000000e-04 0.0000e+00 1.0000e+00
       22  1    1    0    0    0 -5.0814562319e+01 -4.9810331486e+00 -3.6046074617e+01 6.2499999442e+01 0.0000000000e+00 0.0000e+00 -1.0000e+00
</event>
<event>
 4      1 +2.4041262e-06 9.11880000e+01 7.81860800e-03 1.13011600e-01
       25 -1    0    0    0    0 +0.0000000000e+00 +0.0000000000e+00 +9.9999998245e-15 1.2500000000e+02 1.2500000000e+02 0.0000e+00 0.0000e+00
      -13  1    1    0    0    0 -3.9683851370e+01 -1.2444271979e+01 +4.6653733734e+01 6.2500000000e+01 1.0566000000e-01 0.0000e+00 1.0000e+00
       13  1    1    0    0    0 +3.9683851169e+01 +1.2444271912e+01 -4.6653733491e+01 6.2499999678e+01 1.0566000000e-01 0.0000e+00 1.0000e+00
       22  1    1    0    0    0 +2.0113158870e-07 +6.6752867866e-08 -2.4259512159e-07 3.2212149006e-07 0.0000000000e+00 0.0000e+00 -1.0000e+00
</event>
<event>
 4      1 +2.4041262e-06 9.11880000e+01 7.81860800e-03 1.13011600e-01
       25 -1    0    0    0    0 +0.0000000000e+00 +0.0000000000e+00 +9.9999998245e-15 1.2500000000e+02 1.2500000000e+02 0.0000e+00 0.0000e+00
      -13  1    1    0    0    0 +1.7334438442e+01 +4.1706103622e+01 -4.3182400578e+01 6.2486900380e+01 1.0566000000e-01 0.0000e+00 -1.0000e+00
       13  1    1    0    0    0 -1.7086830896e+01 -4.1494493023e+01 +4.2840658631e+01 6.2041002065e+01 1.0566000000e-01 0.0000e+00 -1.0000e+00
       22  1    1    0    0    0 -2.4760754647e-01 -2.1161059938e-01 +3.4174194696e-01 4.7209755469e-01 0.0000000000e+00 0.0000e+00 1.0000e+00
</event>
<event>
 5      1 +2.4041262e-06 9.11880000e+01 7.81860800e-03 1.13011600e-01
       25 -1    0    0    0    0 +0.0000000000e+00 +0.0000000000e+00 +9.9999998245e-15 1.2500000000e+02 1.2500000000e+02 0.0000e+00 0.0000e+00
       23  2    1    0    0    0 +2.2729858219e+01 -1.2602846316e+01 +1.3412941857e+01 9.5753030940e+01 9.1177068033e+01 0.0000e+00 0.0000e+00
      -13  1    2    2    0    0 +3.8171553192e+00 -6.8331322744e+00 -3.8977252300e+01 3.9755499397e+01 1.0566000000e-01 0.0000e+00 -1.0000e+00
       13  1    2    2    0    0 +1.8912702900e+01 -5.7697140415e+00 +5.2390194157e+01 5.5997531543e+01 1.0566000000e-01 0.0000e+00 1.0000e+00
       22  1    1    0    0    0 -2.2729858219e+01 +1.2602846316e+01 -1.3412941857e+01 2.9246969060e+01 0.0000000000e+00 0.0000e+00 1.0000e+00
</event>
<event>
 4      1 +2.4041262e-06 9.11880000e+01 7.81860800e-03 1.13011600e-01
       25 -1    0    0    0    0 +0.0000000000e+00 +0.0000000000e+00 +9.9999998245e-15 1.2500000000e+02 1.2500000000e+02 0.0000e+00 0.0000e+00
      -13  1    1    0    0    0 +1.1454031762e+01 -4.8710719038e+01 +3.7447427719e+01 6.2499999997e+01 1.0566000000e-01 0.0000e+00 -1.0000e+00
       13  1    1    0    0    0 -1.1453804533e+01 +4.8709760394e+01 -3.7446693919e+01 6.2498771551e+01 1.0566000000e-01 0.0000e+00 -1.0000e+00
       22  1    1    0    0    0 -2.2722918145e-04 +9.5864383354e-04 -7.3380037060e-04 1.2284519056e-03 0.0000000000e+00 0.0000e+00 1.0000e+00
</event>
<event>
 4      1 +2.4041262e-06 9.11880000e+01 7.81860800e-03 1.13011600e-01
       25 -1    0    0    0    0 +0.0000000000e+00 +0.0000000000e+00 +9.9999998245e-15 1.2500000000e+02 1.2500000000e+02 0.0000e+00 0.0000e+00
      -13  1    1    0    0    0 +1.3159076288e+01 -5.7886807992e+01 -1.9549807617e+01 6.2499999761e+01 1.0566000000e-01 0.0000e+00 1.0000e+00
       13  1    1    0    0    0 -1.3156478208e+01 +5.7875053895e+01 +1.9545758671e+01 6.2487299736e+01 1.0566000000e-01 0.0000e+00 1.0000e+00
       22  1    1    0    0    0 -2.5980801287e-03 +1.1754096694e-02 +4.0489462094e-03 1.2700502937e-02 0.0000000000e+00 0.0000e+00 -1.0000e+00
</event>
<event>
 4      1 +2.4041262e-06 9.11880000e+01 7.81860800e-03 1.13011600e-01
       25 -1    0    0    0    0 +0.0000000000e+00 +0.0000000000e+00 +9.9999998245e-15 1.2500000000e+02 1.2500000000e+02 0.0000e+00 0.0000e+00
      -13  1    1    0    0    0 -4.8847661360e+01 +2.8075620390e+01 +2.1608374375e+01 6.0342915804e+01 1.0566000000e-01 0.0000e+00 1.0000e+00
       13  1    1    0    0    0 +5.0591130594e+01 -2.9090661012e+01 -2.2372004235e+01 6.2499974324e+01 1.0566000000e-01 0.0000e+00 1.0000e+00
       22  1    1    0    0    0 -1.7434692349e+00 +1.0150406217e+00 +7.6362986024e-01 2.1571098721e+00 0.0000000000e+00 0.0000e+00 -1.0000e+00
</event>
<event>
 5      1 +2.4041262e-06 9.11880000e+01 7.81860800e-03 1.13011600e-01
       25 -1    0    0    0    0 +0.0000000000e+00 +0.0000000000e+00 +9.9999998245e-15 1.2500000000e+02 1.2500000000e+02 0.0000e+00 0.0000e+00
       23  2    1    0    0    0 -4.0825391580e+00 -1.7417586188e+01 -2.3970393641e+01 9.5089814345e+01 9.0263246043e+01 0.0000e+00 0.0000e+00
      -13  1    2    2    0    0 -1.6509204924e+00 -4.1122482077e+01 -4.6638450800e+01 6.2200806488e+01 1.0566000000e-01 0.0000e+00 1.0000e+00
       13  1    2    2    0    0 -2.4316186656e+00 +2.3704895889e+01 +2.2668057159e+01 3.2889007857e+01 1.0566000000e-01 0.0000e+00 -1.0000e+00
       22  1    1    0    0    0 +4.0825391580e+00 +1.7417586188e+01 +2.3970393641e+01 2.9910185655e+01 0.0000000000e+00 0.0000e+00 1.0000e+00
</event>
<event>
 4      1 +2.4041262e-06 9.11880000e+01 7.81860800e-03 1.13011600e-01
       25 -1    0    0    0    0 +0.0000000000e+00 +0.0000000000e+00 +9.9999998245e-15 1.2500000000e+02 1.2500000000e+02 0.0000e+00 0.0000e+00
      -13  1    1    0    0    0 -1.1016191782e+01 +4.3908481818e+01 +4.3065897689e+01 6.2481949111e+01 1.0566000000e-01 0.0000e+00 -1.0000e+00
       13  1    1    0    0    0 +1.1020628909e+01 -4.3884959596e+01 -4.3090895314e+01 6.2483440712e+01 1.0566000000e-01 0.0000e+00 -1.0000e+00
       22  1    1    0    0    0 -4.4371277604e-03 -2.3522222611e-02 +2.4997625030e-02 3.4610176487e-02 0.0000000000e+00 0.0000e+00 1.0000e+00
</event>
<event>
 4      1 +2.4041262e-06 9.11880000e+01 7.81860800e-03 1.13011600e-01
       25 -1    0    0    0    0 +0.0000000000e+00 +0.0000000000e+00 +9.9999998245e-15 1.2500000000e+02 1.2500000000e+02 0.0000e+00 0.0000e+00
      -11  1    1    0    0    0 -4.6293187323e-01 +1.7072109623e-01 -2.3090856292e-01 5.4476658992e-01 5.1100000000e-04 0.0000e+00 -1.0000e+00
       11  1    1    0    0    0 -5.2204067567e+01 +1.7433155315e+01 -2.8448378412e+01 6.1955547042e+01 5.1100000000e-04 0.0000e+00 1.0000e+00
       22  1    1    0    0    0 +5.2666999440e+01 -1.7603876411e+01 +2.8679286975e+01 6.2499686368e+01 0.0000000000e+00 0.0000e+00 1.0000e+00
</event>
<event>
 4      1 +2.4041262e-06 9.11880000e+01 7.81860800e-03 1.13011600e-01
       25 -1    0    0    0    0 +0.0000000000e+00 +0.0000000000e+00 +9.9999998245e-15 1.2500000000e+02 1.2500000000e+02 0.0000e+00 0.0000e+00
      -13  1    1    0    0    0 -2.8263830082e+01 -4.7570325140e+01 +2.9059574897e+01 6.2499999857e+01 1.0566000000e-01 0.0000e+00 1.0000e+00
       13  1    1    0    0    0 +2.8263241150e+01 +4.7569383392e+01 -2.9058981659e+01 6.2498740913e+01 1.0566000000e-01 0.0000e+00 1.0000e+00
       22  1    1    0    0    0 +5.8893243078e-04 +9.4174804837e-04 -5.9323807369e-04 1.2592307996e-03 0.0000000000e+00 0.0000e+00 1.0000e+00
</event>
<event>
 4      1 +2.4041262e-06 9.11880000e+01 7.81860800e-03 1.13011600e-01
       25 -1    0    0    0    0 +0.0000000000e+00 +0.0000000000e+00 +9.9999998245e-15 1.2500000000e+02 1.2500000000e+02 0.0000e+00 0.0000e+00
      -13  1    1    0    0    0 -3.0281703344e-01 +4.1218776583e+01 -4.6980416314e+01 6.2499999378e+01 1.0566000000e-01 0.0000e+00 1.0000e+00
       13  1    1    0    0    0 +3.0281743561e-01 -4.1218776941e+01 +4.6980416740e+01 6.2499999936e+01 1.0566000000e-01 0.0000e+00 1.0000e+00
       22  1    1    0    0    0 -4.0216939684e-07 +3.5780395518e-07 -4.2600378051e-07 6.8647149620e-07 0.0000000000e+00 0.0000e+00 -1.0000e+00
</event>
<event>
 4      1 +2.4041262e-06 9.11880000e+01 7.81860800e-03 1.13011600e-01
       25 -1    0    0    0    0 +0.0000000000e+00 +0.0000000000e+00 +9.9999998245e-15 1.2500000000e+02 1.2500000000e+02 0.0000e+00 0.0000e+00
      -13  1    1    0    0    0 +3.4267727848e+01 +2.5070104587e+01 -4.5079305024e+01 6.1926910316e+01 1.0566000000e-01 0.0000e+00 -1.0000e+00
       13  1    1    0    0    0 -3.4563418847e+01 -2.5299411803e+01 +4.5513813176e+01 6.2499668110e+01 1.0566000000e-01 0.0000e+00 -1.0000e+00
       22  1    1    0    0    0 +2.9569099922e-01 +2.2930721631e-01 -4.3450815240e-01 5.7342157352e-01 0.0000000000e+00 0.0000e+00 1.0000e+00
</event>
<event>
 4      1 +2.4041262e-06 9.11880000e+01 7.81860800e-03 1.13011600e-01
       25 -1    0    0    0    0 +0.0000000000e+00 +0.0000000000e+00 +9.9999998245e-15 1.2500000000e+02 1.2500000000e+02 0.0000e+00 0.0000e+00
      -13  1    1    0    0    0 -3.0299415245e+01 +5.1393256273e+01 +1.8625648030e+01 6.2499978265e+01 1.0566000000e-01 0.0000e+00 -1.0000e+00
       13  1    1    0    0    0 +3.0299455445e+01 -5.1393215873e+01 -1.8625609928e+01 6.2499953178e+01 1.0566000000e-01 0.0000e+00 -1.0000e+00
       22  1    1    0    0    0 -4.0199964734e-05 -4.0400040171e-05 -3.8101915496e-05 6.8556227834e-05 0.0000000000e+00 0.0000e+00 -1.0000e+00
</event>
<event>
 4      1 +2.4041262e-06 9.11880000e+01 7.81860800e-03 1.13011600e-01
       25 -1    0    0    0    0 +0.0000000000e+00 +0.0000000000e+00 +9.9999998245e-15 1.2500000000e+02 1.2500000000e+02 0.0000e+00 0.0000e+00
      -13  1    1    0    0    0 -3.4688566884e+01 -4.5422326660e+01 +2.5293363673e+01 6.2499998733e+01 1.0566000000e-01 0.0000e+00 -1.0000e+00
       13  1    1    0    0    0 +3.4688567603e+01 +4.5422327374e+01 -2.5293364474e+01 6.2499999975e+01 1.0566000000e-01 0.0000e+00 -1.0000e+00
       22  1    1    0    0    0 -7.1937156578e-07 -7.1408489193e-07 +8.0161792475e-07 1.2922863382e-06 0.0000000000e+00 0.0000e+00 1.0000e+00
</event>
<event>
 4      1 +2.4041262e-06 9.11880000e+01 7.81860800e-03 1.13011600e-01
       25 -1    0    0    0    0 +0.0000000000e+00 +0.0000000000e+00 +9.9999998245e-15 1.2500000000e+02 1.2500000000e+02 0.0000e+00 0.0000e+00
      -13  1    1    0    0    0 -5.2516717827e+01 +9.9562549014e+00 -3.2389908483e+01 6.2499999988e+01 1.0566000000e-01 0.0000e+00 -1.0000e+00
       13  1    1    0    0    0 +5.2516717835e+01 -9.9562549060e+00 +3.2389908491e+01 6.2500000000e+01 1.0566000000e-01 0.0000e+00 -1.0000e+00
       22  1    1    0    0    0 -8.1049417227e-09 +4.5396945797e-09 -7.4519529242e-09 1.1909261505e-08 0.0000000000e+00 0.0000e+00 -1.0000e+00
</event>
<event>
 4      1 +2.4041262e-06 9.11880000e+01 7.81860800e-03 1.13011600e-01
       25 -1    0    0    0    0 +0.0000000000e+00 +0.0000000000e+00 +9.9999998245e-15 1.2500000000e+02 1.2500000000e+02 0.0000e+00 0.0000e+00
      -13  1    1    0    0    0 -1.3806813809e+01 -5.9936781024e+01 +1.1099234603e+01 6.2499999999e+01 1.0566000000e-01 0.0000e+00 1.0000e+00
       13  1    1    0    0    0 +1.3806813809e+01 +5.9936781022e+01 -1.1099234606e+01 6.2499999997e+01 1.0566000000e-01 0.0000e+00 1.0000e+00
       22  1    1    0    0    0 +4.4918545882e-10 +2.3637967309e-09 +2.7619781606e-09 3.6630350698e-09 0.0000000000e+00 0.0000e+00 1.0000e+00
</event>
<event>
 4      1 +2.4041262e-06 9.11880000e+01 7.81860800e-03 1.13011600e-01
       25 -1    0    0    0    0 +0.0000000000e+00 +0.0000000000e+00 +9.9999998245e-15 1.2500000000e+02 1.2500000000e+02 0.0000e+00 0.0000e+00
      -13  1    1    0    0    0 +7.2260511111e+00 +3.2069403911e+01 +5.3156150670e+01 6.2500000000e+01 1.0566000000e-01 0.0000e+00 -1.0000e+00
       13  1    1    0    0    0 -7.2260511107e+00 -3.2069403911e+01 -5.3156150668e+01 6.2499999998e+01 1.0566000000e-01 0.0000e+00 -1.0000e+00
       22  1    1    0    0    0 -3.8578456781e-10 +1.6333812463e-11 -2.3869409666e-09 2.4179709891e-09 0.0000000000e+00 0.0000e+00 1.0000e+00
</event>
<event>
 4      1 +2.4041262e-06 9.11880000e+01 7.81860800e-03 1.13011600e-01
       25 -1    0    0    0    0 +0.0000000000e+00 +0.0000000000e+00 +9.9999998245e-15 1.2500000000e+02 1.2500000000e+02 0.0000e+00 0.0000e+00
      -11  1    1    0    0    0 -3.6437039510e+00 -2.6089674671e+00 -2.1093368498e+00 4.9530386566e+00 5.1100000000e-04 0.0000e+00 1.0000e+00
       11  1    1    0    0    0 -4.3096277482e+01 -2.9901074562e+01 -2.3671644289e+01 5.7547459861e+01 5.1100000000e-04 0.0000e+00 -1.0000e+00
       22  1    1    0    0    0 +4.6739981433e+01 +3.2510042029e+01 +2.5780981138e+01 6.2499501483e+01 0.0000000000e+00 0.0000e+00 -1.0000e+00
</event>
<event>
 4      1 +2.4041262e-06 9.11880000e+01 7.81860800e-03 1.13011600e-01
       25 -1    0    0    0    0 +0.0000000000e+00 +0.0000000000e+00 +9.9999998245e-15 1.2500000000e+02 1.2500000000e+02 0.0000e+00 0.0000e+00
      -13  1    1    0    0    0 -1.0308352027e+00 +5.4302309050e+01 -3.0910021236e+01 6.2491951211e+01 1.0566000000e-01 0.0000e+00 -1.0000e+00
       13  1    1    0    0    0 +1.0312338583e+00 -5.4309553493e+01 +3.0913531214e+01 6.2499988960e+01 1.0566000000e-01 0.0000e+00 -1.0000e+00
       22  1    1    0    0    0 -3.9865557370e-04 +7.2444435966e-03 -3.5099775977e-03 8.0598282877e-03 0.0000000000e+00 0.0000e+00 1.0000e+00
</event>
<event>
 4      1 +2.4041262e-06 9.11880000e+01 7.81860800e-03 1.13011600e-01
       25 -1    0    0    0    0 +0.0000000000e+00 +0.0000000000e+00 +9.9999998245e-15 1.2500000000e+02 1.2500000000e+02 0.0000e+00 0.0000e+00
      -11  1    1    0    0    0 -7.9475703777e+00 -2.2116545800e+01 +2.0082066749e+01 3.0912697686e+01 5.1100000000e-04 0.0000e+00 -1.0000e+00
       11  1    1    0    0    0 -8.0009873682e+00 -2.2791854068e+01 +2.0354184438e+01 3.1587612052e+01 5.1100000000e-04 0.0000e+00 1.0000e+00
       22  1    1    0    0    0 +1.5948557746e+01 +4.4908399868e+01 -4.0436251187e+01 6.2499690263e+01 0.0000000000e+00 0.0000e+00 -1.0000e+00
</event>
<event>
 4      1 +2.4041262e-06 9.11880000e+01 7.81860800e-03 1.13011600e-01
       25 -1    0    0    0    0 +0.0000000000e+00 +0.0000000000e+00 +9.9999998245e-15 1.2500000000e+02 1.2500000000e+02 0.0000e+00 0.0000e+00
      -13  1    1    0    0    0 -2.2823424424e+01 +4.1214449112e+01 +4.1069445044e+01 6.2499999986e+01 1.0566000000e-01 0.0000e+00 1.0000e+00
       13  1    1    0    0    0 +2.2823415536e+01 -4.1214432855e+01 -4.1069427310e+01 6.2499974367e+01 1.0566000000e-01 0.0000e+00 1.0000e+00
       22  1    1    0    0    0 +8.8876227496e-06 -1.6256952498e-05 -1.7733401753e-05 2.5646673867e-05 0.0000000000e+00 0.0000e+00 -1.0000e+00
</event>
<event>
 4      1 +2.4041262e-06 9.11880000e+01 7.81860800e-03 1.13011600e-01
       25 -1    0    0    0    0 +0.0000000000e+00 +0.0000000000e+00 +9.9999998245e-15 1.2500000000e+02 1.2500000000e+02 0.0000e+00 0.0000e+00
      -13  1    1    0    0    0 -5.9304371483e+01 -1.7496147586e+01 -8.7639773499e+00 6.2449516574e+01 1.0566000000e-01 0.0000e+00 1.0000e+00
       13  1    1    0    0    0 +5.9352403470e+01 +1.7510260958e+01 +8.7704954637e+00 6.2499998330e+01 1.0566000000e-01 0.0000e+00 1.0000e+00
       22  1    1    0    0    0 -4.8031987763e-02 -1.4113371318e-02 -6.5181138390e-03 5.0485095884e-02 0.0000000000e+00 0.0000e+00 -1.0000e+00
</event>
<event>
 4      1 +2.4041262e-06 9.11880000e+01 7.81860800e-03 1.13011600e-01
       25 -1    0    0    0    0 +0.0000000000e+00 +0.0000000000e+00 +9.9999998245e-15 1.2500000000e+02 1.2500000000e+02 0.0000e+00 0.0000e+00
      -11  1    1    0    0    0 +1.4365081845e+01 -2.7171191142e+01 -1.9628708028e+01 3.6468004930e+01 5.1100000000e-04 0.0000e+00 1.0000e+00
       11  1    1    0    0    0 +1.0234894699e+01 -1.9394931522e+01 -1.4026706853e+01 2.6031998456e+01 5.1100000000e-04 0.0000e+00 -1.0000e+00
       22  1    1    0    0    0 -2.4599976544e+01 +4.6566122663e+01 +3.3655414881e+01 6.2499996613e+01 0.0000000000e+00 0.0000e+00 1.0000e+00
</event>
<event>
 4      1 +2.4041262e-06 9.11880000e+01 7.81860800e-03 1.13011600e-01
       25 -1    0    0    0    0 +0.0000000000e+00 +0.0000000000e+00 +9.9999998245e-15 1.2500000000e+02 1.2500000000e+02 0.0000e+00 0.0000e+00
      -13  1    1    0    0    0 -5.0921930291e+01 +1.8490415169e+01 +3.1164761609e+01 6.2499535741e+01 1.0566000000e-01 0.0000e+00 -1.0000e+00
       13  1    1    0    0    0 +5.0922303012e+01 -1.8490552669e+01 -3.1165001950e+01 6.2499999941e+01 1.0566000000e-01 0.0000e+00 -1.0000e+00
       22  1    1    0    0    0 -3.7272085490e-04 +1.3750044456e-04 +2.4034080316e-04 4.6431768176e-04 0.0000000000e+00 0.0000e+00 1.0000e+00
</event>
<event>
 5      1 +2.4041262e-06 9.11880000e+01 7.81860800e-03 1.13011600e-01
       25 -1    0    0    0    0 +0.0000000000e+00 +0.0000000000e+00 +9.9999998245e-15 1.2500000000e+02 1.2500000000e+02 0.0000e+00 0.0000e+00
       23  2    1    0    0    0 -1.3222029232e+01 -1.9590415279e+01 +1.8309439030e+01 9.5102809741e+01 9.0281240772e+01 0.0000e+00 0.0000e+00
      -13  1    2    2    0    0 -4.1092330057e+01 +5.3391667460e+00 -1.5937200304e+01 4.4396979724e+01 1.0566000000e-01 0.0000e+00 1.0000e+00
       13  1    2    2    0    0 +2.7870300826e+01 -2.4929582025e+01 +3.4246639334e+01 5.0705830017e+01 1.0566000000e-01 0.0000e+00 -1.0000e+00
       22  1    1    0    0    0 +1.3222029232e+01 +1.9590415279e+01 -1.8309439030e+01 2.9897190259e+01 0.0000000000e+00 0.0000e+00 -1.0000e+00
</event>
<event>
 5      1 +2.4041262e-06 9.11880000e+01 7.81860800e-03 1.13011600e-01
       25 -1    0    0    0    0 +0.0000000000e+00 +0.0000000000e+00 +9.9999998245e-15 1.2500000000e+02 1.2500000000e+02 0.0000e+00 0.0000e+00
       23  2    1    0    0    0 +1.4300502772e+01 -2.5875308246e+01 +5.6892329016e-01 9.5430427293e+01 9.0733713819e+01 0.0000e+00 0.0000e+00
      -11  1    2    2    0    0 +2.6443980315e+00 +2.5173532881e+01 -2.6363299938e+01 3.6547546875e+01 5.1100000000e-04 0.0000e+00 1.0000e+00
       11  1    2    2    0    0 +1.1656104740e+01 -5.1048841127e+01 +2.6932223228e+01 5.8882880419e+01 5.1100000000e-04 0.0000e+00 -1.0000e+00
       22  1    1    0    0    0 -1.4300502772e+01 +2.5875308246e+01 -5.6892329016e-01 2.9569572707e+01 0.0000000000e+00 0.0000e+00 -1.0000e+00
</event>
<event>
 4      1 +2.4041262e-06 9.11880000e+01 7.81860800e-03 1.13011600e-01
       25 -1    0    0    0    0 +0.0000000000e+00 +0.0000000000e+00 +9.9999998245e-15 1.2500000000e+02 1.2500000000e+02 0.0000e+00 0.0000e+00
      -11  1    1    0    0    0 -5.3901006486e+01 -8.2301536525e-01 -1.2430485085e+01 5.5321901759e+01 5.1100000000e-04 0.0000e+00 -1.0000e+00
       11  1    1    0    0    0 -7.0053768213e+00 -1.5609079562e-01 -1.5581674662e+00 7.1782696284e+00 5.1100000000e-04 0.0000e+00 1.0000e+00
       22  1    1    0    0    0 +6.0906383307e+01 +9.7910616087e-01 +1.3988652552e+01 6.2499828613e+01 0.0000000000e+00 0.0000e+00 -1.0000e+00
</event>
<event>
 4      1 +2.4041262e-06 9.11880000e+01 7.81860800e-03 1.13011600e-01
       25 -1    0    0    0    0 +0.0000000000e+00 +0.0000000000e+00 +9.9999998245e-15 1.2500000000e+02 1.2500000000e+02 0.0000e+00 0.0000e+00
      -13  1    1    0    0    0 +2.0112627938e+01 +3.2698351604e+01 +4.9320756893e+01 6.2499985798e+01 1.0566000000e-01 0.0000e+00 -1.0000e+00
       13  1    1    0    0    0 -2.0112632520e+01 -3.2698358971e+01 -4.9320768138e+01 6.2500000000e+01 1.0566000000e-01 0.0000e+00 -1.0000e+00
       22  1    1    0    0    0 +4.5820368690e-06 +7.3668895718e-06 +1.1244586361e-05 1.4202353547e-05 0.0000000000e+00 0.0000e+00 -1.0000e+00
</event>
<event>
 4      1 +2.4041262e-06 9.11880000e+01 7.81860800e-03 1.13011600e-01
       25 -1    0    0    0    0 +0.0000000000e+00 +0.0000000000e+00 +9.9999998245e-15 1.2500000000e+02 1.2500000000e+02 0.0000e+00 0.0000e+00
      -13  1    1    0    0    0 +4.1068914379e+01 +4.6503458091e+01 -7.5505954095e+00 6.2499999983e+01 1.0566000000e-01 0.0000e+00 -1.0000e+00
       13  1    1    0    0    0 -4.1062085320e+01 -4.6495755639e+01 +7.5493387651e+00 6.2489629724e+01 1.0566000000e-01 0.0000e+00 -1.0000e+00
       22  1    1    0    0    0 -6.8290589613e-03 -7.7024525232e-03 +1.2566444018e-03 1.0370292972e-02 0.0000000000e+00 0.0000e+00 -1.0000e+00
</event>
<event>
 5      1 +2.4041262e-06 9.11880000e+01 7.81860800e-03 1.13011600e-01
       25 -1    0    0    0    0 +0.0000000000e+00 +0.0000000000e+00 +9.9999998245e-15 1.2500000000e+02 1.2500000000e+02 0.0000e+00 0.0000e+00
       23  2    1    0    0    0 +6.0592254395e+00 -8.0134763499e+00 +2.6959500962e+01 9.6229447203e+01 9.1827892280e+01 0.0000e+00 0.0000e+00
      -11  1    2    2    0    0 +1.2984553918e+01 -1.2449080748e+01 -3.1994503067e+01 3.6704583891e+01 5.1100000000e-04 0.0000e+00 1.0000e+00
       11  1    2    2    0    0 -6.9253284781e+00 +4.4356043978e+00 +5.8954004029e+01 5.9524863311e+01 5.1100000000e-04 0.0000e+00 -1.0000e+00
       22  1    1    0    0    0 -6.0592254395e+00 +8.0134763499e+00 -2.6959500962e+01 2.8770552797e+01 0.0000000000e+00 0.0000e+00 -1.0000e+00
</event>
<event>
 4      1 +2.4041262e-06 9.11880000e+01 7.81860800e-03 1.13011600e-01
       25 -1    0    0    0    0 +0.0000000000e+00 +0.0000000000e+00 +9.9999998245e-15 1.2500000000e+02 1.2500000000e+02 0.0000e+00 0.0000e+00
      -13  1    1    0    0    0 -7.2292377596e+00 -6.0279065171e+01 +1.4846254057e+01 6.2500000000e+01 1.0566000000e-01 0.0000e+00 -1.0000e+00
       13  1    1    0    0    0 +7.2292377597e+00 +6.0279065169e+01 -1.4846254057e+01 6.2499999999e+01 1.0566000000e-01 0.0000e+00 -1.0000e+00
       22  1    1    0    0    0 -7.4592474413e-11 +1.1929538028e-09 -3.7088128449e-10 1.2515013943e-09 0.0000000000e+00 0.0000e+00 1.0000e+00
</event>
<event>
 5      1 +2.4041262e-06 9.11880000e+01 7.81860800e-03 1.13011600e-01
       25 -1    0    0    0    0 +0.0000000000e+00 +0.0000000000e+00 +9.9999998245e-15 1.2500000000e+02 1.2500000000e+02 0.0000e+00 0.0000e+00
       23  2    1    0    0    0 -1.3729162971e+01 -1.0065962373e+01 -2.2602943471e+01 9.6703241035e+01 9.2470591319e+01 0.0000e+00 0.0000e+00
      -11  1    2    2    0    0 -4.5477106813e+01 +3.2741063481e+00 +1.2756368902e+01 4.7345664683e+01 5.1100000000e-04 0.0000e+00 1.0000e+00
       11  1    2    2    0    0 +3.1747943842e+01 -1.3340068721e+01 -3.5359312373e+01 4.9357576353e+01 5.1100000000e-04 0.0000e+00 -1.0000e+00
       22  1    1    0    0    0 +1.3729162971e+01 +1.0065962373e+01 +2.2602943471e+01 2.8296758965e+01 0.0000000000e+00 0.0000e+00 -1.0000e+00
</event>
<event>
 4      1 +2.4041262e-06 9.11880000e+01 7.81860800e-03 1.13011600e-01
       25 -1    0    0    0    0 +0.0000000000e+00 +0.0000000000e+00 +9.9999998245e-15 1.2500000000e+02 1.2500000000e+02 0.0000e+00 0.0000e+00
      -13  1    1    0    0    0 -8.9695192945e+00 -1.4744651177e+01 +5.7690604062e+00 1.8197533808e+01 1.0566000000e-01 0.0000e+00 1.0000e+00
       13  1    1    0    0    0 -2.1818073661e+01 -3.5939901051e+01 +1.3964703955e+01 4.4302696829e+01 1.0566000000e-01 0.0000e+00 -1.0000e+00
       22  1    1    0    0    0 +3.0787592955e+01 +5.0684552227e+01 -1.9733764361e+01 6.2499769362e+01 0.0000000000e+00 0.0000e+00 1.0000e+00
</event>
<event>
 4      1 +2.4041262e-06 9.11880000e+01 7.81860800e-03 1.13011600e-01
       25 -1    0    0    0    0 +0.0000000000e+00 +0.0000000000e+00 +9.9999998245e-15 1.2500000000e+02 1.2500000000e+02 0.0000e+00 0.0000e+00
      -13  1    1    0    0    0 -7.4296560759e+00 +2.8163451150e+01 +5.4960593170e+01 6.2201750263e+01 1.0566000000e-01 0.0000e+00 -1.0000e+00
       13  1    1    0    0    0 +7.4669823852e+00 -2.8296067940e+01 -5.5225125649e+01 6.2499991630e+01 1.0566000000e-01 0.0000e+00 -1.0000e+00
       22  1    1    0    0    0 -3.7326309302e-02 +1.3261678906e-01 +2.6453247913e-01 2.9825810738e-01 0.0000000000e+00 0.0000e+00 -1.0000e+00
</event>
<event>
 4      1 +2.4041262e-06 9.11880000e+01 7.81860800e-03 1.13011600e-01
       25 -1    0    0    0    0 +0.0000000000e+00 +0.0000000000e+00 +9.9999998245e-15 1.2500000000e+02 1.2500000000e+02 0.0000e+00 0.0000e+00
      -13  1    1    0    0    0 +5.3322626371e+01 +1.6867193677e+01 +2.7900389942e+01 6.2499981029e+01 1.0566000000e-01 0.0000e+00 1.0000e+00
       13  1    1    0    0    0 -5.3322622168e+01 -1.6867199813e+01 -2.7900416810e+01 6.2499991093e+01 1.0566000000e-01 0.0000e+00 1.0000e+00
       22  1    1    0    0    0 -4.2027383306e-06 +6.1356662231e-06 +2.6867755734e-05 2.7878050645e-05 0.0000000000e+00 0.0000e+00 1.0000e+00
</event>
<event>
 4      1 +2.4041262e-06 9.11880000e+01 7.81860800e-03 1.13011600e-01
       25 -1    0    0    0    0 +0.0000000000e+00 +0.0000000000e+00 +9.9999998245e-15 1.2500000000e+02 1.2500000000e+02 0.0000e+00 0.0000e+00
      -13  1    1    0    0    0 +3.9874393997e+00 -4.8026963736e+01 +3.9779168444e+01 6.2489057640e+01 1.0566000000e-01 0.0000e+00 1.0000e+00
       13  1    1    0    0    0 -3.9881842980e+00 +4.8035476045e+01 -3.9786004803e+01 6.2499999321e+01 1.0566000000e-01 0.0000e+00 1.0000e+00
       22  1    1    0    0    0 +7.4489832141e-04 -8.5123089706e-03 +6.8363596767e-03 1.0943038479e-02 0.0000000000e+00 0.0000e+00 -1.0000e+00
</event>
<event>
 5      1 +2.4041262e-06 9.11880000e+01 7.81860800e-03 1.13011600e-01
       25 -1    0    0    0    0 +0.0000000000e+00 +0.0000000000e+00 +9.9999998245e-15 1.2500000000e+02 1.2500000000e+02 0.0000e+00 0.0000e+00
       23  2    1    0    0    0 +2.8490350433e+01 -1.0636935011e+00 +4.2251269716e+00 9.6178424581e+01 9.1758411851e+01 0.0000e+00 0.0000e+00
      -11  1    2    2    0    0 +4.0922162957e+01 -3.5407837125e+01 +1.8168294659e+01 5.7082618038e+01 5.1100000000e-04 0.0000e+00 -1.0000e+00
       11  1    2    2    0    0 -1.2431812524e+01 +3.4344143624e+01 -1.3943167687e+01 3.9095806544e+01 5.1100000000e-04 0.0000e+00 1.0000e+00
       22  1    1    0    0    0 -2.8490350433e+01 +1.0636935011e+00 -4.2251269716e+00 2.8821575419e+01 0.0000000000e+00 0.0000e+00 -1.0000e+00
</event>
<event>
 5      1 +2.4041262e-06 9.11880000e+01 7.81860800e-03 1.13011600e-01
       25 -1    0    0    0    0 +0.0000000000e+00 +0.0000000000e+00 +9.9999998245e-15 1.2500000000e+02 1.2500000000e+02 0.0000e+00 0.0000e+00
       23  2    1    0    0    0 -9.9890247167e+00 -4.7175942612e+00 -2.5374567838e+01 9.7325011231e+01 9.3307303078e+01 0.0000e+00 0.0000e+00
      -11  1    2    2    0    0 -3.1646003800e+01 +1.3699487829e+01 -4.9303171149e+01 6.0166005426e+01 5.1100000000e-04 0.0000e+00 -1.0000e+00
       11  1    2    2    0    0 +2.1656979083e+01 -1.8417082090e+01 +2.3928603311e+01 3.7159005805e+01 5.1100000000e-04 0.0000e+00 1.0000e+00
       22  1    1    0    0    0 +9.9890247167e+00 +4.7175942612e+00 +2.5374567838e+01 2.7674988769e+01 0.0000000000e+00 0.0000e+00 -1.0000e+00
</event>
<event>
 4      1 +2.4041262e-06 9.11880000e+01 7.81860800e-03 1.13011600e-01
       25 -1    0    0    0    0 +0.0000000000e+00 +0.0000000000e+00 +9.9999998245e-15 1.2500000000e+02 1.2500000000e+02 0.0000e+00 0.0000e+00
      -11  1    1    0    0    0 -4.3374670951e+00 +9.6014757341e-01 +3.7304082497e+00 5.8009869966e+00 5.1100000000e-04 0.0000e+00 1.0000e+00
       11  1    1    0    0    0 -4.1952019772e+01 +8.9730886125e+00 +3.7071876788e+01 5.6699315085e+01 5.1100000000e-04 0.0000e+00 -1.0000e+00
       22  1    1    0    0    0 +4.6289486867e+01 -9.9332361859e+00 -4.0802285038e+01 6.2499697919e+01 0.0000000000e+00 0.0000e+00 -1.0000e+00
</event>
<event>
 4      1 +2.4041262e-06 9.11880000e+01 7.81860800e-03 1.13011600e-01
       25 -1    0    0    0    0 +0.0000000000e+00 +0.0000000000e+00 +9.9999998245e-15 1.2500000000e+02 1.2500000000e+02 0.0000e+00 0.0000e+00
      -13  1    1    0    0    0 +2.2498307455e+01 +3.5236915330e+01 +4.6458807300e+01 6.2499967841e+01 1.0566000000e-01 0.0000e+00 -1.0000e+00
       13  1    1    0    0    0 -2.2497995783e+01 -3.5235724452e+01 -4.6457850838e+01 6.2498473265e+01 1.0566000000e-01 0.0000e+00 -1.0000e+00
       22  1    1    0    0    0 -3.1167154549e-04 -1.1908785455e-03 -9.5646174475e-04 1.5588938166e-03 0.0000000000e+00 0.0000e+00 1.0000e+00
</event>
<event>
 4      1 +2.4041262e-06 9.11880000e+01 7.81860800e-03 1.13011600e-01
       25 -1    0    0    0    0 +0.0000000000e+00 +0.0000000000e+00 +9.9999998245e-15 1.2500000000e+02 1.2500000000e+02 0.0000e+00 0.0000e+00
      -11  1    1    0    0    0 +1.4453280479e+01 +1.1887160947e+01 +8.3453799477e+00 2.0490175176e+01 5.1100000000e-04 0.0000e+00 -1.0000e+00
       11  1    1    0    0    0 +2.9124600400e+01 +2.2917721860e+01 +1.9823136813e+01 4.2028812464e+01 5.1100000000e-04 0.0000e+00 1.0000e+00
       22  1    1    0    0    0 -4.3577880879e+01 -3.4804882807e+01 -2.8168516760e+01 6.2481012361e+01 0.0000000000e+00 0.0000e+00 1.0000e+00
</event>
<event>
 4      1 +2.4041262e-06 9.11880000e+01 7.81860800e-03 1.13011600e-01
       25 -1    0    0    0    0 +0.0000000000e+00 +0.0000000000e+00 +9.9999998245e-15 1.2500000000e+02 1.2500000000e+02 0.0000e+00 0.0000e+00
      -13  1    1    0    0    0 -1.3566353431e+01 -1.8613685618e+01 +5.8161521864e+00 2.3756136638e+01 1.0566000000e-01 0.0000e+00 1.0000e+00
       13  1    1    0    0    0 -2.2158386442e+01 -3.0910724434e+01 +7.4478963847e+00 3.8754990637e+01 1.0566000000e-01 0.0000e+00 -1.0000e+00
       22  1    1    0    0    0 +3.5724739873e+01 +4.9524410051e+01 -1.3264048571e+01 6.2488872724e+01 0.0000000000e+00 0.0000e+00 -1.0000e+00
</event>
<event>
 4      1 +2.4041262e-06 9.11880000e+01 7.81860800e-03 1.13011600e-01
       25 -1    0    0    0    0 +0.0000000000e+00 +0.0000000000e+00 +9.9999998245e-15 1.2500000000e+02 1.2500000000e+02 0.0000e+00 0.0000e+00
      -13  1    1    0    0    0 +2.7183556604e+01 -5.5093416976e+01 -1.1467160634e+01 6.2495898112e+01 1.0566000000e-01 0.0000e+00 1.0000e+00
       13  1    1    0    0    0 -2.7184156592e+01 +5.5097635089e+01 +1.1466928478e+01 6.2499834998e+01 1.0566000000e-01 0.0000e+00 1.0000e+00
       22  1    1    0    0    0 +5.9998751786e-04 -4.2181121120e-03 +2.3215588766e-04 4.2668901049e-03 0.0000000000e+00 0.0000e+00 -1.0000e+00
</event>
<event>
 5      1 +2.4041262e-06 9.11880000e+01 7.81860800e-03 1.13011600e-01
       25 -1    0    0    0    0 +0.0000000000e+00 +0.0000000000e+00 +9.9999998245e-15 1.2500000000e+02 1.2500000000e+02 0.0000e+00 0.0000e+00
       23  2    1    0    0    0 +1.3635402298e+01 +2.6823590829e+01 +7.7505869962e-01 9.4899668826e+01 8.9999540034e+01 0.0000e+00 0.0000e+00
      -13  1    2    2    0    0 +4.5475705730e+01 +3.7536865427e+01 -9.5924611711e+00 5.9741799045e+01 1.0566000000e-01 0.0000e+00 -1.0000e+00
       13  1    2    2    0    0 -3.1840303432e+01 -1.0713274598e+01 +1.0367519871e+01 3.5157869781e+01 1.0566000000e-01 0.0000e+00 1.0000e+00
       22  1    1    0    0    0 -1.3635402298e+01 -2.6823590829e+01 -7.7505869962e-01 3.0100331174e+01 0.0000000000e+00 0.0000e+00 -1.0000e+00
</event>
<event>
 4      1 +2.4041262e-06 9.11880000e+01 7.81860800e-03 1.13011600e-01
       25 -1    0    0    0    0 +0.0000000000e+00 +0.0000000000e+00 +9.9999998245e-15 1.2500000000e+02 1.2500000000e+02 0.0000e+00 0.0000e+00
      -13  1    1    0    0    0 -3.0877779832e+01 +5.4146310664e+01 +3.0045896749e+00 6.2404318513e+01 1.0566000000e-01 0.0000e+00 1.0000e+00
       13  1    1    0    0    0 +3.0922196558e+01 -5.4231003531e+01 -3.0084833452e+00 6.2499968960e+01 1.0566000000e-01 0.0000e+00 1.0000e+00
       22  1    1    0    0    0 -4.4416725837e-02 +8.4692866399e-02 +3.8936702907e-03 9.5712526982e-02 0.0000000000e+00 0.0000e+00 1.0000e+00
</event>
<event>
 4      1 +2.4041262e-06 9.11880000e+01 7.81860800e-03 1.13011600e-01
       25 -1    0    0    0    0 +0.0000000000e+00 +0.0000000000e+00 +9.9999998245e-15 1.2500000000e+02 1.2500000000e+02 0.0000e+00 0.0000e+00
      -13  1    1    0    0    0 +1.1277070440e+00 +1.1705463382e+01 -6.1380225467e+01 6.2496662620e+01 1.0566000000e-01 0.0000e+00 -1.0000e+00
       13  1    1    0    0    0 -1.1841643895e+00 -1.1656197385e+01 +6.0839621043e+01 6.1957564796e+01 1.0566000000e-01 0.0000e+00 -1.0000e+00
       22  1    1    0    0    0 +5.6457345416e-02 -4.9265997346e-02 +5.4060442398e-01 5.4577258411e-01 0.0000000000e+00 0.0000e+00 -1.0000e+00
</event>
<event>
 5      1 +2.4041262e-06 9.11880000e+01 7.81860800e-03 1.13011600e-01
       25 -1    0    0    0    0 +0.0000000000e+00 +0.0000000000e+00 +9.9999998245e-15 1.2500000000e+02 1.2500000000e+02 0.0000e+00 0.0000e+00
       23  2    1    0    0    0 +2.1232262718e+01 +1.5122824119e+01 +1.0319442358e+01 9.6964314168e+01 9.2822834163e+01 0.0000e+00 0.0000e+00
      -13  1    2    2    0    0 +6.7638289017e+00 -3.6721155247e+01 -1.1221553778e+01 3.8988806821e+01 1.0566000000e-01 0.0000e+00 1.0000e+00
       13  1    2    2    0    0 +1.4468433816e+01 +5.1843979366e+01 +2.1540996136e+01 5.7975507347e+01 1.0566000000e-01 0.0000e+00 -1.0000e+00
       22  1    1    0    0    0 -2.1232262718e+01 -1.5122824119e+01 -1.0319442358e+01 2.8035685832e+01 0.0000000000e+00 0.0000e+00 -1.0000e+00
</event>
<event>
 5      1 +2.4041262e-06 9.11880000e+01 7.81860800e-03 1.13011600e-01
       25 -1    0    0    0    0 +0.0000000000e+00 +0.0000000000e+00 +9.9999998245e-15 1.2500000000e+02 1.2500000000e+02 0.0000e+00 0.0000e+00
       23  2    1    0    0    0 +2.1923246234e+01 -1.3314239795e+01 -1.6033677372e+01 9.4751421243e+01 8.9793403492e+01 0.0000e+00 0.0000e+00
      -11  1    2    2    0    0 -3.0482734144e+00 +3.4437955126e+01 +8.4076706172e+00 3.5580242404e+01 5.1100000000e-04 0.0000e+00 -1.0000e+00
       11  1    2    2    0    0 +2.4971519649e+01 -4.7752194921e+01 -2.4441347989e+01 5.9171178838e+01 5.1100000000e-04 0.0000e+00 1.0000e+00
       22  1    1    0    0    0 -2.1923246234e+01 +1.3314239795e+01 +1.6033677372e+01 3.0248578757e+01 0.0000000000e+00 0.0000e+00 1.0000e+00
</event>
<event>
 4      1 +2.4041262e-06 9.11880000e+01 7.81860800e-03 1.13011600e-01
       25 -1    0    0    0    0 +0.0000000000e+00 +0.0000000000e+00 +9.9999998245e-15 1.2500000000e+02 1.2500000000e+02 0.0000e+00 0.0000e+00
      -13  1    1    0    0    0 +8.7156433742e-01 +3.5441136658e+01 +5.1472290810e+01 6.2499933419e+01 1.0566000000e-01 0.0000e+00 1.0000e+00
       13  1    1    0    0    0 -8.7156720728e-01 -3.5441173050e+01 -5.1472346521e+01 6.2499999976e+01 1.0566000000e-01 0.0000e+00 1.0000e+00
       22  1    1    0    0    0 +2.8698634576e-06 +3.6391740268e-05 +5.5710608873e-05 6.6605306222e-05 0.0000000000e+00 0.0000e+00 -1.0000e+00
</event>
<event>
 5      1 +2.4041262e-06 9.11880000e+01 7.81860800e-03 1.13011600e-01
       25 -1    0    0    0    0 +0.0000000000e+00 +0.0000000000e+00 +9.9999998245e-15 1.2500000000e+02 1.2500000000e+02 0.0000e+00 0.0000e+00
       23  2    1    0    0    0 -6.5048275267e-01 +2.4448985615e+01 +1.4778813190e+01 9.6423972552e+01 9.2092307703e+01 0.0000e+00 0.0000e+00
      -13  1    2    2    0    0 -6.2146086094e+00 +5.6804058499e+00 -3.8631803365e+01 3.9538788121e+01 1.0566000000e-01 0.0000e+00 1.0000e+00
       13  1    2    2    0    0 +5.5641258567e+00 +1.8768579765e+01 +5.3410616555e+01 5.6885184431e+01 1.0566000000e-01 0.0000e+00 -1.0000e+00
       22  1    1    0    0    0 +6.5048275267e-01 -2.4448985615e+01 -1.4778813190e+01 2.8576027448e+01 0.0000000000e+00 0.0000e+00 -1.0000e+00
</event>
<event>
 4      1 +2.4041262e-06 9.11880000e+01 7.81860800e-03 1.13011600e-01
       25 -1    0    0    0    0 +0.0000000000e+00 +0.0000000000e+00 +9.9999998245e-15 1.2500000000e+02 1.2500000000e+02 0.0000e+00 0.0000e+00
      -13  1    1    0    0    0 +1.1293525750e+01 -4.9424079117e+01 -2.7377298289e+01 5.7617800601e+01 1.0566000000e-01 0.0000e+00 1.0000e+00
       13  1    1    0    0    0 -1.2223588538e+01 +5.3646725912e+01 +2.9644959488e+01 6.2499776839e+01 1.0566000000e-01 0.0000e+00 1.0000e+00
       22  1    1    0    0    0 +9.3006278875e-01 -4.2226467947e+00 -2.2676611991e+00 4.8824225603e+00 0.0000000000e+00 0.0000e+00 1.0000e+00
</event>
<event>
 4      1 +2.4041262e-06 9.11880000e+01 7.81860800e-03 1.13011600e-01
       25 -1    0    0    0    0 +0.0000000000e+00 +0.0000000000e+00 +9.9999998245e-15 1.2500000000e+02 1.2500000000e+02 0.0000e+00 0.0000e+00
      -13  1    1    0    0    0 -1.7087509601e+01 -5.7723265521e+01 -1.6801204145e+01 6.2499999932e+01 1.0566000000e-01 0.0000e+00 -1.0000e+00
       13  1    1    0    0    0 +1.7087509594e+01 +5.7723265568e+01 +1.6801204206e+01 6.2499999990e+01 1.0566000000e-01 0.0000e+00 -1.0000e+00
       22  1    1    0    0    0 +7.5097921790e-09 -4.6838898513e-08 -6.1129736883e-08 7.7376508864e-08 0.0000000000e+00 0.0000e+00 -1.0000e+00
</event>
<event>
 4      1 +2.4041262e-06 9.11880000e+01 7.81860800e-03 1.13011600e-01
       25 -1    0    0    0    0 +0.0000000000e+00 +0.0000000000e+00 +9.9999998245e-15 1.2500000000e+02 1.2500000000e+02 0.0000e+00 0.0000e+00
      -13  1    1    0    0    0 +4.4447768402e+00 -6.1929151707e+01 +7.1565081957e+00 6.2499621166e+01 1.0566000000e-01 0.0000e+00 1.0000e+00
       13  1    1    0    0    0 -3.0559517876e+00 +4.4130170194e+01 -5.1776053172e+00 4.4537955987e+01 1.0566000000e-01 0.0000e+00 1.0000e+00
       22  1    1    0    0    0 -1.3888250525e+00 +1.7798981513e+01 -1.9789028784e+00 1.7962422847e+01 0.0000000000e+00 0.0000e+00 1.0000e+00
</event>
<event>
 4      1 +2.4041262e-06 9.11880000e+01 7.81860800e-03 1.13011600e-01
       25 -1    0    0    0    0 +0.0000000000e+00 +0.0000000000e+00 +9.9999998245e-15 1.2500000000e+02 1.2500000000e+02 0.0000e+00 0.0000e+00
      -13  1    1    0    0    0 -3.0741796427e+01 -5.1026226670e+01 -1.8896383536e+01 6.2496546549e+01 1.0566000000e-01 0.0000e+00 -1.0000e+00
       13  1    1    0    0    0 +3.0743501761e+01 +5.1029041335e+01 +1.8897430377e+01 6.2499999992e+01 1.0566000000e-01 0.0000e+00 -1.0000e+00
       22  1    1    0    0    0 -1.7053335608e-03 -2.8146655202e-03 -1.0468405128e-03 3.4534590780e-03 0.0000000000e+00 0.0000e+00 1.0000e+00
</event>
<event>
 4      1 +2.4041262e-06 9.11880000e+01 7.81860800e-03 1.13011600e-01
       25 -1    0    0    0    0 +0.0000000000e+00 +0.0000000000e+00 +9.9999998245e-15 1.2500000000e+02 1.2500000000e+02 0.0000e+00 0.0000e+00
      -13  1    1    0    0    0 +3.1974777003e+01 +2.7010446859e+01 -4.6414310639e+01 6.2500000000e+01 1.0566000000e-01 0.0000e+00 -1.0000e+00
       13  1    1    0    0    0 -3.1974777003e+01 -2.7010446858e+01 +4.6414310638e+01 6.2500000000e+01 1.0566000000e-01 0.0000e+00 -1.0000e+00
       22  1    1    0    0    0 -2.6742091480e-10 -6.7667971163e-11 +1.5795272947e-10 3.1787098757e-10 0.0000000000e+00 0.0000e+00 -1.0000e+00
</event>
<event>
 5      1 +2.4041262e-06 9.11880000e+01 7.81860800e-03 1.13011600e-01
       25 -1    0    0    0    0 +0.0000000000e+00 +0.0000000000e+00 +9.9999998245e-15 1.2500000000e+02 1.2500000000e+02 0.0000e+00 0.0000e+00
       23  2    1    0    0    0 +1.7911651224e+01 +2.3174065013e+00 +2.1028332741e+01 9.7280180370e+01 9.3247225656e+01 0.0000e+00 0.0000e+00
      -13  1    2    2    0    0 -8.2085218867e+00 -4.1377875966e+01 -4.2868128661e-02 4.2184374510e+01 1.0566000000e-01 0.0000e+00 1.0000e+00
       13  1    2    2    0    0 +2.6120173111e+01 +4.3695282468e+01 +2.1071200869e+01 5.5095805860e+01 1.0566000000e-01 0.0000e+00 -1.0000e+00
       22  1    1    0    0    0 -1.7911651224e+01 -2.3174065013e+00 -2.1028332741e+01 2.7719819630e+01 0.0000000000e+00 0.0000e+00 -1.0000e+00
</event>
<event>
 4      1 +2.4041262e-06 9.11880000e+01 7.81860800e-03 1.13011600e-01
       25 -1    0    0    0    0 +0.0000000000e+00 +0.0000000000e+00 +9.9999998245e-15 1.2500000000e+02 1.2500000000e+02 0.0000e+00 0.0000e+00
      -13  1    1    0    0    0 +6.0867327259e+01 -8.8962491743e+00 -1.1057307944e+01 6.2500000000e+01 1.0566000000e-01 0.0000e+00 -1.0000e+00
       13  1    1    0    0    0 -6.0867327259e+01 +8.8962491743e+00 +1.1057307944e+01 6.2500000000e+01 1.0566000000e-01 0.0000e+00 -1.0000e+00
       22  1    1    0    0    0 +1.5727162683e-10 -6.5603197293e-12 -4.9187873560e-11 1.6491467280e-10 0.0000000000e+00 0.0000e+00 1.0000e+00
</event>
<event>
 4      1 +2.4041262e-06 9.11880000e+01 7.81860800e-03 1.13011600e-01
       25 -1    0    0    0    0 +0.0000000000e+00 +0.0000000000e+00 +9.9999998245e-15 1.2500000000e+02 1.2500000000e+02 0.0000e+00 0.0000e+00
      -13  1    1    0    0    0 +5.1026527303e+01 -3.5699130765e+01 +5.2860210431e+00 6.2498700854e+01 1.0566000000e-01 0.0000e+00 -1.0000e+00
       13  1    1    0    0    0 -2.4761619056e+01 +1.7123192749e+01 -2.7823505169e+00 3.0233989922e+01 1.0566000000e-01 0.0000e+00 -1.0000e+00
       22  1    1    0    0    0 -2.6264908247e+01 +1.8575938016e+01 -2.5036705262e+00 3.2267309223e+01 0.0000000000e+00 0.0000e+00 1.0000e+00
</event>
<event>
 4      1 +2.4041262e-06 9.11880000e+01 7.81860800e-03 1.13011600e-01
       25 -1    0    0    0    0 +0.0000000000e+00 +0.0000000000e+00 +9.9999998245e-15 1.2500000000e+02 1.2500000000e+02 0.0000e+00 0.0000e+00
      -13  1    1    0    0    0 -1.0410873798e+01 +8.7810336658e+00 +5.4110756211e+00 1.4655502342e+01 1.0566000000e-01 0.0000e+00 -1.0000e+00
       13  1    1    0    0    0 -3.3638021210e+01 +2.8942849707e+01 +1.7886659675e+01 4.7845049676e+01 1.0566000000e-01 0.0000e+00 1.0000e+00
       22  1    1    0    0    0 +4.4048895008e+01 -3.7723883373e+01 -2.3297735296e+01 6.2499447982e+01 0.0000000000e+00 0.0000e+00 1.0000e+00
</event>
<event>
 4      1 +2.4041262e-06 9.11880000e+01 7.81860800e-03 1.13011600e-01
       25 -1    0    0    0    0 +0.0000000000e+00 +0.0000000000e+00 +9.9999998245e-15 1.2500000000e+02 1.2500000000e+02 0.0000e+00 0.0000e+00
      -13  1    1    0    0    0 -5.7901436825e+01 -2.2422101017e+01 +7.1294691188e+00 6.2499339952e+01 1.0566000000e-01 0.0000e+00 1.0000e+00
       13  1    1    0    0    0 +5.7902048564e+01 +2.2422338334e+01 -7.1295407251e+00 6.2499999994e+01 1.0566000000e-01 0.0000e+00 1.0000e+00
       22  1    1    0    0    0 -6.1173888702e-04 -2.3731752571e-04 +7.1606262211e-05 6.6005418769e-04 0.0000000000e+00 0.0000e+00 -1.0000e+00
</event>
<event>
 4      1 +2.4041262e-06 9.11880000e+01 7.81860800e-03 1.13011600e-01
       25 -1    0    0    0    0 +0.0000000000e+00 +0.0000000000e+00 +9.9999998245e-15 1.2500000000e+02 1.2500000000e+02 0.0000e+00 0.0000e+00
      -13  1    1    0    0    0 -3.4089579712e+01 -3.4184944311e+01 -3.9692933521e+01 6.2499999984e+01 1.0566000000e-01 0.0000e+00 1.0000e+00
       13  1    1    0    0    0 +3.4089553210e+01 +3.4184917292e+01 +3.9692904640e+01 6.2499952409e+01 1.0566000000e-01 0.0000e+00 1.0000e+00
       22  1    1    0    0    0 +2.6501415539e-05 +2.7019245568e-05 +2.8880541706e-05 4.7607250979e-05 0.0000000000e+00 0.0000e+00 -1.0000e+00
</event>
<event>
 5      1 +2.4041262e-06 9.11880000e+01 7.81860800e-03 1.13011600e-01
       25 -1    0    0    0    0 +0.0000000000e+00 +0.0000000000e+00 +9.9999998245e-15 1.2500000000e+02 1.2500000000e+02 0.0000e+00 0.0000e+00
       23  2    1    0    0    0 -1.3895962659e+01 +1.4311789501e+01 +2.0412882247e+01 9.6458611481e+01 9.2139312296e+01 0.0000e+00 0.0000e+00
      -11  1    2    2    0    0 +1.0338547491e+01 +2.9389885550e+01 +4.7698787287e+01 5.6972144473e+01 5.1100000000e-04 0.0000e+00 -1.0000e+00
       11  1    2    2    0    0 -2.4234510150e+01 -1.5078096049e+01 -2.7285905041e+01 3.9486467009e+01 5.1100000000e-04 0.0000e+00 1.0000e+00
       22  1    1    0    0    0 +1.3895962659e+01 -1.4311789501e+01 -2.0412882247e+01 2.8541388519e+01 0.0000000000e+00 0.0000e+00 -1.0000e+00
</event>
<event>
 4      1 +2.4041262e-06 9.11880000e+01 7.81860800e-03 1.13011600e-01
       25 -1    0    0    0    0 +0.0000000000e+00 +0.0000000000e+00 +9.9999998245e-15 1.2500000000e+02 1.2500000000e+02 0.0000e+00 0.0000e+00
      -11  1    1    0    0    0 -3.7578966697e+00 +1.7560062472e+01 +5.0222999585e+01 5.3336922193e+01 5.1100000000e-04 0.0000e+00 1.0000e+00
       11  1    1    0    0    0 -9.2423815281e-01 +2.4493337391e+00 +8.7915015598e+00 9.1730012463e+00 5.1100000000e-04 0.0000e+00 -1.0000e+00
       22  1    1    0    0    0 +4.6821348225e+00 -2.0009396211e+01 -5.9014501145e+01 6.2490076561e+01 0.0000000000e+00 0.0000e+00 1.0000e+00
</event>
<event>
 4      1 +2.4041262e-06 9.11880000e+01 7.81860800e-03 1.13011600e-01
       25 -1    0    0    0    0 +0.0000000000e+00 +0.0000000000e+00 +9.9999998245e-15 1.2500000000e+02 1.2500000000e+02 0.0000e+00 0.0000e+00
      -13  1    1    0    0    0 -1.9405512876e+01 -4.9770595496e+01 +3.2431440838e+01 6.2493964708e+01 1.0566000000e-01 0.0000e+00 1.0000e+00
       13  1    1    0    0    0 +1.9406661416e+01 +4.9763801407e+01 -3.2441284177e+01 6.2494019881e+01 1.0566000000e-01 0.0000e+00 1.0000e+00
       22  1    1    0    0    0 -1.1485402605e-03 +6.7940886751e-03 +9.8433389633e-03 1.2015411254e-02 0.0000000000e+00 0.0000e+00 -1.0000e+00
</event>
<event>
 4      1 +2.4041262e-06 9.11880000e+01 7.81860800e-03 1.13011600e-01
       25 -1    0    0    0    0 +0.0000000000e+00 +0.0000000000e+00 +9.9999998245e-15 1.2500000000e+02 1.2500000000e+02 0.0000e+00 0.0000e+00
      -11  1    1    0    0    0 -3.5998268748e+01 -2.0987218180e+01 +3.2734564002e+01 5.2989530668e+01 5.1100000000e-04 0.0000e+00 -1.0000e+00
       11  1    1    0    0    0 -9.1394727657e-01 -2.8852754796e+00 +1.0153835216e+01 1.0595304813e+01 5.1100000000e-04 0.0000e+00 1.0000e+00
       22  1    1    0    0    0 +3.6912216024e+01 +2.3872493660e+01 -4.2888399218e+01 6.1415164519e+01 0.0000000000e+00 0.0000e+00 -1.0000e+00
</event>
<event>
 4      1 +2.4041262e-06 9.11880000e+01 7.81860800e-03 1.13011600e-01
       25 -1    0    0    0    0 +0.0000000000e+00 +0.0000000000e+00 +9.9999998245e-15 1.2500000000e+02 1.2500000000e+02 0.0000e+00 0.0000e+00
      -13  1    1    0    0    0 -5.5194721241e+00 -5.3217161859e+01 +3.2306241698e+01 6.2499882444e+01 1.0566000000e-01 0.0000e+00 1.0000e+00
       13  1    1    0    0    0 +5.5194808880e+00 +5.3217262582e+01 -3.2306301691e+01 6.2499999992e+01 1.0566000000e-01 0.0000e+00 1.0000e+00
       22  1    1    0    0    0 -8.7638298655e-06 -1.0072323355e-04 +5.9993135418e-05 1.1756339051e-04 0.0000000000e+00 0.0000e+00 -1.0000e+00
</event>
<event>
 5      1 +2.4041262e-06 9.11880000e+01 7.81860800e-03 1.13011600e-01
       25 -1    0    0    0    0 +0.0000000000e+00 +0.0000000000e+00 +9.9999998245e-15 1.2500000000e+02 1.2500000000e+02 0.0000e+00 0.0000e+00
       23  2    1    0    0    0 -2.9240592100e+01 -5.4373246721e+00 -3.8935901363e+00 9.5004387486e+01 9.0144866030e+01 0.0000e+00 0.0000e+00
      -13  1    2    2    0    0 +3.2446687418e+01 -1.5196434254e+00 +3.8491234012e+00 3.2709689016e+01 1.0566000000e-01 0.0000e+00 1.0000e+00
       13  1    2    2    0    0 -6.1687279517e+01 -3.9176812467e+00 -7.7427135374e+00 6.2294698471e+01 1.0566000000e-01 0.0000e+00 -1.0000e+00
       22  1    1    0    0    0 +2.9240592100e+01 +5.4373246721e+00 +3.8935901363e+00 2.9995612514e+01 0.0000000000e+00 0.0000e+00 -1.0000e+00
</event>
<event>
 4      1 +2.4041262e-06 9.11880000e+01 7.81860800e-03 1.13011600e-01
       25 -1    0    0    0    0 +0.0000000000e+00 +0.0000000000e+00 +9.9999998245e-15 1.2500000000e+02 1.2500000000e+02 0.0000e+00 0.0000e+00
      -13  1    1    0    0    0 -2.9991899773e+01 +5.1347061227e+01 +1.9223741528e+01 6.2494784990e+01 1.0566000000e-01 0.0000e+00 1.0000e+00
       13  1    1    0    0    0 +2.9993179654e+01 -5.1348851311e+01 -1.9229828409e+01 6.2498742559e+01 1.0566000000e-01 0.0000e+00 1.0000e+00
       22  1    1    0    0    0 -1.2798811304e-03 +1.7900843147e-03 +6.0868813257e-03 6.4724509913e-03 0.0000000000e+00 0.0000e+00 1.0000e+00
</event>
<event>
 4      1 +2.4041262e-06 9.11880000e+01 7.81860800e-03 1.13011600e-01
       25 -1    0    0    0    0 +0.0000000000e+00 +0.0000000000e+00 +9.9999998245e-15 1.2500000000e+02 1.2500000000e+02 0.0000e+00 0.0000e+00
      -13  1    1    0    0    0 -4.0504605262e+01 +3.9941553154e+00 +4.7430606643e+01 6.2499999478e+01 1.0566000000e-01 0.0000e+00 -1.0000e+00
       13  1    1    0    0    0 +4.0504605599e+01 -3.9941553522e+00 -4.7430607041e+01 6.2500000000e+01 1.0566000000e-01 0.0000e+00 -1.0000e+00
       22  1    1    0    0    0 -3.3643716380e-07 +3.6773307050e-08 +3.9783603469e-07 5.2231767326e-07 0.0000000000e+00 0.0000e+00 1.0000e+00
</event>
<event>
 4      1 +2.4041262e-06 9.11880000e+01 7.81860800e-03 1.13011600e-01
       25 -1    0    0    0    0 +0.0000000000e+00 +0.0000000000e+00 +9.9999998245e-15 1.2500000000e+02 1.2500000000e+02 0.0000e+00 0.0000e+00
      -13  1    1    0    0    0 -8.2949439082e+00 +2.4502980590e+01 -5.6894957521e+01 6.2499996061e+01 1.0566000000e-01 0.0000e+00 -1.0000e+00
       13  1    1    0    0    0 +8.2949444986e+00 -2.4502982110e+01 +5.6894961107e+01 6.2500000000e+01 1.0566000000e-01 0.0000e+00 -1.0000e+00
       22  1    1    0    0    0 -5.9048791916e-07 +1.5196195805e-06 -3.5866658671e-06 3.9398085860e-06 0.0000000000e+00 0.0000e+00 -1.0000e+00
</event>
<event>
 4      1 +2.4041262e-06 9.11880000e+01 7.81860800e-03 1.13011600e-01
       25 -1    0    0    0    0 +0.0000000000e+00 +0.0000000000e+00 +9.9999998245e-15 1.2500000000e+02 1.2500000000e+02 0.0000e+00 0.0000e+00
      -11  1    1    0    0    0 +3.7756263705e+01 +2.0757659435e+01 +7.3842932761e+00 4.3714341601e+01 5.1100000000e-04 0.0000e+00 -1.0000e+00
       11  1    1    0    0    0 +1.6261289571e+01 +8.8705468036e+00 +3.1283938978e+00 1.8785712330e+01 5.1100000000e-04 0.0000e+00 1.0000e+00
       22  1    1    0    0    0 -5.4017553276e+01 -2.9628206239e+01 -1.0512687174e+01 6.2499946068e+01 0.0000000000e+00 0.0000e+00 -1.0000e+00
</event>
<event>
 4      1 +2.4041262e-06 9.11880000e+01 7.81860800e-03 1.13011600e-01
       25 -1    0    0    0    0 +0.0000000000e+00 +0.0000000000e+00 +9.9999998245e-15 1.2500000000e+02 1.2500000000e+02 0.0000e+00 0.0000e+00
      -13  1    1    0    0    0 +1.4621860786e+01 -1.6956554932e+01 +5.8351651801e+01 6.2500000000e+01 1.0566000000e-01 0.0000e+00 -1.0000e+00
       13  1    1    0    0    0 -1.4621860250e+01 +1.6956554296e+01 -5.8351649729e+01 6.2499997767e+01 1.0566000000e-01 0.0000e+00 -1.0000e+00
       22  1    1    0    0    0 -5.3575051809e-07 +6.3594570040e-07 -2.0721740614e-06 2.2327921740e-06 0.0000000000e+00 0.0000e+00 -1.0000e+00
</event>
<event>
 4      1 +2.4041262e-06 9.11880000e+01 7.81860800e-03 1.13011600e-01
       25 -1    0    0    0    0 +0.0000000000e+00 +0.0000000000e+00 +9.9999998245e-15 1.2500000000e+02 1.2500000000e+02 0.0000e+00 0.0000e+00
      -13  1    1    0    0    0 -2.4496083859e+01 -3.2351987478e+00 -5.7408310901e+01 6.2499999679e+01 1.0566000000e-01 0.0000e+00 -1.0000e+00
       13  1    1    0    0    0 +2.4491550728e+01 +3.2345763854e+00 +5.7397974832e+01 6.2488696740e+01 1.0566000000e-01 0.0000e+00 -1.0000e+00
       22  1    1    0    0    0 +4.5331308685e-03 +6.2236237885e-04 +1.0336069193e-02 1.1303580706e-02 0.0000000000e+00 0.0000e+00 -1.0000e+00
</event>
<event>
 4      1 +2.4041262e-06 9.11880000e+01 7.81860800e-03 1.13011600e-01
       25 -1    0    0    0    0 +0.0000000000e+00 +0.0000000000e+00 +9.9999998245e-15 1.2500000000e+02 1.2500000000e+02 0.0000e+00 0.0000e+00
      -11  1    1    0    0    0 +2.5968571488e+01 -3.2888360111e+01 -4.2735524093e+01 5.9852618620e+01 5.1100000000e-04 0.0000e+00 -1.0000e+00
       11  1    1    0    0    0 +1.1456850754e+00 -1.4604747384e+00 -1.8876097996e+00 2.6473858370e+00 5.1100000000e-04 0.0000e+00 1.0000e+00
       22  1    1    0    0    0 -2.7114256563e+01 +3.4348834849e+01 +4.4623133893e+01 6.2499995543e+01 0.0000000000e+00 0.0000e+00 -1.0000e+00
</event>
<event>
 4      1 +2.4041262e-06 9.11880000e+01 7.81860800e-03 1.13011600e-01
       25 -1    0    0    0    0 +0.0000000000e+00 +0.0000000000e+00 +9.9999998245e-15 1.2500000000e+02 1.2500000000e+02 0.0000e+00 0.0000e+00
      -11  1    1    0    0    0 -9.0352306900e+00 -1.2820256754e+00 -1.3373934738e+01 1.6190772498e+01 5.1100000000e-04 0.0000e+00 1.0000e+00
       11  1    1    0    0    0 -3.8304959572e+00 -1.9148963848e+00 -4.6899743994e+01 4.7094856560e+01 5.1100000000e-04 0.0000e+00 -1.0000e+00
       22  1    1    0    0    0 +1.2865726647e+01 +3.1969220601e+00 +6.0273678732e+01 6.1714370942e+01 0.0000000000e+00 0.0000e+00 -1.0000e+00
</event>
<event>
 4      1 +2.4041262e-06 9.11880000e+01 7.81860800e-03 1.13011600e-01
       25 -1    0    0    0    0 +0.0000000000e+00 +0.0000000000e+00 +9.9999998245e-15 1.2500000000e+02 1.2500000000e+02 0.0000e+00 0.0000e+00
      -13  1    1    0    0    0 +1.3141395445e-01 -4.4813584146e-01 -8.5769574574e-01 9.8229394159e-01 1.0566000000e-01 0.0000e+00 -1.0000e+00
       13  1    1    0    0    0 +2.4476619632e+01 -1.2504681444e+01 -5.5075338926e+01 6.1553034762e+01 1.0566000000e-01 0.0000e+00 1.0000e+00
       22  1    1    0    0    0 -2.4608033586e+01 +1.2952817285e+01 +5.5933034671e+01 6.2464671296e+01 0.0000000000e+00 0.0000e+00 1.0000e+00
</event>
<event>
 4      1 +2.4041262e-06 9.11880000e+01 7.81860800e-03 1.13011600e-01
       25 -1    0    0    0    0 +0.0000000000e+00 +0.0000000000e+00 +9.9999998245e-15 1.2500000000e+02 1.2500000000e+02 0.0000e+00 0.0000e+00
      -13  1    1    0    0    0 +2.1947005741e+01 -3.3719761145e+01 -4.7701123405e+01 6.2402737847e+01 1.0566000000e-01 0.0000e+00 1.0000e+00
       13  1    1    0    0    0 -2.1923217716e+01 +3.3832836936e+01 +4.7730538004e+01 6.2478026156e+01 1.0566000000e-01 0.0000e+00 1.0000e+00
       22  1    1    0    0    0 -2.3788024709e-02 -1.1307579053e-01 -2.9414599029e-02 1.1923599775e-01 0.0000000000e+00 0.0000e+00 1.0000e+00
</event>
<event>
 4      1 +2.4041262e-06 9.11880000e+01 7.81860800e-03 1.13011600e-01
       25 -1    0    0    0    0 +0.0000000000e+00 +0.0000000000e+00 +9.9999998245e-15 1.2500000000e+02 1.2500000000e+02 0.0000e+00 0.0000e+00
      -13  1    1    0    0    0 +2.3662060943e+01 -5.2249898680e+01 -3.7436937957e+00 5.7480183084e+01 1.0566000000e-01 0.0000e+00 1.0000e+00
       13  1    1    0    0    0 +1.7076769260e+00 -4.7285965120e+00 -1.0776560989e-01 5.0297676804e+00 1.0566000000e-01 0.0000e+00 -1.0000e+00
       22  1    1    0    0    0 -2.5369737869e+01 +5.6978495192e+01 +3.8514594056e+00 6.2490049235e+01 0.0000000000e+00 0.0000e+00 1.0000e+00
</event>
<event>
 4      1 +2.4041262e-06 9.11880000e+01 7.81860800e-03 1.13011600e-01
       25 -1    0    0    0    0 +0.0000000000e+00 +0.0000000000e+00 +9.9999998245e-15 1.2500000000e+02 1.2500000000e+02 0.0000e+00 0.0000e+00
      -13  1    1    0    0    0 +6.8438213236e+00 +1.9197343104e+01 -1.7780589293e+00 2.0458458645e+01 1.0566000000e-01 0.0000e+00 1.0000e+00
       13  1    1    0    0    0 +1.4154310986e+01 +3.9413579016e+01 -3.7046371133e+00 4.2041767690e+01 1.0566000000e-01 0.0000e+00 1.0000e+00
       22  1    1    0    0    0 -2.0998132310e+01 -5.8610922120e+01 +5.4826960426e+00 6.2499773664e+01 0.0000000000e+00 0.0000e+00 1.0000e+00
</event>
<event>
 4      1 +2.4041262e-06 9.11880000e+01 7.81860800e-03 1.13011600e-01
       25 -1    0    0    0    0 +0.0000000000e+00 +0.0000000000e+00 +9.9999998245e-15 1.2500000000e+02 1.2500000000e+02 0.0000e+00 0.0000e+00
      -13  1    1    0    0    0 +4.3405797487e+01 +1.0398495512e+01 -4.3436833626e+01 6.2281310550e+01 1.0566000000e-01 0.0000e+00 -1.0000e+00
       13  1    1    0    0    0 -4.3113512207e+01 -9.5785736896e+00 +4.1536620279e+01 6.0628590590e+01 1.0566000000e-01 0.0000e+00 -1.0000e+00
       22  1    1    0    0    0 -2.9228528027e-01 -8.1992182252e-01 +1.9002133470e+00 2.0900988599e+00 0.0000000000e+00 0.0000e+00 1.0000e+00
</event>
<event>
 5      1 +2.4041262e-06 9.11880000e+01 7.81860800e-03 1.13011600e-01
       25 -1    0    0    0    0 +0.0000000000e+00 +0.0000000000e+00 +9.9999998245e-15 1.2500000000e+02 1.2500000000e+02 0.0000e+00 0.0000e+00
       23  2    1    0    0    0 +1.4086138946e+01 +2.5251947858e+00 +2.6128836449e+01 9.5208860154e+01 9.0427954962e+01 0.0000e+00 0.0000e+00
      -11  1    2    2    0    0 +2.2096916784e+01 -1.6682991106e+01 +5.3846415952e+01 6.0547769858e+01 5.1100000000e-04 0.0000e+00 1.0000e+00
       11  1    2    2    0    0 -8.0107778377e+00 +1.9208185891e+01 -2.7717579503e+01 3.4661090297e+01 5.1100000000e-04 0.0000e+00 -1.0000e+00
       22  1    1    0    0    0 -1.4086138946e+01 -2.5251947858e+00 -2.6128836449e+01 2.9791139846e+01 0.0000000000e+00 0.0000e+00 1.0000e+00
</event>
<event>
 4      1 +2.4041262e-06 9.11880000e+01 7.81860800e-03 1.13011600e-01
       25 -1    0    0    0    0 +0.0000000000e+00 +0.0000000000e+00 +9.9999998245e-15 1.2500000000e+02 1.2500000000e+02 0.0000e+00 0.0000e+00
      -13  1    1    0    0    0 -4.9662210429e+00 -1.7134897280e+01 +8.9119255499e+00 1.9942458156e+01 1.0566000000e-01 0.0000e+00 1.0000e+00
       13  1    1    0    0    0 +1.4220987821e+01 +5.4083171864e+01 -2.7902398389e+01 6.2496247674e+01 1.0566000000e-01 0.0000e+00 1.0000e+00
       22  1    1    0    0    0 -9.2547667785e+00 -3.6948274583e+01 +1.8990472839e+01 4.2561294170e+01 0.0000000000e+00 0.0000e+00 1.0000e+00
</event>
<event>
 4      1 +2.4041262e-06 9.11880000e+01 7.81860800e-03 1.13011600e-01
       25 -1    0    0    0    0 +0.0000000000e+00 +0.0000000000e+00 +9.9999998245e-15 1.2500000000e+02 1.2500000000e+02 0.0000e+00 0.0000e+00
      -13  1    1    0    0    0 -9.3542218238e+00 -3.8524799007e+00 +5.6237476093e+00 1.1575006200e+01 1.0566000000e-01 0.0000e+00 1.0000e+00
       13  1    1    0    0    0 -4.1969813856e+01 -1.4220434054e+01 +2.5108794224e+01 5.0932786407e+01 1.0566000000e-01 0.0000e+00 -1.0000e+00
       22  1    1    0    0    0 +5.1324035680e+01 +1.8072913955e+01 -3.0732541833e+01 6.2492207393e+01 0.0000000000e+00 0.0000e+00 -1.0000e+00
</event>
<event>
 4      1 +2.4041262e-06 9.11880000e+01 7.81860800e-03 1.13011600e-01
       25 -1    0    0    0    0 +0.0000000000e+00 +0.0000000000e+00 +9.9999998245e-15 1.2500000000e+02 1.2500000000e+02 0.0000e+00 0.0000e+00
      -11  1    1    0    0    0 -1.2507613486e+01 +3.5155397863e+01 -2.9075933358e+01 4.7304886586e+01 5.1100000000e-04 0.0000e+00 -1.0000e+00
       11  1    1    0    0    0 +7.4878736212e+00 +1.3293429877e+01 -7.2894869152e+00 1.6909173516e+01 5.1100000000e-04 0.0000e+00 1.0000e+00
       22  1    1    0    0    0 +5.0197398649e+00 -4.8448827740e+01 +3.6365420273e+01 6.0785939898e+01 0.0000000000e+00 0.0000e+00 -1.0000e+00
</event>
<event>
 4      1 +2.4041262e-06 9.11880000e+01 7.81860800e-03 1.13011600e-01
       25 -1    0    0    0    0 +0.0000000000e+00 +0.0000000000e+00 +9.9999998245e-15 1.2500000000e+02 1.2500000000e+02 0.0000e+00 0.0000e+00
      -13  1    1    0    0    0 -4.4494982471e+01 +1.3316536704e+01 -4.1822305306e+01 6.2500000000e+01 1.0566000000e-01 0.0000e+00 -1.0000e+00
       13  1    1    0    0    0 +4.4494982348e+01 -1.3316536660e+01 +4.1822305188e+01 6.2499999824e+01 1.0566000000e-01 0.0000e+00 -1.0000e+00
       22  1    1    0    0    0 +1.2300189166e-07 -4.4023531854e-08 +1.1818166524e-07 1.7616595218e-07 0.0000000000e+00 0.0000e+00 -1.0000e+00
</event>
<event>
 4      1 +2.4041262e-06 9.11880000e+01 7.81860800e-03 1.13011600e-01
       25 -1    0    0    0    0 +0.0000000000e+00 +0.0000000000e+00 +9.9999998245e-15 1.2500000000e+02 1.2500000000e+02 0.0000e+00 0.0000e+00
      -13  1    1    0    0    0 -4.0042660537e+01 -4.7982299226e+01 +5.2665886096e-01 6.2498033853e+01 1.0566000000e-01 0.0000e+00 1.0000e+00
       13  1    1    0    0    0 +4.0039126920e+01 +4.7956707665e+01 -5.2712425839e-01 6.2476127590e+01 1.0566000000e-01 0.0000e+00 1.0000e+00
       22  1    1    0    0    0 +3.5336170212e-03 +2.5591560940e-02 +4.6539743060e-04 2.5838557146e-02 0.0000000000e+00 0.0000e+00 -1.0000e+00
</event>
<event>
 4      1 +2.4041262e-06 9.11880000e+01 7.81860800e-03 1.13011600e-01
       25 -1    0    0    0    0 +0.0000000000e+00 +0.0000000000e+00 +9.9999998245e-15 1.2500000000e+02 1.2500000000e+02 0.0000e+00 0.0000e+00
      -11  1    1    0    0    0 -1.7558008498e+01 -3.5263235838e+00 -1.8419735484e+01 2.5690567841e+01 5.1100000000e-04 0.0000e+00 -1.0000e+00
       11  1    1    0    0    0 -2.5157994882e+01 -5.0504940487e+00 -2.6391326233e+01 3.6809432178e+01 5.1100000000e-04 0.0000e+00 1.0000e+00
       22  1    1    0    0    0 +4.2716003380e+01 +8.5768176324e+00 +4.4811061718e+01 6.2499999981e+01 0.0000000000e+00 0.0000e+00 -1.0000e+00
</event>
<event>
 4      1 +2.4041262e-06 9.11880000e+01 7.81860800e-03 1.13011600e-01
       25 -1    0    0    0    0 +0.0000000000e+00 +0.0000000000e+00 +9.9999998245e-15 1.2500000000e+02 1.2500000000e+02 0.0000e+00 0.0000e+00
      -13  1    1    0    0    0 +4.3798817089e+01 -4.0861500568e+01 +1.7839229462e+01 6.2499983031e+01 1.0566000000e-01 0.0000e+00 -1.0000e+00
       13  1    1    0    0    0 -4.3798723767e+01 +4.0861413735e+01 -1.7839075154e+01 6.2499816819e+01 1.0566000000e-01 0.0000e+00 -1.0000e+00
       22  1    1    0    0    0 -9.3322234193e-05 +8.6833130526e-05 -1.5430784843e-04 2.0014980399e-04 0.0000000000e+00 0.0000e+00 1.0000e+00
</event>
<event>
 4      1 +2.4041262e-06 9.11880000e+01 7.81860800e-03 1.13011600e-01
       25 -1    0    0    0    0 +0.0000000000e+00 +0.0000000000e+00 +9.9999998245e-15 1.2500000000e+02 1.2500000000e+02 0.0000e+00 0.0000e+00
      -13  1    1    0    0    0 +1.6626228842e+01 -3.0016002163e+01 -5.2238358351e+01 6.2499992948e+01 1.0566000000e-01 0.0000e+00 -1.0000e+00
       13  1    1    0    0    0 -1.6626224491e+01 +3.0016008118e+01 +5.2238362850e+01 6.2499998412e+01 1.0566000000e-01 0.0000e+00 -1.0000e+00
       22  1    1    0    0    0 -4.3512318049e-06 -5.9553604768e-06 -4.4995917998e-06 8.6397837352e-06 0.0000000000e+00 0.0000e+00 1.0000e+00
</event>
<event>
 4      1 +2.4041262e-06 9.11880000e+01 7.81860800e-03 1.13011600e-01
       25 -1    0    0    0    0 +0.0000000000e+00 +0.0000000000e+00 +9.9999998245e-15 1.2500000000e+02 1.2500000000e+02 0.0000e+00 0.0000e+00
      -11  1    1    0    0    0 -2.5277969233e+00 -7.0479459606e+00 -3.6151198543e+00 8.3145890681e+00 5.1100000000e-04 0.0000e+00 1.0000e+00
       11  1    1    0    0    0 -1.6882159020e+01 -4.5883112486e+01 -2.3362476275e+01 5.4185538685e+01 5.1100000000e-04 0.0000e+00 -1.0000e+00
       22  1    1    0    0    0 +1.9409955943e+01 +5.2931058447e+01 +2.6977596129e+01 6.2499872247e+01 0.0000000000e+00 0.0000e+00 -1.0000e+00
</event>
<event>
 4      1 +2.4041262e-06 9.11880000e+01 7.81860800e-03 1.13011600e-01
       25 -1    0    0    0    0 +0.0000000000e+00 +0.0000000000e+00 +9.9999998245e-15 1.2500000000e+02 1.2500000000e+02 0.0000e+00 0.0000e+00
      -13  1    1    0    0    0 -4.8667546554e+01 +3.0818411771e+01 +2.4247350581e+01 6.2499998127e+01 1.0566000000e-01 0.0000e+00 -1.0000e+00
       13  1    1    0    0    0 +4.8667548013e+01 -3.0818412698e+01 -2.4247351302e+01 6.2500000000e+01 1.0566000000e-01 0.0000e+00 -1.0000e+00
       22  1    1    0    0    0 -1.4588233336e-06 +9.2717227348e-07 +7.2122501701e-07 1.8729600819e-06 0.0000000000e+00 0.0000e+00 1.0000e+00
</event>
<event>
 4      1 +2.4041262e-06 9.11880000e+01 7.81860800e-03 1.13011600e-01
       25 -1    0    0    0    0 +0.0000000000e+00 +0.0000000000e+00 +9.9999998245e-15 1.2500000000e+02 1.2500000000e+02 0.0000e+00 0.0000e+00
      -13  1    1    0    0    0 +1.9238065638e+01 +7.0229393412e+00 -5.9049246538e+01 6.2499996218e+01 1.0566000000e-01 0.0000e+00 1.0000e+00
       13  1    1    0    0    0 -1.9238066559e+01 -7.0229393730e+00 +5.9049250222e+01 6.2499999985e+01 1.0566000000e-01 0.0000e+00 1.0000e+00
       22  1    1    0    0    0 +9.2067278956e-07 +3.1733170465e-08 -3.6839328384e-06 3.7973683699e-06 0.0000000000e+00 0.0000e+00 -1.0000e+00
</event>
<event>
 4      1 +2.4041262e-06 9.11880000e+01 7.81860800e-03 1.13011600e-01
       25 -1    0    0    0    0 +0.0000000000e+00 +0.0000000000e+00 +9.9999998245e-15 1.2500000000e+02 1.2500000000e+02 0.0000e+00 0.0000e+00
      -11  1    1    0    0    0 -6.2426152662e+00 -3.4771248832e+01 -2.3933878373e+01 4.2671307982e+01 5.1100000000e-04 0.0000e+00 -1.0000e+00
       11  1    1    0    0    0 -3.0853634688e+00 -1.5830361659e+01 -1.1539716425e+01 1.9831411282e+01 5.1100000000e-04 0.0000e+00 1.0000e+00
       22  1    1    0    0    0 +9.3279787349e+00 +5.0601610490e+01 +3.5473594798e+01 6.2497280736e+01 0.0000000000e+00 0.0000e+00 -1.0000e+00
</event>
<event>
 4      1 +2.4041262e-06 9.11880000e+01 7.81860800e-03 1.13011600e-01
       25 -1    0    0    0    0 +0.0000000000e+00 +0.0000000000e+00 +9.9999998245e-15 1.2500000000e+02 1.2500000000e+02 0.0000e+00 0.0000e+00
      -13  1    1    0    0    0 +2.0584102344e+01 -1.0231363522e+01 +5.8119297717e+01 6.2500000000e+01 1.0566000000e-01 0.0000e+00 -1.0000e+00
       13  1    1    0    0    0 -2.0584102143e+01 +1.0231363424e+01 -5.8119297158e+01 6.2499999398e+01 1.0566000000e-01 0.0000e+00 -1.0000e+00
       22  1    1    0    0    0 -2.0081689097e-07 +9.7975220960e-08 -5.5925206779e-07 6.0223703219e-07 0.0000000000e+00 0.0000e+00 1.0000e+00
</event>
<event>
 4      1 +2.4041262e-06 9.11880000e+01 7.81860800e-03 1.13011600e-01
       25 -1    0    0    0    0 +0.0000000000e+00 +0.0000000000e+00 +9.9999998245e-15 1.2500000000e+02 1.2500000000e+02 0.0000e+00 0.0000e+00
      -13  1    1    0    0    0 +8.8371062048e+00 +1.2975761099e+01 +3.0254972815e+01 3.4085764862e+01 1.0566000000e-01 0.0000e+00 1.0000e+00
       13  1    1    0    0    0 +1.3313406713e+01 +1.1747365331e+00 +2.5770002519e+01 2.9029829453e+01 1.0566000000e-01 0.0000e+00 -1.0000e+00
       22  1    1    0    0    0 -2.2150512918e+01 -1.4150497632e+01 -5.6024975334e+01 6.1884405684e+01 0.0000000000e+00 0.0000e+00 -1.0000e+00
</event>
<event>
 5      1 +2.4041262e-06 9.11880000e+01 7.81860800e-03 1.13011600e-01
       25 -1    0    0    0    0 +0.0000000000e+00 +0.0000000000e+00 +9.9999998245e-15 1.2500000000e+02 1.2500000000e+02 0.0000e+00 0.0000e+00
       23  2    1    0    0    0 -2.6972268583e+01 +2.1734580158e+01 +3.2345566101e+01 7.7606636608e+01 6.1454529142e+01 0.0000e+00 0.0000e+00
      -13  1    2    2    0    0 -8.8894283023e+00 +4.0525402864e+01 +8.6725006215e+00 4.2385771715e+01 1.0566000000e-01 0.0000e+00 -1.0000e+00
       13  1    2    2    0    0 -1.8082840281e+01 -1.8790822705e+01 +2.3673065480e+01 3.5220864893e+01 1.0566000000e-01 0.0000e+00 1.0000e+00
       22  1    1    0    0    0 +2.6972268583e+01 -2.1734580158e+01 -3.2345566101e+01 4.7393363392e+01 0.0000000000e+00 0.0000e+00 -1.0000e+00
</event>
<event>
 5      1 +2.4041262e-06 9.11880000e+01 7.81860800e-03 1.13011600e-01
       25 -1    0    0    0    0 +0.0000000000e+00 +0.0000000000e+00 +9.9999998245e-15 1.2500000000e+02 1.2500000000e+02 0.0000e+00 0.0000e+00
       23  2    1    0    0    0 -1.0612973290e+00 +2.3706669742e+01 -1.6918896301e+01 9.5855848026e+01 9.1317917226e+01 0.0000e+00 0.0000e+00
      -13  1    2    2    0    0 -5.6630048000e+00 -2.6624227634e+01 -3.3037720234e+01 4.2806789681e+01 1.0566000000e-01 0.0000e+00 -1.0000e+00
       13  1    2    2    0    0 +4.6017074710e+00 +5.0330897376e+01 +1.6118823933e+01 5.3049058345e+01 1.0566000000e-01 0.0000e+00 1.0000e+00
       22  1    1    0    0    0 +1.0612973290e+00 -2.3706669742e+01 +1.6918896301e+01 2.9144151974e+01 0.0000000000e+00 0.0000e+00 -1.0000e+00
</event>
<event>
 4      1 +2.4041262e-06 9.11880000e+01 7.81860800e-03 1.13011600e-01
       25 -1    0    0    0    0 +0.0000000000e+00 +0.0000000000e+00 +9.9999998245e-15 1.2500000000e+02 1.2500000000e+02 0.0000e+00 0.0000e+00
      -13  1    1    0    0    0 -4.5600695261e+01 +4.2660510192e+01 -2.6260803067e+00 6.2500000000e+01 1.0566000000e-01 0.0000e+00 -1.0000e+00
       13  1    1    0    0    0 +4.5600695261e+01 -4.2660510192e+01 +2.6260803066e+00 6.2500000000e+01 1.0566000000e-01 0.0000e+00 -1.0000e+00
       22  1    1    0    0    0 -8.0585506587e-11 +7.9354374655e-11 +2.1187559729e-11 1.1506543067e-10 0.0000000000e+00 0.0000e+00 -1.0000e+00
</event>
<event>
 5      1 +2.4041262e-06 9.11880000e+01 7.81860800e-03 1.13011600e-01
       25 -1    0    0    0    0 +0.0000000000e+00 +0.0000000000e+00 +9.9999998245e-15 1.2500000000e+02 1.2500000000e+02 0.0000e+00 0.0000e+00
       23  2    1    0    0    0 +1.0551889474e+01 +2.1501037096e+01 -1.6674816433e+01 9.5816332123e+01 9.1263810082e+01 0.0000e+00 0.0000e+00
      -11  1    2    2    0    0 -3.0322978965e+01 +7.4319678133e+00 +2.1692740075e+01 3.8016998450e+01 5.1100000000e-04 0.0000e+00 1.0000e+00
       11  1    2    2    0    0 +4.0874868439e+01 +1.4069069283e+01 -3.8367556508e+01 5.7799333673e+01 5.1100000000e-04 0.0000e+00 -1.0000e+00
       22  1    1    0    0    0 -1.0551889474e+01 -2.1501037096e+01 +1.6674816433e+01 2.9183667877e+01 0.0000000000e+00 0.0000e+00 -1.0000e+00
</event>
<event>
 5      1 +2.4041262e-06 9.11880000e+01 7.81860800e-03 1.13011600e-01
       25 -1    0    0    0    0 +0.0000000000e+00 +0.0000000000e+00 +9.9999998245e-15 1.2500000000e+02 1.2500000000e+02 0.0000e+00 0.0000e+00
       23  2    1    0    0    0 +2.5427920334e+01 -2.1248252029e+00 +1.7004249855e+01 9.4336690854e+01 8.9214195695e+01 0.0000e+00 0.0000e+00
      -11  1    2    2    0    0 +4.7090640566e+01 -2.4861151390e+01 +2.9100991288e+01 6.0683382994e+01 5.1100000000e-04 0.0000e+00 1.0000e+00
       11  1    2    2    0    0 -2.1662720232e+01 +2.2736326187e+01 -1.2096741432e+01 3.3653307860e+01 5.1100000000e-04 0.0000e+00 -1.0000e+00
       22  1    1    0    0    0 -2.5427920334e+01 +2.1248252029e+00 -1.7004249855e+01 3.0663309146e+01 0.0000000000e+00 0.0000e+00 1.0000e+00
</event>
<event>
 5      1 +2.4041262e-06 9.11880000e+01 7.81860800e-03 1.13011600e-01
       25 -1    0    0    0    0 +0.0000000000e+00 +0.0000000000e+00 +9.9999998245e-15 1.2500000000e+02 1.2500000000e+02 0.0000e+00 0.0000e+00
       23  2    1    0    0    0 -5.0501454485e+00 +2.0606712838e+01 -1.8268005828e+01 9.7002489039e+01 9.2874228179e+01 0.0000e+00 0.0000e+00
      -11  1    2    2    0    0 -1.7366864764e+01 -2.5598158232e+01 +1.9065043721e+01 3.6336614990e+01 5.1100000000e-04 0.0000e+00 1.0000e+00
       11  1    2    2    0    0 +1.2316719315e+01 +4.6204871070e+01 -3.7333049549e+01 6.0665874050e+01 5.1100000000e-04 0.0000e+00 -1.0000e+00
       22  1    1    0    0    0 +5.0501454485e+00 -2.0606712838e+01 +1.8268005828e+01 2.7997510961e+01 0.0000000000e+00 0.0000e+00 -1.0000e+00
</event>
<event>
 5      1 +2.4041262e-06 9.11880000e+01 7.81860800e-03 1.13011600e-01
       25 -1    0    0    0    0 +0.0000000000e+00 +0.0000000000e+00 +9.9999998245e-15 1.2500000000e+02 1.2500000000e+02 0.0000e+00 0.0000e+00
       23  2    1    0    0    0 -2.4792543087e+01 -1.2874033768e+01 -1.1090439980e+01 9.4943240409e+01 9.0060036099e+01 0.0000e+00 0.0000e+00
      -11  1    2    2    0    0 -2.2882423346e+01 +3.7401097012e+01 -7.7096112532e+00 4.4518372183e+01 5.1100000000e-04 0.0000e+00 -1.0000e+00
       11  1    2    2    0    0 -1.9101197415e+00 -5.0275130780e+01 -3.3808287270e+00 5.0424868226e+01 5.1100000000e-04 0.0000e+00 1.0000e+00
       22  1    1    0    0    0 +2.4792543087e+01 +1.2874033768e+01 +1.1090439980e+01 3.0056759591e+01 0.0000000000e+00 0.0000e+00 1.0000e+00
</event>
<event>
 4      1 +2.4041262e-06 9.11880000e+01 7.81860800e-03 1.13011600e-01
       25 -1    0    0    0    0 +0.0000000000e+00 +0.0000000000e+00 +9.9999998245e-15 1.2500000000e+02 1.2500000000e+02 0.0000e+00 0.0000e+00
      -13  1    1    0    0    0 -1.9492673022e+01 +5.9115357411e+01 +5.6257490637e+00 6.2500000000e+01 1.0566000000e-01 0.0000e+00 -1.0000e+00
       13  1    1    0    0    0 +1.9492673022e+01 -5.9115357412e+01 -5.6257490637e+00 6.2500000000e+01 1.0566000000e-01 0.0000e+00 -1.0000e+00
       22  1    1    0    0    0 -4.0750587409e-11 +8.9833973080e-11 +2.0415997008e-11 1.0073512807e-10 0.0000000000e+00 0.0000e+00 -1.0000e+00
</event>
<event>
 4      1 +2.4041262e-06 9.11880000e+01 7.81860800e-03 1.13011600e-01
       25 -1    0    0    0    0 +0.0000000000e+00 +0.0000000000e+00 +9.9999998245e-15 1.2500000000e+02 1.2500000000e+02 0.0000e+00 0.0000e+00
      -13  1    1    0    0    0 +4.2053454856e+01 +4.3730974454e+01 +1.5011583653e+01 6.2499999999e+01 1.0566000000e-01 0.0000e+00 -1.0000e+00
       13  1    1    0    0    0 -4.2053454858e+01 -4.3730974454e+01 -1.5011583653e+01 6.2500000000e+01 1.0566000000e-01 0.0000e+00 -1.0000e+00
       22  1    1    0    0    0 +1.5791596180e-09 -1.3822769847e-10 -2.9330893922e-10 1.6121048754e-09 0.0000000000e+00 0.0000e+00 1.0000e+00
</event>
<event>
 4      1 +2.4041262e-06 9.11880000e+01 7.81860800e-03 1.13011600e-01
       25 -1    0    0    0    0 +0.0000000000e+00 +0.0000000000e+00 +9.9999998245e-15 1.2500000000e+02 1.2500000000e+02 0.0000e+00 0.0000e+00
      -13  1    1    0    0    0 -3.3017309872e+00 +1.6454135761e+01 -6.2957934718e+00 1.7924513679e+01 1.0566000000e-01 0.0000e+00 1.0000e+00
       13  1    1    0    0    0 -8.3256768397e+00 +4.0888005742e+01 -1.5679236943e+01 4.4575728189e+01 1.0566000000e-01 0.0000e+00 1.0000e+00
       22  1    1    0    0    0 +1.1627407827e+01 -5.7342141503e+01 +2.1975030415e+01 6.2499758133e+01 0.0000000000e+00 0.0000e+00 1.0000e+00
</event>
<event>
 4      1 +2.4041262e-06 9.11880000e+01 7.81860800e-03 1.13011600e-01
       25 -1    0    0    0    0 +0.0000000000e+00 +0.0000000000e+00 +9.9999998245e-15 1.2500000000e+02 1.2500000000e+02 0.0000e+00 0.0000e+00
      -13  1    1    0    0    0 +4.3676388545e-01 +6.2144979033e+01 -6.6369901258e+00 6.2499999870e+01 1.0566000000e-01 0.0000e+00 -1.0000e+00
       13  1    1    0    0    0 -4.3672051173e-01 -6.2138291333e+01 +6.6363341986e+00 6.2493280200e+01 1.0566000000e-01 0.0000e+00 -1.0000e+00
       22  1    1    0    0    0 -4.3373725524e-05 -6.6877007230e-03 +6.5592719570e-04 6.7199302620e-03 0.0000000000e+00 0.0000e+00 -1.0000e+00
</event>
<event>
 4      1 +2.4041262e-06 9.11880000e+01 7.81860800e-03 1.13011600e-01
       25 -1    0    0    0    0 +0.0000000000e+00 +0.0000000000e+00 +9.9999998245e-15 1.2500000000e+02 1.2500000000e+02 0.0000e+00 0.0000e+00
      -13  1    1    0    0    0 -2.8795803942e+01 -2.7354278020e+01 +4.8257475952e+01 6.2500000000e+01 1.0566000000e-01 0.0000e+00 -1.0000e+00
       13  1    1    0    0    0 +2.8795795727e+01 +2.7354270249e+01 -4.8257462309e+01 6.2499982280e+01 1.0566000000e-01 0.0000e+00 -1.0000e+00
       22  1    1    0    0    0 +8.2151813904e-06 +7.7707546952e-06 -1.3643481598e-05 1.7720565000e-05 0.0000000000e+00 0.0000e+00 -1.0000e+00
</event>
<event>
 4      1 +2.4041262e-06 9.11880000e+01 7.81860800e-03 1.13011600e-01
       25 -1    0    0    0    0 +0.0000000000e+00 +0.0000000000e+00 +9.9999998245e-15 1.2500000000e+02 1.2500000000e+02 0.0000e+00 0.0000e+00
      -13  1    1    0    0    0 +9.4153261334e-01 -5.7137951532e+01 +1.6516179443e+01 5.9484681527e+01 1.0566000000e-01 0.0000e+00 -1.0000e+00
       13  1    1    0    0    0 +3.0945063918e+00 +5.8868007944e+01 -1.4639994757e+01 6.0740093346e+01 1.0566000000e-01 0.0000e+00 -1.0000e+00
       22  1    1    0    0    0 -4.0360390051e+00 -1.7300564128e+00 -1.8761846862e+00 4.7752251276e+00 0.0000000000e+00 0.0000e+00 1.0000e+00
</event>
<event>
 4      1 +2.4041262e-06 9.11880000e+01 7.81860800e-03 1.13011600e-01
       25 -1    0    0    0    0 +0.0000000000e+00 +0.0000000000e+00 +9.9999998245e-15 1.2500000000e+02 1.2500000000e+02 0.0000e+00 0.0000e+00
      -13  1    1    0    0    0 +1.4494455396e+01 +3.0218565243e+01 +5.2753888337e+01 6.2499878570e+01 1.0566000000e-01 0.0000e+00 -1.0000e+00
       13  1    1    0    0    0 -1.4494484916e+01 -3.0218617132e+01 -5.2753994220e+01 6.2499999877e+01 1.0566000000e-01 0.0000e+00 -1.0000e+00
       22  1    1    0    0    0 +2.9519699290e-05 +5.1889886897e-05 +1.0588329350e-04 1.2155346499e-04 0.0000000000e+00 0.0000e+00 1.0000e+00
</event>
<event>
 4      1 +2.4041262e-06 9.11880000e+01 7.81860800e-03 1.13011600e-01
       25 -1    0    0    0    0 +0.0000000000e+00 +0.0000000000e+00 +9.9999998245e-15 1.2500000000e+02 1.2500000000e+02 0.0000e+00 0.0000e+00
      -13  1    1    0    0    0 +1.6337442557e+01 -8.1598092436e+00 +5.9772437793e+01 6.2500000000e+01 1.0566000000e-01 0.0000e+00 -1.0000e+00
       13  1    1    0    0    0 -1.6337442556e+01 +8.1598092438e+00 -5.9772437792e+01 6.2499999998e+01 1.0566000000e-01 0.0000e+00 -1.0000e+00
       22  1    1    0    0    0 -1.0525511230e-09 -2.0666472685e-10 -1.3781777197e-09 1.7464100329e-09 0.0000000000e+00 0.0000e+00 -1.0000e+00
</event>
<event>
 4      1 +2.4041262e-06 9.11880000e+01 7.81860800e-03 1.13011600e-01
       25 -1    0    0    0    0 +0.0000000000e+00 +0.0000000000e+00 +9.9999998245e-15 1.2500000000e+02 1.2500000000e+02 0.0000e+00 0.0000e+00
      -13  1    1    0    0    0 +5.3685433157e+01 +3.0640657849e+01 -6.2375754880e+00 6.2128046474e+01 1.0566000000e-01 0.0000e+00 1.0000e+00
       13  1    1    0    0    0 -5.3816577994e+01 -3.0836401405e+01 +5.7018149817e+00 6.2286672544e+01 1.0566000000e-01 0.0000e+00 1.0000e+00
       22  1    1    0    0    0 +1.3114483688e-01 +1.9574355588e-01 +5.3576050632e-01 5.8528098212e-01 0.0000000000e+00 0.0000e+00 1.0000e+00
</event>
<event>
 4      1 +2.4041262e-06 9.11880000e+01 7.81860800e-03 1.13011600e-01
       25 -1    0    0    0    0 +0.0000000000e+00 +0.0000000000e+00 +9.9999998245e-15 1.2500000000e+02 1.2500000000e+02 0.0000e+00 0.0000e+00
      -11  1    1    0    0    0 +3.6808640764e+01 -2.9595961413e+00 +2.8057048591e+00 3.7033865910e+01 5.1100000000e-04 0.0000e+00 -1.0000e+00
       11  1    1    0    0    0 +2.5305063759e+01 -2.1274332776e+00 +1.9116454687e+00 2.5466185675e+01 5.1100000000e-04 0.0000e+00 1.0000e+00
       22  1    1    0    0    0 -6.2113704522e+01 +5.0870294189e+00 -4.7173503278e+00 6.2499948415e+01 0.0000000000e+00 0.0000e+00 -1.0000e+00
</event>
<event>
 4      1 +2.4041262e-06 9.11880000e+01 7.81860800e-03 1.13011600e-01
       25 -1    0    0    0    0 +0.0000000000e+00 +0.0000000000e+00 +9.9999998245e-15 1.2500000000e+02 1.2500000000e+02 0.0000e+00 0.0000e+00
      -13  1    1    0    0    0 +4.1842561534e+01 +4.0259177640e+01 -2.3122152735e+01 6.2499971609e+01 1.0566000000e-01 0.0000e+00 -1.0000e+00
       13  1    1    0    0    0 -4.1842581305e+01 -4.0259195170e+01 +2.3122163149e+01 6.2499999990e+01 1.0566000000e-01 0.0000e+00 -1.0000e+00
       22  1    1    0    0    0 +1.9770802942e-05 +1.7530216334e-05 -1.0413267670e-05 2.8401219644e-05 0.0000000000e+00 0.0000e+00 1.0000e+00
</event>
<event>
 4      1 +2.4041262e-06 9.11880000e+01 7.81860800e-03 1.13011600e-01
       25 -1    0    0    0    0 +0.0000000000e+00 +0.0000000000e+00 +9.9999998245e-15 1.2500000000e+02 1.2500000000e+02 0.0000e+00 0.0000e+00
      -11  1    1    0    0    0 -1.4783246836e+01 +1.2713007600e+01 +2.9896419010e+00 1.9725691577e+01 5.1100000000e-04 0.0000e+00 -1.0000e+00
       11  1    1    0    0    0 -3.2046693619e+01 +2.7580942694e+01 +6.4763060891e+00 4.2774309026e+01 5.1100000000e-04 0.0000e+00 1.0000e+00
       22  1    1    0    0    0 +4.6829940455e+01 -4.0293950294e+01 -9.4659479902e+00 6.2499999397e+01 0.0000000000e+00 0.0000e+00 1.0000e+00
</event>
<event>
 4      1 +2.4041262e-06 9.11880000e+01 7.81860800e-03 1.13011600e-01
       25 -1    0    0    0    0 +0.0000000000e+00 +0.0000000000e+00 +9.9999998245e-15 1.2500000000e+02 1.2500000000e+02 0.0000e+00 0.0000e+00
      -13  1    1    0    0    0 -4.3669972509e+01 +3.2500273050e+00 -3.4629649294e+01 5.5828782457e+01 1.0566000000e-01 0.0000e+00 -1.0000e+00
       13  1    1    0    0    0 +4.9035608616e+01 -3.6204512338e+00 +3.8579783503e+01 6.2498075480e+01 1.0566000000e-01 0.0000e+00 -1.0000e+00
       22  1    1    0    0    0 -5.3656361076e+00 +3.7042392873e-01 -3.9501342093e+00 6.6731420633e+00 0.0000000000e+00 0.0000e+00 1.0000e+00
</event>
<event>
 4      1 +2.4041262e-06 9.11880000e+01 7.81860800e-03 1.13011600e-01
       25 -1    0    0    0    0 +0.0000000000e+00 +0.0000000000e+00 +9.9999998245e-15 1.2500000000e+02 1.2500000000e+02 0.0000e+00 0.0000e+00
      -13  1    1    0    0    0 -1.2021196218e+01 +5.8141379361e+01 -1.9527151410e+01 6.2499999670e+01 1.0566000000e-01 0.0000e+00 1.0000e+00
       13  1    1    0    0    0 +1.2021196271e+01 -5.8141379680e+01 +1.9527151481e+01 6.2499999999e+01 1.0566000000e-01 0.0000e+00 1.0000e+00
       22  1    1    0    0    0 -5.3201150544e-08 +3.1872569448e-07 -7.0744688506e-08 3.3078881737e-07 0.0000000000e+00 0.0000e+00 -1.0000e+00
</event>
<event>
 4      1 +2.4041262e-06 9.11880000e+01 7.81860800e-03 1.13011600e-01
       25 -1    0    0    0    0 +0.0000000000e+00 +0.0000000000e+00 +9.9999998245e-15 1.2500000000e+02 1.2500000000e+02 0.0000e+00 0.0000e+00
      -13  1    1    0    0    0 +1.1045994284e+01 +5.8389008460e+01 +1.9363514721e+01 6.2499977321e+01 1.0566000000e-01 0.0000e+00 -1.0000e+00
       13  1    1    0    0    0 -1.1042423311e+01 -5.8363715674e+01 -1.9354127369e+01 6.2472808726e+01 1.0566000000e-01 0.0000e+00 -1.0000e+00
       22  1    1    0    0    0 -3.5709734849e-03 -2.5292785760e-02 -9.3873518651e-03 2.7213953005e-02 0.0000000000e+00 0.0000e+00 -1.0000e+00
</event>
<event>
 4      1 +2.4041262e-06 9.11880000e+01 7.81860800e-03 1.13011600e-01
       25 -1    0    0    0    0 +0.0000000000e+00 +0.0000000000e+00 +9.9999998245e-15 1.2500000000e+02 1.2500000000e+02 0.0000e+00 0.0000e+00
      -13  1    1    0    0    0 +6.1586239060e+01 -4.2276647486e+00 +9.7724533575e+00 6.2499999996e+01 1.0566000000e-01 0.0000e+00 -1.0000e+00
       13  1    1    0    0    0 -6.1586231506e+01 +4.2276640600e+00 -9.7724524708e+00 6.2499992367e+01 1.0566000000e-01 0.0000e+00 -1.0000e+00
       22  1    1    0    0    0 -7.5545144608e-06 +6.8859351364e-07 -8.8670135335e-07 7.6374792344e-06 0.0000000000e+00 0.0000e+00 -1.0000e+00
</event>
<event>
 4      1 +2.4041262e-06 9.11880000e+01 7.81860800e-03 1.13011600e-01
       25 -1    0    0    0    0 +0.0000000000e+00 +0.0000000000e+00 +9.9999998245e-15 1.2500000000e+02 1.2500000000e+02 0.0000e+00 0.0000e+00
      -13  1    1    0    0    0 +2.4646834743e+01 +4.3033202266e+00 +5.7273500050e+01 6.2499999999e+01 1.0566000000e-01 0.0000e+00 -1.0000e+00
       13  1    1    0    0    0 -2.4646834743e+01 -4.3033202268e+00 -5.7273500051e+01 6.2500000000e+01 1.0566000000e-01 0.0000e+00 -1.0000e+00
       22  1    1    0    0    0 +4.5217449281e-10 +1.9371291391e-10 +1.2827818458e-09 1.3738688907e-09 0.0000000000e+00 0.0000e+00 -1.0000e+00
</event>
<event>
 4      1 +2.4041262e-06 9.11880000e+01 7.81860800e-03 1.13011600e-01
       25 -1    0    0    0    0 +0.0000000000e+00 +0.0000000000e+00 +9.9999998245e-15 1.2500000000e+02 1.2500000000e+02 0.0000e+00 0.0000e+00
      -11  1    1    0    0    0 +4.7042715451e+01 -8.5909727930e+00 +6.7879953422e+00 4.8300090802e+01 5.1100000000e-04 0.0000e+00 1.0000e+00
       11  1    1    0    0    0 +1.3723199144e+01 +4.7492988758e+00 +3.5298924237e+00 1.4944637010e+01 5.1100000000e-04 0.0000e+00 -1.0000e+00
       22  1    1    0    0    0 -6.0765914595e+01 +3.8416739172e+00 -1.0317887766e+01 6.1755272188e+01 0.0000000000e+00 0.0000e+00 1.0000e+00
</event>
<event>
 4      1 +2.4041262e-06 9.11880000e+01 7.81860800e-03 1.13011600e-01
       25 -1    0    0    0    0 +0.0000000000e+00 +0.0000000000e+00 +9.9999998245e-15 1.2500000000e+02 1.2500000000e+02 0.0000e+00 0.0000e+00
      -13  1    1    0    0    0 -1.6481656681e+01 -6.0249594698e+01 +2.1401326280e+00 6.2500000000e+01 1.0566000000e-01 0.0000e+00 1.0000e+00
       13  1    1    0    0    0 +1.6481653112e+01 +6.0249581449e+01 -2.1401322624e+00 6.2499986274e+01 1.0566000000e-01 0.0000e+00 1.0000e+00
       22  1    1    0    0    0 +3.5689300242e-06 +1.3249375435e-05 -3.6558052839e-07 1.3726502106e-05 0.0000000000e+00 0.0000e+00 1.0000e+00
</event>
<event>
 4      1 +2.4041262e-06 9.11880000e+01 7.81860800e-03 1.13011600e-01
       25 -1    0    0    0    0 +0.0000000000e+00 +0.0000000000e+00 +9.9999998245e-15 1.2500000000e+02 1.2500000000e+02 0.0000e+00 0.0000e+00
      -13  1    1    0    0    0 +4.2356774832e+01 +4.0345095162e+00 +4.5780620296e+01 6.2500000000e+01 1.0566000000e-01 0.0000e+00 -1.0000e+00
       13  1    1    0    0    0 -4.2356774832e+01 -4.0345095162e+00 -4.5780620296e+01 6.2499999999e+01 1.0566000000e-01 0.0000e+00 -1.0000e+00
       22  1    1    0    0    0 +1.0746051534e-10 -1.1092952634e-11 -7.8657042773e-10 7.9395456654e-10 0.0000000000e+00 0.0000e+00 -1.0000e+00
</event>
<event>
 4      1 +2.4041262e-06 9.11880000e+01 7.81860800e-03 1.13011600e-01
       25 -1    0    0    0    0 +0.0000000000e+00 +0.0000000000e+00 +9.9999998245e-15 1.2500000000e+02 1.2500000000e+02 0.0000e+00 0.0000e+00
      -13  1    1    0    0    0 -1.3004957575e+01 +5.1743369995e+01 -3.2553549276e+01 6.2499999955e+01 1.0566000000e-01 0.0000e+00 1.0000e+00
       13  1    1    0    0    0 +1.3004957577e+01 -5.1743370027e+01 +3.2553549307e+01 6.2499999999e+01 1.0566000000e-01 0.0000e+00 1.0000e+00
       22  1    1    0    0    0 -2.0840280873e-09 +3.2358792224e-08 -3.1800385152e-08 4.5416947312e-08 0.0000000000e+00 0.0000e+00 1.0000e+00
</event>
<event>
 4      1 +2.4041262e-06 9.11880000e+01 7.81860800e-03 1.13011600e-01
       25 -1    0    0    0    0 +0.0000000000e+00 +0.0000000000e+00 +9.9999998245e-15 1.2500000000e+02 1.2500000000e+02 0.0000e+00 0.0000e+00
      -13  1    1    0    0    0 +2.0803405551e+01 -5.8736636031e+01 -4.8403953260e+00 6.2499717485e+01 1.0566000000e-01 0.0000e+00 1.0000e+00
       13  1    1    0    0    0 -2.0803496373e+01 +5.8736902356e+01 +4.8404208061e+00 6.2499999979e+01 1.0566000000e-01 0.0000e+00 1.0000e+00
       22  1    1    0    0    0 +9.0822257468e-05 -2.6632440176e-04 -2.5480063955e-05 2.8253602086e-04 0.0000000000e+00 0.0000e+00 1.0000e+00
</event>
<event>
 4      1 +2.4041262e-06 9.11880000e+01 7.81860800e-03 1.13011600e-01
       25 -1    0    0    0    0 +0.0000000000e+00 +0.0000000000e+00 +9.9999998245e-15 1.2500000000e+02 1.2500000000e+02 0.0000e+00 0.0000e+00
      -13  1    1    0    0    0 -5.4044909785e+01 +3.1324055054e+01 -2.0469503594e+00 6.2499998948e+01 1.0566000000e-01 0.0000e+00 -1.0000e+00
       13  1    1    0    0    0 +5.4044910697e+01 -3.1324055577e+01 +2.0469503943e+00 6.2500000000e+01 1.0566000000e-01 0.0000e+00 -1.0000e+00
       22  1    1    0    0    0 -9.1196846672e-07 +5.2229117911e-07 -3.4843392037e-08 1.0515172952e-06 0.0000000000e+00 0.0000e+00 -1.0000e+00
</event>
<event>
 4      1 +2.4041262e-06 9.11880000e+01 7.81860800e-03 1.13011600e-01
       25 -1    0    0    0    0 +0.0000000000e+00 +0.0000000000e+00 +9.9999998245e-15 1.2500000000e+02 1.2500000000e+02 0.0000e+00 0.0000e+00
      -13  1    1    0    0    0 +2.9789850514e+01 +6.3900165375e+00 +5.4570791922e+01 6.2500000000e+01 1.0566000000e-01 0.0000e+00 -1.0000e+00
       13  1    1    0    0    0 -2.9789850327e+01 -6.3900165010e+00 -5.4570791592e+01 6.2499999619e+01 1.0566000000e-01 0.0000e+00 -1.0000e+00
       22  1    1    0    0    0 -1.8693228052e-07 -3.6500425789e-08 -3.2950715732e-07 3.8059286030e-07 0.0000000000e+00 0.0000e+00 -1.0000e+00
</event>
<event>
 4      1 +2.4041262e-06 9.11880000e+01 7.81860800e-03 1.13011600e-01
       25 -1    0    0    0    0 +0.0000000000e+00 +0.0000000000e+00 +9.9999998245e-15 1.2500000000e+02 1.2500000000e+02 0.0000e+00 0.0000e+00
      -11  1    1    0    0    0 -4.1008066564e+00 -5.4171558817e+00 +1.1324085635e+01 1.3205949750e+01 5.1100000000e-04 0.0000e+00 1.0000e+00
       11  1    1    0    0    0 -1.4850782425e+01 -2.0135262368e+01 +4.2473003268e+01 4.9294325598e+01 5.1100000000e-04 0.0000e+00 -1.0000e+00
       22  1    1    0    0    0 +1.8951589082e+01 +2.5552418249e+01 -5.3797088903e+01 6.2499724652e+01 0.0000000000e+00 0.0000e+00 -1.0000e+00
</event>
<event>
 4      1 +2.4041262e-06 9.11880000e+01 7.81860800e-03 1.13011600e-01
       25 -1    0    0    0    0 +0.0000000000e+00 +0.0000000000e+00 +9.9999998245e-15 1.2500000000e+02 1.2500000000e+02 0.0000e+00 0.0000e+00
      -13  1    1    0    0    0 -9.2240221831e+00 +3.9344942642e+01 -4.7677149698e+01 6.2499830913e+01 1.0566000000e-01 0.0000e+00 -1.0000e+00
       13  1    1    0    0    0 +9.2240454860e+00 -3.9345048700e+01 +4.7677279316e+01 6.2499999995e+01 1.0566000000e-01 0.0000e+00 -1.0000e+00
       22  1    1    0    0    0 -2.3302943597e-05 +1.0605797949e-04 -1.2961824635e-04 1.6909231793e-04 0.0000000000e+00 0.0000e+00 -1.0000e+00
</event>
<event>
 4      1 +2.4041262e-06 9.11880000e+01 7.81860800e-03 1.13011600e-01
       25 -1    0    0    0    0 +0.0000000000e+00 +0.0000000000e+00 +9.9999998245e-15 1.2500000000e+02 1.2500000000e+02 0.0000e+00 0.0000e+00
      -11  1    1    0    0    0 -1.1705665841e+01 +3.0200790877e+01 +1.4857571942e+01 3.5635064567e+01 5.1100000000e-04 0.0000e+00 -1.0000e+00
       11  1    1    0    0    0 +1.7374741939e+01 -3.1277411291e+01 +2.8427013298e+01 4.5697409115e+01 5.1100000000e-04 0.0000e+00 1.0000e+00
       22  1    1    0    0    0 -5.6690760982e+00 +1.0766204137e+00 -4.3284585241e+01 4.3667526318e+01 0.0000000000e+00 0.0000e+00 1.0000e+00
</event>
<event>
 4      1 +2.4041262e-06 9.11880000e+01 7.81860800e-03 1.13011600e-01
       25 -1    0    0    0    0 +0.0000000000e+00 +0.0000000000e+00 +9.9999998245e-15 1.2500000000e+02 1.2500000000e+02 0.0000e+00 0.0000e+00
      -13  1    1    0    0    0 -5.7418459265e+01 -1.8033672469e+01 -1.6856621591e+01 6.2499997301e+01 1.0566000000e-01 0.0000e+00 -1.0000e+00
       13  1    1    0    0    0 +5.7418461749e+01 +1.8033673205e+01 +1.6856622349e+01 6.2500000000e+01 1.0566000000e-01 0.0000e+00 -1.0000e+00
       22  1    1    0    0    0 -2.4839377625e-06 -7.3596646781e-07 -7.5799311664e-07 2.6992863899e-06 0.0000000000e+00 0.0000e+00 1.0000e+00
</event>
<event>
 4      1 +2.4041262e-06 9.11880000e+01 7.81860800e-03 1.13011600e-01
       25 -1    0    0    0    0 +0.0000000000e+00 +0.0000000000e+00 +9.9999998245e-15 1.2500000000e+02 1.2500000000e+02 0.0000e+00 0.0000e+00
      -13  1    1    0    0    0 -5.0856232277e+01 -3.4608021526e+01 -1.0851613073e+01 6.2464711524e+01 1.0566000000e-01 0.0000e+00 -1.0000e+00
       13  1    1    0    0    0 +4.8017630928e+01 +3.1815785054e+01 +9.9929277720e+00 5.8462011837e+01 1.0566000000e-01 0.0000e+00 -1.0000e+00
       22  1    1    0    0    0 +2.8386013498e+00 +2.7922364718e+00 +8.5868530112e-01 4.0732766398e+00 0.0000000000e+00 0.0000e+00 1.0000e+00
</event>
<event>
 4      1 +2.4041262e-06 9.11880000e+01 7.81860800e-03 1.13011600e-01
       25 -1    0    0    0    0 +0.0000000000e+00 +0.0000000000e+00 +9.9999998245e-15 1.2500000000e+02 1.2500000000e+02 0.0000e+00 0.0000e+00
      -13  1    1    0    0    0 -2.1715239958e+01 -2.6162256268e+00 -1.7568983876e+00 2.1942974706e+01 1.0566000000e-01 0.0000e+00 -1.0000e+00
       13  1    1    0    0    0 -8.3551323576e+00 -4.3290037121e+01 -1.3478409644e+01 4.6103299678e+01 1.0566000000e-01 0.0000e+00 1.0000e+00
       22  1    1    0    0    0 +3.0070372316e+01 +4.5906262748e+01 +1.5235308031e+01 5.6953725616e+01 0.0000000000e+00 0.0000e+00 1.0000e+00
</event>
<event>
 4      1 +2.4041262e-06 9.11880000e+01 7.81860800e-03 1.13011600e-01
       25 -1    0    0    0    0 +0.0000000000e+00 +0.0000000000e+00 +9.9999998245e-15 1.2500000000e+02 1.2500000000e+02 0.0000e+00 0.0000e+00
      -13  1    1    0    0    0 -2.3668507790e+01 +3.6680351241e+01 +4.4727982380e+01 6.2500000000e+01 1.0566000000e-01 0.0000e+00 -1.0000e+00
       13  1    1    0    0    0 +2.3668507790e+01 -3.6680351241e+01 -4.4727982380e+01 6.2500000000e+01 1.0566000000e-01 0.0000e+00 -1.0000e+00
       22  1    1    0    0    0 +1.9116603298e-11 -3.1427082368e-11 -8.4527433526e-11 9.2184559696e-11 0.0000000000e+00 0.0000e+00 -1.0000e+00
</event>
<event>
 4      1 +2.4041262e-06 9.11880000e+01 7.81860800e-03 1.13011600e-01
       25 -1    0    0    0    0 +0.0000000000e+00 +0.0000000000e+00 +9.9999998245e-15 1.2500000000e+02 1.2500000000e+02 0.0000e+00 0.0000e+00
      -13  1    1    0    0    0 -1.6861668444e+01 -4.7591663698e+01 +3.4292687579e+01 6.1035087464e+01 1.0566000000e-01 0.0000e+00 -1.0000e+00
       13  1    1    0    0    0 +1.9757684115e+01 +4.1284767129e+01 -3.4005151499e+01 5.7018940459e+01 1.0566000000e-01 0.0000e+00 -1.0000e+00
       22  1    1    0    0    0 -2.8960156715e+00 +6.3068965696e+00 -2.8753607945e-01 6.9459720778e+00 0.0000000000e+00 0.0000e+00 1.0000e+00
</event>
<event>
 5      1 +2.4041262e-06 9.11880000e+01 7.81860800e-03 1.13011600e-01
       25 -1    0    0    0    0 +0.0000000000e+00 +0.0000000000e+00 +9.9999998245e-15 1.2500000000e+02 1.2500000000e+02 0.0000e+00 0.0000e+00
       23  2    1    0    0    0 -1.8609514464e+01 +1.8400037281e+01 +8.5333026053e+00 9.7473782427e+01 9.3506393400e+01 0.0000e+00 0.0000e+00
      -11  1    2    2    0    0 +3.5057571662e+01 -6.2722332942e+00 -7.2280996232e+00 3.6340331118e+01 5.1100000000e-04 0.0000e+00 1.0000e+00
       11  1    2    2    0    0 -5.3667086126e+01 +2.4672270575e+01 +1.5761402228e+01 6.1133451310e+01 5.1100000000e-04 0.0000e+00 -1.0000e+00
       22  1    1    0    0    0 +1.8609514464e+01 -1.8400037281e+01 -8.5333026053e+00 2.7526217573e+01 0.0000000000e+00 0.0000e+00 -1.0000e+00
</event>
<event>
 4      1 +2.4041262e-06 9.11880000e+01 7.81860800e-03 1.13011600e-01
       25 -1    0    0    0    0 +0.0000000000e+00 +0.0000000000e+00 +9.9999998245e-15 1.2500000000e+02 1.2500000000e+02 0.0000e+00 0.0000e+00
      -13  1    1    0    0    0 +6.2480660448e+01 -1.5253798475e+00 +2.8128562200e-01 6.2499999995e+01 1.0566000000e-01 0.0000e+00 1.0000e+00
       13  1    1    0    0    0 -6.2480660432e+01 +1.5253798666e+00 -2.8128562833e-01 6.2499999979e+01 1.0566000000e-01 0.0000e+00 1.0000e+00
       22  1    1    0    0    0 -1.6766251517e-08 -1.9075878575e-08 +6.3264178666e-09 2.6172884754e-08 0.0000000000e+00 0.0000e+00 -1.0000e+00
</event>
<event>
 4      1 +2.4041262e-06 9.11880000e+01 7.81860800e-03 1.13011600e-01
       25 -1    0    0    0    0 +0.0000000000e+00 +0.0000000000e+00 +9.9999998245e-15 1.2500000000e+02 1.2500000000e+02 0.0000e+00 0.0000e+00
      -13  1    1    0    0    0 -1.4079155361e+01 -3.7136886768e+01 -2.7336243597e+01 4.8214648733e+01 1.0566000000e-01 0.0000e+00 -1.0000e+00
       13  1    1    0    0    0 -4.2663844071e+00 -1.1014101207e+01 -8.0349234273e+00 1.4285783837e+01 1.0566000000e-01 0.0000e+00 1.0000e+00
       22  1    1    0    0    0 +1.8345539768e+01 +4.8150987974e+01 +3.5371167024e+01 6.2499567430e+01 0.0000000000e+00 0.0000e+00 -1.0000e+00
</event>
<event>
 4      1 +2.4041262e-06 9.11880000e+01 7.81860800e-03 1.13011600e-01
       25 -1    0    0    0    0 +0.0000000000e+00 +0.0000000000e+00 +9.9999998245e-15 1.2500000000e+02 1.2500000000e+02 0.0000e+00 0.0000e+00
      -13  1    1    0    0    0 +4.7222258087e+01 -1.3350339075e+01 +3.8704852714e+01 6.2499999999e+01 1.0566000000e-01 0.0000e+00 1.0000e+00
       13  1    1    0    0    0 -4.7222118904e+01 +1.3350299501e+01 -3.8704737828e+01 6.2499815239e+01 1.0566000000e-01 0.0000e+00 1.0000e+00
       22  1    1    0    0    0 -1.3918319609e-04 +3.9574015841e-05 -1.1488623118e-04 1.8476176801e-04 0.0000000000e+00 0.0000e+00 -1.0000e+00
</event>
<event>
 4      1 +2.4041262e-06 9.11880000e+01 7.81860800e-03 1.13011600e-01
       25 -1    0    0    0    0 +0.0000000000e+00 +0.0000000000e+00 +9.9999998245e-15 1.2500000000e+02 1.2500000000e+02 0.0000e+00 0.0000e+00
      -13  1    1    0    0    0 -5.1104790255e+01 +1.8682701545e+01 +3.0748916506e+01 6.2499999635e+01 1.0566000000e-01 0.0000e+00 1.0000e+00
       13  1    1    0    0    0 +5.1104790555e+01 -1.8682701651e+01 -3.0748916686e+01 6.2500000000e+01 1.0566000000e-01 0.0000e+00 1.0000e+00
       22  1    1    0    0    0 -2.9966946450e-07 +1.0617714567e-07 +1.7981787429e-07 3.6525312063e-07 0.0000000000e+00 0.0000e+00 -1.0000e+00
</event>
<event>
 5      1 +2.4041262e-06 9.11880000e+01 7.81860800e-03 1.13011600e-01
       25 -1    0    0    0    0 +0.0000000000e+00 +0.0000000000e+00 +9.9999998245e-15 1.2500000000e+02 1.2500000000e+02 0.0000e+00 0.0000e+00
       23  2    1    0    0    0 -5.2695228670e+00 -2.6282691914e+01 +9.0144088625e+00 9.6719134868e+01 9.2492073806e+01 0.0000e+00 0.0000e+00
      -13  1    2    2    0    0 -2.6001234559e+01 -3.7899567501e+01 +3.7716332998e+01 5.9455650313e+01 1.0566000000e-01 0.0000e+00 1.0000e+00
       13  1    2    2    0    0 +2.0731711692e+01 +1.1616875587e+01 -2.8701924135e+01 3.7263484555e+01 1.0566000000e-01 0.0000e+00 -1.0000e+00
       22  1    1    0    0    0 +5.2695228670e+00 +2.6282691914e+01 -9.0144088625e+00 2.8280865132e+01 0.0000000000e+00 0.0000e+00 1.0000e+00
</event>
<event>
 4      1 +2.4041262e-06 9.11880000e+01 7.81860800e-03 1.13011600e-01
       25 -1    0    0    0    0 +0.0000000000e+00 +0.0000000000e+00 +9.9999998245e-15 1.2500000000e+02 1.2500000000e+02 0.0000e+00 0.0000e+00
      -13  1    1    0    0    0 -2.2487473058e+01 +1.8182080691e+01 -2.2188821911e+01 3.6450370158e+01 1.0566000000e-01 0.0000e+00 -1.0000e+00
       13  1    1    0    0    0 -1.5590429536e+01 +1.3715348790e+01 -1.5736348881e+01 2.6054099978e+01 1.0566000000e-01 0.0000e+00 1.0000e+00
       22  1    1    0    0    0 +3.8077902594e+01 -3.1897429481e+01 +3.7925170791e+01 6.2495529864e+01 0.0000000000e+00 0.0000e+00 1.0000e+00
</event>
<event>
 4      1 +2.4041262e-06 9.11880000e+01 7.81860800e-03 1.13011600e-01
       25 -1    0    0    0    0 +0.0000000000e+00 +0.0000000000e+00 +9.9999998245e-15 1.2500000000e+02 1.2500000000e+02 0.0000e+00 0.0000e+00
      -11  1    1    0    0    0 +1.6412636742e+01 +1.3583643781e+00 +1.7245195292e+01 2.3845682199e+01 5.1100000000e-04 0.0000e+00 1.0000e+00
       11  1    1    0    0    0 +2.6616642955e+01 +2.1729474847e+00 +2.7946182230e+01 3.8654320385e+01 5.1100000000e-04 0.0000e+00 -1.0000e+00
       22  1    1    0    0    0 -4.3029279697e+01 -3.5313118628e+00 -4.5191377522e+01 6.2499997416e+01 0.0000000000e+00 0.0000e+00 -1.0000e+00
</event>
<event>
 4      1 +2.4041262e-06 9.11880000e+01 7.81860800e-03 1.13011600e-01
       25 -1    0    0    0    0 +0.0000000000e+00 +0.0000000000e+00 +9.9999998245e-15 1.2500000000e+02 1.2500000000e+02 0.0000e+00 0.0000e+00
      -11  1    1    0    0    0 -4.6428670132e+01 -9.5896803579e+00 -6.6207099655e+00 4.7868749517e+01 5.1100000000e-04 0.0000e+00 -1.0000e+00
       11  1    1    0    0    0 -1.4191272041e+01 -2.9313046154e+00 -2.0220639688e+00 1.4631250523e+01 5.1100000000e-04 0.0000e+00 1.0000e+00
       22  1    1    0    0    0 +6.0619942173e+01 +1.2520984973e+01 +8.6427739343e+00 6.2499999961e+01 0.0000000000e+00 0.0000e+00 -1.0000e+00
</event>
<event>
 4      1 +2.4041262e-06 9.11880000e+01 7.81860800e-03 1.13011600e-01
       25 -1    0    0    0    0 +0.0000000000e+00 +0.0000000000e+00 +9.9999998245e-15 1.2500000000e+02 1.2500000000e+02 0.0000e+00 0.0000e+00
      -13  1    1    0    0    0 -5.1388961364e+01 +3.1768061301e+01 -1.6006138824e+01 6.2499941704e+01 1.0566000000e-01 0.0000e+00 -1.0000e+00
       13  1    1    0    0    0 +5.1367778368e+01 -3.1754708909e+01 +1.5996938701e+01 6.2473381565e+01 1.0566000000e-01 0.0000e+00 -1.0000e+00
       22  1    1    0    0    0 +2.1182996677e-02 -1.3352391820e-02 +9.2001228204e-03 2.6676730974e-02 0.0000000000e+00 0.0000e+00 1.0000e+00
</event>
<event>
 4      1 +2.4041262e-06 9.11880000e+01 7.81860800e-03 1.13011600e-01
       25 -1    0    0    0    0 +0.0000000000e+00 +0.0000000000e+00 +9.9999998245e-15 1.2500000000e+02 1.2500000000e+02 0.0000e+00 0.0000e+00
      -11  1    1    0    0    0 +1.4689870912e+01 +5.7129085755e+01 -1.6523103146e+01 6.1257960172e+01 5.1100000000e-04 0.0000e+00 1.0000e+00
       11  1    1    0    0    0 +3.0406297973e-01 +1.1559016985e+00 -3.3782460456e-01 1.2420502231e+00 5.1100000000e-04 0.0000e+00 -1.0000e+00
       22  1    1    0    0    0 -1.4993933891e+01 -5.8284987454e+01 +1.6860927750e+01 6.2499989605e+01 0.0000000000e+00 0.0000e+00 1.0000e+00
</event>
<event>
 4      1 +2.4041262e-06 9.11880000e+01 7.81860800e-03 1.13011600e-01
       25 -1    0    0    0    0 +0.0000000000e+00 +0.0000000000e+00 +9.9999998245e-15 1.2500000000e+02 1.2500000000e+02 0.0000e+00 0.0000e+00
      -13  1    1    0    0    0 +1.6903611574e+00 -4.1516434362e+01 -4.4012586094e+01 6.0527601486e+01 1.0566000000e-01 0.0000e+00 -1.0000e+00
       13  1    1    0    0    0 -9.2250623575e-01 +3.2396707676e+01 +4.4791500970e+01 5.5287316892e+01 1.0566000000e-01 0.0000e+00 -1.0000e+00
       22  1    1    0    0    0 -7.6785492167e-01 +9.1197266861e+00 -7.7891487542e-01 9.1850816214e+00 0.0000000000e+00 0.0000e+00 1.0000e+00
</event>
<event>
 4      1 +2.4041262e-06 9.11880000e+01 7.81860800e-03 1.13011600e-01
       25 -1    0    0    0    0 +0.0000000000e+00 +0.0000000000e+00 +9.9999998245e-15 1.2500000000e+02 1.2500000000e+02 0.0000e+00 0.0000e+00
      -13  1    1    0    0    0 -5.0488434698e+01 +3.1865172521e+01 -9.9383686649e+00 6.0524817998e+01 1.0566000000e-01 0.0000e+00 -1.0000e+00
       13  1    1    0    0    0 +5.2127368589e+01 -3.2917232467e+01 +1.0267817283e+01 6.2499967881e+01 1.0566000000e-01 0.0000e+00 -1.0000e+00
       22  1    1    0    0    0 -1.6389338913e+00 +1.0520599463e+00 -3.2944861849e-01 1.9752141207e+00 0.0000000000e+00 0.0000e+00 1.0000e+00
</event>
<event>
 4      1 +2.4041262e-06 9.11880000e+01 7.81860800e-03 1.13011600e-01
       25 -1    0    0    0    0 +0.0000000000e+00 +0.0000000000e+00 +9.9999998245e-15 1.2500000000e+02 1.2500000000e+02 0.0000e+00 0.0000e+00
      -13  1    1    0    0    0 +3.2002886177e+01 +4.8984171966e+01 +2.1355348427e+01 6.2287204925e+01 1.0566000000e-01 0.0000e+00 1.0000e+00
       13  1    1    0    0    0 -3.2250212806e+01 -4.8729994037e+01 -2.1580174536e+01 6.2292885966e+01 1.0566000000e-01 0.0000e+00 1.0000e+00
       22  1    1    0    0    0 +2.4732662847e-01 -2.5417792912e-01 +2.2482610919e-01 4.1990910942e-01 0.0000000000e+00 0.0000e+00 -1.0000e+00
</event>
<event>
 4      1 +2.4041262e-06 9.11880000e+01 7.81860800e-03 1.13011600e-01
       25 -1    0    0    0    0 +0.0000000000e+00 +0.0000000000e+00 +9.9999998245e-15 1.2500000000e+02 1.2500000000e+02 0.0000e+00 0.0000e+00
      -11  1    1    0    0    0 -1.5445251899e+01 +1.2806569685e+00 -2.2839303371e+00 1.5665638402e+01 5.1100000000e-04 0.0000e+00 -1.0000e+00
       11  1    1    0    0    0 -4.6176048355e+01 +3.8259699691e+00 -6.8258289087e+00 4.6834361621e+01 5.1100000000e-04 0.0000e+00 1.0000e+00
       22  1    1    0    0    0 +6.1621300254e+01 -5.1066269376e+00 +9.1097592457e+00 6.2499999977e+01 0.0000000000e+00 0.0000e+00 1.0000e+00
</event>
<event>
 4      1 +2.4041262e-06 9.11880000e+01 7.81860800e-03 1.13011600e-01
       25 -1    0    0    0    0 +0.0000000000e+00 +0.0000000000e+00 +9.9999998245e-15 1.2500000000e+02 1.2500000000e+02 0.0000e+00 0.0000e+00
      -13  1    1    0    0    0 -3.8476145695e+01 +1.6279845263e+01 +4.6484290741e+01 6.2499980793e+01 1.0566000000e-01 0.0000e+00 -1.0000e+00
       13  1    1    0    0    0 +3.8476134502e+01 -1.6279739645e+01 -4.6484133341e+01 6.2499829325e+01 1.0566000000e-01 0.0000e+00 -1.0000e+00
       22  1    1    0    0    0 +1.1193002450e-05 -1.0561833256e-04 -1.5740013345e-04 1.8988237804e-04 0.0000000000e+00 0.0000e+00 -1.0000e+00
</event>
<event>
 4      1 +2.4041262e-06 9.11880000e+01 7.81860800e-03 1.13011600e-01
       25 -1    0    0    0    0 +0.0000000000e+00 +0.0000000000e+00 +9.9999998245e-15 1.2500000000e+02 1.2500000000e+02 0.0000e+00 0.0000e+00
      -13  1    1    0    0    0 -5.0192333103e+01 -2.5639848579e+01 -2.7010492367e+01 6.2499999996e+01 1.0566000000e-01 0.0000e+00 -1.0000e+00
       13  1    1    0    0    0 +5.0192333107e+01 +2.5639848581e+01 +2.7010492369e+01 6.2500000000e+01 1.0566000000e-01 0.0000e+00 -1.0000e+00
       22  1    1    0    0    0 -3.3076834121e-09 -2.0443206993e-09 -1.9624014994e-09 4.3555753146e-09 0.0000000000e+00 0.0000e+00 -1.0000e+00
</event>
<event>
 4      1 +2.4041262e-06 9.11880000e+01 7.81860800e-03 1.13011600e-01
       25 -1    0    0    0    0 +0.0000000000e+00 +0.0000000000e+00 +9.9999998245e-15 1.2500000000e+02 1.2500000000e+02 0.0000e+00 0.0000e+00
      -13  1    1    0    0    0 +3.2419440340e+01 -3.7647165642e+01 -3.7919779049e+01 6.2499999999e+01 1.0566000000e-01 0.0000e+00 -1.0000e+00
       13  1    1    0    0    0 -3.2419440339e+01 +3.7647165640e+01 +3.7919779050e+01 6.2499999998e+01 1.0566000000e-01 0.0000e+00 -1.0000e+00
       22  1    1    0    0    0 -6.5983732668e-10 +1.9245364424e-09 -6.2513382168e-10 2.1283839202e-09 0.0000000000e+00 0.0000e+00 1.0000e+00
</event>
<event>
 4      1 +2.4041262e-06 9.11880000e+01 7.81860800e-03 1.13011600e-01
       25 -1    0    0    0    0 +0.0000000000e+00 +0.0000000000e+00 +9.9999998245e-15 1.2500000000e+02 1.2500000000e+02 0.0000e+00 0.0000e+00
      -13  1    1    0    0    0 -2.4432551039e+01 +5.3484311040e+01 -2.1182959149e+01 6.2500000000e+01 1.0566000000e-01 0.0000e+00 -1.0000e+00
       13  1    1    0    0    0 +2.4432551029e+01 -5.3484311017e+01 +2.1182959143e+01 6.2499999975e+01 1.0566000000e-01 0.0000e+00 -1.0000e+00
       22  1    1    0    0    0 +9.5503480658e-09 -2.2086978828e-08 +6.2385571286e-09 2.4858869181e-08 0.0000000000e+00 0.0000e+00 -1.0000e+00
</event>
<event>
 4      1 +2.4041262e-06 9.11880000e+01 7.81860800e-03 1.13011600e-01
       25 -1    0    0    0    0 +0.0000000000e+00 +0.0000000000e+00 +9.9999998245e-15 1.2500000000e+02 1.2500000000e+02 0.0000e+00 0.0000e+00
      -13  1    1    0    0    0 -3.8278623147e+01 -2.0577205208e+01 +4.4917305007e+01 6.2499998539e+01 1.0566000000e-01 0.0000e+00 -1.0000e+00
       13  1    1    0    0    0 +3.8213002288e+01 +2.0541256085e+01 -4.4839261420e+01 6.2391884682e+01 1.0566000000e-01 0.0000e+00 -1.0000e+00
       22  1    1    0    0    0 +6.5620859232e-02 +3.5949123010e-02 -7.8043586906e-02 1.0811677977e-01 0.0000000000e+00 0.0000e+00 -1.0000e+00
</event>
<event>
 4      1 +2.4041262e-06 9.11880000e+01 7.81860800e-03 1.13011600e-01
       25 -1    0    0    0    0 +0.0000000000e+00 +0.0000000000e+00 +9.9999998245e-15 1.2500000000e+02 1.2500000000e+02 0.0000e+00 0.0000e+00
      -11  1    1    0    0    0 -2.4062707725e+01 +2.7155023638e+00 -5.3899644227e+01 5.9089419562e+01 5.1100000000e-04 0.0000e+00 -1.0000e+00
       11  1    1    0    0    0 -1.3912734627e+00 +1.5926513511e-01 -3.1098324700e+00 3.4105813997e+00 5.1100000000e-04 0.0000e+00 1.0000e+00
       22  1    1    0    0    0 +2.5453981188e+01 -2.8747674989e+00 +5.7009476697e+01 6.2499999038e+01 0.0000000000e+00 0.0000e+00 -1.0000e+00
</event>
<event>
 4      1 +2.4041262e-06 9.11880000e+01 7.81860800e-03 1.13011600e-01
       25 -1    0    0    0    0 +0.0000000000e+00 +0.0000000000e+00 +9.9999998245e-15 1.2500000000e+02 1.2500000000e+02 0.0000e+00 0.0000e+00
      -11  1    1    0    0    0 +1.7712578114e+01 -1.7829031687e+00 -8.1165216008e+00 1.9565073226e+01 5.1100000000e-04 0.0000e+00 -1.0000e+00
       11  1    1    0    0    0 +3.8874197893e+01 -3.8890228024e+00 -1.7806747884e+01 4.2934927863e+01 5.1100000000e-04 0.0000e+00 1.0000e+00
       22  1    1    0    0    0 -5.6586776007e+01 +5.6719259711e+00 +2.5923269485e+01 6.2499998911e+01 0.0000000000e+00 0.0000e+00 1.0000e+00
</event>
<event>
 4      1 +2.4041262e-06 9.11880000e+01 7.81860800e-03 1.13011600e-01
       25 -1    0    0    0    0 +0.0000000000e+00 +0.0000000000e+00 +9.9999998245e-15 1.2500000000e+02 1.2500000000e+02 0.0000e+00 0.0000e+00
      -13  1    1    0    0    0 +4.5958699810e+01 +4.0444239515e+01 -1.2581604466e+01 6.2499972265e+01 1.0566000000e-01 0.0000e+00 -1.0000e+00
       13  1    1    0    0    0 -3.4874436699e+01 -3.0672687782e+01 +9.5231591633e+00 4.7410355781e+01 1.0566000000e-01 0.0000e+00 -1.0000e+00
       22  1    1    0    0    0 -1.1084263111e+01 -9.7715517333e+00 +3.0584453026e+00 1.5089671954e+01 0.0000000000e+00 0.0000e+00 -1.0000e+00
</event>
<event>
 4      1 +2.4041262e-06 9.11880000e+01 7.81860800e-03 1.13011600e-01
       25 -1    0    0    0    0 +0.0000000000e+00 +0.0000000000e+00 +9.9999998245e-15 1.2500000000e+02 1.2500000000e+02 0.0000e+00 0.0000e+00
      -13  1    1    0    0    0 -2.4216080066e+01 +2.6141684349e+01 -5.1345094851e+01 6.2499088983e+01 1.0566000000e-01 0.0000e+00 -1.0000e+00
       13  1    1    0    0    0 +2.4216410779e+01 -2.6142078377e+01 +5.1345846957e+01 6.2499999813e+01 1.0566000000e-01 0.0000e+00 -1.0000e+00
       22  1    1    0    0    0 -3.3071285926e-04 +3.9402821398e-04 -7.5210573501e-04 9.1120374523e-04 0.0000000000e+00 0.0000e+00 -1.0000e+00
</event>
<event>
 4      1 +2.4041262e-06 9.11880000e+01 7.81860800e-03 1.13011600e-01
       25 -1    0    0    0    0 +0.0000000000e+00 +0.0000000000e+00 +9.9999998245e-15 1.2500000000e+02 1.2500000000e+02 0.0000e+00 0.0000e+00
      -13  1    1    0    0    0 +3.8178881454e+00 -5.9146091790e+01 -1.9834374001e+01 6.2500000000e+01 1.0566000000e-01 0.0000e+00 -1.0000e+00
       13  1    1    0    0    0 -3.8178881413e+00 +5.9146091747e+01 +1.9834373989e+01 6.2499999955e+01 1.0566000000e-01 0.0000e+00 -1.0000e+00
       22  1    1    0    0    0 -4.1521518849e-09 +4.2828040815e-08 +1.1969364840e-08 4.4662592177e-08 0.0000000000e+00 0.0000e+00 -1.0000e+00
</event>
<event>
 4      1 +2.4041262e-06 9.11880000e+01 7.81860800e-03 1.13011600e-01
       25 -1    0    0    0    0 +0.0000000000e+00 +0.0000000000e+00 +9.9999998245e-15 1.2500000000e+02 1.2500000000e+02 0.0000e+00 0.0000e+00
      -13  1    1    0    0    0 -9.1949326615e+00 -6.1003380252e+01 -1.0013972566e+01 6.2499999995e+01 1.0566000000e-01 0.0000e+00 1.0000e+00
       13  1    1    0    0    0 +9.1949325982e+00 +6.1003380137e+01 +1.0013972569e+01 6.2499999874e+01 1.0566000000e-01 0.0000e+00 1.0000e+00
       22  1    1    0    0    0 +6.3301658331e-08 +1.1448647968e-07 -3.2657797926e-09 1.3086221492e-07 0.0000000000e+00 0.0000e+00 -1.0000e+00
</event>
<event>
 4      1 +2.4041262e-06 9.11880000e+01 7.81860800e-03 1.13011600e-01
       25 -1    0    0    0    0 +0.0000000000e+00 +0.0000000000e+00 +9.9999998245e-15 1.2500000000e+02 1.2500000000e+02 0.0000e+00 0.0000e+00
      -13  1    1    0    0    0 +1.4786640768e+01 +4.3847094756e+01 +4.2012216940e+01 6.2500000000e+01 1.0566000000e-01 0.0000e+00 -1.0000e+00
       13  1    1    0    0    0 -1.4786640768e+01 -4.3847094755e+01 -4.2012216938e+01 6.2499999998e+01 1.0566000000e-01 0.0000e+00 -1.0000e+00
       22  1    1    0    0    0 -3.8405252675e-10 -1.7086982037e-09 -1.4557169461e-09 2.2773356629e-09 0.0000000000e+00 0.0000e+00 -1.0000e+00
</event>
<event>
 4      1 +2.4041262e-06 9.11880000e+01 7.81860800e-03 1.13011600e-01
       25 -1    0    0    0    0 +0.0000000000e+00 +0.0000000000e+00 +9.9999998245e-15 1.2500000000e+02 1.2500000000e+02 0.0000e+00 0.0000e+00
      -13  1    1    0    0    0 -4.5386992267e+01 -4.0502792792e+01 -1.4345145861e+01 6.2499997319e+01 1.0566000000e-01 0.0000e+00 1.0000e+00
       13  1    1    0    0    0 +4.5386989429e+01 +4.0502788135e+01 +1.4345152823e+01 6.2499993837e+01 1.0566000000e-01 0.0000e+00 1.0000e+00
       22  1    1    0    0    0 +2.8379614623e-06 +4.6573571850e-06 -6.9622235880e-06 8.8440691143e-06 0.0000000000e+00 0.0000e+00 1.0000e+00
</event>
<event>
 4      1 +2.4041262e-06 9.11880000e+01 7.81860800e-03 1.13011600e-01
       25 -1    0    0    0    0 +0.0000000000e+00 +0.0000000000e+00 +9.9999998245e-15 1.2500000000e+02 1.2500000000e+02 0.0000e+00 0.0000e+00
      -13  1    1    0    0    0 -3.0415190629e+01 -2.7923618923e+01 +4.6919361901e+01 6.2500000000e+01 1.0566000000e-01 0.0000e+00 1.0000e+00
       13  1    1    0    0    0 +3.0415190629e+01 +2.7923618923e+01 -4.6919361901e+01 6.2500000000e+01 1.0566000000e-01 0.0000e+00 1.0000e+00
       22  1    1    0    0    0 -2.2766462178e-10 -1.5271426235e-10 +3.5085587892e-10 4.4525573967e-10 0.0000000000e+00 0.0000e+00 -1.0000e+00
</event>
<event>
 4      1 +2.4041262e-06 9.11880000e+01 7.81860800e-03 1.13011600e-01
       25 -1    0    0    0    0 +0.0000000000e+00 +0.0000000000e+00 +9.9999998245e-15 1.2500000000e+02 1.2500000000e+02 0.0000e+00 0.0000e+00
      -13  1    1    0    0    0 +2.2372938191e+01 -3.7116803362e+01 -4.5033691619e+01 6.2500000000e+01 1.0566000000e-01 0.0000e+00 1.0000e+00
       13  1    1    0    0    0 -2.2372938191e+01 +3.7116803361e+01 +4.5033691618e+01 6.2499999999e+01 1.0566000000e-01 0.0000e+00 1.0000e+00
       22  1    1    0    0    0 -8.5758010612e-10 +8.9562968112e-10 +4.2402668922e-10 1.3104941043e-09 0.0000000000e+00 0.0000e+00 -1.0000e+00
</event>
<event>
 4      1 +2.4041262e-06 9.11880000e+01 7.81860800e-03 1.13011600e-01
       25 -1    0    0    0    0 +0.0000000000e+00 +0.0000000000e+00 +9.9999998245e-15 1.2500000000e+02 1.2500000000e+02 0.0000e+00 0.0000e+00
      -13  1    1    0    0    0 -9.1875485656e+00 +1.1601449205e+00 -2.3563866067e+01 2.5318450445e+01 1.0566000000e-01 0.0000e+00 1.0000e+00
       13  1    1    0    0    0 +2.6452136590e+01 -4.5282485874e+00 +5.6383878443e+01 6.2444963590e+01 1.0566000000e-01 0.0000e+00 1.0000e+00
       22  1    1    0    0    0 -1.7264588025e+01 +3.3681036669e+00 -3.2820012376e+01 3.7236585965e+01 0.0000000000e+00 0.0000e+00 1.0000e+00
</event>
<event>
 4      1 +2.4041262e-06 9.11880000e+01 7.81860800e-03 1.13011600e-01
       25 -1    0    0    0    0 +0.0000000000e+00 +0.0000000000e+00 +9.9999998245e-15 1.2500000000e+02 1.2500000000e+02 0.0000e+00 0.0000e+00
      -13  1    1    0    0    0 -6.6458799318e-01 +1.5003411685e-01 -3.0796235978e-01 7.5511077832e-01 1.0566000000e-01 0.0000e+00 1.0000e+00
       13  1    1    0    0    0 -3.4465033312e+01 +4.4223654398e+01 -2.6036078442e+01 6.1817947832e+01 1.0566000000e-01 0.0000e+00 -1.0000e+00
       22  1    1    0    0    0 +3.5129621306e+01 -4.4373688514e+01 +2.6344040802e+01 6.2426941389e+01 0.0000000000e+00 0.0000e+00 -1.0000e+00
</event>
<event>
 5      1 +2.4041262e-06 9.11880000e+01 7.81860800e-03 1.13011600e-01
       25 -1    0    0    0    0 +0.0000000000e+00 +0.0000000000e+00 +9.9999998245e-15 1.2500000000e+02 1.2500000000e+02 0.0000e+00 0.0000e+00
       23  2    1    0    0    0 +2.7509300881e+01 -1.1475937837e+00 +7.2687772732e+00 9.6523452992e+01 9.2227237018e+01 0.0000e+00 0.0000e+00
      -13  1    2    2    0    0 +1.8646134880e+01 -3.9503791349e+01 -2.0593376668e+01 4.8294163245e+01 1.0566000000e-01 0.0000e+00 1.0000e+00
       13  1    2    2    0    0 +8.8631660008e+00 +3.8356197565e+01 +2.7862153941e+01 4.8229289747e+01 1.0566000000e-01 0.0000e+00 -1.0000e+00
       22  1    1    0    0    0 -2.7509300881e+01 +1.1475937837e+00 -7.2687772732e+00 2.8476547008e+01 0.0000000000e+00 0.0000e+00 1.0000e+00
</event>
<event>
 4      1 +2.4041262e-06 9.11880000e+01 7.81860800e-03 1.13011600e-01
       25 -1    0    0    0    0 +0.0000000000e+00 +0.0000000000e+00 +9.9999998245e-15 1.2500000000e+02 1.2500000000e+02 0.0000e+00 0.0000e+00
      -13  1    1    0    0    0 +1.0868255439e+01 -5.8536694001e+01 -1.9015133647e+01 6.2499999940e+01 1.0566000000e-01 0.0000e+00 1.0000e+00
       13  1    1    0    0    0 -1.0868255449e+01 +5.8536694057e+01 +1.9015133666e+01 6.2500000000e+01 1.0566000000e-01 0.0000e+00 1.0000e+00
       22  1    1    0    0    0 +9.9323701659e-09 -5.6489566173e-08 -1.8746577506e-08 6.0342002218e-08 0.0000000000e+00 0.0000e+00 1.0000e+00
</event>
<event>
 4      1 +2.4041262e-06 9.11880000e+01 7.81860800e-03 1.13011600e-01
       25 -1    0    0    0    0 +0.0000000000e+00 +0.0000000000e+00 +9.9999998245e-15 1.2500000000e+02 1.2500000000e+02 0.0000e+00 0.0000e+00
      -11  1    1    0    0    0 -1.7757499689e+01 +5.9851683952e+00 +4.4987650128e+00 1.9271479518e+01 5.1100000000e-04 0.0000e+00 1.0000e+00
       11  1    1    0    0    0 -4.0260274378e+01 +1.2193366598e+01 +9.9700383886e+00 4.3231580444e+01 5.1100000000e-04 0.0000e+00 -1.0000e+00
       22  1    1    0    0    0 +5.8017774067e+01 -1.8178534993e+01 -1.4468803401e+01 6.2496940037e+01 0.0000000000e+00 0.0000e+00 -1.0000e+00
</event>
<event>
 4      1 +2.4041262e-06 9.11880000e+01 7.81860800e-03 1.13011600e-01
       25 -1    0    0    0    0 +0.0000000000e+00 +0.0000000000e+00 +9.9999998245e-15 1.2500000000e+02 1.2500000000e+02 0.0000e+00 0.0000e+00
      -13  1    1    0    0    0 -6.4380944824e+00 +2.4907587853e+01 +5.6959233341e+01 6.2499619360e+01 1.0566000000e-01 0.0000e+00 1.0000e+00
       13  1    1    0    0    0 +6.4381175212e+00 -2.4907752671e+01 -5.6959576004e+01 6.2499999703e+01 1.0566000000e-01 0.0000e+00 1.0000e+00
       22  1    1    0    0    0 -2.3038720861e-05 +1.6481843676e-04 +3.4266219103e-04 3.8093736613e-04 0.0000000000e+00 0.0000e+00 1.0000e+00
</event>
<event>
 4      1 +2.4041262e-06 9.11880000e+01 7.81860800e-03 1.13011600e-01
       25 -1    0    0    0    0 +0.0000000000e+00 +0.0000000000e+00 +9.9999998245e-15 1.2500000000e+02 1.2500000000e+02 0.0000e+00 0.0000e+00
      -13  1    1    0    0    0 +3.7578468663e+01 -2.9052361593e+01 +2.3831029060e+01 5.3142357223e+01 1.0566000000e-01 0.0000e+00 1.0000e+00
       13  1    1    0    0    0 -4.3943656054e+01 +3.4379658487e+01 -2.8158059377e+01 6.2497146311e+01 1.0566000000e-01 0.0000e+00 1.0000e+00
       22  1    1    0    0    0 +6.3651873915e+00 -5.3272968935e+00 +4.3270303175e+00 9.3604964659e+00 0.0000000000e+00 0.0000e+00 -1.0000e+00
</event>
<event>
 4      1 +2.4041262e-06 9.11880000e+01 7.81860800e-03 1.13011600e-01
       25 -1    0    0    0    0 +0.0000000000e+00 +0.0000000000e+00 +9.9999998245e-15 1.2500000000e+02 1.2500000000e+02 0.0000e+00 0.0000e+00
      -13  1    1    0    0    0 +2.9289512809e+01 +2.2918002350e+01 +3.5753884724e+01 5.1589357713e+01 1.0566000000e-01 0.0000e+00 -1.0000e+00
       13  1    1    0    0    0 -3.5405505074e+01 -2.7257364196e+01 -4.3689470770e+01 6.2492357234e+01 1.0566000000e-01 0.0000e+00 -1.0000e+00
       22  1    1    0    0    0 +6.1159922647e+00 +4.3393618460e+00 +7.9355860461e+00 1.0918285053e+01 0.0000000000e+00 0.0000e+00 1.0000e+00
</event>
<event>
 5      1 +2.4041262e-06 9.11880000e+01 7.81860800e-03 1.13011600e-01
       25 -1    0    0    0    0 +0.0000000000e+00 +0.0000000000e+00 +9.9999998245e-15 1.2500000000e+02 1.2500000000e+02 0.0000e+00 0.0000e+00
       23  2    1    0    0    0 +2.4877677310e+01 +1.5669852537e+01 +4.3085592940e+00 9.5284569832e+01 9.0532549163e+01 0.0000e+00 0.0000e+00
      -13  1    2    2    0    0 -8.5546804783e+00 -2.0376986101e+01 +3.1976025851e+01 3.8870059350e+01 1.0566000000e-01 0.0000e+00 -1.0000e+00
       13  1    2    2    0    0 +3.3432357789e+01 +3.6046838638e+01 -2.7667466557e+01 5.6414510481e+01 1.0566000000e-01 0.0000e+00 1.0000e+00
       22  1    1    0    0    0 -2.4877677310e+01 -1.5669852537e+01 -4.3085592940e+00 2.9715430168e+01 0.0000000000e+00 0.0000e+00 1.0000e+00
</event>
<event>
 5      1 +2.4041262e-06 9.11880000e+01 7.81860800e-03 1.13011600e-01
       25 -1    0    0    0    0 +0.0000000000e+00 +0.0000000000e+00 +9.9999998245e-15 1.2500000000e+02 1.2500000000e+02 0.0000e+00 0.0000e+00
       23  2    1    0    0    0 -1.0298229854e+01 -2.1521131928e+01 -1.5434911194e+01 9.6584350418e+01 9.2309737322e+01 0.0000e+00 0.0000e+00
      -11  1    2    2    0    0 +2.9025103983e+00 -6.0813623145e+00 +3.8430020836e+01 3.9016330374e+01 5.1100000000e-04 0.0000e+00 1.0000e+00
       11  1    2    2    0    0 -1.3200740253e+01 -1.5439769614e+01 -5.3864932029e+01 5.7568020044e+01 5.1100000000e-04 0.0000e+00 -1.0000e+00
       22  1    1    0    0    0 +1.0298229854e+01 +2.1521131928e+01 +1.5434911194e+01 2.8415649582e+01 0.0000000000e+00 0.0000e+00 -1.0000e+00
</event>
<event>
 4      1 +2.4041262e-06 9.11880000e+01 7.81860800e-03 1.13011600e-01
       25 -1    0    0    0    0 +0.0000000000e+00 +0.0000000000e+00 +9.9999998245e-15 1.2500000000e+02 1.2500000000e+02 0.0000e+00 0.0000e+00
      -13  1    1    0    0    0 -5.9275150529e+00 -4.8674261942e+01 +3.8732958246e+01 6.2486577990e+01 1.0566000000e-01 0.0000e+00 -1.0000e+00
       13  1    1    0    0    0 +5.7368407343e+00 +4.6115142831e+01 -3.6186010558e+01 5.8897846005e+01 1.0566000000e-01 0.0000e+00 -1.0000e+00
       22  1    1    0    0    0 +1.9067431861e-01 +2.5591191118e+00 -2.5469476875e+00 3.6155760049e+00 0.0000000000e+00 0.0000e+00 -1.0000e+00
</event>
<event>
 4      1 +2.4041262e-06 9.11880000e+01 7.81860800e-03 1.13011600e-01
       25 -1    0    0    0    0 +0.0000000000e+00 +0.0000000000e+00 +9.9999998245e-15 1.2500000000e+02 1.2500000000e+02 0.0000e+00 0.0000e+00
      -13  1    1    0    0    0 +2.4001890259e+01 +4.1450184423e+01 +4.0061263406e+01 6.2442970096e+01 1.0566000000e-01 0.0000e+00 -1.0000e+00
       13  1    1    0    0    0 -2.3073815454e+01 -3.8604651311e+01 -3.6633388370e+01 5.8006347669e+01 1.0566000000e-01 0.0000e+00 -1.0000e+00
       22  1    1    0    0    0 -9.2807480477e-01 -2.8455331119e+00 -3.4278750368e+00 4.5506822348e+00 0.0000000000e+00 0.0000e+00 -1.0000e+00
</event>
<event>
 4      1 +2.4041262e-06 9.11880000e+01 7.81860800e-03 1.13011600e-01
       25 -1    0    0    0    0 +0.0000000000e+00 +0.0000000000e+00 +9.9999998245e-15 1.2500000000e+02 1.2500000000e+02 0.0000e+00 0.0000e+00
      -13  1    1    0    0    0 -5.8832020822e+01 +2.0378566551e+01 -5.4539787192e+00 6.2499997573e+01 1.0566000000e-01 0.0000e+00 1.0000e+00
       13  1    1    0    0    0 +5.8831667965e+01 -2.0378434359e+01 +5.4540055726e+00 6.2499624665e+01 1.0566000000e-01 0.0000e+00 1.0000e+00
       22  1    1    0    0    0 +3.5285691754e-04 -1.3219259990e-04 -2.6853373752e-05 3.7776181836e-04 0.0000000000e+00 0.0000e+00 -1.0000e+00
</event>
<event>
 4      1 +2.4041262e-06 9.11880000e+01 7.81860800e-03 1.13011600e-01
       25 -1    0    0    0    0 +0.0000000000e+00 +0.0000000000e+00 +9.9999998245e-15 1.2500000000e+02 1.2500000000e+02 0.0000e+00 0.0000e+00
      -13  1    1    0    0    0 +1.9076644874e+00 -8.6713211401e+00 -7.5845922461e+00 1.1677679465e+01 1.0566000000e-01 0.0000e+00 -1.0000e+00
       13  1    1    0    0    0 +6.4741352823e+00 -2.7721137872e+01 -4.2312550956e+01 5.0997441554e+01 1.0566000000e-01 0.0000e+00 1.0000e+00
       22  1    1    0    0    0 -8.3817997697e+00 +3.6392459012e+01 +4.9897143202e+01 6.2324878981e+01 0.0000000000e+00 0.0000e+00 1.0000e+00
</event>
<event>
 4      1 +2.4041262e-06 9.11880000e+01 7.81860800e-03 1.13011600e-01
       25 -1    0    0    0    0 +0.0000000000e+00 +0.0000000000e+00 +9.9999998245e-15 1.2500000000e+02 1.2500000000e+02 0.0000e+00 0.0000e+00
      -13  1    1    0    0    0 +5.0837428905e+01 -3.4158872138e+01 -1.2338115360e+01 6.2478099988e+01 1.0566000000e-01 0.0000e+00 -1.0000e+00
       13  1    1    0    0    0 -5.0850793701e+01 +3.4176867700e+01 +1.2340736925e+01 6.2499331658e+01 1.0566000000e-01 0.0000e+00 -1.0000e+00
       22  1    1    0    0    0 +1.3364795408e-02 -1.7995561953e-02 -2.6215647226e-03 2.2568354124e-02 0.0000000000e+00 0.0000e+00 1.0000e+00
</event>
<event>
 4      1 +2.4041262e-06 9.11880000e+01 7.81860800e-03 1.13011600e-01
       25 -1    0    0    0    0 +0.0000000000e+00 +0.0000000000e+00 +9.9999998245e-15 1.2500000000e+02 1.2500000000e+02 0.0000e+00 0.0000e+00
      -13  1    1    0    0    0 -1.0211419670e+01 -1.3821721364e+01 -6.0090979047e+01 6.2500000000e+01 1.0566000000e-01 0.0000e+00 1.0000e+00
       13  1    1    0    0    0 +1.0211419668e+01 +1.3821721361e+01 +6.0090979035e+01 6.2499999987e+01 1.0566000000e-01 0.0000e+00 1.0000e+00
       22  1    1    0    0    0 +2.0736270877e-09 +3.2737227774e-09 +1.2100736166e-08 1.2706101128e-08 0.0000000000e+00 0.0000e+00 1.0000e+00
</event>
<event>
 4      1 +2.4041262e-06 9.11880000e+01 7.81860800e-03 1.13011600e-01
       25 -1    0    0    0    0 +0.0000000000e+00 +0.0000000000e+00 +9.9999998245e-15 1.2500000000e+02 1.2500000000e+02 0.0000e+00 0.0000e+00
      -13  1    1    0    0    0 -4.4271712088e+01 -3.3919807726e+01 +2.8170516465e+01 6.2483013766e+01 1.0566000000e-01 0.0000e+00 -1.0000e+00
       13  1    1    0    0    0 +4.4283539530e+01 +3.3929025624e+01 -2.8178500781e+01 6.2499997787e+01 1.0566000000e-01 0.0000e+00 -1.0000e+00
       22  1    1    0    0    0 -1.1827442322e-02 -9.2178974274e-03 +7.9843163531e-03 1.6988447030e-02 0.0000000000e+00 0.0000e+00 -1.0000e+00
</event>
<event>
 4      1 +2.4041262e-06 9.11880000e+01 7.81860800e-03 1.13011600e-01
       25 -1    0    0    0    0 +0.0000000000e+00 +0.0000000000e+00 +9.9999998245e-15 1.2500000000e+02 1.2500000000e+02 0.0000e+00 0.0000e+00
      -11  1    1    0    0    0 +3.3673466984e+01 -8.1608095583e+00 +6.9273076855e+00 3.5333960766e+01 5.1100000000e-04 0.0000e+00 -1.0000e+00
       11  1    1    0    0    0 +2.1776381683e+01 +6.9445249831e+00 +1.7770723304e+01 2.8952302732e+01 5.1100000000e-04 0.0000e+00 1.0000e+00
       22  1    1    0    0    0 -5.5449848667e+01 +1.2162845752e+00 -2.4698030989e+01 6.0713736503e+01 0.0000000000e+00 0.0000e+00 -1.0000e+00
</event>
<event>
 4      1 +2.4041262e-06 9.11880000e+01 7.81860800e-03 1.13011600e-01
       25 -1    0    0    0    0 +0.0000000000e+00 +0.0000000000e+00 +9.9999998245e-15 1.2500000000e+02 1.2500000000e+02 0.0000e+00 0.0000e+00
      -11  1    1    0    0    0 -3.1938804062e+01 -2.5267772311e+01 -2.5605425978e+01 4.8105980525e+01 5.1100000000e-04 0.0000e+00 1.0000e+00
       11  1    1    0    0    0 -9.4866895371e+00 -6.8943692601e+00 -8.3679746873e+00 1.4406686173e+01 5.1100000000e-04 0.0000e+00 -1.0000e+00
       22  1    1    0    0    0 +4.1425493600e+01 +3.2162141571e+01 +3.3973400665e+01 6.2487333302e+01 0.0000000000e+00 0.0000e+00 1.0000e+00
</event>
<event>
 4      1 +2.4041262e-06 9.11880000e+01 7.81860800e-03 1.13011600e-01
       25 -1    0    0    0    0 +0.0000000000e+00 +0.0000000000e+00 +9.9999998245e-15 1.2500000000e+02 1.2500000000e+02 0.0000e+00 0.0000e+00
      -13  1    1    0    0    0 +1.0273365575e+01 +2.4859918073e+01 +5.5819061359e+01 6.1962378440e+01 1.0566000000e-01 0.0000e+00 -1.0000e+00
       13  1    1    0    0    0 -1.0360888612e+01 -2.5076381772e+01 -5.6303336206e+01 6.2499998140e+01 1.0566000000e-01 0.0000e+00 -1.0000e+00
       22  1    1    0    0    0 +8.7523037297e-02 +2.1646369843e-01 +4.8427484660e-01 5.3762342011e-01 0.0000000000e+00 0.0000e+00 1.0000e+00
</event>
<event>
 4      1 +2.4041262e-06 9.11880000e+01 7.81860800e-03 1.13011600e-01
       25 -1    0    0    0    0 +0.0000000000e+00 +0.0000000000e+00 +9.9999998245e-15 1.2500000000e+02 1.2500000000e+02 0.0000e+00 0.0000e+00
      -13  1    1    0    0    0 +1.0165012437e+01 -7.5394164781e+00 -1.9543907216e+01 2.3284023535e+01 1.0566000000e-01 0.0000e+00 -1.0000e+00
       13  1    1    0    0    0 +4.1857262472e+00 +2.7996798179e+01 -3.3032711631e+01 4.3503013852e+01 1.0566000000e-01 0.0000e+00 1.0000e+00
       22  1    1    0    0    0 -1.4350738684e+01 -2.0457381701e+01 +5.2576618847e+01 5.8212962613e+01 0.0000000000e+00 0.0000e+00 1.0000e+00
</event>
<event>
 5      1 +2.4041262e-06 9.11880000e+01 7.81860800e-03 1.13011600e-01
       25 -1    0    0    0    0 +0.0000000000e+00 +0.0000000000e+00 +9.9999998245e-15 1.2500000000e+02 1.2500000000e+02 0.0000e+00 0.0000e+00
       23  2    1    0    0    0 -1.3266644931e+01 +2.2854586969e+01 +4.3259907278e+01 7.4307243210e+01 5.4330569687e+01 0.0000e+00 0.0000e+00
      -13  1    2    2    0    0 -9.8068434467e+00 +1.6034223386e+01 -9.4553025006e+00 2.1040066716e+01 1.0566000000e-01 0.0000e+00 1.0000e+00
       13  1    2    2    0    0 -3.4598014846e+00 +6.8203635833e+00 +5.2715209778e+01 5.3267176495e+01 1.0566000000e-01 0.0000e+00 1.0000e+00
       22  1    1    0    0    0 +1.3266644931e+01 -2.2854586969e+01 -4.3259907278e+01 5.0692756790e+01 0.0000000000e+00 0.0000e+00 1.0000e+00
</event>
<event>
 5      1 +2.4041262e-06 9.11880000e+01 7.81860800e-03 1.13011600e-01
       25 -1    0    0    0    0 +0.0000000000e+00 +0.0000000000e+00 +9.9999998245e-15 1.2500000000e+02 1.2500000000e+02 0.0000e+00 0.0000e+00
       23  2    1    0    0    0 +5.1316419940e+00 -9.2218867201e+00 -3.0320307910e+01 9.2895514083e+01 8.7171546509e+01 0.0000e+00 0.0000e+00
      -11  1    2    2    0    0 +2.7088642143e+01 +2.6353172014e+01 +5.0578162100e+00 3.8129591047e+01 5.1100000000e-04 0.0000e+00 1.0000e+00
       11  1    2    2    0    0 -2.1957000149e+01 -3.5575058734e+01 -3.5378124120e+01 5.4765923036e+01 5.1100000000e-04 0.0000e+00 -1.0000e+00
       22  1    1    0    0    0 -5.1316419940e+00 +9.2218867201e+00 +3.0320307910e+01 3.2104485917e+01 0.0000000000e+00 0.0000e+00 -1.0000e+00
</event>
<event>
 4      1 +2.4041262e-06 9.11880000e+01 7.81860800e-03 1.13011600e-01
       25 -1    0    0    0    0 +0.0000000000e+00 +0.0000000000e+00 +9.9999998245e-15 1.2500000000e+02 1.2500000000e+02 0.0000e+00 0.0000e+00
      -11  1    1    0    0    0 -3.3085187241e+01 -2.8991753924e+01 +3.0050207079e+00 4.4092874255e+01 5.1100000000e-04 0.0000e+00 -1.0000e+00
       11  1    1    0    0    0 -1.3885742424e+01 -1.1898323191e+01 +2.1813060573e+00 1.8415809345e+01 5.1100000000e-04 0.0000e+00 1.0000e+00
       22  1    1    0    0    0 +4.6970929665e+01 +4.0890077116e+01 -5.1863267653e+00 6.2491316400e+01 0.0000000000e+00 0.0000e+00 1.0000e+00
</event>
<event>
 4      1 +2.4041262e-06 9.11880000e+01 7.81860800e-03 1.13011600e-01
       25 -1    0    0    0    0 +0.0000000000e+00 +0.0000000000e+00 +9.9999998245e-15 1.2500000000e+02 1.2500000000e+02 0.0000e+00 0.0000e+00
      -13  1    1    0    0    0 -4.4902167932e+01 -2.1230625006e+01 -3.7938032946e+01 6.2499997048e+01 1.0566000000e-01 0.0000e+00 1.0000e+00
       13  1    1    0    0    0 +4.4901520977e+01 +2.1230429569e+01 +3.7937521518e+01 6.2499155424e+01 1.0566000000e-01 0.0000e+00 1.0000e+00
       22  1    1    0    0    0 +6.4695526962e-04 +1.9543756699e-04 +5.1142705372e-04 8.4752852150e-04 0.0000000000e+00 0.0000e+00 -1.0000e+00
</event>
<event>
 4      1 +2.4041262e-06 9.11880000e+01 7.81860800e-03 1.13011600e-01
       25 -1    0    0    0    0 +0.0000000000e+00 +0.0000000000e+00 +9.9999998245e-15 1.2500000000e+02 1.2500000000e+02 0.0000e+00 0.0000e+00
      -13  1    1    0    0    0 +1.3549778520e+01 -4.3712534988e+01 +4.2564704343e+01 6.2499179457e+01 1.0566000000e-01 0.0000e+00 -1.0000e+00
       13  1    1    0    0    0 -1.3549932828e+01 +4.3713078084e+01 -4.2565300996e+01 6.2499999105e+01 1.0566000000e-01 0.0000e+00 -1.0000e+00
       22  1    1    0    0    0 +1.5430728908e-04 -5.4309659772e-04 +5.9665321348e-04 8.2143758806e-04 0.0000000000e+00 0.0000e+00 1.0000e+00
</event>
<event>
 5      1 +2.4041262e-06 9.11880000e+01 7.81860800e-03 1.13011600e-01
       25 -1    0    0    0    0 +0.0000000000e+00 +0.0000000000e+00 +9.9999998245e-15 1.2500000000e+02 1.2500000000e+02 0.0000e+00 0.0000e+00
       23  2    1    0    0    0 +2.1139869133e+01 +2.5581296744e+01 -1.1765380259e+01 8.9790328279e+01 8.2598922933e+01 0.0000e+00 0.0000e+00
      -13  1    2    2    0    0 -1.0740006675e+00 +4.5679673878e+01 -3.0055586229e+01 5.4691274539e+01 1.0566000000e-01 0.0000e+00 -1.0000e+00
       13  1    2    2    0    0 +2.2213869801e+01 -2.0098377134e+01 +1.8290205971e+01 3.5099053740e+01 1.0566000000e-01 0.0000e+00 1.0000e+00
       22  1    1    0    0    0 -2.1139869133e+01 -2.5581296744e+01 +1.1765380259e+01 3.5209671721e+01 0.0000000000e+00 0.0000e+00 -1.0000e+00
</event>
<event>
 4      1 +2.4041262e-06 9.11880000e+01 7.81860800e-03 1.13011600e-01
       25 -1    0    0    0    0 +0.0000000000e+00 +0.0000000000e+00 +9.9999998245e-15 1.2500000000e+02 1.2500000000e+02 0.0000e+00 0.0000e+00
      -13  1    1    0    0    0 -2.1107370427e+01 -4.4042083006e+01 -3.4948457265e+01 6.0055241163e+01 1.0566000000e-01 0.0000e+00 1.0000e+00
       13  1    1    0    0    0 -8.2502996585e-01 -2.6333644096e+00 +2.2061066212e-01 2.7703999095e+00 1.0566000000e-01 0.0000e+00 -1.0000e+00
       22  1    1    0    0    0 +2.1932400393e+01 +4.6675447415e+01 +3.4727846603e+01 6.2174358928e+01 0.0000000000e+00 0.0000e+00 1.0000e+00
</event>
<event>
 5      1 +2.4041262e-06 9.11880000e+01 7.81860800e-03 1.13011600e-01
       25 -1    0    0    0    0 +0.0000000000e+00 +0.0000000000e+00 +9.9999998245e-15 1.2500000000e+02 1.2500000000e+02 0.0000e+00 0.0000e+00
       23  2    1    0    0    0 -2.3068779478e+01 +5.0750507151e+00 -4.5198463528e-01 1.0137524568e+02 9.8584032283e+01 0.0000e+00 0.0000e+00
      -13  1    2    2    0    0 +1.3435180085e+01 -3.9367189943e+01 -1.0714463312e+01 4.2954517761e+01 1.0566000000e-01 0.0000e+00 1.0000e+00
       13  1    2    2    0    0 -3.6503959563e+01 +4.4442240658e+01 +1.0262478677e+01 5.8420727924e+01 1.0566000000e-01 0.0000e+00 -1.0000e+00
       22  1    1    0    0    0 +2.3068779478e+01 -5.0750507151e+00 +4.5198463528e-01 2.3624754316e+01 0.0000000000e+00 0.0000e+00 -1.0000e+00
</event>
<event>
 4      1 +2.4041262e-06 9.11880000e+01 7.81860800e-03 1.13011600e-01
       25 -1    0    0    0    0 +0.0000000000e+00 +0.0000000000e+00 +9.9999998245e-15 1.2500000000e+02 1.2500000000e+02 0.0000e+00 0.0000e+00
      -13  1    1    0    0    0 +3.8527235859e+01 -1.4545040258e+01 -4.7014173354e+01 6.2499998074e+01 1.0566000000e-01 0.0000e+00 -1.0000e+00
       13  1    1    0    0    0 -3.8527237056e+01 +1.4545040821e+01 +4.7014174757e+01 6.2499999998e+01 1.0566000000e-01 0.0000e+00 -1.0000e+00
       22  1    1    0    0    0 +1.1969495539e-06 -5.6380475216e-07 -1.4028116741e-06 1.9283268982e-06 0.0000000000e+00 0.0000e+00 1.0000e+00
</event>
<event>
 4      1 +2.4041262e-06 9.11880000e+01 7.81860800e-03 1.13011600e-01
       25 -1    0    0    0    0 +0.0000000000e+00 +0.0000000000e+00 +9.9999998245e-15 1.2500000000e+02 1.2500000000e+02 0.0000e+00 0.0000e+00
      -13  1    1    0    0    0 -6.2203056142e+01 -5.9303820053e+00 -1.3598525807e+00 6.2499999898e+01 1.0566000000e-01 0.0000e+00 -1.0000e+00
       13  1    1    0    0    0 +6.2203056244e+01 +5.9303820156e+00 +1.3598525833e+00 6.2500000000e+01 1.0566000000e-01 0.0000e+00 -1.0000e+00
       22  1    1    0    0    0 -1.0170388486e-07 -1.0214905877e-08 -2.6121032287e-09 1.0224894904e-07 0.0000000000e+00 0.0000e+00 -1.0000e+00
</event>
<event>
 4      1 +2.4041262e-06 9.11880000e+01 7.81860800e-03 1.13011600e-01
       25 -1    0    0    0    0 +0.0000000000e+00 +0.0000000000e+00 +9.9999998245e-15 1.2500000000e+02 1.2500000000e+02 0.0000e+00 0.0000e+00
      -11  1    1    0    0    0 -2.2212639688e+01 +1.9775403202e+01 +5.3342872834e+01 6.1073152990e+01 5.1100000000e-04 0.0000e+00 -1.0000e+00
       11  1    1    0    0    0 -5.0779416283e-01 +4.8090598823e-01 +1.2437865573e+00 1.4269305318e+00 5.1100000000e-04 0.0000e+00 1.0000e+00
       22  1    1    0    0    0 +2.2720433851e+01 -2.0256309190e+01 -5.4586659391e+01 6.2499916479e+01 0.0000000000e+00 0.0000e+00 -1.0000e+00
</event>
<event>
 4      1 +2.4041262e-06 9.11880000e+01 7.81860800e-03 1.13011600e-01
       25 -1    0    0    0    0 +0.0000000000e+00 +0.0000000000e+00 +9.9999998245e-15 1.2500000000e+02 1.2500000000e+02 0.0000e+00 0.0000e+00
      -11  1    1    0    0    0 -3.7208116280e+01 -4.1911165174e+01 -2.7753027840e+00 5.6113206905e+01 5.1100000000e-04 0.0000e+00 -1.0000e+00
       11  1    1    0    0    0 -4.2403325652e+00 -4.7643428117e+00 -3.3455711234e-01 6.3868076074e+00 5.1100000000e-04 0.0000e+00 1.0000e+00
       22  1    1    0    0    0 +4.1448448846e+01 +4.6675507985e+01 +3.1098598964e+00 6.2499985488e+01 0.0000000000e+00 0.0000e+00 -1.0000e+00
</event>
<event>
 4      1 +2.4041262e-06 9.11880000e+01 7.81860800e-03 1.13011600e-01
       25 -1    0    0    0    0 +0.0000000000e+00 +0.0000000000e+00 +9.9999998245e-15 1.2500000000e+02 1.2500000000e+02 0.0000e+00 0.0000e+00
      -13  1    1    0    0    0 -1.0796254130e+01 +3.3648738516e+01 +2.5963120055e+01 4.3850786469e+01 1.0566000000e-01 0.0000e+00 -1.0000e+00
       13  1    1    0    0    0 +1.5817431294e+01 -4.7309130871e+01 -3.7639141705e+01 6.2490488467e+01 1.0566000000e-01 0.0000e+00 -1.0000e+00
       22  1    1    0    0    0 -5.0211771637e+00 +1.3660392356e+01 +1.1676021650e+01 1.8658725064e+01 0.0000000000e+00 0.0000e+00 -1.0000e+00
</event>
<event>
 4      1 +2.4041262e-06 9.11880000e+01 7.81860800e-03 1.13011600e-01
       25 -1    0    0    0    0 +0.0000000000e+00 +0.0000000000e+00 +9.9999998245e-15 1.2500000000e+02 1.2500000000e+02 0.0000e+00 0.0000e+00
      -11  1    1    0    0    0 -2.3476025251e+01 +1.2414013472e+01 -3.3772555720e+01 4.2962972572e+01 5.1100000000e-04 0.0000e+00 -1.0000e+00
       11  1    1    0    0    0 -1.0668644394e+01 +5.6447936396e+00 -1.5362675443e+01 1.9537028061e+01 5.1100000000e-04 0.0000e+00 1.0000e+00
       22  1    1    0    0    0 +3.4144669645e+01 -1.8058807112e+01 +4.9135231163e+01 6.2499999367e+01 0.0000000000e+00 0.0000e+00 -1.0000e+00
</event>
<event>
 4      1 +2.4041262e-06 9.11880000e+01 7.81860800e-03 1.13011600e-01
       25 -1    0    0    0    0 +0.0000000000e+00 +0.0000000000e+00 +9.9999998245e-15 1.2500000000e+02 1.2500000000e+02 0.0000e+00 0.0000e+00
      -13  1    1    0    0    0 +2.0490607318e+01 -4.7367061680e+01 +3.5252451199e+01 6.2500000000e+01 1.0566000000e-01 0.0000e+00 -1.0000e+00
       13  1    1    0    0    0 -2.0490604965e+01 +4.7367056184e+01 -3.5252447177e+01 6.2499992795e+01 1.0566000000e-01 0.0000e+00 -1.0000e+00
       22  1    1    0    0    0 -2.3526827848e-06 +5.4959710002e-06 -4.0215848927e-06 7.2051341813e-06 0.0000000000e+00 0.0000e+00 1.0000e+00
</event>
<event>
 5      1 +2.4041262e-06 9.11880000e+01 7.81860800e-03 1.13011600e-01
       25 -1    0    0    0    0 +0.0000000000e+00 +0.0000000000e+00 +9.9999998245e-15 1.2500000000e+02 1.2500000000e+02 0.0000e+00 0.0000e+00
       23  2    1    0    0    0 -1.8628795096e+01 -7.4388584799e-01 -2.3154938625e+01 9.5272293132e+01 9.0515596904e+01 0.0000e+00 0.0000e+00
      -11  1    2    2    0    0 +1.5916293200e+01 -2.4826815763e+01 +1.9482381878e+01 3.5344905914e+01 5.1100000000e-04 0.0000e+00 1.0000e+00
       11  1    2    2    0    0 -3.4545088297e+01 +2.4082929915e+01 -4.2637320504e+01 5.9927387218e+01 5.1100000000e-04 0.0000e+00 -1.0000e+00
       22  1    1    0    0    0 +1.8628795096e+01 +7.4388584799e-01 +2.3154938625e+01 2.9727706868e+01 0.0000000000e+00 0.0000e+00 -1.0000e+00
</event>
<event>
 5      1 +2.4041262e-06 9.11880000e+01 7.81860800e-03 1.13011600e-01
       25 -1    0    0    0    0 +0.0000000000e+00 +0.0000000000e+00 +9.9999998245e-15 1.2500000000e+02 1.2500000000e+02 0.0000e+00 0.0000e+00
       23  2    1    0    0    0 -3.9690051395e+00 -2.1231502711e+01 +1.8884404054e+01 9.6309401791e+01 9.1936665415e+01 0.0000e+00 0.0000e+00
      -13  1    2    2    0    0 -4.1960399978e+00 +3.4819699446e+01 +1.9751169640e+01 4.0250938963e+01 1.0566000000e-01 0.0000e+00 -1.0000e+00
       13  1    2    2    0    0 +2.2703485836e-01 -5.6051202157e+01 -8.6676558632e-01 5.6058462828e+01 1.0566000000e-01 0.0000e+00 1.0000e+00
       22  1    1    0    0    0 +3.9690051395e+00 +2.1231502711e+01 -1.8884404054e+01 2.8690598209e+01 0.0000000000e+00 0.0000e+00 1.0000e+00
</event>
<event>
 4      1 +2.4041262e-06 9.11880000e+01 7.81860800e-03 1.13011600e-01
       25 -1    0    0    0    0 +0.0000000000e+00 +0.0000000000e+00 +9.9999998245e-15 1.2500000000e+02 1.2500000000e+02 0.0000e+00 0.0000e+00
      -11  1    1    0    0    0 -1.6557237944e+00 +1.2976380005e+00 +1.8537439209e+00 2.8038638429e+00 5.1100000000e-04 0.0000e+00 1.0000e+00
       11  1    1    0    0    0 -5.0471062033e+01 +1.0881015430e+01 +3.0188313556e+01 5.9808518416e+01 5.1100000000e-04 0.0000e+00 -1.0000e+00
       22  1    1    0    0    0 +5.2126785828e+01 -1.2178653430e+01 -3.2042057476e+01 6.2387617741e+01 0.0000000000e+00 0.0000e+00 -1.0000e+00
</event>
<event>
 4      1 +2.4041262e-06 9.11880000e+01 7.81860800e-03 1.13011600e-01
       25 -1    0    0    0    0 +0.0000000000e+00 +0.0000000000e+00 +9.9999998245e-15 1.2500000000e+02 1.2500000000e+02 0.0000e+00 0.0000e+00
      -11  1    1    0    0    0 +1.7521604064e+00 -2.5462759255e-01 +2.1297076845e+00 2.7695769322e+00 5.1100000000e-04 0.0000e+00 -1.0000e+00
       11  1    1    0    0    0 +5.2514820947e+01 -2.8822394515e+01 +5.6706332869e+00 6.0172193967e+01 5.1100000000e-04 0.0000e+00 1.0000e+00
       22  1    1    0    0    0 -5.4266981353e+01 +2.9077022108e+01 -7.8003409714e+00 6.2058229101e+01 0.0000000000e+00 0.0000e+00 1.0000e+00
</event>
<event>
 4      1 +2.4041262e-06 9.11880000e+01 7.81860800e-03 1.13011600e-01
       25 -1    0    0    0    0 +0.0000000000e+00 +0.0000000000e+00 +9.9999998245e-15 1.2500000000e+02 1.2500000000e+02 0.0000e+00 0.0000e+00
      -13  1    1    0    0    0 +8.3122429974e+00 -6.0161545358e+01 -1.4755809438e+01 6.2499999998e+01 1.0566000000e-01 0.0000e+00 -1.0000e+00
       13  1    1    0    0    0 -8.3122429795e+00 +6.0161545336e+01 +1.4755809428e+01 6.2499999971e+01 1.0566000000e-01 0.0000e+00 -1.0000e+00
       22  1    1    0    0    0 -1.7934815223e-08 +2.2699399093e-08 +1.0315524542e-08 3.0713683641e-08 0.0000000000e+00 0.0000e+00 1.0000e+00
</event>
<event>
 4      1 +2.4041262e-06 9.11880000e+01 7.81860800e-03 1.13011600e-01
       25 -1    0    0    0    0 +0.0000000000e+00 +0.0000000000e+00 +9.9999998245e-15 1.2500000000e+02 1.2500000000e+02 0.0000e+00 0.0000e+00
      -11  1    1    0    0    0 +2.1553579827e+01 -3.8938238096e+00 +6.5257109400e+00 2.2853961817e+01 5.1100000000e-04 0.0000e+00 1.0000e+00
       11  1    1    0    0    0 +3.7775657015e+01 -6.4981177589e+00 +1.0142750257e+01 3.9649731151e+01 5.1100000000e-04 0.0000e+00 -1.0000e+00
       22  1    1    0    0    0 -5.9329236842e+01 +1.0391941569e+01 -1.6668461197e+01 6.2496307031e+01 0.0000000000e+00 0.0000e+00 1.0000e+00
</event>
<event>
 4      1 +2.4041262e-06 9.11880000e+01 7.81860800e-03 1.13011600e-01
       25 -1    0    0    0    0 +0.0000000000e+00 +0.0000000000e+00 +9.9999998245e-15 1.2500000000e+02 1.2500000000e+02 0.0000e+00 0.0000e+00
      -13  1    1    0    0    0 -1.4432804176e+01 -4.1471557151e+01 +4.4320453659e+01 6.2389980490e+01 1.0566000000e-01 0.0000e+00 -1.0000e+00
       13  1    1    0    0    0 +1.4454804667e+01 +4.1545859053e+01 -4.4398595469e+01 6.2499969809e+01 1.0566000000e-01 0.0000e+00 -1.0000e+00
       22  1    1    0    0    0 -2.2000491166e-02 -7.4301902772e-02 +7.8141809786e-02 1.1004970152e-01 0.0000000000e+00 0.0000e+00 1.0000e+00
</event>
<event>
 5      1 +2.4041262e-06 9.11880000e+01 7.81860800e-03 1.13011600e-01
       25 -1    0    0    0    0 +0.0000000000e+00 +0.0000000000e+00 +9.9999998245e-15 1.2500000000e+02 1.2500000000e+02 0.0000e+00 0.0000e+00
       23  2    1    0    0    0 +7.8997581109e-01 -2.9003234284e+01 +1.7899852114e+00 9.5930846111e+01 9.1420520278e+01 0.0000e+00 0.0000e+00
      -11  1    2    2    0    0 +3.2941256828e+00 +3.1633752728e+01 +1.2741260760e+01 3.4262009598e+01 5.1100000000e-04 0.0000e+00 -1.0000e+00
       11  1    2    2    0    0 -2.5041498717e+00 -6.0636987012e+01 -1.0951275549e+01 6.1668836514e+01 5.1100000000e-04 0.0000e+00 1.0000e+00
       22  1    1    0    0    0 -7.8997581109e-01 +2.9003234284e+01 -1.7899852114e+00 2.9069153889e+01 0.0000000000e+00 0.0000e+00 1.0000e+00
</event>
<event>
 5      1 +2.4041262e-06 9.11880000e+01 7.81860800e-03 1.13011600e-01
       25 -1    0    0    0    0 +0.0000000000e+00 +0.0000000000e+00 +9.9999998245e-15 1.2500000000e+02 1.2500000000e+02 0.0000e+00 0.0000e+00
       23  2    1    0    0    0 -1.2700227837e+01 +5.7556274483e+00 +2.5826437768e+01 9.5649907629e+01 9.1035580446e+01 0.0000e+00 0.0000e+00
      -13  1    2    2    0    0 -3.8162991476e+01 -1.6215369768e+01 -1.3776033715e+01 4.3693734151e+01 1.0566000000e-01 0.0000e+00 1.0000e+00
       13  1    2    2    0    0 +2.5462763639e+01 +2.1970997216e+01 +3.9602471483e+01 5.1956173477e+01 1.0566000000e-01 0.0000e+00 -1.0000e+00
       22  1    1    0    0    0 +1.2700227837e+01 -5.7556274483e+00 -2.5826437768e+01 2.9350092371e+01 0.0000000000e+00 0.0000e+00 1.0000e+00
</event>
<event>
 4      1 +2.4041262e-06 9.11880000e+01 7.81860800e-03 1.13011600e-01
       25 -1    0    0    0    0 +0.0000000000e+00 +0.0000000000e+00 +9.9999998245e-15 1.2500000000e+02 1.2500000000e+02 0.0000e+00 0.0000e+00
      -13  1    1    0    0    0 -1.0602580292e+00 +6.2374182320e+01 +3.8113720397e+00 6.2499603903e+01 1.0566000000e-01 0.0000e+00 1.0000e+00
       13  1    1    0    0    0 +1.0767643439e+00 -6.2043933242e+01 -3.7968417999e+00 6.2169415674e+01 1.0566000000e-01 0.0000e+00 1.0000e+00
       22  1    1    0    0    0 -1.6506314636e-02 -3.3024907828e-01 -1.4530239826e-02 3.3098042238e-01 0.0000000000e+00 0.0000e+00 -1.0000e+00
</event>
<event>
 4      1 +2.4041262e-06 9.11880000e+01 7.81860800e-03 1.13011600e-01
       25 -1    0    0    0    0 +0.0000000000e+00 +0.0000000000e+00 +9.9999998245e-15 1.2500000000e+02 1.2500000000e+02 0.0000e+00 0.0000e+00
      -11  1    1    0    0    0 -3.7168375517e+01 -4.0636942687e+00 -4.5860523329e+01 5.9170848818e+01 5.1100000000e-04 0.0000e+00 1.0000e+00
       11  1    1    0    0    0 -2.2239487422e+00 -2.4051798175e-01 -2.4685555961e+00 3.3313006318e+00 5.1100000000e-04 0.0000e+00 -1.0000e+00
       22  1    1    0    0    0 +3.9392324259e+01 +4.3042122505e+00 +4.8329078925e+01 6.2497850550e+01 0.0000000000e+00 0.0000e+00 1.0000e+00
</event>
<event>
 5      1 +2.4041262e-06 9.11880000e+01 7.81860800e-03 1.13011600e-01
       25 -1    0    0    0    0 +0.0000000000e+00 +0.0000000000e+00 +9.9999998245e-15 1.2500000000e+02 1.2500000000e+02 0.0000e+00 0.0000e+00
       23  2    1    0    0    0 +3.5178479521e+00 +2.5157100858e+01 +1.3674326949e+01 9.6151391796e+01 9.1721578427e+01 0.0000e+00 0.0000e+00
      -11  1    2    2    0    0 +1.1942716987e+01 +4.5521985436e+01 +4.0038012429e+01 6.1789336350e+01 5.1100000000e-04 0.0000e+00 -1.0000e+00
       11  1    2    2    0    0 -8.4248690353e+00 -2.0364884578e+01 -2.6363685480e+01 3.4362055446e+01 5.1100000000e-04 0.0000e+00 1.0000e+00
       22  1    1    0    0    0 -3.5178479521e+00 -2.5157100858e+01 -1.3674326949e+01 2.8848608204e+01 0.0000000000e+00 0.0000e+00 -1.0000e+00
</event>
<event>
 4      1 +2.4041262e-06 9.11880000e+01 7.81860800e-03 1.13011600e-01
       25 -1    0    0    0    0 +0.0000000000e+00 +0.0000000000e+00 +9.9999998245e-15 1.2500000000e+02 1.2500000000e+02 0.0000e+00 0.0000e+00
      -13  1    1    0    0    0 +2.1846824235e+01 +2.2829739993e+01 -5.3923631912e+01 6.2500000000e+01 1.0566000000e-01 0.0000e+00 1.0000e+00
       13  1    1    0    0    0 -2.1846824235e+01 -2.2829739993e+01 +5.3923631913e+01 6.2500000000e+01 1.0566000000e-01 0.0000e+00 1.0000e+00
       22  1    1    0    0    0 -3.8351936294e-11 +2.2151924747e-11 -2.1800620623e-11 4.9364418835e-11 0.0000000000e+00 0.0000e+00 -1.0000e+00
</event>
<event>
 4      1 +2.4041262e-06 9.11880000e+01 7.81860800e-03 1.13011600e-01
       25 -1    0    0    0    0 +0.0000000000e+00 +0.0000000000e+00 +9.9999998245e-15 1.2500000000e+02 1.2500000000e+02 0.0000e+00 0.0000e+00
      -13  1    1    0    0    0 -3.9929823058e+01 -2.5987974825e+01 -4.0453345471e+01 6.2499999430e+01 1.0566000000e-01 0.0000e+00 -1.0000e+00
       13  1    1    0    0    0 +3.9929823418e+01 +2.5987975039e+01 +4.0453345857e+01 6.2500000000e+01 1.0566000000e-01 0.0000e+00 -1.0000e+00
       22  1    1    0    0    0 -3.6076971003e-07 -2.1392216144e-07 -3.8663602987e-07 5.7044271791e-07 0.0000000000e+00 0.0000e+00 -1.0000e+00
</event>
<event>
 4      1 +2.4041262e-06 9.11880000e+01 7.81860800e-03 1.13011600e-01
       25 -1    0    0    0    0 +0.0000000000e+00 +0.0000000000e+00 +9.9999998245e-15 1.2500000000e+02 1.2500000000e+02 0.0000e+00 0.0000e+00
      -13  1    1    0    0    0 -4.3311946058e+01 +3.4488432531e+01 +8.9263358064e+00 5.6080899465e+01 1.0566000000e-01 0.0000e+00 1.0000e+00
       13  1    1    0    0    0 -1.3530223026e-01 +4.1420008775e+00 +7.4442190641e+00 8.5206830403e+00 1.0566000000e-01 0.0000e+00 -1.0000e+00
       22  1    1    0    0    0 +4.3447248289e+01 -3.8630433408e+01 -1.6370554871e+01 6.0398417495e+01 0.0000000000e+00 0.0000e+00 1.0000e+00
</event>
<event>
 4      1 +2.4041262e-06 9.11880000e+01 7.81860800e-03 1.13011600e-01
       25 -1    0    0    0    0 +0.0000000000e+00 +0.0000000000e+00 +9.9999998245e-15 1.2500000000e+02 1.2500000000e+02 0.0000e+00 0.0000e+00
      -13  1    1    0    0    0 -8.8095684053e+00 +1.6601910340e+01 +8.6284530642e+00 2.0680746813e+01 1.0566000000e-01 0.0000e+00 1.0000e+00
       13  1    1    0    0    0 -2.5649432052e+01 +2.6415958951e+01 +2.0327486872e+01 4.2058460962e+01 1.0566000000e-01 0.0000e+00 -1.0000e+00
       22  1    1    0    0    0 +3.4459000457e+01 -4.3017869291e+01 -2.8955939937e+01 6.2260792225e+01 0.0000000000e+00 0.0000e+00 1.0000e+00
</event>
<event>
 4      1 +2.4041262e-06 9.11880000e+01 7.81860800e-03 1.13011600e-01
       25 -1    0    0    0    0 +0.0000000000e+00 +0.0000000000e+00 +9.9999998245e-15 1.2500000000e+02 1.2500000000e+02 0.0000e+00 0.0000e+00
      -13  1    1    0    0    0 +4.9417627760e+01 +3.1661652717e+01 -2.1486662133e+01 6.2499999999e+01 1.0566000000e-01 0.0000e+00 1.0000e+00
       13  1    1    0    0    0 -4.9417618918e+01 -3.1661647343e+01 +2.1486658282e+01 6.2499988961e+01 1.0566000000e-01 0.0000e+00 1.0000e+00
       22  1    1    0    0    0 -8.8421786305e-06 -5.3738416633e-06 +3.8506242289e-06 1.1040362499e-05 0.0000000000e+00 0.0000e+00 -1.0000e+00
</event>
<event>
 4      1 +2.4041262e-06 9.11880000e+01 7.81860800e-03 1.13011600e-01
       25 -1    0    0    0    0 +0.0000000000e+00 +0.0000000000e+00 +9.9999998245e-15 1.2500000000e+02 1.2500000000e+02 0.0000e+00 0.0000e+00
      -13  1    1    0    0    0 -1.3994445790e+01 +5.3768545830e+01 +2.8624020375e+01 6.2499973920e+01 1.0566000000e-01 0.0000e+00 1.0000e+00
       13  1    1    0    0    0 +1.3994451484e+01 -5.3768568387e+01 -2.8624032161e+01 6.2499999999e+01 1.0566000000e-01 0.0000e+00 1.0000e+00
       22  1    1    0    0    0 -5.6943344557e-06 +2.2557107150e-05 +1.1786976309e-05 2.6080286394e-05 0.0000000000e+00 0.0000e+00 -1.0000e+00
</event>
<event>
 4      1 +2.4041262e-06 9.11880000e+01 7.81860800e-03 1.13011600e-01
       25 -1    0    0    0    0 +0.0000000000e+00 +0.0000000000e+00 +9.9999998245e-15 1.2500000000e+02 1.2500000000e+02 0.0000e+00 0.0000e+00
      -13  1    1    0    0    0 -3.2791033846e+01 +3.0142547548e+01 -4.3845339084e+01 6.2499999974e+01 1.0566000000e-01 0.0000e+00 -1.0000e+00
       13  1    1    0    0    0 +3.2790888351e+01 -3.0142420955e+01 +4.3845149207e+01 6.2499729383e+01 1.0566000000e-01 0.0000e+00 -1.0000e+00
       22  1    1    0    0    0 +1.4549455344e-04 -1.2659307250e-04 +1.8987668582e-04 2.7064298791e-04 0.0000000000e+00 0.0000e+00 -1.0000e+00
</event>
<event>
 4      1 +2.4041262e-06 9.11880000e+01 7.81860800e-03 1.13011600e-01
       25 -1    0    0    0    0 +0.0000000000e+00 +0.0000000000e+00 +9.9999998245e-15 1.2500000000e+02 1.2500000000e+02 0.0000e+00 0.0000e+00
      -11  1    1    0    0    0 -1.5368106879e+00 -1.5231281608e+00 +1.3940805321e+00 2.5739400296e+00 5.1100000000e-04 0.0000e+00 1.0000e+00
       11  1    1    0    0    0 +3.7733639624e+01 -4.5130104489e+01 +1.5825429999e+01 6.0917962255e+01 5.1100000000e-04 0.0000e+00 -1.0000e+00
       22  1    1    0    0    0 -3.6196828936e+01 +4.6653232649e+01 -1.7219510531e+01 6.1508097715e+01 0.0000000000e+00 0.0000e+00 -1.0000e+00
</event>
<event>
 4      1 +2.4041262e-06 9.11880000e+01 7.81860800e-03 1.13011600e-01
       25 -1    0    0    0    0 +0.0000000000e+00 +0.0000000000e+00 +9.9999998245e-15 1.2500000000e+02 1.2500000000e+02 0.0000e+00 0.0000e+00
      -13  1    1    0    0    0 -4.7019467956e+01 -1.9321503218e+01 -3.3949142853e+01 6.1128604744e+01 1.0566000000e-01 0.0000e+00 1.0000e+00
       13  1    1    0    0    0 +4.8775055568e+01 +1.8596854840e+01 +3.2645169695e+01 6.1567583386e+01 1.0566000000e-01 0.0000e+00 1.0000e+00
       22  1    1    0    0    0 -1.7555876119e+00 +7.2464837768e-01 +1.3039731582e+00 2.3038118698e+00 0.0000000000e+00 0.0000e+00 -1.0000e+00
</event>
<event>
 4      1 +2.4041262e-06 9.11880000e+01 7.81860800e-03 1.13011600e-01
       25 -1    0    0    0    0 +0.0000000000e+00 +0.0000000000e+00 +9.9999998245e-15 1.2500000000e+02 1.2500000000e+02 0.0000e+00 0.0000e+00
      -11  1    1    0    0    0 +3.2154180335e+01 -1.4969284767e+01 -2.2068241655e+01 4.1772934892e+01 5.1100000000e-04 0.0000e+00 1.0000e+00
       11  1    1    0    0    0 +1.5748990926e+01 -7.4772944938e+00 -1.1211978373e+01 2.0727978855e+01 5.1100000000e-04 0.0000e+00 -1.0000e+00
       22  1    1    0    0    0 -4.7903171261e+01 +2.2446579261e+01 +3.3280220028e+01 6.2499086253e+01 0.0000000000e+00 0.0000e+00 1.0000e+00
</event>
<event>
 4      1 +2.4041262e-06 9.11880000e+01 7.81860800e-03 1.13011600e-01
       25 -1    0    0    0    0 +0.0000000000e+00 +0.0000000000e+00 +9.9999998245e-15 1.2500000000e+02 1.2500000000e+02 0.0000e+00 0.0000e+00
      -11  1    1    0    0    0 +1.4397040833e+01 -1.4481156665e+00 -3.1856339692e+01 3.4988543876e+01 5.1100000000e-04 0.0000e+00 -1.0000e+00
       11  1    1    0    0    0 +2.3764167309e+01 +1.1272400723e+01 -1.3799090632e+01 2.9702147540e+01 5.1100000000e-04 0.0000e+00 1.0000e+00
       22  1    1    0    0    0 -3.8161208142e+01 -9.8242850561e+00 +4.5655430324e+01 6.0309308584e+01 0.0000000000e+00 0.0000e+00 1.0000e+00
</event>
<event>
 4      1 +2.4041262e-06 9.11880000e+01 7.81860800e-03 1.13011600e-01
       25 -1    0    0    0    0 +0.0000000000e+00 +0.0000000000e+00 +9.9999998245e-15 1.2500000000e+02 1.2500000000e+02 0.0000e+00 0.0000e+00
      -13  1    1    0    0    0 -4.1123518909e+01 -8.7651634745e+00 +4.6241398527e+01 6.2500000000e+01 1.0566000000e-01 0.0000e+00 1.0000e+00
       13  1    1    0    0    0 +4.1123518904e+01 +8.7651634733e+00 -4.6241398521e+01 6.2499999992e+01 1.0566000000e-01 0.0000e+00 1.0000e+00
       22  1    1    0    0    0 +5.0875263929e-09 +1.2443488703e-09 -6.2874938136e-09 8.1831477663e-09 0.0000000000e+00 0.0000e+00 1.0000e+00
</event>
<event>
 4      1 +2.4041262e-06 9.11880000e+01 7.81860800e-03 1.13011600e-01
       25 -1    0    0    0    0 +0.0000000000e+00 +0.0000000000e+00 +9.9999998245e-15 1.2500000000e+02 1.2500000000e+02 0.0000e+00 0.0000e+00
      -13  1    1    0    0    0 -1.6313947286e+01 +5.9048900200e+01 -1.2382299668e+01 6.2500000000e+01 1.0566000000e-01 0.0000e+00 1.0000e+00
       13  1    1    0    0    0 +1.6313947280e+01 -5.9048900179e+01 +1.2382299663e+01 6.2499999977e+01 1.0566000000e-01 0.0000e+00 1.0000e+00
       22  1    1    0    0    0 +5.7395079117e-09 -2.1419232333e-08 +4.3683402293e-09 2.2601058850e-08 0.0000000000e+00 0.0000e+00 -1.0000e+00
</event>
<event>
 4      1 +2.4041262e-06 9.11880000e+01 7.81860800e-03 1.13011600e-01
       25 -1    0    0    0    0 +0.0000000000e+00 +0.0000000000e+00 +9.9999998245e-15 1.2500000000e+02 1.2500000000e+02 0.0000e+00 0.0000e+00
      -13  1    1    0    0    0 -3.4313653683e+01 -3.2802414353e+01 -4.0603077454e+01 6.2466361181e+01 1.0566000000e-01 0.0000e+00 1.0000e+00
       13  1    1    0    0    0 +3.4332328366e+01 +3.2820040566e+01 +4.0624807014e+01 6.2499999542e+01 1.0566000000e-01 0.0000e+00 1.0000e+00
       22  1    1    0    0    0 -1.8674682283e-02 -1.7626213460e-02 -2.1729559943e-02 3.3639276666e-02 0.0000000000e+00 0.0000e+00 -1.0000e+00
</event>
<event>
 4      1 +2.4041262e-06 9.11880000e+01 7.81860800e-03 1.13011600e-01
       25 -1    0    0    0    0 +0.0000000000e+00 +0.0000000000e+00 +9.9999998245e-15 1.2500000000e+02 1.2500000000e+02 0.0000e+00 0.0000e+00
      -13  1    1    0    0    0 -1.1497932115e+01 +5.0024873190e+01 +3.5653227079e+01 6.2496833086e+01 1.0566000000e-01 0.0000e+00 1.0000e+00
       13  1    1    0    0    0 +1.1498384670e+01 -5.0028703124e+01 -3.5651025954e+01 6.2498726402e+01 1.0566000000e-01 0.0000e+00 1.0000e+00
       22  1    1    0    0    0 -4.5255463100e-04 +3.8299332645e-03 -2.2011252036e-03 4.4405119825e-03 0.0000000000e+00 0.0000e+00 -1.0000e+00
</event>
<event>
 4      1 +2.4041262e-06 9.11880000e+01 7.81860800e-03 1.13011600e-01
       25 -1    0    0    0    0 +0.0000000000e+00 +0.0000000000e+00 +9.9999998245e-15 1.2500000000e+02 1.2500000000e+02 0.0000e+00 0.0000e+00
      -13  1    1    0    0    0 -3.3255369563e+01 -4.9938310561e+01 +1.7506690700e+01 6.2499998798e+01 1.0566000000e-01 0.0000e+00 1.0000e+00
       13  1    1    0    0    0 +3.3254924059e+01 +4.9937605681e+01 -1.7506510813e+01 6.2499148155e+01 1.0566000000e-01 0.0000e+00 1.0000e+00
       22  1    1    0    0    0 +4.4550400814e-04 +7.0487996704e-04 -1.7988768100e-04 8.5304698990e-04 0.0000000000e+00 0.0000e+00 1.0000e+00
</event>
<event>
 4      1 +2.4041262e-06 9.11880000e+01 7.81860800e-03 1.13011600e-01
       25 -1    0    0    0    0 +0.0000000000e+00 +0.0000000000e+00 +9.9999998245e-15 1.2500000000e+02 1.2500000000e+02 0.0000e+00 0.0000e+00
      -11  1    1    0    0    0 +3.2951502797e-02 +5.8759930685e-01 -4.8852933140e+00 4.9206147758e+00 5.1100000000e-04 0.0000e+00 -1.0000e+00
       11  1    1    0    0    0 +4.9115042267e-01 +7.0374876828e+00 -5.7145600230e+01 5.7579398118e+01 5.1100000000e-04 0.0000e+00 1.0000e+00
       22  1    1    0    0    0 -5.2410192546e-01 -7.6250869896e+00 +6.2030893544e+01 6.2499987107e+01 0.0000000000e+00 0.0000e+00 1.0000e+00
</event>
<event>
 4      1 +2.4041262e-06 9.11880000e+01 7.81860800e-03 1.13011600e-01
       25 -1    0    0    0    0 +0.0000000000e+00 +0.0000000000e+00 +9.9999998245e-15 1.2500000000e+02 1.2500000000e+02 0.0000e+00 0.0000e+00
      -13  1    1    0    0    0 -6.0926806399e+01 +1.3493555890e+01 -3.4356347780e+00 6.2497732270e+01 1.0566000000e-01 0.0000e+00 1.0000e+00
       13  1    1    0    0    0 +6.0928697700e+01 -1.3494238471e+01 +3.4370621720e+00 6.2499801885e+01 1.0566000000e-01 0.0000e+00 1.0000e+00
       22  1    1    0    0    0 -1.8913008425e-03 +6.8258185493e-04 -1.4273940536e-03 2.4658448146e-03 0.0000000000e+00 0.0000e+00 -1.0000e+00
</event>
<event>
 5      1 +2.4041262e-06 9.11880000e+01 7.81860800e-03 1.13011600e-01
       25 -1    0    0    0    0 +0.0000000000e+00 +0.0000000000e+00 +9.9999998245e-15 1.2500000000e+02 1.2500000000e+02 0.0000e+00 0.0000e+00
       23  2    1    0    0    0 -7.1077065769e+00 +2.6728522164e+01 -5.7302198719e+00 9.6755198537e+01 9.2540799836e+01 0.0000e+00 0.0000e+00
      -13  1    2    2    0    0 +4.2848745624e+01 +1.2156646019e+01 -3.2215138036e+00 4.4656336160e+01 1.0566000000e-01 0.0000e+00 1.0000e+00
       13  1    2    2    0    0 -4.9956452201e+01 +1.4571876145e+01 -2.5087060683e+00 5.2098862378e+01 1.0566000000e-01 0.0000e+00 -1.0000e+00
       22  1    1    0    0    0 +7.1077065769e+00 -2.6728522164e+01 +5.7302198719e+00 2.8244801463e+01 0.0000000000e+00 0.0000e+00 -1.0000e+00
</event>
<event>
 4      1 +2.4041262e-06 9.11880000e+01 7.81860800e-03 1.13011600e-01
       25 -1    0    0    0    0 +0.0000000000e+00 +0.0000000000e+00 +9.9999998245e-15 1.2500000000e+02 1.2500000000e+02 0.0000e+00 0.0000e+00
      -13  1    1    0    0    0 +1.7044608401e+01 +9.7492243036e+00 -5.9335257229e+01 6.2499999716e+01 1.0566000000e-01 0.0000e+00 1.0000e+00
       13  1    1    0    0    0 -1.7001983818e+01 -9.7251602771e+00 +5.9186782831e+01 6.2343665453e+01 1.0566000000e-01 0.0000e+00 1.0000e+00
       22  1    1    0    0    0 -4.2624582296e-02 -2.4064026535e-02 +1.4847439778e-01 1.5633483036e-01 0.0000000000e+00 0.0000e+00 1.0000e+00
</event>
<event>
 4      1 +2.4041262e-06 9.11880000e+01 7.81860800e-03 1.13011600e-01
       25 -1    0    0    0    0 +0.0000000000e+00 +0.0000000000e+00 +9.9999998245e-15 1.2500000000e+02 1.2500000000e+02 0.0000e+00 0.0000e+00
      -13  1    1    0    0    0 +1.4264493948e+01 +1.2126682382e+01 -1.7865708680e+01 2.5879082748e+01 1.0566000000e-01 0.0000e+00 1.0000e+00
       13  1    1    0    0    0 +1.9421726436e+01 +2.0499889515e+01 -2.3384214727e+01 3.6664445861e+01 1.0566000000e-01 0.0000e+00 -1.0000e+00
       22  1    1    0    0    0 -3.3686220384e+01 -3.2626571897e+01 +4.1249923407e+01 6.2456471391e+01 0.0000000000e+00 0.0000e+00 -1.0000e+00
</event>
<event>
 4      1 +2.4041262e-06 9.11880000e+01 7.81860800e-03 1.13011600e-01
       25 -1    0    0    0    0 +0.0000000000e+00 +0.0000000000e+00 +9.9999998245e-15 1.2500000000e+02 1.2500000000e+02 0.0000e+00 0.0000e+00
      -13  1    1    0    0    0 +9.5545040311e+00 -3.8339368885e+01 -4.8425633591e+01 6.2499991252e+01 1.0566000000e-01 0.0000e+00 1.0000e+00
       13  1    1    0    0    0 -9.5545053852e+00 +3.8339374240e+01 +4.8425640375e+01 6.2500000000e+01 1.0566000000e-01 0.0000e+00 1.0000e+00
       22  1    1    0    0    0 +1.3541143922e-06 -5.3552171214e-06 -6.7840204983e-06 8.7484233051e-06 0.0000000000e+00 0.0000e+00 1.0000e+00
</event>
<event>
 5      1 +2.4041262e-06 9.11880000e+01 7.81860800e-03 1.13011600e-01
       25 -1    0    0    0    0 +0.0000000000e+00 +0.0000000000e+00 +9.9999998245e-15 1.2500000000e+02 1.2500000000e+02 0.0000e+00 0.0000e+00
       23  2    1    0    0    0 -2.3222418179e+01 -5.5793640228e+00 +1.4912056513e+01 9.6843660778e+01 9.2660213654e+01 0.0000e+00 0.0000e+00
      -13  1    2    2    0    0 +2.6275702745e+00 +1.7962074414e+00 +5.1413309780e+01 5.1511844009e+01 1.0566000000e-01 0.0000e+00 1.0000e+00
       13  1    2    2    0    0 -2.5849988453e+01 -7.3755714642e+00 -3.6501253266e+01 4.5331816768e+01 1.0566000000e-01 0.0000e+00 -1.0000e+00
       22  1    1    0    0    0 +2.3222418179e+01 +5.5793640228e+00 -1.4912056513e+01 2.8156339222e+01 0.0000000000e+00 0.0000e+00 -1.0000e+00
</event>
<event>
 4      1 +2.4041262e-06 9.11880000e+01 7.81860800e-03 1.13011600e-01
       25 -1    0    0    0    0 +0.0000000000e+00 +0.0000000000e+00 +9.9999998245e-15 1.2500000000e+02 1.2500000000e+02 0.0000e+00 0.0000e+00
      -13  1    1    0    0    0 +1.4744333508e+01 -2.6166319131e+01 +5.4424718468e+01 6.2162149028e+01 1.0566000000e-01 0.0000e+00 1.0000e+00
       13  1    1    0    0    0 -1.5949895708e+01 +2.3779120878e+01 -5.1052819954e+01 5.8534155431e+01 1.0566000000e-01 0.0000e+00 1.0000e+00
       22  1    1    0    0    0 +1.2055622004e+00 +2.3871982530e+00 -3.3718985142e+00 4.3036955408e+00 0.0000000000e+00 0.0000e+00 1.0000e+00
</event>
<event>
 4      1 +2.4041262e-06 9.11880000e+01 7.81860800e-03 1.13011600e-01
       25 -1    0    0    0    0 +0.0000000000e+00 +0.0000000000e+00 +9.9999998245e-15 1.2500000000e+02 1.2500000000e+02 0.0000e+00 0.0000e+00
      -13  1    1    0    0    0 +2.8711973760e+01 -3.5786212344e+01 +4.2440645646e+01 6.2499999984e+01 1.0566000000e-01 0.0000e+00 1.0000e+00
       13  1    1    0    0    0 -2.8711973184e+01 +3.5786211498e+01 -4.2440644268e+01 6.2499998299e+01 1.0566000000e-01 0.0000e+00 1.0000e+00
       22  1    1    0    0    0 -5.7632766104e-07 +8.4559353148e-07 -1.3781892512e-06 1.7165627298e-06 0.0000000000e+00 0.0000e+00 -1.0000e+00
</event>
<event>
 4      1 +2.4041262e-06 9.11880000e+01 7.81860800e-03 1.13011600e-01
       25 -1    0    0    0    0 +0.0000000000e+00 +0.0000000000e+00 +9.9999998245e-15 1.2500000000e+02 1.2500000000e+02 0.0000e+00 0.0000e+00
      -13  1    1    0    0    0 +5.2419054345e+01 -1.4653125520e+01 +3.0692246399e+01 6.2485970417e+01 1.0566000000e-01 0.0000e+00 -1.0000e+00
       13  1    1    0    0    0 -5.2430930292e+01 +1.4656304728e+01 -3.0699006897e+01 6.2499999265e+01 1.0566000000e-01 0.0000e+00 -1.0000e+00
       22  1    1    0    0    0 +1.1875946874e-02 -3.1792078774e-03 +6.7604984756e-03 1.4030317763e-02 0.0000000000e+00 0.0000e+00 1.0000e+00
</event>
<event>
 4      1 +2.4041262e-06 9.11880000e+01 7.81860800e-03 1.13011600e-01
       25 -1    0    0    0    0 +0.0000000000e+00 +0.0000000000e+00 +9.9999998245e-15 1.2500000000e+02 1.2500000000e+02 0.0000e+00 0.0000e+00
      -13  1    1    0    0    0 -7.4040163593e+00 -1.5816606006e+01 +5.9636710854e+01 6.2141233729e+01 1.0566000000e-01 0.0000e+00 -1.0000e+00
       13  1    1    0    0    0 -1.2198806871e+00 +4.0043206978e+00 -6.3882601726e+00 7.6383064360e+00 1.0566000000e-01 0.0000e+00 1.0000e+00
       22  1    1    0    0    0 +8.6238970464e+00 +1.1812285308e+01 -5.3248450681e+01 5.5220459835e+01 0.0000000000e+00 0.0000e+00 -1.0000e+00
</event>
<event>
 4      1 +2.4041262e-06 9.11880000e+01 7.81860800e-03 1.13011600e-01
       25 -1    0    0    0    0 +0.0000000000e+00 +0.0000000000e+00 +9.9999998245e-15 1.2500000000e+02 1.2500000000e+02 0.0000e+00 0.0000e+00
      -13  1    1    0    0    0 +1.3877230966e+01 -7.0627884584e-01 +6.0935659366e+01 6.2499936924e+01 1.0566000000e-01 0.0000e+00 -1.0000e+00
       13  1    1    0    0    0 -1.3877244809e+01 +7.0628032080e-01 -6.0935720889e+01 6.2499999998e+01 1.0566000000e-01 0.0000e+00 -1.0000e+00
       22  1    1    0    0    0 +1.3842305174e-05 -1.4749625907e-06 +6.1523283495e-05 6.3078517256e-05 0.0000000000e+00 0.0000e+00 -1.0000e+00
</event>
<event>
 4      1 +2.4041262e-06 9.11880000e+01 7.81860800e-03 1.13011600e-01
       25 -1    0    0    0    0 +0.0000000000e+00 +0.0000000000e+00 +9.9999998245e-15 1.2500000000e+02 1.2500000000e+02 0.0000e+00 0.0000e+00
      -13  1    1    0    0    0 -2.3672023743e+01 +4.6698701476e+01 +3.4133636707e+01 6.2499997972e+01 1.0566000000e-01 0.0000e+00 1.0000e+00
       13  1    1    0    0    0 +2.3672024534e+01 -4.6698702981e+01 -3.4133637812e+01 6.2500000000e+01 1.0566000000e-01 0.0000e+00 1.0000e+00
       22  1    1    0    0    0 -7.9090971774e-07 +1.5053124215e-06 +1.1048832228e-06 2.0278734191e-06 0.0000000000e+00 0.0000e+00 1.0000e+00
</event>
<event>
 4      1 +2.4041262e-06 9.11880000e+01 7.81860800e-03 1.13011600e-01
       25 -1    0    0    0    0 +0.0000000000e+00 +0.0000000000e+00 +9.9999998245e-15 1.2500000000e+02 1.2500000000e+02 0.0000e+00 0.0000e+00
      -13  1    1    0    0    0 +9.4177160367e-01 -3.6475049740e+01 -3.2459563461e+00 3.6631456208e+01 1.0566000000e-01 0.0000e+00 1.0000e+00
       13  1    1    0    0    0 -1.1827238016e+00 -2.4195723566e+01 -1.0101259846e+01 2.6246494794e+01 1.0566000000e-01 0.0000e+00 -1.0000e+00
       22  1    1    0    0    0 +2.4095219795e-01 +6.0670773306e+01 +1.3347216193e+01 6.2122048997e+01 0.0000000000e+00 0.0000e+00 -1.0000e+00
</event>
<event>
 4      1 +2.4041262e-06 9.11880000e+01 7.81860800e-03 1.13011600e-01
       25 -1    0    0    0    0 +0.0000000000e+00 +0.0000000000e+00 +9.9999998245e-15 1.2500000000e+02 1.2500000000e+02 0.0000e+00 0.0000e+00
      -13  1    1    0    0    0 -1.4869999823e+01 -1.9173676958e+01 -7.0702838755e+00 2.5273441810e+01 1.0566000000e-01 0.0000e+00 1.0000e+00
       13  1    1    0    0    0 -1.5844972713e+01 -5.4397912988e+00 -3.7013412820e+01 4.0628295340e+01 1.0566000000e-01 0.0000e+00 -1.0000e+00
       22  1    1    0    0    0 +3.0714972536e+01 +2.4613468256e+01 +4.4083696696e+01 5.9098262850e+01 0.0000000000e+00 0.0000e+00 -1.0000e+00
</event>
<event>
 4      1 +2.4041262e-06 9.11880000e+01 7.81860800e-03 1.13011600e-01
       25 -1    0    0    0    0 +0.0000000000e+00 +0.0000000000e+00 +9.9999998245e-15 1.2500000000e+02 1.2500000000e+02 0.0000e+00 0.0000e+00
      -13  1    1    0    0    0 -3.7489744432e+01 -3.7638686878e+01 +3.2925467378e+01 6.2499994029e+01 1.0566000000e-01 0.0000e+00 1.0000e+00
       13  1    1    0    0    0 +3.6552527717e+01 +3.6700829585e+01 -3.2109543129e+01 6.0943187468e+01 1.0566000000e-01 0.0000e+00 1.0000e+00
       22  1    1    0    0    0 +9.3721671481e-01 +9.3785729370e-01 -8.1592424865e-01 1.5568185037e+00 0.0000000000e+00 0.0000e+00 1.0000e+00
</event>
<event>
 4      1 +2.4041262e-06 9.11880000e+01 7.81860800e-03 1.13011600e-01
       25 -1    0    0    0    0 +0.0000000000e+00 +0.0000000000e+00 +9.9999998245e-15 1.2500000000e+02 1.2500000000e+02 0.0000e+00 0.0000e+00
      -13  1    1    0    0    0 +3.7701684308e+01 -2.4291089516e+01 -3.3590852767e+01 5.6034191198e+01 1.0566000000e-01 0.0000e+00 -1.0000e+00
       13  1    1    0    0    0 +6.4029254915e+00 -9.9808597526e-01 +1.2187581659e+01 1.3803693027e+01 1.0566000000e-01 0.0000e+00 1.0000e+00
       22  1    1    0    0    0 -4.4104609800e+01 +2.5289175491e+01 +2.1403271108e+01 5.5162115775e+01 0.0000000000e+00 0.0000e+00 -1.0000e+00
</event>
<event>
 4      1 +2.4041262e-06 9.11880000e+01 7.81860800e-03 1.13011600e-01
       25 -1    0    0    0    0 +0.0000000000e+00 +0.0000000000e+00 +9.9999998245e-15 1.2500000000e+02 1.2500000000e+02 0.0000e+00 0.0000e+00
      -11  1    1    0    0    0 +3.6711062926e+01 +5.3233378070e+00 -2.6449422981e+01 4.5558885443e+01 5.1100000000e-04 0.0000e+00 -1.0000e+00
       11  1    1    0    0    0 +1.3672946274e+01 +1.9749058132e+00 -9.8057202550e+00 1.6941129324e+01 5.1100000000e-04 0.0000e+00 1.0000e+00
       22  1    1    0    0    0 -5.0384009200e+01 -7.2982436202e+00 +3.6255143236e+01 6.2499985233e+01 0.0000000000e+00 0.0000e+00 -1.0000e+00
</event>
<event>
 4      1 +2.4041262e-06 9.11880000e+01 7.81860800e-03 1.13011600e-01
       25 -1    0    0    0    0 +0.0000000000e+00 +0.0000000000e+00 +9.9999998245e-15 1.2500000000e+02 1.2500000000e+02 0.0000e+00 0.0000e+00
      -13  1    1    0    0    0 -2.7063351383e+01 +5.1013161129e+01 -2.3905362470e+01 6.2499960923e+01 1.0566000000e-01 0.0000e+00 -1.0000e+00
       13  1    1    0    0    0 +2.7063402685e+01 -5.1013144938e+01 +2.3905387808e+01 6.2499979613e+01 1.0566000000e-01 0.0000e+00 -1.0000e+00
       22  1    1    0    0    0 -5.1301539299e-05 -1.6191594430e-05 -2.5338468557e-05 5.9464726129e-05 0.0000000000e+00 0.0000e+00 1.0000e+00
</event>
<event>
 4      1 +2.4041262e-06 9.11880000e+01 7.81860800e-03 1.13011600e-01
       25 -1    0    0    0    0 +0.0000000000e+00 +0.0000000000e+00 +9.9999998245e-15 1.2500000000e+02 1.2500000000e+02 0.0000e+00 0.0000e+00
      -11  1    1    0    0    0 -1.7861412366e+01 +3.7862318714e+01 +7.2904948162e+00 4.2493958924e+01 5.1100000000e-04 0.0000e+00 -1.0000e+00
       11  1    1    0    0    0 -5.4198922136e+00 +1.8297302955e+01 -1.0208242405e+01 2.1641967108e+01 5.1100000000e-04 0.0000e+00 1.0000e+00
       22  1    1    0    0    0 +2.3281304580e+01 -5.6159621669e+01 +2.9177475883e+00 6.0864073968e+01 0.0000000000e+00 0.0000e+00 1.0000e+00
</event>
<event>
 5      1 +2.4041262e-06 9.11880000e+01 7.81860800e-03 1.13011600e-01
       25 -1    0    0    0    0 +0.0000000000e+00 +0.0000000000e+00 +9.9999998245e-15 1.2500000000e+02 1.2500000000e+02 0.0000e+00 0.0000e+00
       23  2    1    0    0    0 +2.7049704266e+01 +5.8921838525e+00 +8.1276123864e+00 9.6147575240e+01 9.1716377000e+01 0.0000e+00 0.0000e+00
      -11  1    2    2    0    0 +3.5911417536e+01 -3.6066552897e+01 -5.3959150129e+00 5.1181461941e+01 5.1100000000e-04 0.0000e+00 -1.0000e+00
       11  1    2    2    0    0 -8.8617132703e+00 +4.1958736749e+01 +1.3523527399e+01 4.4966113299e+01 5.1100000000e-04 0.0000e+00 1.0000e+00
       22  1    1    0    0    0 -2.7049704266e+01 -5.8921838525e+00 -8.1276123864e+00 2.8852424760e+01 0.0000000000e+00 0.0000e+00 -1.0000e+00
</event>
<event>
 4      1 +2.4041262e-06 9.11880000e+01 7.81860800e-03 1.13011600e-01
       25 -1    0    0    0    0 +0.0000000000e+00 +0.0000000000e+00 +9.9999998245e-15 1.2500000000e+02 1.2500000000e+02 0.0000e+00 0.0000e+00
      -13  1    1    0    0    0 -6.0785674928e+01 +5.0349757898e+00 -1.3637784213e+01 6.2499996639e+01 1.0566000000e-01 0.0000e+00 -1.0000e+00
       13  1    1    0    0    0 +6.0785678192e+01 -5.0349760482e+00 +1.3637784968e+01 6.2500000000e+01 1.0566000000e-01 0.0000e+00 -1.0000e+00
       22  1    1    0    0    0 -3.2647906628e-06 +2.5842876893e-07 -7.5544942661e-07 3.3610039180e-06 0.0000000000e+00 0.0000e+00 1.0000e+00
</event>
<event>
 4      1 +2.4041262e-06 9.11880000e+01 7.81860800e-03 1.13011600e-01
       25 -1    0    0    0    0 +0.0000000000e+00 +0.0000000000e+00 +9.9999998245e-15 1.2500000000e+02 1.2500000000e+02 0.0000e+00 0.0000e+00
      -13  1    1    0    0    0 -1.1574363880e+01 -3.5586199647e+01 +4.9973544674e+01 6.2431641304e+01 1.0566000000e-01 0.0000e+00 1.0000e+00
       13  1    1    0    0    0 +1.1580306111e+01 +3.5666336612e+01 -4.9984542759e+01 6.2487252586e+01 1.0566000000e-01 0.0000e+00 1.0000e+00
       22  1    1    0    0    0 -5.9422318034e-03 -8.0136965009e-02 +1.0998084445e-02 8.1106110381e-02 0.0000000000e+00 0.0000e+00 -1.0000e+00
</event>
<event>
 4      1 +2.4041262e-06 9.11880000e+01 7.81860800e-03 1.13011600e-01
       25 -1    0    0    0    0 +0.0000000000e+00 +0.0000000000e+00 +9.9999998245e-15 1.2500000000e+02 1.2500000000e+02 0.0000e+00 0.0000e+00
      -13  1    1    0    0    0 -1.2484688739e+00 +1.8828444373e+01 -9.3819285361e+00 2.1073697804e+01 1.0566000000e-01 0.0000e+00 1.0000e+00
       13  1    1    0    0    0 +6.2164161530e+00 +2.9717726042e+01 -2.8889360358e+01 4.1909347130e+01 1.0566000000e-01 0.0000e+00 -1.0000e+00
       22  1    1    0    0    0 -4.9679472791e+00 -4.8546170415e+01 +3.8271288895e+01 6.2016955067e+01 0.0000000000e+00 0.0000e+00 -1.0000e+00
</event>
<event>
 4      1 +2.4041262e-06 9.11880000e+01 7.81860800e-03 1.13011600e-01
       25 -1    0    0    0    0 +0.0000000000e+00 +0.0000000000e+00 +9.9999998245e-15 1.2500000000e+02 1.2500000000e+02 0.0000e+00 0.0000e+00
      -13  1    1    0    0    0 +5.8693825260e+01 +1.8026303614e+01 -1.1675876417e+01 6.2499999999e+01 1.0566000000e-01 0.0000e+00 1.0000e+00
       13  1    1    0    0    0 -5.8693825074e+01 -1.8026303553e+01 +1.1675876411e+01 6.2499999805e+01 1.0566000000e-01 0.0000e+00 1.0000e+00
       22  1    1    0    0    0 -1.8672044737e-07 -6.1236894077e-08 +5.8302993268e-09 1.9659215410e-07 0.0000000000e+00 0.0000e+00 -1.0000e+00
</event>
<event>
 4      1 +2.4041262e-06 9.11880000e+01 7.81860800e-03 1.13011600e-01
       25 -1    0    0    0    0 +0.0000000000e+00 +0.0000000000e+00 +9.9999998245e-15 1.2500000000e+02 1.2500000000e+02 0.0000e+00 0.0000e+00
      -13  1    1    0    0    0 -4.0522320102e+01 -4.7480684909e+01 +3.1242855449e+00 6.2499969521e+01 1.0566000000e-01 0.0000e+00 -1.0000e+00
       13  1    1    0    0    0 +4.0521698033e+01 +4.7480335966e+01 -3.1244059778e+00 6.2499307130e+01 1.0566000000e-01 0.0000e+00 -1.0000e+00
       22  1    1    0    0    0 +6.2206894535e-04 +3.4894292054e-04 +1.2043293597e-04 7.2334986461e-04 0.0000000000e+00 0.0000e+00 -1.0000e+00
</event>
<event>
 4      1 +2.4041262e-06 9.11880000e+01 7.81860800e-03 1.13011600e-01
       25 -1    0    0    0    0 +0.0000000000e+00 +0.0000000000e+00 +9.9999998245e-15 1.2500000000e+02 1.2500000000e+02 0.0000e+00 0.0000e+00
      -13  1    1    0    0    0 -5.7977984253e+01 +2.1108262999e+01 +9.8787127445e+00 6.2486843050e+01 1.0566000000e-01 0.0000e+00 -1.0000e+00
       13  1    1    0    0    0 +5.7990201740e+01 -2.1112724224e+01 -9.8806978775e+00 6.2499999812e+01 1.0566000000e-01 0.0000e+00 -1.0000e+00
       22  1    1    0    0    0 -1.2217487104e-02 +4.4612245947e-03 +1.9851330462e-03 1.3157137577e-02 0.0000000000e+00 0.0000e+00 1.0000e+00
</event>
<event>
 4      1 +2.4041262e-06 9.11880000e+01 7.81860800e-03 1.13011600e-01
       25 -1    0    0    0    0 +0.0000000000e+00 +0.0000000000e+00 +9.9999998245e-15 1.2500000000e+02 1.2500000000e+02 0.0000e+00 0.0000e+00
      -13  1    1    0    0    0 +3.3141164427e+01 -1.2842704954e+01 -5.1409793367e+01 6.2499998945e+01 1.0566000000e-01 0.0000e+00 1.0000e+00
       13  1    1    0    0    0 -3.3141156937e+01 +1.2842692256e+01 +5.1409764188e+01 6.2499968363e+01 1.0566000000e-01 0.0000e+00 1.0000e+00
       22  1    1    0    0    0 -7.4907072750e-06 +1.2697783547e-05 +2.9178233672e-05 3.2691187233e-05 0.0000000000e+00 0.0000e+00 1.0000e+00
</event>
<event>
 4      1 +2.4041262e-06 9.11880000e+01 7.81860800e-03 1.13011600e-01
       25 -1    0    0    0    0 +0.0000000000e+00 +0.0000000000e+00 +9.9999998245e-15 1.2500000000e+02 1.2500000000e+02 0.0000e+00 0.0000e+00
      -13  1    1    0    0    0 -4.0075918574e+00 -3.7405725279e+00 +3.2639807636e-02 5.4831473375e+00 1.0566000000e-01 0.0000e+00 1.0000e+00
       13  1    1    0    0    0 -4.1739977267e+01 -3.8742660889e+01 -2.8646186783e+00 5.7021370373e+01 1.0566000000e-01 0.0000e+00 -1.0000e+00
       22  1    1    0    0    0 +4.5747569124e+01 +4.2483233417e+01 +2.8319788707e+00 6.2495482290e+01 0.0000000000e+00 0.0000e+00 -1.0000e+00
</event>
<event>
 4      1 +2.4041262e-06 9.11880000e+01 7.81860800e-03 1.13011600e-01
       25 -1    0    0    0    0 +0.0000000000e+00 +0.0000000000e+00 +9.9999998245e-15 1.2500000000e+02 1.2500000000e+02 0.0000e+00 0.0000e+00
      -11  1    1    0    0    0 +5.4904566024e+00 -3.1810273979e+00 -1.6031976800e+01 1.7242051194e+01 5.1100000000e-04 0.0000e+00 1.0000e+00
       11  1    1    0    0    0 +1.4003267970e+01 -8.6572642583e+00 -4.2157787448e+01 4.5258355925e+01 5.1100000000e-04 0.0000e+00 -1.0000e+00
       22  1    1    0    0    0 -1.9493724572e+01 +1.1838291656e+01 +5.8189764248e+01 6.2499592881e+01 0.0000000000e+00 0.0000e+00 -1.0000e+00
</event>
<event>
 4      1 +2.4041262e-06 9.11880000e+01 7.81860800e-03 1.13011600e-01
       25 -1    0    0    0    0 +0.0000000000e+00 +0.0000000000e+00 +9.9999998245e-15 1.2500000000e+02 1.2500000000e+02 0.0000e+00 0.0000e+00
      -13  1    1    0    0    0 +2.1942123427e+00 -3.6503110663e+00 +6.2354625849e+01 6.2499998940e+01 1.0566000000e-01 0.0000e+00 1.0000e+00
       13  1    1    0    0    0 -2.1942123832e+00 +3.6503109881e+00 -6.2354626910e+01 6.2499999995e+01 1.0566000000e-01 0.0000e+00 1.0000e+00
       22  1    1    0    0    0 +4.0470027536e-08 +7.8201945028e-08 +1.0614102122e-06 1.0650563393e-06 0.0000000000e+00 0.0000e+00 1.0000e+00
</event>
<event>
 4      1 +2.4041262e-06 9.11880000e+01 7.81860800e-03 1.13011600e-01
       25 -1    0    0    0    0 +0.0000000000e+00 +0.0000000000e+00 +9.9999998245e-15 1.2500000000e+02 1.2500000000e+02 0.0000e+00 0.0000e+00
      -13  1    1    0    0    0 -2.5197008149e+01 -5.4099246945e+01 +1.8563973055e+01 6.2499999994e+01 1.0566000000e-01 0.0000e+00 1.0000e+00
       13  1    1    0    0    0 +2.5197008151e+01 +5.4099246950e+01 -1.8563973057e+01 6.2500000000e+01 1.0566000000e-01 0.0000e+00 1.0000e+00
       22  1    1    0    0    0 -2.2831040962e-09 -4.9480187504e-09 +1.5774544326e-09 5.6730782081e-09 0.0000000000e+00 0.0000e+00 -1.0000e+00
</event>
<event>
 4      1 +2.4041262e-06 9.11880000e+01 7.81860800e-03 1.13011600e-01
       25 -1    0    0    0    0 +0.0000000000e+00 +0.0000000000e+00 +9.9999998245e-15 1.2500000000e+02 1.2500000000e+02 0.0000e+00 0.0000e+00
      -13  1    1    0    0    0 -1.9033830570e+01 -3.1030635565e+01 +5.0804052498e+01 6.2499999712e+01 1.0566000000e-01 0.0000e+00 -1.0000e+00
       13  1    1    0    0    0 +1.9033830709e+01 +3.1030635688e+01 -5.0804052722e+01 6.2499999997e+01 1.0566000000e-01 0.0000e+00 -1.0000e+00
       22  1    1    0    0    0 -1.3904554095e-07 -1.2337585473e-07 +2.2375013522e-07 2.9089411648e-07 0.0000000000e+00 0.0000e+00 -1.0000e+00
</event>
<event>
 4      1 +2.4041262e-06 9.11880000e+01 7.81860800e-03 1.13011600e-01
       25 -1    0    0    0    0 +0.0000000000e+00 +0.0000000000e+00 +9.9999998245e-15 1.2500000000e+02 1.2500000000e+02 0.0000e+00 0.0000e+00
      -13  1    1    0    0    0 +6.0293645259e+01 -1.4759931648e+01 +7.2840752256e+00 6.2499985254e+01 1.0566000000e-01 0.0000e+00 1.0000e+00
       13  1    1    0    0    0 -6.0293657636e+01 +1.4759938085e+01 -7.2840651563e+00 6.2499997541e+01 1.0566000000e-01 0.0000e+00 1.0000e+00
       22  1    1    0    0    0 +1.2377087925e-05 -6.4368938213e-06 -1.0069249138e-05 1.7205106386e-05 0.0000000000e+00 0.0000e+00 -1.0000e+00
</event>
<event>
 5      1 +2.4041262e-06 9.11880000e+01 7.81860800e-03 1.13011600e-01
       25 -1    0    0    0    0 +0.0000000000e+00 +0.0000000000e+00 +9.9999998245e-15 1.2500000000e+02 1.2500000000e+02 0.0000e+00 0.0000e+00
       23  2    1    0    0    0 -2.9091492497e+01 +3.0992824880e+00 +5.9428596282e+00 9.5146389361e+01 9.0341559319e+01 0.0000e+00 0.0000e+00
      -11  1    2    2    0    0 -6.0601088570e+01 -7.4429145546e+00 -1.5886473094e+00 6.1077104658e+01 5.1100000000e-04 0.0000e+00 -1.0000e+00
       11  1    2    2    0    0 +3.1509596073e+01 +1.0542197043e+01 +7.5315069376e+00 3.4069284703e+01 5.1100000000e-04 0.0000e+00 1.0000e+00
       22  1    1    0    0    0 +2.9091492497e+01 -3.0992824880e+00 -5.9428596282e+00 2.9853610639e+01 0.0000000000e+00 0.0000e+00 -1.0000e+00
</event>
<event>
 4      1 +2.4041262e-06 9.11880000e+01 7.81860800e-03 1.13011600e-01
       25 -1    0    0    0    0 +0.0000000000e+00 +0.0000000000e+00 +9.9999998245e-15 1.2500000000e+02 1.2500000000e+02 0.0000e+00 0.0000e+00
      -11  1    1    0    0    0 +3.5614209378e+01 -2.8780761725e+01 +3.1427604149e+01 5.5537360920e+01 5.1100000000e-04 0.0000e+00 1.0000e+00
       11  1    1    0    0    0 +2.4752503346e+00 -8.3076885632e+00 -2.9801923456e+00 9.1665751598e+00 5.1100000000e-04 0.0000e+00 -1.0000e+00
       22  1    1    0    0    0 -3.8089459713e+01 +3.7088450289e+01 -2.8447411803e+01 6.0296063921e+01 0.0000000000e+00 0.0000e+00 1.0000e+00
</event>
<event>
 4      1 +2.4041262e-06 9.11880000e+01 7.81860800e-03 1.13011600e-01
       25 -1    0    0    0    0 +0.0000000000e+00 +0.0000000000e+00 +9.9999998245e-15 1.2500000000e+02 1.2500000000e+02 0.0000e+00 0.0000e+00
      -11  1    1    0    0    0 -2.1716096758e+01 -3.4922339401e+01 -1.1886606247e+01 4.2807126229e+01 5.1100000000e-04 0.0000e+00 -1.0000e+00
       11  1    1    0    0    0 -9.9943190231e+00 -1.6062460728e+01 -5.4699387511e+00 1.9692874030e+01 5.1100000000e-04 0.0000e+00 1.0000e+00
       22  1    1    0    0    0 +3.1710415782e+01 +5.0984800129e+01 +1.7356544998e+01 6.2499999740e+01 0.0000000000e+00 0.0000e+00 -1.0000e+00
</event>
<event>
 4      1 +2.4041262e-06 9.11880000e+01 7.81860800e-03 1.13011600e-01
       25 -1    0    0    0    0 +0.0000000000e+00 +0.0000000000e+00 +9.9999998245e-15 1.2500000000e+02 1.2500000000e+02 0.0000e+00 0.0000e+00
      -13  1    1    0    0    0 +4.4560334808e+01 +4.1391550890e+01 +1.4399699244e+01 6.2499971405e+01 1.0566000000e-01 0.0000e+00 -1.0000e+00
       13  1    1    0    0    0 -4.4522556526e+01 -4.1353026826e+01 -1.4386906564e+01 6.2444576320e+01 1.0566000000e-01 0.0000e+00 -1.0000e+00
       22  1    1    0    0    0 -3.7778282163e-02 -3.8524063782e-02 -1.2792679440e-02 5.5452274442e-02 0.0000000000e+00 0.0000e+00 1.0000e+00
</event>
<event>
 4      1 +2.4041262e-06 9.11880000e+01 7.81860800e-03 1.13011600e-01
       25 -1    0    0    0    0 +0.0000000000e+00 +0.0000000000e+00 +9.9999998245e-15 1.2500000000e+02 1.2500000000e+02 0.0000e+00 0.0000e+00
      -13  1    1    0    0    0 +5.3734893531e+01 -3.1241634496e+01 +6.5390725489e+00 6.2499993141e+01 1.0566000000e-01 0.0000e+00 1.0000e+00
       13  1    1    0    0    0 -5.3734899403e+01 +3.1241637960e+01 -6.5390733029e+00 6.2500000000e+01 1.0566000000e-01 0.0000e+00 1.0000e+00
       22  1    1    0    0    0 +5.8714196889e-06 -3.4640672638e-06 +7.5405311532e-07 6.8587117793e-06 0.0000000000e+00 0.0000e+00 1.0000e+00
</event>
<event>
 4      1 +2.4041262e-06 9.11880000e+01 7.81860800e-03 1.13011600e-01
       25 -1    0    0    0    0 +0.0000000000e+00 +0.0000000000e+00 +9.9999998245e-15 1.2500000000e+02 1.2500000000e+02 0.0000e+00 0.0000e+00
      -11  1    1    0    0    0 +3.0045430113e+00 +2.2347154440e+01 +9.2971586769e+00 2.4389746821e+01 5.1100000000e-04 0.0000e+00 -1.0000e+00
       11  1    1    0    0    0 -6.5748019728e+00 +3.7079940614e+01 -1.5562393654e+01 4.0747246698e+01 5.1100000000e-04 0.0000e+00 1.0000e+00
       22  1    1    0    0    0 +3.5702589614e+00 -5.9427095054e+01 +6.2652349774e+00 5.9863006481e+01 0.0000000000e+00 0.0000e+00 1.0000e+00
</event>
<event>
 4      1 +2.4041262e-06 9.11880000e+01 7.81860800e-03 1.13011600e-01
       25 -1    0    0    0    0 +0.0000000000e+00 +0.0000000000e+00 +9.9999998245e-15 1.2500000000e+02 1.2500000000e+02 0.0000e+00 0.0000e+00
      -13  1    1    0    0    0 +5.1195352370e+01 +2.9331100230e+01 +1.9204469173e+01 6.2049176830e+01 1.0566000000e-01 0.0000e+00 -1.0000e+00
       13  1    1    0    0    0 -4.2016584211e+01 -2.8159162542e+01 -1.4787368762e+01 5.2697336012e+01 1.0566000000e-01 0.0000e+00 -1.0000e+00
       22  1    1    0    0    0 -9.1787681591e+00 -1.1719376876e+00 -4.4171004114e+00 1.0253487158e+01 0.0000000000e+00 0.0000e+00 -1.0000e+00
</event>
<event>
 5      1 +2.4041262e-06 9.11880000e+01 7.81860800e-03 1.13011600e-01
       25 -1    0    0    0    0 +0.0000000000e+00 +0.0000000000e+00 +9.9999998245e-15 1.2500000000e+02 1.2500000000e+02 0.0000e+00 0.0000e+00
       23  2    1    0    0    0 -4.9070481189e+00 +5.9497343486e+00 -2.9216253633e+01 9.4782985978e+01 8.9837333523e+01 0.0000e+00 0.0000e+00
      -13  1    2    2    0    0 -3.2219881097e+01 +2.5863529604e+01 -4.1744850960e+01 5.8734033125e+01 1.0566000000e-01 0.0000e+00 1.0000e+00
       13  1    2    2    0    0 +2.7312832978e+01 -1.9913795256e+01 +1.2528597327e+01 3.6048952853e+01 1.0566000000e-01 0.0000e+00 -1.0000e+00
       22  1    1    0    0    0 +4.9070481189e+00 -5.9497343486e+00 +2.9216253633e+01 3.0217014022e+01 0.0000000000e+00 0.0000e+00 1.0000e+00
</event>
<event>
 5      1 +2.4041262e-06 9.11880000e+01 7.81860800e-03 1.13011600e-01
       25 -1    0    0    0    0 +0.0000000000e+00 +0.0000000000e+00 +9.9999998245e-15 1.2500000000e+02 1.2500000000e+02 0.0000e+00 0.0000e+00
       23  2    1    0    0    0 +2.2653922852e+01 +6.6961348898e+00 -1.7143869354e+01 9.5811805478e+01 9.1257609926e+01 0.0000e+00 0.0000e+00
      -13  1    2    2    0    0 +3.2453376761e+01 +2.0666235439e+01 -4.7415325941e+01 6.1061765849e+01 1.0566000000e-01 0.0000e+00 -1.0000e+00
       13  1    2    2    0    0 -9.7994539092e+00 -1.3970100549e+01 +3.0271456587e+01 3.4750039629e+01 1.0566000000e-01 0.0000e+00 1.0000e+00
       22  1    1    0    0    0 -2.2653922852e+01 -6.6961348898e+00 +1.7143869354e+01 2.9188194522e+01 0.0000000000e+00 0.0000e+00 -1.0000e+00
</event>
<event>
 4      1 +2.4041262e-06 9.11880000e+01 7.81860800e-03 1.13011600e-01
       25 -1    0    0    0    0 +0.0000000000e+00 +0.0000000000e+00 +9.9999998245e-15 1.2500000000e+02 1.2500000000e+02 0.0000e+00 0.0000e+00
      -13  1    1    0    0    0 -4.8834479996e+01 +9.5662992958e+00 +3.7814260749e+01 6.2499999990e+01 1.0566000000e-01 0.0000e+00 1.0000e+00
       13  1    1    0    0    0 +4.8834480004e+01 -9.5662992973e+00 -3.7814260756e+01 6.2500000000e+01 1.0566000000e-01 0.0000e+00 1.0000e+00
       22  1    1    0    0    0 -7.7743069317e-09 +1.4806534730e-09 +6.3383422004e-09 1.0139367082e-08 0.0000000000e+00 0.0000e+00 1.0000e+00
</event>
<event>
 4      1 +2.4041262e-06 9.11880000e+01 7.81860800e-03 1.13011600e-01
       25 -1    0    0    0    0 +0.0000000000e+00 +0.0000000000e+00 +9.9999998245e-15 1.2500000000e+02 1.2500000000e+02 0.0000e+00 0.0000e+00
      -13  1    1    0    0    0 +2.8205413353e+01 +5.1886503887e+01 +2.0456882558e+01 6.2499998688e+01 1.0566000000e-01 0.0000e+00 -1.0000e+00
       13  1    1    0    0    0 -2.8205413933e+01 -5.1886504976e+01 -2.0456883002e+01 6.2500000000e+01 1.0566000000e-01 0.0000e+00 -1.0000e+00
       22  1    1    0    0    0 +5.8022393720e-07 +1.0895011919e-06 +4.4400418776e-07 1.3117973865e-06 0.0000000000e+00 0.0000e+00 1.0000e+00
</event>
<event>
 4      1 +2.4041262e-06 9.11880000e+01 7.81860800e-03 1.13011600e-01
       25 -1    0    0    0    0 +0.0000000000e+00 +0.0000000000e+00 +9.9999998245e-15 1.2500000000e+02 1.2500000000e+02 0.0000e+00 0.0000e+00
      -13  1    1    0    0    0 +6.0074220316e+01 -1.0291173600e+01 +1.2832748305e+01 6.2285719019e+01 1.0566000000e-01 0.0000e+00 -1.0000e+00
       13  1    1    0    0    0 -5.1592164906e+01 +8.2321800768e+00 -1.3498476526e+01 5.3960543929e+01 1.0566000000e-01 0.0000e+00 -1.0000e+00
       22  1    1    0    0    0 -8.4820554099e+00 +2.0589935229e+00 +6.6572822082e-01 8.7537370516e+00 0.0000000000e+00 0.0000e+00 -1.0000e+00
</event>
<event>
 4      1 +2.4041262e-06 9.11880000e+01 7.81860800e-03 1.13011600e-01
       25 -1    0    0    0    0 +0.0000000000e+00 +0.0000000000e+00 +9.9999998245e-15 1.2500000000e+02 1.2500000000e+02 0.0000e+00 0.0000e+00
      -11  1    1    0    0    0 -8.2537372597e-01 -3.3658400336e+00 +1.4035906733e-01 3.4684033572e+00 5.1100000000e-04 0.0000e+00 1.0000e+00
       11  1    1    0    0    0 -1.3814884315e+01 -5.7335793213e+01 +2.5470491586e+00 5.9031615865e+01 5.1100000000e-04 0.0000e+00 -1.0000e+00
       22  1    1    0    0    0 +1.4640258041e+01 +6.0701633246e+01 -2.6874082259e+00 6.2499980778e+01 0.0000000000e+00 0.0000e+00 -1.0000e+00
</event>
<event>
 4      1 +2.4041262e-06 9.11880000e+01 7.81860800e-03 1.13011600e-01
       25 -1    0    0    0    0 +0.0000000000e+00 +0.0000000000e+00 +9.9999998245e-15 1.2500000000e+02 1.2500000000e+02 0.0000e+00 0.0000e+00
      -13  1    1    0    0    0 -4.3772189192e+01 +3.9525113291e+01 -2.0688101610e+01 6.2499982717e+01 1.0566000000e-01 0.0000e+00 -1.0000e+00
       13  1    1    0    0    0 +4.3394727303e+01 -3.9187911629e+01 +2.0504871106e+01 6.1961727532e+01 1.0566000000e-01 0.0000e+00 -1.0000e+00
       22  1    1    0    0    0 +3.7746188895e-01 -3.3720166222e-01 +1.8323050373e-01 5.3828975108e-01 0.0000000000e+00 0.0000e+00 -1.0000e+00
</event>
<event>
 5      1 +2.4041262e-06 9.11880000e+01 7.81860800e-03 1.13011600e-01
       25 -1    0    0    0    0 +0.0000000000e+00 +0.0000000000e+00 +9.9999998245e-15 1.2500000000e+02 1.2500000000e+02 0.0000e+00 0.0000e+00
       23  2    1    0    0    0 +8.6208124735e+00 -2.0907866943e+01 -2.0349421594e+01 9.4577043749e+01 8.9550326282e+01 0.0000e+00 0.0000e+00
      -13  1    2    2    0    0 +9.3422726106e+00 +2.9696521565e+01 -2.9796797452e+01 4.3093175249e+01 1.0566000000e-01 0.0000e+00 -1.0000e+00
       13  1    2    2    0    0 -7.2146013716e-01 -5.0604388509e+01 +9.4473758579e+00 5.1483868500e+01 1.0566000000e-01 0.0000e+00 1.0000e+00
       22  1    1    0    0    0 -8.6208124735e+00 +2.0907866943e+01 +2.0349421594e+01 3.0422956251e+01 0.0000000000e+00 0.0000e+00 -1.0000e+00
</event>
<event>
 4      1 +2.4041262e-06 9.11880000e+01 7.81860800e-03 1.13011600e-01
       25 -1    0    0    0    0 +0.0000000000e+00 +0.0000000000e+00 +9.9999998245e-15 1.2500000000e+02 1.2500000000e+02 0.0000e+00 0.0000e+00
      -13  1    1    0    0    0 +3.6527111031e+01 -1.3603149793e+00 -5.0688567483e+01 6.2493378326e+01 1.0566000000e-01 0.0000e+00 -1.0000e+00
       13  1    1    0    0    0 -3.6530447800e+01 +1.3555876987e+00 +5.0693356703e+01 6.2499110493e+01 1.0566000000e-01 0.0000e+00 -1.0000e+00
       22  1    1    0    0    0 +3.3367691517e-03 +4.7272805885e-03 -4.7892204554e-03 7.5111811790e-03 0.0000000000e+00 0.0000e+00 -1.0000e+00
</event>
<event>
 4      1 +2.4041262e-06 9.11880000e+01 7.81860800e-03 1.13011600e-01
       25 -1    0    0    0    0 +0.0000000000e+00 +0.0000000000e+00 +9.9999998245e-15 1.2500000000e+02 1.2500000000e+02 0.0000e+00 0.0000e+00
      -13  1    1    0    0    0 +5.1872542551e+01 -1.6403302448e+01 +3.0763727285e+01 6.2499976659e+01 1.0566000000e-01 0.0000e+00 1.0000e+00
       13  1    1    0    0    0 -5.1863024952e+01 +1.6399446992e+01 -3.0758678873e+01 6.2488580627e+01 1.0566000000e-01 0.0000e+00 1.0000e+00
       22  1    1    0    0    0 -9.5175989215e-03 +3.8554563575e-03 -5.0484123161e-03 1.1442713833e-02 0.0000000000e+00 0.0000e+00 -1.0000e+00
</event>
<event>
 4      1 +2.4041262e-06 9.11880000e+01 7.81860800e-03 1.13011600e-01
       25 -1    0    0    0    0 +0.0000000000e+00 +0.0000000000e+00 +9.9999998245e-15 1.2500000000e+02 1.2500000000e+02 0.0000e+00 0.0000e+00
      -13  1    1    0    0    0 +1.2887931191e+01 +3.4086024686e+01 -5.0776795751e+01 6.2500000000e+01 1.0566000000e-01 0.0000e+00 1.0000e+00
       13  1    1    0    0    0 -1.2887931191e+01 -3.4086024686e+01 +5.0776795751e+01 6.2500000000e+01 1.0566000000e-01 0.0000e+00 1.0000e+00
       22  1    1    0    0    0 +4.4791834480e-12 -6.7365945164e-13 +3.1807363431e-12 5.5347976570e-12 0.0000000000e+00 0.0000e+00 1.0000e+00
</event>
<event>
 5      1 +2.4041262e-06 9.11880000e+01 7.81860800e-03 1.13011600e-01
       25 -1    0    0    0    0 +0.0000000000e+00 +0.0000000000e+00 +9.9999998245e-15 1.2500000000e+02 1.2500000000e+02 0.0000e+00 0.0000e+00
       23  2    1    0    0    0 -1.8872835106e+01 -1.4350324075e+01 +1.7475846655e+01 9.5546291875e+01 9.0893195393e+01 0.0000e+00 0.0000e+00
      -11  1    2    2    0    0 -1.9243668818e+01 -4.9794350363e+01 +2.5564680281e+01 5.9189095244e+01 5.1100000000e-04 0.0000e+00 1.0000e+00
       11  1    2    2    0    0 +3.7083371195e-01 +3.5444026288e+01 -8.0888336255e+00 3.6357196631e+01 5.1100000000e-04 0.0000e+00 -1.0000e+00
       22  1    1    0    0    0 +1.8872835106e+01 +1.4350324075e+01 -1.7475846655e+01 2.9453708125e+01 0.0000000000e+00 0.0000e+00 1.0000e+00
</event>
<event>
 4      1 +2.4041262e-06 9.11880000e+01 7.81860800e-03 1.13011600e-01
       25 -1    0    0    0    0 +0.0000000000e+00 +0.0000000000e+00 +9.9999998245e-15 1.2500000000e+02 1.2500000000e+02 0.0000e+00 0.0000e+00
      -13  1    1    0    0    0 +2.7562593973e+01 -1.1574191737e+01 +5.4811689657e+01 6.2433892942e+01 1.0566000000e-01 0.0000e+00 1.0000e+00
       13  1    1    0    0    0 -2.7592079336e+01 +1.1587302648e+01 -5.4869390040e+01 6.2499996417e+01 1.0566000000e-01 0.0000e+00 1.0000e+00
       22  1    1    0    0    0 +2.9485362937e-02 -1.3110910626e-02 +5.7700383244e-02 6.6110640834e-02 0.0000000000e+00 0.0000e+00 -1.0000e+00
</event>
<event>
 4      1 +2.4041262e-06 9.11880000e+01 7.81860800e-03 1.13011600e-01
       25 -1    0    0    0    0 +0.0000000000e+00 +0.0000000000e+00 +9.9999998245e-15 1.2500000000e+02 1.2500000000e+02 0.0000e+00 0.0000e+00
      -13  1    1    0    0    0 +2.2533180272e+01 -4.7176081037e+01 -3.4247802860e+01 6.2500000000e+01 1.0566000000e-01 0.0000e+00 -1.0000e+00
       13  1    1    0    0    0 -2.2533180272e+01 +4.7176081037e+01 +3.4247802860e+01 6.2500000000e+01 1.0566000000e-01 0.0000e+00 -1.0000e+00
       22  1    1    0    0    0 +1.5777413593e-11 -8.7584657754e-12 -1.2926207942e-11 2.2197395212e-11 0.0000000000e+00 0.0000e+00 -1.0000e+00
</event>
<event>
 4      1 +2.4041262e-06 9.11880000e+01 7.81860800e-03 1.13011600e-01
       25 -1    0    0    0    0 +0.0000000000e+00 +0.0000000000e+00 +9.9999998245e-15 1.2500000000e+02 1.2500000000e+02 0.0000e+00 0.0000e+00
      -13  1    1    0    0    0 +2.5473809966e+01 -1.6782698815e+01 -5.4546698609e+01 6.2497419682e+01 1.0566000000e-01 0.0000e+00 -1.0000e+00
       13  1    1    0    0    0 -2.5473382606e+01 +1.6782047183e+01 +5.4549585463e+01 6.2499590136e+01 1.0566000000e-01 0.0000e+00 -1.0000e+00
       22  1    1    0    0    0 -4.2736078330e-04 +6.5163288248e-04 -2.8868539405e-03 2.9901819888e-03 0.0000000000e+00 0.0000e+00 1.0000e+00
</event>
<event>
 4      1 +2.4041262e-06 9.11880000e+01 7.81860800e-03 1.13011600e-01
       25 -1    0    0    0    0 +0.0000000000e+00 +0.0000000000e+00 +9.9999998245e-15 1.2500000000e+02 1.2500000000e+02 0.0000e+00 0.0000e+00
      -13  1    1    0    0    0 +3.1324134678e+01 +6.6053652505e+00 +5.3678051265e+01 6.2499412917e+01 1.0566000000e-01 0.0000e+00 -1.0000e+00
       13  1    1    0    0    0 -1.7312358538e+01 -3.7628928117e+00 -2.9995197067e+01 3.4836764080e+01 1.0566000000e-01 0.0000e+00 -1.0000e+00
       22  1    1    0    0    0 -1.4011776140e+01 -2.8424724388e+00 -2.3682854197e+01 2.7663823002e+01 0.0000000000e+00 0.0000e+00 1.0000e+00
</event>
<event>
 4      1 +2.4041262e-06 9.11880000e+01 7.81860800e-03 1.13011600e-01
       25 -1    0    0    0    0 +0.0000000000e+00 +0.0000000000e+00 +9.9999998245e-15 1.2500000000e+02 1.2500000000e+02 0.0000e+00 0.0000e+00
      -13  1    1    0    0    0 -3.1102782798e-01 +5.6437936818e+01 -2.6816690535e+01 6.2485866449e+01 1.0566000000e-01 0.0000e+00 1.0000e+00
       13  1    1    0    0    0 +3.1293631527e-01 -5.6451396586e+01 +2.6820986261e+01 6.2499876590e+01 1.0566000000e-01 0.0000e+00 1.0000e+00
       22  1    1    0    0    0 -1.9084872872e-03 +1.3459768197e-02 -4.2957257566e-03 1.4256961227e-02 0.0000000000e+00 0.0000e+00 -1.0000e+00
</event>
<event>
 4      1 +2.4041262e-06 9.11880000e+01 7.81860800e-03 1.13011600e-01
       25 -1    0    0    0    0 +0.0000000000e+00 +0.0000000000e+00 +9.9999998245e-15 1.2500000000e+02 1.2500000000e+02 0.0000e+00 0.0000e+00
      -13  1    1    0    0    0 -5.9426218189e+01 -1.8636885308e+01 +5.2373593996e+00 6.2499999997e+01 1.0566000000e-01 0.0000e+00 1.0000e+00
       13  1    1    0    0    0 +5.9426030261e+01 +1.8636827022e+01 -5.2373440819e+00 6.2499802649e+01 1.0566000000e-01 0.0000e+00 1.0000e+00
       22  1    1    0    0    0 +1.8792751733e-04 +5.8285581854e-05 -1.5317664608e-05 1.9735397556e-04 0.0000000000e+00 0.0000e+00 -1.0000e+00
</event>
<event>
 4      1 +2.4041262e-06 9.11880000e+01 7.81860800e-03 1.13011600e-01
       25 -1    0    0    0    0 +0.0000000000e+00 +0.0000000000e+00 +9.9999998245e-15 1.2500000000e+02 1.2500000000e+02 0.0000e+00 0.0000e+00
      -13  1    1    0    0    0 +7.3935205970e+00 +9.4042539713e+00 -6.1344291092e+01 6.2499898825e+01 1.0566000000e-01 0.0000e+00 -1.0000e+00
       13  1    1    0    0    0 -7.3935308055e+00 -9.4042688225e+00 +6.1344390657e+01 6.2499999992e+01 1.0566000000e-01 0.0000e+00 -1.0000e+00
       22  1    1    0    0    0 +1.0208541922e-05 +1.4851260461e-05 -9.9564946091e-05 1.0118276906e-04 0.0000000000e+00 0.0000e+00 1.0000e+00
</event>
<event>
 4      1 +2.4041262e-06 9.11880000e+01 7.81860800e-03 1.13011600e-01
       25 -1    0    0    0    0 +0.0000000000e+00 +0.0000000000e+00 +9.9999998245e-15 1.2500000000e+02 1.2500000000e+02 0.0000e+00 0.0000e+00
      -13  1    1    0    0    0 +1.3272393517e+01 -5.7358373816e+01 +2.0978545216e+01 6.2500000000e+01 1.0566000000e-01 0.0000e+00 1.0000e+00
       13  1    1    0    0    0 -1.3272393185e+01 +5.7358372563e+01 -2.0978544784e+01 6.2499998634e+01 1.0566000000e-01 0.0000e+00 1.0000e+00
       22  1    1    0    0    0 -3.3209852379e-07 +1.2532268934e-06 -4.3171822189e-07 1.3664727217e-06 0.0000000000e+00 0.0000e+00 -1.0000e+00
</event>
<event>
 4      1 +2.4041262e-06 9.11880000e+01 7.81860800e-03 1.13011600e-01
       25 -1    0    0    0    0 +0.0000000000e+00 +0.0000000000e+00 +9.9999998245e-15 1.2500000000e+02 1.2500000000e+02 0.0000e+00 0.0000e+00
      -13  1    1    0    0    0 -1.7070145291e+01 +5.6174476268e+01 +2.1430734019e+01 6.2499993351e+01 1.0566000000e-01 0.0000e+00 1.0000e+00
       13  1    1    0    0    0 +1.6880835608e+01 -5.5537261681e+01 -2.1187854832e+01 6.1792284326e+01 1.0566000000e-01 0.0000e+00 1.0000e+00
       22  1    1    0    0    0 +1.8930968263e-01 -6.3721458759e-01 -2.4287918705e-01 7.0772232272e-01 0.0000000000e+00 0.0000e+00 1.0000e+00
</event>
<event>
 5      1 +2.4041262e-06 9.11880000e+01 7.81860800e-03 1.13011600e-01
       25 -1    0    0    0    0 +0.0000000000e+00 +0.0000000000e+00 +9.9999998245e-15 1.2500000000e+02 1.2500000000e+02 0.0000e+00 0.0000e+00
       23  2    1    0    0    0 -1.8680504002e+01 +8.7763493213e+00 +1.8858802924e+01 9.7042174890e+01 9.2927626261e+01 0.0000e+00 0.0000e+00
      -13  1    2    2    0    0 +1.0530452094e+01 +1.6464760131e+01 -3.2229288608e+01 3.7692399177e+01 1.0566000000e-01 0.0000e+00 -1.0000e+00
       13  1    2    2    0    0 -2.9210956095e+01 -7.6884108100e+00 +5.1088091532e+01 5.9349775713e+01 1.0566000000e-01 0.0000e+00 1.0000e+00
       22  1    1    0    0    0 +1.8680504002e+01 -8.7763493213e+00 -1.8858802924e+01 2.7957825110e+01 0.0000000000e+00 0.0000e+00 1.0000e+00
</event>
<event>
 4      1 +2.4041262e-06 9.11880000e+01 7.81860800e-03 1.13011600e-01
       25 -1    0    0    0    0 +0.0000000000e+00 +0.0000000000e+00 +9.9999998245e-15 1.2500000000e+02 1.2500000000e+02 0.0000e+00 0.0000e+00
      -13  1    1    0    0    0 +1.3550535797e+01 +2.2283645003e+01 -5.6798424106e+01 6.2500000000e+01 1.0566000000e-01 0.0000e+00 1.0000e+00
       13  1    1    0    0    0 -1.3550535796e+01 -2.2283645001e+01 +5.6798424098e+01 6.2499999992e+01 1.0566000000e-01 0.0000e+00 1.0000e+00
       22  1    1    0    0    0 -1.5788394390e-09 -2.1308887276e-09 +7.7713264758e-09 8.2113906214e-09 0.0000000000e+00 0.0000e+00 1.0000e+00
</event>
<event>
 5      1 +2.4041262e-06 9.11880000e+01 7.81860800e-03 1.13011600e-01
       25 -1    0    0    0    0 +0.0000000000e+00 +0.0000000000e+00 +9.9999998245e-15 1.2500000000e+02 1.2500000000e+02 0.0000e+00 0.0000e+00
       23  2    1    0    0    0 +1.8031674910e+01 +2.4227735800e+01 -3.4492536510e+00 9.4602272572e+01 8.9585535345e+01 0.0000e+00 0.0000e+00
      -11  1    2    2    0    0 -1.4868537929e+01 +4.9210243246e+01 -1.1093005309e+01 5.2590647719e+01 5.1100000000e-04 0.0000e+00 1.0000e+00
       11  1    2    2    0    0 +3.2900212839e+01 -2.4982507446e+01 +7.6437516577e+00 4.2011624853e+01 5.1100000000e-04 0.0000e+00 -1.0000e+00
       22  1    1    0    0    0 -1.8031674910e+01 -2.4227735800e+01 +3.4492536510e+00 3.0397727428e+01 0.0000000000e+00 0.0000e+00 -1.0000e+00
</event>
<event>
 4      1 +2.4041262e-06 9.11880000e+01 7.81860800e-03 1.13011600e-01
       25 -1    0    0    0    0 +0.0000000000e+00 +0.0000000000e+00 +9.9999998245e-15 1.2500000000e+02 1.2500000000e+02 0.0000e+00 0.0000e+00
      -13  1    1    0    0    0 +3.1782621208e+01 -3.2230492205e+00 -2.2349219722e-01 3.1946583071e+01 1.0566000000e-01 0.0000e+00 1.0000e+00
       13  1    1    0    0    0 +3.0384208661e+01 -3.1778406795e+00 -4.8280390544e-01 3.0553937078e+01 1.0566000000e-01 0.0000e+00 1.0000e+00
       22  1    1    0    0    0 -6.2166829869e+01 +6.4008899000e+00 +7.0629610266e-01 6.2499479851e+01 0.0000000000e+00 0.0000e+00 1.0000e+00
</event>
<event>
 4      1 +2.4041262e-06 9.11880000e+01 7.81860800e-03 1.13011600e-01
       25 -1    0    0    0    0 +0.0000000000e+00 +0.0000000000e+00 +9.9999998245e-15 1.2500000000e+02 1.2500000000e+02 0.0000e+00 0.0000e+00
      -13  1    1    0    0    0 +4.3836908698e+00 +6.2065491394e+01 +3.9319743561e-01 6.2221441126e+01 1.0566000000e-01 0.0000e+00 1.0000e+00
       13  1    1    0    0    0 -4.6443440907e+00 -5.7781095343e+01 +1.7225372093e+00 5.7993130710e+01 1.0566000000e-01 0.0000e+00 1.0000e+00
       22  1    1    0    0    0 +2.6065322097e-01 -4.2843960505e+00 -2.1157346449e+00 4.7854281634e+00 0.0000000000e+00 0.0000e+00 1.0000e+00
</event>
<event>
 4      1 +2.4041262e-06 9.11880000e+01 7.81860800e-03 1.13011600e-01
       25 -1    0    0    0    0 +0.0000000000e+00 +0.0000000000e+00 +9.9999998245e-15 1.2500000000e+02 1.2500000000e+02 0.0000e+00 0.0000e+00
      -13  1    1    0    0    0 +4.4182767713e+01 +1.2923668948e+01 -4.2274113286e+01 6.2500000000e+01 1.0566000000e-01 0.0000e+00 -1.0000e+00
       13  1    1    0    0    0 -4.4182767681e+01 -1.2923668936e+01 +4.2274113256e+01 6.2499999955e+01 1.0566000000e-01 0.0000e+00 -1.0000e+00
       22  1    1    0    0    0 -3.1864765473e-08 -1.1950237014e-08 +3.0035685902e-08 4.5390680442e-08 0.0000000000e+00 0.0000e+00 -1.0000e+00
</event>
<event>
 4      1 +2.4041262e-06 9.11880000e+01 7.81860800e-03 1.13011600e-01
       25 -1    0    0    0    0 +0.0000000000e+00 +0.0000000000e+00 +9.9999998245e-15 1.2500000000e+02 1.2500000000e+02 0.0000e+00 0.0000e+00
      -13  1    1    0    0    0 +4.9223889627e+00 +4.8928948597e+01 -3.8574174016e+01 6.2499999912e+01 1.0566000000e-01 0.0000e+00 -1.0000e+00
       13  1    1    0    0    0 -4.9223845252e+00 -4.8928850888e+01 +3.8574092319e+01 6.2499872647e+01 1.0566000000e-01 0.0000e+00 -1.0000e+00
       22  1    1    0    0    0 -4.4375182770e-06 -9.7709349440e-05 +8.1697816379e-05 1.2744152282e-04 0.0000000000e+00 0.0000e+00 -1.0000e+00
</event>
<event>
 4      1 +2.4041262e-06 9.11880000e+01 7.81860800e-03 1.13011600e-01
       25 -1    0    0    0    0 +0.0000000000e+00 +0.0000000000e+00 +9.9999998245e-15 1.2500000000e+02 1.2500000000e+02 0.0000e+00 0.0000e+00
      -13  1    1    0    0    0 -6.0355397035e+01 -6.3174234549e-01 +1.6216153528e+01 6.2499182786e+01 1.0566000000e-01 0.0000e+00 1.0000e+00
       13  1    1    0    0    0 +6.0356032939e+01 +6.3180415328e-01 -1.6216740301e+01 6.2499949749e+01 1.0566000000e-01 0.0000e+00 1.0000e+00
       22  1    1    0    0    0 -6.3590394768e-04 -6.1807784296e-05 +5.8677279626e-04 8.6746547327e-04 0.0000000000e+00 0.0000e+00 -1.0000e+00
</event>
<event>
 4      1 +2.4041262e-06 9.11880000e+01 7.81860800e-03 1.13011600e-01
       25 -1    0    0    0    0 +0.0000000000e+00 +0.0000000000e+00 +9.9999998245e-15 1.2500000000e+02 1.2500000000e+02 0.0000e+00 0.0000e+00
      -13  1    1    0    0    0 -8.5222510499e+00 +4.3434631104e+01 +6.8780694274e-01 4.4268275147e+01 1.0566000000e-01 0.0000e+00 1.0000e+00
       13  1    1    0    0    0 -3.4462355511e+00 +1.7904224209e+01 -1.3570457535e-01 1.8233687607e+01 1.0566000000e-01 0.0000e+00 -1.0000e+00
       22  1    1    0    0    0 +1.1968486601e+01 -6.1338855312e+01 -5.5210236739e-01 6.2498037246e+01 0.0000000000e+00 0.0000e+00 -1.0000e+00
</event>
<event>
 5      1 +2.4041262e-06 9.11880000e+01 7.81860800e-03 1.13011600e-01
       25 -1    0    0    0    0 +0.0000000000e+00 +0.0000000000e+00 +9.9999998245e-15 1.2500000000e+02 1.2500000000e+02 0.0000e+00 0.0000e+00
       23  2    1    0    0    0 +6.0036646175e+00 +2.4315512018e+01 -1.4230821705e+01 9.6193674307e+01 9.1779183788e+01 0.0000e+00 0.0000e+00
      -11  1    2    2    0    0 +2.8756086008e+01 +1.2750649490e+01 +3.1059929389e+01 4.4206456077e+01 5.1100000000e-04 0.0000e+00 1.0000e+00
       11  1    2    2    0    0 -2.2752421390e+01 +1.1564862528e+01 -4.5290751094e+01 5.1987218231e+01 5.1100000000e-04 0.0000e+00 -1.0000e+00
       22  1    1    0    0    0 -6.0036646175e+00 -2.4315512018e+01 +1.4230821705e+01 2.8806325693e+01 0.0000000000e+00 0.0000e+00 -1.0000e+00
</event>
<event>
 4      1 +2.4041262e-06 9.11880000e+01 7.81860800e-03 1.13011600e-01
       25 -1    0    0    0    0 +0.0000000000e+00 +0.0000000000e+00 +9.9999998245e-15 1.2500000000e+02 1.2500000000e+02 0.0000e+00 0.0000e+00
      -11  1    1    0    0    0 -1.6852606001e+01 -1.9544622806e+00 -5.3868752854e+00 1.7800243746e+01 5.1100000000e-04 0.0000e+00 -1.0000e+00
       11  1    1    0    0    0 -4.2320468433e+01 -4.9089321217e+00 -1.3525847364e+01 4.4699756265e+01 5.1100000000e-04 0.0000e+00 -1.0000e+00
       22  1    1    0    0    0 +5.9173074434e+01 +6.8633944023e+00 +1.8912722649e+01 6.2499999989e+01 0.0000000000e+00 0.0000e+00 -1.0000e+00
</event>
<event>
 4      1 +2.4041262e-06 9.11880000e+01 7.81860800e-03 1.13011600e-01
       25 -1    0    0    0    0 +0.0000000000e+00 +0.0000000000e+00 +9.9999998245e-15 1.2500000000e+02 1.2500000000e+02 0.0000e+00 0.0000e+00
      -13  1    1    0    0    0 +1.0950993497e+01 -6.1080383907e+01 -7.4499174397e+00 6.2499999926e+01 1.0566000000e-01 0.0000e+00 1.0000e+00
       13  1    1    0    0    0 -1.0950993822e+01 +6.1080383280e+01 +7.4499172915e+00 6.2499999352e+01 1.0566000000e-01 0.0000e+00 1.0000e+00
       22  1    1    0    0    0 +3.2548904577e-07 +6.2710612497e-07 +1.4813206944e-07 7.2190603326e-07 0.0000000000e+00 0.0000e+00 1.0000e+00
</event>
<event>
 4      1 +2.4041262e-06 9.11880000e+01 7.81860800e-03 1.13011600e-01
       25 -1    0    0    0    0 +0.0000000000e+00 +0.0000000000e+00 +9.9999998245e-15 1.2500000000e+02 1.2500000000e+02 0.0000e+00 0.0000e+00
      -13  1    1    0    0    0 -2.3884978185e+01 +3.4278030734e+01 +4.6483623765e+01 6.2499712130e+01 1.0566000000e-01 0.0000e+00 1.0000e+00
       13  1    1    0    0    0 +2.3359516055e+01 -3.3537570445e+01 -4.5529793348e+01 6.1183403534e+01 1.0566000000e-01 0.0000e+00 1.0000e+00
       22  1    1    0    0    0 +5.2546213014e-01 -7.4046028955e-01 -9.5383041714e-01 1.3168843363e+00 0.0000000000e+00 0.0000e+00 -1.0000e+00
</event>
<event>
 4      1 +2.4041262e-06 9.11880000e+01 7.81860800e-03 1.13011600e-01
       25 -1    0    0    0    0 +0.0000000000e+00 +0.0000000000e+00 +9.9999998245e-15 1.2500000000e+02 1.2500000000e+02 0.0000e+00 0.0000e+00
      -13  1    1    0    0    0 +2.9072096083e+01 +2.4835902304e+01 +4.9439154746e+01 6.2500000000e+01 1.0566000000e-01 0.0000e+00 -1.0000e+00
       13  1    1    0    0    0 -2.9072096083e+01 -2.4835902304e+01 -4.9439154746e+01 6.2500000000e+01 1.0566000000e-01 0.0000e+00 -1.0000e+00
       22  1    1    0    0    0 -1.6183850679e-10 -3.8573445987e-11 -2.8138678634e-10 3.2689162813e-10 0.0000000000e+00 0.0000e+00 1.0000e+00
</event>
<event>
 4      1 +2.4041262e-06 9.11880000e+01 7.81860800e-03 1.13011600e-01
       25 -1    0    0    0    0 +0.0000000000e+00 +0.0000000000e+00 +9.9999998245e-15 1.2500000000e+02 1.2500000000e+02 0.0000e+00 0.0000e+00
      -13  1    1    0    0    0 -1.9399159065e+01 +3.1716362082e+01 +4.9594838421e+01 6.1983176413e+01 1.0566000000e-01 0.0000e+00 -1.0000e+00
       13  1    1    0    0    0 +1.8119771958e+01 -3.0547300368e+01 -4.9907800161e+01 6.1255721174e+01 1.0566000000e-01 0.0000e+00 -1.0000e+00
       22  1    1    0    0    0 +1.2793871067e+00 -1.1690617143e+00 +3.1296173944e-01 1.7611024135e+00 0.0000000000e+00 0.0000e+00 -1.0000e+00
</event>
<event>
 4      1 +2.4041262e-06 9.11880000e+01 7.81860800e-03 1.13011600e-01
       25 -1    0    0    0    0 +0.0000000000e+00 +0.0000000000e+00 +9.9999998245e-15 1.2500000000e+02 1.2500000000e+02 0.0000e+00 0.0000e+00
      -13  1    1    0    0    0 -4.9769914847e+01 +2.5442258069e+01 +2.4557627743e+01 6.1052773598e+01 1.0566000000e-01 0.0000e+00 1.0000e+00
       13  1    1    0    0    0 +5.0951322967e+01 -2.6016876890e+01 -2.5165305029e+01 6.2499751491e+01 1.0566000000e-01 0.0000e+00 1.0000e+00
       22  1    1    0    0    0 -1.1814081197e+00 +5.7461882155e-01 +6.0767728544e-01 1.4474749113e+00 0.0000000000e+00 0.0000e+00 -1.0000e+00
</event>
<event>
 4      1 +2.4041262e-06 9.11880000e+01 7.81860800e-03 1.13011600e-01
       25 -1    0    0    0    0 +0.0000000000e+00 +0.0000000000e+00 +9.9999998245e-15 1.2500000000e+02 1.2500000000e+02 0.0000e+00 0.0000e+00
      -13  1    1    0    0    0 +3.7824703497e+00 +2.3313881513e+01 +4.7246079186e+01 5.2820898474e+01 1.0566000000e-01 0.0000e+00 -1.0000e+00
       13  1    1    0    0    0 -2.0985459816e+01 -1.7131622424e+01 -4.6582262765e+01 5.3886922151e+01 1.0566000000e-01 0.0000e+00 -1.0000e+00
       22  1    1    0    0    0 +1.7202989467e+01 -6.1822590887e+00 -6.6381642056e-01 1.8292179375e+01 0.0000000000e+00 0.0000e+00 1.0000e+00
</event>
<event>
 4      1 +2.4041262e-06 9.11880000e+01 7.81860800e-03 1.13011600e-01
       25 -1    0    0    0    0 +0.0000000000e+00 +0.0000000000e+00 +9.9999998245e-15 1.2500000000e+02 1.2500000000e+02 0.0000e+00 0.0000e+00
      -13  1    1    0    0    0 -8.6936711869e+00 -5.9434050996e+01 -1.7268816257e+01 6.2499676122e+01 1.0566000000e-01 0.0000e+00 -1.0000e+00
       13  1    1    0    0    0 +8.6936484438e+00 +5.9421219009e+01 +1.7261049977e+01 6.2485324694e+01 1.0566000000e-01 0.0000e+00 -1.0000e+00
       22  1    1    0    0    0 +2.2743120040e-05 +1.2831986775e-02 +7.7662799312e-03 1.4999183505e-02 0.0000000000e+00 0.0000e+00 -1.0000e+00
</event>
<event>
 5      1 +2.4041262e-06 9.11880000e+01 7.81860800e-03 1.13011600e-01
       25 -1    0    0    0    0 +0.0000000000e+00 +0.0000000000e+00 +9.9999998245e-15 1.2500000000e+02 1.2500000000e+02 0.0000e+00 0.0000e+00
       23  2    1    0    0    0 -2.6980084049e+01 -1.0791760523e+01 -5.3236526128e+00 9.5458024649e+01 9.0771725566e+01 0.0000e+00 0.0000e+00
      -13  1    2    2    0    0 -4.9618127413e+01 -3.4221630921e+01 -1.3712941846e+01 6.1815326004e+01 1.0566000000e-01 0.0000e+00 1.0000e+00
       13  1    2    2    0    0 +2.2638043364e+01 +2.3429870398e+01 +8.3892892328e+00 3.3642698645e+01 1.0566000000e-01 0.0000e+00 -1.0000e+00
       22  1    1    0    0    0 +2.6980084049e+01 +1.0791760523e+01 +5.3236526128e+00 2.9541975351e+01 0.0000000000e+00 0.0000e+00 1.0000e+00
</event>
<event>
 4      1 +2.4041262e-06 9.11880000e+01 7.81860800e-03 1.13011600e-01
       25 -1    0    0    0    0 +0.0000000000e+00 +0.0000000000e+00 +9.9999998245e-15 1.2500000000e+02 1.2500000000e+02 0.0000e+00 0.0000e+00
      -13  1    1    0    0    0 +9.0944105212e+00 -5.4371389439e+01 +2.9449661182e+01 6.2500000000e+01 1.0566000000e-01 0.0000e+00 -1.0000e+00
       13  1    1    0    0    0 -9.0944105045e+00 +5.4371389349e+01 -2.9449661129e+01 6.2499999895e+01 1.0566000000e-01 0.0000e+00 -1.0000e+00
       22  1    1    0    0    0 -1.6697370658e-08 +8.9958241505e-08 -5.2348307486e-08 1.0541172941e-07 0.0000000000e+00 0.0000e+00 -1.0000e+00
</event>
<event>
 5      1 +2.4041262e-06 9.11880000e+01 7.81860800e-03 1.13011600e-01
       25 -1    0    0    0    0 +0.0000000000e+00 +0.0000000000e+00 +9.9999998245e-15 1.2500000000e+02 1.2500000000e+02 0.0000e+00 0.0000e+00
       23  2    1    0    0    0 +1.3272309949e+01 -2.2321183679e+01 -1.2224701911e+01 9.6297512494e+01 9.1920498930e+01 0.0000e+00 0.0000e+00
      -13  1    2    2    0    0 +1.2025649040e+00 -4.5074128335e+01 +2.4596107764e+01 5.1362465758e+01 1.0566000000e-01 0.0000e+00 -1.0000e+00
       13  1    2    2    0    0 +1.2069745045e+01 +2.2752944656e+01 -3.6820809675e+01 4.4935046736e+01 1.0566000000e-01 0.0000e+00 1.0000e+00
       22  1    1    0    0    0 -1.3272309949e+01 +2.2321183679e+01 +1.2224701911e+01 2.8702487506e+01 0.0000000000e+00 0.0000e+00 -1.0000e+00
</event>
<event>
 4      1 +2.4041262e-06 9.11880000e+01 7.81860800e-03 1.13011600e-01
       25 -1    0    0    0    0 +0.0000000000e+00 +0.0000000000e+00 +9.9999998245e-15 1.2500000000e+02 1.2500000000e+02 0.0000e+00 0.0000e+00
      -13  1    1    0    0    0 +2.5034999228e+00 +5.9437544356e+01 +1.9161149365e+01 6.2500000000e+01 1.0566000000e-01 0.0000e+00 1.0000e+00
       13  1    1    0    0    0 -2.5034999227e+00 -5.9437544356e+01 -1.9161149365e+01 6.2500000000e+01 1.0566000000e-01 0.0000e+00 1.0000e+00
       22  1    1    0    0    0 -5.9854257406e-11 +2.7237847732e-10 -2.1810564404e-10 3.5403762369e-10 0.0000000000e+00 0.0000e+00 1.0000e+00
</event>
<event>
 5      1 +2.4041262e-06 9.11880000e+01 7.81860800e-03 1.13011600e-01
       25 -1    0    0    0    0 +0.0000000000e+00 +0.0000000000e+00 +9.9999998245e-15 1.2500000000e+02 1.2500000000e+02 0.0000e+00 0.0000e+00
       23  2    1    0    0    0 +2.7326746733e+01 +7.8695466673e+00 -9.8271006095e+00 9.4912581398e+01 9.0017472468e+01 0.0000e+00 0.0000e+00
      -13  1    2    2    0    0 -1.4059573761e+01 -2.7466382683e+01 -2.3518929210e+01 3.8797229118e+01 1.0566000000e-01 0.0000e+00 -1.0000e+00
       13  1    2    2    0    0 +4.1386320494e+01 +3.5335929350e+01 +1.3691828601e+01 5.6115352280e+01 1.0566000000e-01 0.0000e+00 1.0000e+00
       22  1    1    0    0    0 -2.7326746733e+01 -7.8695466673e+00 +9.8271006095e+00 3.0087418602e+01 0.0000000000e+00 0.0000e+00 -1.0000e+00
</event>
<event>
 4      1 +2.4041262e-06 9.11880000e+01 7.81860800e-03 1.13011600e-01
       25 -1    0    0    0    0 +0.0000000000e+00 +0.0000000000e+00 +9.9999998245e-15 1.2500000000e+02 1.2500000000e+02 0.0000e+00 0.0000e+00
      -13  1    1    0    0    0 -3.5672495364e+01 -4.2879508489e+01 -2.8196759996e+01 6.2499980896e+01 1.0566000000e-01 0.0000e+00 1.0000e+00
       13  1    1    0    0    0 +3.5672503753e+01 +4.2879522463e+01 +2.8196770199e+01 6.2499999875e+01 1.0566000000e-01 0.0000e+00 1.0000e+00
       22  1    1    0    0    0 -8.3892382045e-06 -1.3973917429e-05 -1.0203006405e-05 1.9228911193e-05 0.0000000000e+00 0.0000e+00 1.0000e+00
</event>
<event>
 4      1 +2.4041262e-06 9.11880000e+01 7.81860800e-03 1.13011600e-01
       25 -1    0    0    0    0 +0.0000000000e+00 +0.0000000000e+00 +9.9999998245e-15 1.2500000000e+02 1.2500000000e+02 0.0000e+00 0.0000e+00
      -13  1    1    0    0    0 -5.7793080025e+01 +2.3254841209e+01 -5.0409421274e+00 6.2500000000e+01 1.0566000000e-01 0.0000e+00 1.0000e+00
       13  1    1    0    0    0 +5.7793077455e+01 -2.3254840189e+01 +5.0409419229e+00 6.2499997227e+01 1.0566000000e-01 0.0000e+00 1.0000e+00
       22  1    1    0    0    0 +2.5703376026e-06 -1.0194609859e-06 +2.0446187195e-07 2.7726775416e-06 0.0000000000e+00 0.0000e+00 -1.0000e+00
</event>
<event>
 4      1 +2.4041262e-06 9.11880000e+01 7.81860800e-03 1.13011600e-01
       25 -1    0    0    0    0 +0.0000000000e+00 +0.0000000000e+00 +9.9999998245e-15 1.2500000000e+02 1.2500000000e+02 0.0000e+00 0.0000e+00
      -11  1    1    0    0    0 +3.8264329125e+00 -1.7134262070e+01 +2.3820942822e+01 2.9591583984e+01 5.1100000000e-04 0.0000e+00 1.0000e+00
       11  1    1    0    0    0 +4.2537151708e+00 -1.9060346701e+01 +2.6487222331e+01 3.2908416190e+01 5.1100000000e-04 0.0000e+00 -1.0000e+00
       22  1    1    0    0    0 -8.0801480833e+00 +3.6194608771e+01 -5.0308165153e+01 6.2499999825e+01 0.0000000000e+00 0.0000e+00 -1.0000e+00
</event>
<event>
 4      1 +2.4041262e-06 9.11880000e+01 7.81860800e-03 1.13011600e-01
       25 -1    0    0    0    0 +0.0000000000e+00 +0.0000000000e+00 +9.9999998245e-15 1.2500000000e+02 1.2500000000e+02 0.0000e+00 0.0000e+00
      -13  1    1    0    0    0 -3.6969417185e+01 -3.5950177491e+01 +3.5314100482e+01 6.2499999404e+01 1.0566000000e-01 0.0000e+00 1.0000e+00
       13  1    1    0    0    0 +3.6969417537e+01 +3.5950177844e+01 -3.5314100808e+01 6.2500000000e+01 1.0566000000e-01 0.0000e+00 1.0000e+00
       22  1    1    0    0    0 -3.5206703418e-07 -3.5297598134e-07 +3.2646799411e-07 5.9592330978e-07 0.0000000000e+00 0.0000e+00 1.0000e+00
</event>
<event>
 5      1 +2.4041262e-06 9.11880000e+01 7.81860800e-03 1.13011600e-01
       25 -1    0    0    0    0 +0.0000000000e+00 +0.0000000000e+00 +9.9999998245e-15 1.2500000000e+02 1.2500000000e+02 0.0000e+00 0.0000e+00
       23  2    1    0    0    0 +5.0970762996e+00 +6.6520383175e+00 +2.7647772824e+01 9.6110051182e+01 9.1665221297e+01 0.0000e+00 0.0000e+00
      -13  1    2    2    0    0 -3.4701241803e+01 -1.3058855955e-01 +4.0881905440e+01 5.3624011342e+01 1.0566000000e-01 0.0000e+00 -1.0000e+00
       13  1    2    2    0    0 +3.9798318102e+01 +6.7826268771e+00 -1.3234132616e+01 4.2486039839e+01 1.0566000000e-01 0.0000e+00 1.0000e+00
       22  1    1    0    0    0 -5.0970762996e+00 -6.6520383175e+00 -2.7647772824e+01 2.8889948818e+01 0.0000000000e+00 0.0000e+00 1.0000e+00
</event>
<event>
 4      1 +2.4041262e-06 9.11880000e+01 7.81860800e-03 1.13011600e-01
       25 -1    0    0    0    0 +0.0000000000e+00 +0.0000000000e+00 +9.9999998245e-15 1.2500000000e+02 1.2500000000e+02 0.0000e+00 0.0000e+00
      -13  1    1    0    0    0 +2.6748488809e+01 +4.1676485098e+01 -1.8831367358e+01 5.2981530973e+01 1.0566000000e-01 0.0000e+00 1.0000e+00
       13  1    1    0    0    0 +4.8905404135e+00 +7.5205469100e+00 -3.1844816762e+00 9.5198791454e+00 1.0566000000e-01 0.0000e+00 -1.0000e+00
       22  1    1    0    0    0 -3.1639029223e+01 -4.9197032008e+01 +2.2015849034e+01 6.2498589882e+01 0.0000000000e+00 0.0000e+00 1.0000e+00
</event>
<event>
 5      1 +2.4041262e-06 9.11880000e+01 7.81860800e-03 1.13011600e-01
       25 -1    0    0    0    0 +0.0000000000e+00 +0.0000000000e+00 +9.9999998245e-15 1.2500000000e+02 1.2500000000e+02 0.0000e+00 0.0000e+00
       23  2    1    0    0    0 -2.7825225397e+01 +5.9401812543e+00 +1.9071789255e+00 9.6483929913e+01 9.2173653927e+01 0.0000e+00 0.0000e+00
      -11  1    2    2    0    0 -3.7538596978e+01 +2.3169682024e+01 -3.3861450377e+01 5.5610954407e+01 5.1100000000e-04 0.0000e+00 1.0000e+00
       11  1    2    2    0    0 +9.7133715807e+00 -1.7229500770e+01 +3.5768629303e+01 4.0872975506e+01 5.1100000000e-04 0.0000e+00 -1.0000e+00
       22  1    1    0    0    0 +2.7825225397e+01 -5.9401812543e+00 -1.9071789255e+00 2.8516070087e+01 0.0000000000e+00 0.0000e+00 1.0000e+00
</event>
<event>
 4      1 +2.4041262e-06 9.11880000e+01 7.81860800e-03 1.13011600e-01
       25 -1    0    0    0    0 +0.0000000000e+00 +0.0000000000e+00 +9.9999998245e-15 1.2500000000e+02 1.2500000000e+02 0.0000e+00 0.0000e+00
      -11  1    1    0    0    0 -1.2674949251e+00 -8.1275846700e+00 -7.5589181592e-01 8.2604811392e+00 5.1100000000e-04 0.0000e+00 1.0000e+00
       11  1    1    0    0    0 -6.9406477739e+00 -5.3706202918e+01 -3.1231658570e+00 5.4242815088e+01 5.1100000000e-04 0.0000e+00 -1.0000e+00
       22  1    1    0    0    0 +8.2081426991e+00 +6.1833787588e+01 +3.8790576729e+00 6.2496703773e+01 0.0000000000e+00 0.0000e+00 -1.0000e+00
</event>
<event>
 5      1 +2.4041262e-06 9.11880000e+01 7.81860800e-03 1.13011600e-01
       25 -1    0    0    0    0 +0.0000000000e+00 +0.0000000000e+00 +9.9999998245e-15 1.2500000000e+02 1.2500000000e+02 0.0000e+00 0.0000e+00
       23  2    1    0    0    0 -1.5205912406e+01 -7.2657139367e+00 -2.5475619754e+01 9.4454663647e+01 8.9379337163e+01 0.0000e+00 0.0000e+00
      -13  1    2    2    0    0 -1.6960993410e+01 -4.2522752897e+01 +7.2105455194e+00 4.6345042261e+01 1.0566000000e-01 0.0000e+00 -1.0000e+00
       13  1    2    2    0    0 +1.7550810045e+00 +3.5257038961e+01 -3.2686165273e+01 4.8109621386e+01 1.0566000000e-01 0.0000e+00 1.0000e+00
       22  1    1    0    0    0 +1.5205912406e+01 +7.2657139367e+00 +2.5475619754e+01 3.0545336353e+01 0.0000000000e+00 0.0000e+00 -1.0000e+00
</event>
<event>
 4      1 +2.4041262e-06 9.11880000e+01 7.81860800e-03 1.13011600e-01
       25 -1    0    0    0    0 +0.0000000000e+00 +0.0000000000e+00 +9.9999998245e-15 1.2500000000e+02 1.2500000000e+02 0.0000e+00 0.0000e+00
      -13  1    1    0    0    0 -4.3357878894e+01 +1.4040474919e+00 -4.4992868146e+01 6.2499970877e+01 1.0566000000e-01 0.0000e+00 1.0000e+00
       13  1    1    0    0    0 +4.3357888223e+01 -1.4040434460e+00 +4.4992897301e+01 6.2499998246e+01 1.0566000000e-01 0.0000e+00 1.0000e+00
       22  1    1    0    0    0 -9.3287616134e-06 -4.0459521447e-06 -2.9155397861e-05 3.0877706301e-05 0.0000000000e+00 0.0000e+00 1.0000e+00
</event>
<event>
 5      1 +2.4041262e-06 9.11880000e+01 7.81860800e-03 1.13011600e-01
       25 -1    0    0    0    0 +0.0000000000e+00 +0.0000000000e+00 +9.9999998245e-15 1.2500000000e+02 1.2500000000e+02 0.0000e+00 0.0000e+00
       23  2    1    0    0    0 -2.2380059222e+01 -1.1786824603e+01 +1.4959001872e+01 9.5613472100e+01 9.0985537450e+01 0.0000e+00 0.0000e+00
      -11  1    2    2    0    0 -7.9283622326e+00 -3.6011817825e+01 -2.6542080468e+01 4.5433379652e+01 5.1100000000e-04 0.0000e+00 -1.0000e+00
       11  1    2    2    0    0 -1.4451696989e+01 +2.4224993222e+01 +4.1501082340e+01 5.0180092448e+01 5.1100000000e-04 0.0000e+00 1.0000e+00
       22  1    1    0    0    0 +2.2380059222e+01 +1.1786824603e+01 -1.4959001872e+01 2.9386527900e+01 0.0000000000e+00 0.0000e+00 1.0000e+00
</event>
<event>
 4      1 +2.4041262e-06 9.11880000e+01 7.81860800e-03 1.13011600e-01
       25 -1    0    0    0    0 +0.0000000000e+00 +0.0000000000e+00 +9.9999998245e-15 1.2500000000e+02 1.2500000000e+02 0.0000e+00 0.0000e+00
      -13  1    1    0    0    0 +3.0879594722e+01 +4.0525544218e+01 -3.4263572150e+01 6.1399288635e+01 1.0566000000e-01 0.0000e+00 1.0000e+00
       13  1    1    0    0    0 -3.0497857189e+01 -4.0936848234e+01 +2.9816456456e+01 5.9118331134e+01 1.0566000000e-01 0.0000e+00 1.0000e+00
       22  1    1    0    0    0 -3.8173753356e-01 +4.1130401596e-01 +4.4471156945e+00 4.4823802313e+00 0.0000000000e+00 0.0000e+00 1.0000e+00
</event>
<event>
 4      1 +2.4041262e-06 9.11880000e+01 7.81860800e-03 1.13011600e-01
       25 -1    0    0    0    0 +0.0000000000e+00 +0.0000000000e+00 +9.9999998245e-15 1.2500000000e+02 1.2500000000e+02 0.0000e+00 0.0000e+00
      -13  1    1    0    0    0 -4.0949723123e+01 -4.6115209434e+01 -1.0136393386e+01 6.2499999999e+01 1.0566000000e-01 0.0000e+00 -1.0000e+00
       13  1    1    0    0    0 +4.0949720734e+01 +4.6115206820e+01 +1.0136392713e+01 6.2499996396e+01 1.0566000000e-01 0.0000e+00 -1.0000e+00
       22  1    1    0    0    0 +2.3888436039e-06 +2.6137303296e-06 +6.7281062646e-07 3.6042799751e-06 0.0000000000e+00 0.0000e+00 -1.0000e+00
</event>
<event>
 4      1 +2.4041262e-06 9.11880000e+01 7.81860800e-03 1.13011600e-01
       25 -1    0    0    0    0 +0.0000000000e+00 +0.0000000000e+00 +9.9999998245e-15 1.2500000000e+02 1.2500000000e+02 0.0000e+00 0.0000e+00
      -13  1    1    0    0    0 +4.0135824801e+01 -1.5629856819e+01 -4.5288651772e+01 6.2500000000e+01 1.0566000000e-01 0.0000e+00 1.0000e+00
       13  1    1    0    0    0 -4.0135781228e+01 +1.5629839720e+01 +4.5288602365e+01 6.2499931941e+01 1.0566000000e-01 0.0000e+00 1.0000e+00
       22  1    1    0    0    0 -4.3572945857e-05 +1.7099794706e-05 +4.9407045017e-05 6.8059243949e-05 0.0000000000e+00 0.0000e+00 -1.0000e+00
</event>
<event>
 4      1 +2.4041262e-06 9.11880000e+01 7.81860800e-03 1.13011600e-01
       25 -1    0    0    0    0 +0.0000000000e+00 +0.0000000000e+00 +9.9999998245e-15 1.2500000000e+02 1.2500000000e+02 0.0000e+00 0.0000e+00
      -13  1    1    0    0    0 -6.1869001331e+01 -7.7927301088e+00 -4.2117531869e+00 6.2499999978e+01 1.0566000000e-01 0.0000e+00 1.0000e+00
       13  1    1    0    0    0 +6.1868701709e+01 +7.7926975805e+00 +4.2117328296e+00 6.2499697953e+01 1.0566000000e-01 0.0000e+00 1.0000e+00
       22  1    1    0    0    0 +2.9962233466e-04 +3.2528352814e-05 +2.0357360925e-05 3.0206962659e-04 0.0000000000e+00 0.0000e+00 -1.0000e+00
</event>
<event>
 4      1 +2.4041262e-06 9.11880000e+01 7.81860800e-03 1.13011600e-01
       25 -1    0    0    0    0 +0.0000000000e+00 +0.0000000000e+00 +9.9999998245e-15 1.2500000000e+02 1.2500000000e+02 0.0000e+00 0.0000e+00
      -13  1    1    0    0    0 -5.1541816823e+01 -2.7508220733e+01 +2.1742207526e+01 6.2337756147e+01 1.0566000000e-01 0.0000e+00 1.0000e+00
       13  1    1    0    0    0 +5.1676620873e+01 +2.7578477867e+01 -2.1798917527e+01 6.2499996446e+01 1.0566000000e-01 0.0000e+00 1.0000e+00
       22  1    1    0    0    0 -1.3480404981e-01 -7.0257134679e-02 +5.6710001037e-02 1.6224740687e-01 0.0000000000e+00 0.0000e+00 1.0000e+00
</event>
<event>
 4      1 +2.4041262e-06 9.11880000e+01 7.81860800e-03 1.13011600e-01
       25 -1    0    0    0    0 +0.0000000000e+00 +0.0000000000e+00 +9.9999998245e-15 1.2500000000e+02 1.2500000000e+02 0.0000e+00 0.0000e+00
      -13  1    1    0    0    0 +3.4519988476e+01 +3.2892845653e+01 +4.0395955911e+01 6.2493306182e+01 1.0566000000e-01 0.0000e+00 -1.0000e+00
       13  1    1    0    0    0 -3.4524039437e+01 -3.2896145753e+01 -4.0400151423e+01 6.2499992828e+01 1.0566000000e-01 0.0000e+00 -1.0000e+00
       22  1    1    0    0    0 +4.0509606193e-03 +3.3000997430e-03 +4.1955124805e-03 6.7009898692e-03 0.0000000000e+00 0.0000e+00 1.0000e+00
</event>
<event>
 4      1 +2.4041262e-06 9.11880000e+01 7.81860800e-03 1.13011600e-01
       25 -1    0    0    0    0 +0.0000000000e+00 +0.0000000000e+00 +9.9999998245e-15 1.2500000000e+02 1.2500000000e+02 0.0000e+00 0.0000e+00
      -13  1    1    0    0    0 -4.1345843126e+01 +1.4724550424e+01 +4.4496601937e+01 6.2499999016e+01 1.0566000000e-01 0.0000e+00 -1.0000e+00
       13  1    1    0    0    0 +4.1008261210e+01 -1.4603394423e+01 -4.4133960612e+01 6.1989952891e+01 1.0566000000e-01 0.0000e+00 -1.0000e+00
       22  1    1    0    0    0 +3.3758191619e-01 -1.2115600092e-01 -3.6264132529e-01 5.1004809332e-01 0.0000000000e+00 0.0000e+00 -1.0000e+00
</event>
<event>
 4      1 +2.4041262e-06 9.11880000e+01 7.81860800e-03 1.13011600e-01
       25 -1    0    0    0    0 +0.0000000000e+00 +0.0000000000e+00 +9.9999998245e-15 1.2500000000e+02 1.2500000000e+02 0.0000e+00 0.0000e+00
      -13  1    1    0    0    0 -2.7599640041e+01 +5.5980931060e+01 -3.2279097842e+00 6.2498282683e+01 1.0566000000e-01 0.0000e+00 1.0000e+00
       13  1    1    0    0    0 +2.7600399069e+01 -5.5982468473e+01 +3.2280070192e+00 6.2499999988e+01 1.0566000000e-01 0.0000e+00 1.0000e+00
       22  1    1    0    0    0 -7.5902882446e-04 +1.5374135189e-03 -9.7235093866e-05 1.7173292485e-03 0.0000000000e+00 0.0000e+00 1.0000e+00
</event>
<event>
 4      1 +2.4041262e-06 9.11880000e+01 7.81860800e-03 1.13011600e-01
       25 -1    0    0    0    0 +0.0000000000e+00 +0.0000000000e+00 +9.9999998245e-15 1.2500000000e+02 1.2500000000e+02 0.0000e+00 0.0000e+00
      -13  1    1    0    0    0 +3.7137087018e-01 -1.2053908541e+00 +1.5177450197e+00 1.9762584383e+00 1.0566000000e-01 0.0000e+00 1.0000e+00
       13  1    1    0    0    0 -1.6272553252e+01 -1.8063682078e+01 +5.5598897880e+01 6.0682297329e+01 1.0566000000e-01 0.0000e+00 -1.0000e+00
       22  1    1    0    0    0 +1.5901182382e+01 +1.9269072932e+01 -5.7116642900e+01 6.2341444233e+01 0.0000000000e+00 0.0000e+00 -1.0000e+00
</event>
<event>
 4      1 +2.4041262e-06 9.11880000e+01 7.81860800e-03 1.13011600e-01
       25 -1    0    0    0    0 +0.0000000000e+00 +0.0000000000e+00 +9.9999998245e-15 1.2500000000e+02 1.2500000000e+02 0.0000e+00 0.0000e+00
      -11  1    1    0    0    0 +5.3268105787e+01 -2.2052776015e+01 -9.6689632173e-01 5.7660653074e+01 5.1100000000e-04 0.0000e+00 -1.0000e+00
       11  1    1    0    0    0 -2.7667804373e-01 +9.7370636678e+00 -7.4828435946e+00 1.2283318287e+01 5.1100000000e-04 0.0000e+00 1.0000e+00
       22  1    1    0    0    0 -5.2991427744e+01 +1.2315712347e+01 +8.4497399163e+00 5.5056028640e+01 0.0000000000e+00 0.0000e+00 -1.0000e+00
</event>
<event>
 4      1 +2.4041262e-06 9.11880000e+01 7.81860800e-03 1.13011600e-01
       25 -1    0    0    0    0 +0.0000000000e+00 +0.0000000000e+00 +9.9999998245e-15 1.2500000000e+02 1.2500000000e+02 0.0000e+00 0.0000e+00
      -13  1    1    0    0    0 +4.5799407868e+01 +1.4387634087e+01 -4.0020607941e+01 6.2499999998e+01 1.0566000000e-01 0.0000e+00 -1.0000e+00
       13  1    1    0    0    0 -4.5799407870e+01 -1.4387634088e+01 +4.0020607943e+01 6.2500000000e+01 1.0566000000e-01 0.0000e+00 -1.0000e+00
       22  1    1    0    0    0 +1.8273857638e-09 +6.5855015140e-10 -1.4118174549e-09 2.4013028875e-09 0.0000000000e+00 0.0000e+00 -1.0000e+00
</event>
<event>
 4      1 +2.4041262e-06 9.11880000e+01 7.81860800e-03 1.13011600e-01
       25 -1    0    0    0    0 +0.0000000000e+00 +0.0000000000e+00 +9.9999998245e-15 1.2500000000e+02 1.2500000000e+02 0.0000e+00 0.0000e+00
      -13  1    1    0    0    0 -3.1627114809e+01 -4.8034368172e+01 -2.4465576658e+01 6.2499204172e+01 1.0566000000e-01 0.0000e+00 1.0000e+00
       13  1    1    0    0    0 +3.1627483708e+01 +4.8034975714e+01 +2.4465937114e+01 6.2499998883e+01 1.0566000000e-01 0.0000e+00 1.0000e+00
       22  1    1    0    0    0 -3.6889922575e-04 -6.0754124426e-04 -3.6045582450e-04 7.9694504431e-04 0.0000000000e+00 0.0000e+00 -1.0000e+00
</event>
<event>
 4      1 +2.4041262e-06 9.11880000e+01 7.81860800e-03 1.13011600e-01
       25 -1    0    0    0    0 +0.0000000000e+00 +0.0000000000e+00 +9.9999998245e-15 1.2500000000e+02 1.2500000000e+02 0.0000e+00 0.0000e+00
      -13  1    1    0    0    0 -2.0433951288e+01 -2.2138647307e+01 -5.4759199156e+01 6.2499977008e+01 1.0566000000e-01 0.0000e+00 1.0000e+00
       13  1    1    0    0    0 +2.0433958712e+01 +2.2138655135e+01 +5.4759219461e+01 6.2499999999e+01 1.0566000000e-01 0.0000e+00 1.0000e+00
       22  1    1    0    0    0 -7.4239786050e-06 -7.8279586410e-06 -2.0305240359e-05 2.2993372542e-05 0.0000000000e+00 0.0000e+00 -1.0000e+00
</event>
<event>
 4      1 +2.4041262e-06 9.11880000e+01 7.81860800e-03 1.13011600e-01
       25 -1    0    0    0    0 +0.0000000000e+00 +0.0000000000e+00 +9.9999998245e-15 1.2500000000e+02 1.2500000000e+02 0.0000e+00 0.0000e+00
      -13  1    1    0    0    0 -3.3673565244e+00 -3.1088811003e-01 +4.6449143717e+00 5.7464889224e+00 1.0566000000e-01 0.0000e+00 -1.0000e+00
       13  1    1    0    0    0 -3.2808735634e+01 -4.3291827895e+00 +4.6107918991e+01 5.6754791122e+01 1.0566000000e-01 0.0000e+00 1.0000e+00
       22  1    1    0    0    0 +3.6176092158e+01 +4.6400708995e+00 -5.0752833363e+01 6.2498719956e+01 0.0000000000e+00 0.0000e+00 1.0000e+00
</event>
<event>
 4      1 +2.4041262e-06 9.11880000e+01 7.81860800e-03 1.13011600e-01
       25 -1    0    0    0    0 +0.0000000000e+00 +0.0000000000e+00 +9.9999998245e-15 1.2500000000e+02 1.2500000000e+02 0.0000e+00 0.0000e+00
      -13  1    1    0    0    0 -4.7959118685e+01 -3.3403798124e+01 -2.2143803631e+01 6.2499999979e+01 1.0566000000e-01 0.0000e+00 1.0000e+00
       13  1    1    0    0    0 +4.7959118701e+01 +3.3403798135e+01 +2.2143803639e+01 6.2500000000e+01 1.0566000000e-01 0.0000e+00 1.0000e+00
       22  1    1    0    0    0 -1.5780226680e-08 -1.1350910580e-08 -7.6660019569e-09 2.0895605066e-08 0.0000000000e+00 0.0000e+00 1.0000e+00
</event>
<event>
 4      1 +2.4041262e-06 9.11880000e+01 7.81860800e-03 1.13011600e-01
       25 -1    0    0    0    0 +0.0000000000e+00 +0.0000000000e+00 +9.9999998245e-15 1.2500000000e+02 1.2500000000e+02 0.0000e+00 0.0000e+00
      -13  1    1    0    0    0 +3.0231725622e+01 +4.0535953808e+01 -3.6730342182e+01 6.2499999888e+01 1.0566000000e-01 0.0000e+00 -1.0000e+00
       13  1    1    0    0    0 -3.0225517826e+01 -4.0527733007e+01 +3.6722812538e+01 6.2487240259e+01 1.0566000000e-01 0.0000e+00 -1.0000e+00
       22  1    1    0    0    0 -6.2077954884e-03 -8.2208010393e-03 +7.5296443104e-03 1.2759852585e-02 0.0000000000e+00 0.0000e+00 -1.0000e+00
</event>
<event>
 4      1 +2.4041262e-06 9.11880000e+01 7.81860800e-03 1.13011600e-01
       25 -1    0    0    0    0 +0.0000000000e+00 +0.0000000000e+00 +9.9999998245e-15 1.2500000000e+02 1.2500000000e+02 0.0000e+00 0.0000e+00
      -13  1    1    0    0    0 +2.4768400721e+00 +2.9273326229e+00 +1.1707863925e-01 3.8378228817e+00 1.0566000000e-01 0.0000e+00 -1.0000e+00
       13  1    1    0    0    0 -5.3793452082e+01 -2.3873588099e+01 -2.0178713286e+01 6.2216359019e+01 1.0566000000e-01 0.0000e+00 1.0000e+00
       22  1    1    0    0    0 +5.1316612010e+01 +2.0946255477e+01 +2.0061634647e+01 5.8945818099e+01 0.0000000000e+00 0.0000e+00 1.0000e+00
</event>
<event>
 4      1 +2.4041262e-06 9.11880000e+01 7.81860800e-03 1.13011600e-01
       25 -1    0    0    0    0 +0.0000000000e+00 +0.0000000000e+00 +9.9999998245e-15 1.2500000000e+02 1.2500000000e+02 0.0000e+00 0.0000e+00
      -13  1    1    0    0    0 -3.0719685509e+01 +4.5342808908e+01 +3.0109291110e+01 6.2499999781e+01 1.0566000000e-01 0.0000e+00 1.0000e+00
       13  1    1    0    0    0 +3.0719685782e+01 -4.5342807619e+01 -3.0109289749e+01 6.2499998324e+01 1.0566000000e-01 0.0000e+00 1.0000e+00
       22  1    1    0    0    0 -2.7275914808e-07 -1.2895595629e-06 -1.3608262188e-06 1.8945208938e-06 0.0000000000e+00 0.0000e+00 1.0000e+00
</event>
<event>
 4      1 +2.4041262e-06 9.11880000e+01 7.81860800e-03 1.13011600e-01
       25 -1    0    0    0    0 +0.0000000000e+00 +0.0000000000e+00 +9.9999998245e-15 1.2500000000e+02 1.2500000000e+02 0.0000e+00 0.0000e+00
      -13  1    1    0    0    0 +4.5092692021e+01 -2.0126025344e+01 +3.8281653716e+01 6.2481228742e+01 1.0566000000e-01 0.0000e+00 1.0000e+00
       13  1    1    0    0    0 -4.1766711108e+01 +1.8676237646e+01 -3.6153200443e+01 5.8312306383e+01 1.0566000000e-01 0.0000e+00 1.0000e+00
       22  1    1    0    0    0 -3.3259809129e+00 +1.4497876983e+00 -2.1284532733e+00 4.2064648744e+00 0.0000000000e+00 0.0000e+00 1.0000e+00
</event>
<event>
 4      1 +2.4041262e-06 9.11880000e+01 7.81860800e-03 1.13011600e-01
       25 -1    0    0    0    0 +0.0000000000e+00 +0.0000000000e+00 +9.9999998245e-15 1.2500000000e+02 1.2500000000e+02 0.0000e+00 0.0000e+00
      -11  1    1    0    0    0 -3.0683431290e+01 -1.3833622637e+01 +2.1360542023e+01 3.9863703124e+01 5.1100000000e-04 0.0000e+00 1.0000e+00
       11  1    1    0    0    0 -1.7423351958e+01 -7.8560027210e+00 +1.2128972100e+01 2.2636296885e+01 5.1100000000e-04 0.0000e+00 1.0000e+00
       22  1    1    0    0    0 +4.8106783248e+01 +2.1689625358e+01 -3.3489514122e+01 6.2499999991e+01 0.0000000000e+00 0.0000e+00 1.0000e+00
</event>
<event>
 4      1 +2.4041262e-06 9.11880000e+01 7.81860800e-03 1.13011600e-01
       25 -1    0    0    0    0 +0.0000000000e+00 +0.0000000000e+00 +9.9999998245e-15 1.2500000000e+02 1.2500000000e+02 0.0000e+00 0.0000e+00
      -13  1    1    0    0    0 -8.9703665345e+00 -5.8196496124e+00 -9.7166971167e+00 1.4448569627e+01 1.0566000000e-01 0.0000e+00 1.0000e+00
       13  1    1    0    0    0 -3.8868693241e+01 +3.1155398168e+01 +2.2914858907e+01 5.4831889189e+01 1.0566000000e-01 0.0000e+00 -1.0000e+00
       22  1    1    0    0    0 +4.7839059775e+01 -2.5335748556e+01 -1.3198161790e+01 5.5719541184e+01 0.0000000000e+00 0.0000e+00 -1.0000e+00
</event>
<event>
 4      1 +2.4041262e-06 9.11880000e+01 7.81860800e-03 1.13011600e-01
       25 -1    0    0    0    0 +0.0000000000e+00 +0.0000000000e+00 +9.9999998245e-15 1.2500000000e+02 1.2500000000e+02 0.0000e+00 0.0000e+00
      -13  1    1    0    0    0 -4.0328078097e+01 +2.0430404984e+01 +4.3155917441e+01 6.2499597639e+01 1.0566000000e-01 0.0000e+00 -1.0000e+00
       13  1    1    0    0    0 +4.0328031007e+01 -2.0429652587e+01 -4.3156274813e+01 6.2499568075e+01 1.0566000000e-01 0.0000e+00 -1.0000e+00
       22  1    1    0    0    0 +4.7089285851e-05 -7.5239714249e-04 +3.5737199788e-04 8.3428628524e-04 0.0000000000e+00 0.0000e+00 -1.0000e+00
</event>
<event>
 4      1 +2.4041262e-06 9.11880000e+01 7.81860800e-03 1.13011600e-01
       25 -1    0    0    0    0 +0.0000000000e+00 +0.0000000000e+00 +9.9999998245e-15 1.2500000000e+02 1.2500000000e+02 0.0000e+00 0.0000e+00
      -11  1    1    0    0    0 -1.6880317737e+01 +9.5226645328e+00 -5.0764908023e+01 5.4338772102e+01 5.1100000000e-04 0.0000e+00 -1.0000e+00
       11  1    1    0    0    0 -2.5361531040e+00 +1.4291512855e+00 -7.6243750936e+00 8.1612279586e+00 5.1100000000e-04 0.0000e+00 1.0000e+00
       22  1    1    0    0    0 +1.9416470841e+01 -1.0951815818e+01 +5.8389283116e+01 6.2499999940e+01 0.0000000000e+00 0.0000e+00 -1.0000e+00
</event>
<event>
 5      1 +2.4041262e-06 9.11880000e+01 7.81860800e-03 1.13011600e-01
       25 -1    0    0    0    0 +0.0000000000e+00 +0.0000000000e+00 +9.9999998245e-15 1.2500000000e+02 1.2500000000e+02 0.0000e+00 0.0000e+00
       23  2    1    0    0    0 +1.1119681941e+01 +1.9696531772e+01 -7.8112915966e+00 1.0107058365e+02 9.8196975071e+01 0.0000e+00 0.0000e+00
      -13  1    2    2    0    0 +4.3167918398e+01 +1.1835633968e+01 +2.7664598407e+01 5.2620267762e+01 1.0566000000e-01 0.0000e+00 1.0000e+00
       13  1    2    2    0    0 -3.2048236457e+01 +7.8608978048e+00 -3.5475890004e+01 4.8450315891e+01 1.0566000000e-01 0.0000e+00 -1.0000e+00
       22  1    1    0    0    0 -1.1119681941e+01 -1.9696531772e+01 +7.8112915966e+00 2.3929416347e+01 0.0000000000e+00 0.0000e+00 -1.0000e+00
</event>
<event>
 4      1 +2.4041262e-06 9.11880000e+01 7.81860800e-03 1.13011600e-01
       25 -1    0    0    0    0 +0.0000000000e+00 +0.0000000000e+00 +9.9999998245e-15 1.2500000000e+02 1.2500000000e+02 0.0000e+00 0.0000e+00
      -13  1    1    0    0    0 -5.4311687610e+01 -5.9186443950e+00 +3.0355379487e+01 6.2499999923e+01 1.0566000000e-01 0.0000e+00 1.0000e+00
       13  1    1    0    0    0 +5.4311687677e+01 +5.9186444026e+00 -3.0355379524e+01 6.2500000000e+01 1.0566000000e-01 0.0000e+00 1.0000e+00
       22  1    1    0    0    0 -6.6841757319e-08 -7.5486498972e-09 +3.7670833308e-08 7.7096655692e-08 0.0000000000e+00 0.0000e+00 -1.0000e+00
</event>
<event>
 4      1 +2.4041262e-06 9.11880000e+01 7.81860800e-03 1.13011600e-01
       25 -1    0    0    0    0 +0.0000000000e+00 +0.0000000000e+00 +9.9999998245e-15 1.2500000000e+02 1.2500000000e+02 0.0000e+00 0.0000e+00
      -11  1    1    0    0    0 -4.7047640706e+01 -1.9077075084e+01 -1.8111747803e+01 5.3902232779e+01 5.1100000000e-04 0.0000e+00 1.0000e+00
       11  1    1    0    0    0 -7.5045426544e+00 -3.0430171017e+00 -2.8885095884e+00 8.5977672355e+00 5.1100000000e-04 0.0000e+00 -1.0000e+00
       22  1    1    0    0    0 +5.4552183360e+01 +2.2120092186e+01 +2.1000257392e+01 6.2499999986e+01 0.0000000000e+00 0.0000e+00 1.0000e+00
</event>
<event>
 4      1 +2.4041262e-06 9.11880000e+01 7.81860800e-03 1.13011600e-01
       25 -1    0    0    0    0 +0.0000000000e+00 +0.0000000000e+00 +9.9999998245e-15 1.2500000000e+02 1.2500000000e+02 0.0000e+00 0.0000e+00
      -13  1    1    0    0    0 +1.1661479744e+01 +6.0006931177e+01 -1.3016025815e+01 6.2499999930e+01 1.0566000000e-01 0.0000e+00 1.0000e+00
       13  1    1    0    0    0 -1.1661479758e+01 -6.0006931248e+01 +1.3016025799e+01 6.2499999997e+01 1.0566000000e-01 0.0000e+00 1.0000e+00
       22  1    1    0    0    0 +1.4234025190e-08 +7.0573972532e-08 +1.5513527611e-08 7.3647556721e-08 0.0000000000e+00 0.0000e+00 -1.0000e+00
</event>
<event>
 4      1 +2.4041262e-06 9.11880000e+01 7.81860800e-03 1.13011600e-01
       25 -1    0    0    0    0 +0.0000000000e+00 +0.0000000000e+00 +9.9999998245e-15 1.2500000000e+02 1.2500000000e+02 0.0000e+00 0.0000e+00
      -11  1    1    0    0    0 +1.5183987797e+01 +2.8991429241e+01 +7.7562856879e+00 3.3633560959e+01 5.1100000000e-04 0.0000e+00 1.0000e+00
       11  1    1    0    0    0 +1.7717195208e+01 +2.1503468488e+01 +8.1596140244e+00 2.9032352030e+01 5.1100000000e-04 0.0000e+00 -1.0000e+00
       22  1    1    0    0    0 -3.2901183006e+01 -5.0494897729e+01 -1.5915899712e+01 6.2334087011e+01 0.0000000000e+00 0.0000e+00 -1.0000e+00
</event>
<event>
 5      1 +2.4041262e-06 9.11880000e+01 7.81860800e-03 1.13011600e-01
       25 -1    0    0    0    0 +0.0000000000e+00 +0.0000000000e+00 +9.9999998245e-15 1.2500000000e+02 1.2500000000e+02 0.0000e+00 0.0000e+00
       23  2    1    0    0    0 +2.7741575083e+01 +3.4797744677e-01 -9.0831738031e+00 9.5807190565e+01 9.1251288436e+01 0.0000e+00 0.0000e+00
      -13  1    2    2    0    0 -2.6553677059e+01 +8.1948248525e+00 -2.6348510769e+01 3.8295014081e+01 1.0566000000e-01 0.0000e+00 1.0000e+00
       13  1    2    2    0    0 +5.4295252141e+01 -7.8468474057e+00 +1.7265336966e+01 5.7512176484e+01 1.0566000000e-01 0.0000e+00 -1.0000e+00
       22  1    1    0    0    0 -2.7741575083e+01 -3.4797744677e-01 +9.0831738031e+00 2.9192809435e+01 0.0000000000e+00 0.0000e+00 -1.0000e+00
</event>
<event>
 4      1 +2.4041262e-06 9.11880000e+01 7.81860800e-03 1.13011600e-01
       25 -1    0    0    0    0 +0.0000000000e+00 +0.0000000000e+00 +9.9999998245e-15 1.2500000000e+02 1.2500000000e+02 0.0000e+00 0.0000e+00
      -13  1    1    0    0    0 -2.6393816911e+00 -4.6112108609e+01 -4.2106349202e+01 6.2499989626e+01 1.0566000000e-01 0.0000e+00 1.0000e+00
       13  1    1    0    0    0 +2.6248397288e+00 +4.5827293728e+01 +4.1841578841e+01 6.2110864734e+01 1.0566000000e-01 0.0000e+00 1.0000e+00
       22  1    1    0    0    0 +1.4541962313e-02 +2.8481488148e-01 +2.6477036091e-01 3.8914564034e-01 0.0000000000e+00 0.0000e+00 -1.0000e+00
</event>
<event>
 5      1 +2.4041262e-06 9.11880000e+01 7.81860800e-03 1.13011600e-01
       25 -1    0    0    0    0 +0.0000000000e+00 +0.0000000000e+00 +9.9999998245e-15 1.2500000000e+02 1.2500000000e+02 0.0000e+00 0.0000e+00
       23  2    1    0    0    0 +2.7513364838e+01 +3.6478002234e+00 +2.0148984433e+00 9.7172827903e+01 9.3103206044e+01 0.0000e+00 0.0000e+00
      -13  1    2    2    0    0 -1.0372432072e+01 +1.4818515707e+01 -3.7292953173e+01 4.1448175777e+01 1.0566000000e-01 0.0000e+00 1.0000e+00
       13  1    2    2    0    0 +3.7885796910e+01 -1.1170715484e+01 +3.9307851616e+01 5.5724652126e+01 1.0566000000e-01 0.0000e+00 -1.0000e+00
       22  1    1    0    0    0 -2.7513364838e+01 -3.6478002234e+00 -2.0148984433e+00 2.7827172097e+01 0.0000000000e+00 0.0000e+00 -1.0000e+00
</event>
<event>
 4      1 +2.4041262e-06 9.11880000e+01 7.81860800e-03 1.13011600e-01
       25 -1    0    0    0    0 +0.0000000000e+00 +0.0000000000e+00 +9.9999998245e-15 1.2500000000e+02 1.2500000000e+02 0.0000e+00 0.0000e+00
      -13  1    1    0    0    0 -1.4064572526e+01 +3.6248189733e+01 +4.8933581278e+01 6.2500000000e+01 1.0566000000e-01 0.0000e+00 1.0000e+00
       13  1    1    0    0    0 +1.4064572526e+01 -3.6248189725e+01 -4.8933581267e+01 6.2499999987e+01 1.0566000000e-01 0.0000e+00 1.0000e+00
       22  1    1    0    0    0 +1.0529818108e-10 -7.2907940463e-09 -1.1474946553e-08 1.3595630324e-08 0.0000000000e+00 0.0000e+00 -1.0000e+00
</event>
<event>
 4      1 +2.4041262e-06 9.11880000e+01 7.81860800e-03 1.13011600e-01
       25 -1    0    0    0    0 +0.0000000000e+00 +0.0000000000e+00 +9.9999998245e-15 1.2500000000e+02 1.2500000000e+02 0.0000e+00 0.0000e+00
      -13  1    1    0    0    0 -6.1750039886e+01 -4.8714336079e+00 -8.3330993408e+00 6.2499999999e+01 1.0566000000e-01 0.0000e+00 1.0000e+00
       13  1    1    0    0    0 +6.1750039886e+01 +4.8714336078e+00 +8.3330993409e+00 6.2500000000e+01 1.0566000000e-01 0.0000e+00 1.0000e+00
       22  1    1    0    0    0 -5.0539672412e-10 +1.2408272896e-10 -8.9268645720e-11 5.2800687825e-10 0.0000000000e+00 0.0000e+00 1.0000e+00
</event>
<event>
 4      1 +2.4041262e-06 9.11880000e+01 7.81860800e-03 1.13011600e-01
       25 -1    0    0    0    0 +0.0000000000e+00 +0.0000000000e+00 +9.9999998245e-15 1.2500000000e+02 1.2500000000e+02 0.0000e+00 0.0000e+00
      -11  1    1    0    0    0 -4.1427994635e+00 +1.6679209681e+01 -1.4320400201e+01 2.2370352817e+01 5.1100000000e-04 0.0000e+00 -1.0000e+00
       11  1    1    0    0    0 -7.1814881790e+00 +2.9869331566e+01 -2.5819615863e+01 4.0129830603e+01 5.1100000000e-04 0.0000e+00 1.0000e+00
       22  1    1    0    0    0 +1.1324287643e+01 -4.6548541247e+01 +4.0140016064e+01 6.2499816580e+01 0.0000000000e+00 0.0000e+00 1.0000e+00
</event>
<event>
 4      1 +2.4041262e-06 9.11880000e+01 7.81860800e-03 1.13011600e-01
       25 -1    0    0    0    0 +0.0000000000e+00 +0.0000000000e+00 +9.9999998245e-15 1.2500000000e+02 1.2500000000e+02 0.0000e+00 0.0000e+00
      -11  1    1    0    0    0 +5.6292237177e-01 +9.6817021863e+00 -5.5816015220e+00 1.1189571691e+01 5.1100000000e-04 0.0000e+00 -1.0000e+00
       11  1    1    0    0    0 +2.6644191480e+00 +4.4381013814e+01 -2.5612247127e+01 5.1310434803e+01 5.1100000000e-04 0.0000e+00 1.0000e+00
       22  1    1    0    0    0 -3.2273415197e+00 -5.4062716000e+01 +3.1193848649e+01 6.2499993505e+01 0.0000000000e+00 0.0000e+00 1.0000e+00
</event>
<event>
 4      1 +2.4041262e-06 9.11880000e+01 7.81860800e-03 1.13011600e-01
       25 -1    0    0    0    0 +0.0000000000e+00 +0.0000000000e+00 +9.9999998245e-15 1.2500000000e+02 1.2500000000e+02 0.0000e+00 0.0000e+00
      -13  1    1    0    0    0 -1.5421145976e+01 +1.8577256596e+01 +5.7648179712e+01 6.2499999952e+01 1.0566000000e-01 0.0000e+00 -1.0000e+00
       13  1    1    0    0    0 +1.5421145988e+01 -1.8577256611e+01 -5.7648179756e+01 6.2500000000e+01 1.0566000000e-01 0.0000e+00 -1.0000e+00
       22  1    1    0    0    0 -1.2584423897e-08 +1.4804158472e-08 +4.3778434651e-08 4.7896577887e-08 0.0000000000e+00 0.0000e+00 1.0000e+00
</event>
<event>
 4      1 +2.4041262e-06 9.11880000e+01 7.81860800e-03 1.13011600e-01
       25 -1    0    0    0    0 +0.0000000000e+00 +0.0000000000e+00 +9.9999998245e-15 1.2500000000e+02 1.2500000000e+02 0.0000e+00 0.0000e+00
      -13  1    1    0    0    0 +2.0226622396e+01 +4.8893373675e+01 +3.3265005529e+01 6.2499999998e+01 1.0566000000e-01 0.0000e+00 1.0000e+00
       13  1    1    0    0    0 -2.0226622397e+01 -4.8893373676e+01 -3.3265005530e+01 6.2500000000e+01 1.0566000000e-01 0.0000e+00 1.0000e+00
       22  1    1    0    0    0 +4.8047726535e-10 +1.5540878900e-09 +1.0206149020e-09 1.9203391238e-09 0.0000000000e+00 0.0000e+00 1.0000e+00
</event>
<event>
 4      1 +2.4041262e-06 9.11880000e+01 7.81860800e-03 1.13011600e-01
       25 -1    0    0    0    0 +0.0000000000e+00 +0.0000000000e+00 +9.9999998245e-15 1.2500000000e+02 1.2500000000e+02 0.0000e+00 0.0000e+00
      -13  1    1    0    0    0 +5.8189001929e+01 -5.0061143943e+00 +1.0489497203e+01 5.9338535897e+01 1.0566000000e-01 0.0000e+00 1.0000e+00
       13  1    1    0    0    0 -6.1284949084e+01 +5.3043892920e+00 -1.1056530442e+01 6.2499916476e+01 1.0566000000e-01 0.0000e+00 1.0000e+00
       22  1    1    0    0    0 +3.0959471556e+00 -2.9827489766e-01 +5.6703323978e-01 3.1615476273e+00 0.0000000000e+00 0.0000e+00 -1.0000e+00
</event>
<event>
 4      1 +2.4041262e-06 9.11880000e+01 7.81860800e-03 1.13011600e-01
       25 -1    0    0    0    0 +0.0000000000e+00 +0.0000000000e+00 +9.9999998245e-15 1.2500000000e+02 1.2500000000e+02 0.0000e+00 0.0000e+00
      -13  1    1    0    0    0 -2.9095757352e+01 -1.4023594543e+00 +5.5296556175e+01 6.2499999974e+01 1.0566000000e-01 0.0000e+00 -1.0000e+00
       13  1    1    0    0    0 +2.9095757378e+01 +1.4023593990e+00 -5.5296556144e+01 6.2499999958e+01 1.0566000000e-01 0.0000e+00 -1.0000e+00
       22  1    1    0    0    0 -2.5969049416e-08 +5.5249508229e-08 -3.0906336411e-08 6.8425881931e-08 0.0000000000e+00 0.0000e+00 1.0000e+00
</event>
<event>
 4      1 +2.4041262e-06 9.11880000e+01 7.81860800e-03 1.13011600e-01
       25 -1    0    0    0    0 +0.0000000000e+00 +0.0000000000e+00 +9.9999998245e-15 1.2500000000e+02 1.2500000000e+02 0.0000e+00 0.0000e+00
      -13  1    1    0    0    0 -2.1932165251e+01 +5.2130671027e+00 +5.7836940402e+01 6.2075105963e+01 1.0566000000e-01 0.0000e+00 1.0000e+00
       13  1    1    0    0    0 +2.1438112944e+01 -4.1776353269e+00 -4.4832300022e+01 4.9869746469e+01 1.0566000000e-01 0.0000e+00 1.0000e+00
       22  1    1    0    0    0 +4.9405230701e-01 -1.0354317758e+00 -1.3004640379e+01 1.3055147569e+01 0.0000000000e+00 0.0000e+00 -1.0000e+00
</event>
<event>
 4      1 +2.4041262e-06 9.11880000e+01 7.81860800e-03 1.13011600e-01
       25 -1    0    0    0    0 +0.0000000000e+00 +0.0000000000e+00 +9.9999998245e-15 1.2500000000e+02 1.2500000000e+02 0.0000e+00 0.0000e+00
      -13  1    1    0    0    0 +2.0061976523e+00 -2.3937010303e+00 -6.5724664665e+00 7.2775760478e+00 1.0566000000e-01 0.0000e+00 -1.0000e+00
       13  1    1    0    0    0 +2.6674134480e+01 -5.4165775883e+00 -4.8228400818e+01 5.5379044525e+01 1.0566000000e-01 0.0000e+00 1.0000e+00
       22  1    1    0    0    0 -2.8680332132e+01 +7.8102786186e+00 +5.4800867284e+01 6.2343379427e+01 0.0000000000e+00 0.0000e+00 1.0000e+00
</event>
<event>
 5      1 +2.4041262e-06 9.11880000e+01 7.81860800e-03 1.13011600e-01
       25 -1    0    0    0    0 +0.0000000000e+00 +0.0000000000e+00 +9.9999998245e-15 1.2500000000e+02 1.2500000000e+02 0.0000e+00 0.0000e+00
       23  2    1    0    0    0 +1.6836535268e+01 -2.1945451635e+01 +4.8838080226e+00 9.6912220663e+01 9.2752655842e+01 0.0000e+00 0.0000e+00
      -13  1    2    2    0    0 -3.3802633103e+01 -1.6280952713e+01 +2.1590772703e+01 4.3288105247e+01 1.0566000000e-01 0.0000e+00 1.0000e+00
       13  1    2    2    0    0 +5.0639168370e+01 -5.6644989219e+00 -1.6706964681e+01 5.3624115416e+01 1.0566000000e-01 0.0000e+00 -1.0000e+00
       22  1    1    0    0    0 -1.6836535268e+01 +2.1945451635e+01 -4.8838080226e+00 2.8087779337e+01 0.0000000000e+00 0.0000e+00 -1.0000e+00
</event>
<event>
 4      1 +2.4041262e-06 9.11880000e+01 7.81860800e-03 1.13011600e-01
       25 -1    0    0    0    0 +0.0000000000e+00 +0.0000000000e+00 +9.9999998245e-15 1.2500000000e+02 1.2500000000e+02 0.0000e+00 0.0000e+00
      -13  1    1    0    0    0 -1.8822280985e+01 -2.6439307164e+01 -5.3412766291e+01 6.2499999934e+01 1.0566000000e-01 0.0000e+00 -1.0000e+00
       13  1    1    0    0    0 +1.8816655460e+01 +2.6431412853e+01 +5.3396933185e+01 6.2481435208e+01 1.0566000000e-01 0.0000e+00 -1.0000e+00
       22  1    1    0    0    0 +5.6255253579e-03 +7.8943118952e-03 +1.5833106143e-02 1.8564857823e-02 0.0000000000e+00 0.0000e+00 1.0000e+00
</event>
<event>
 4      1 +2.4041262e-06 9.11880000e+01 7.81860800e-03 1.13011600e-01
       25 -1    0    0    0    0 +0.0000000000e+00 +0.0000000000e+00 +9.9999998245e-15 1.2500000000e+02 1.2500000000e+02 0.0000e+00 0.0000e+00
      -13  1    1    0    0    0 -4.7610729098e+01 -7.2553244257e+00 +3.9834875324e+01 6.2499997711e+01 1.0566000000e-01 0.0000e+00 -1.0000e+00
       13  1    1    0    0    0 +4.7610717754e+01 +7.2553329361e+00 -3.9834852939e+01 6.2499975790e+01 1.0566000000e-01 0.0000e+00 -1.0000e+00
       22  1    1    0    0    0 +1.1343445899e-05 -8.5104432990e-06 -2.2385214905e-05 2.6499042555e-05 0.0000000000e+00 0.0000e+00 -1.0000e+00
</event>
<event>
 4      1 +2.4041262e-06 9.11880000e+01 7.81860800e-03 1.13011600e-01
       25 -1    0    0    0    0 +0.0000000000e+00 +0.0000000000e+00 +9.9999998245e-15 1.2500000000e+02 1.2500000000e+02 0.0000e+00 0.0000e+00
      -13  1    1    0    0    0 +2.5919831109e+01 -2.5674805676e+01 +5.0657450580e+01 6.2427732255e+01 1.0566000000e-01 0.0000e+00 -1.0000e+00
       13  1    1    0    0    0 -2.5949672408e+01 +2.5704447824e+01 -5.0716217056e+01 6.2499999780e+01 1.0566000000e-01 0.0000e+00 -1.0000e+00
       22  1    1    0    0    0 +2.9841298518e-02 -2.9642147711e-02 +5.8766476256e-02 7.2267964893e-02 0.0000000000e+00 0.0000e+00 1.0000e+00
</event>
<event>
 4      1 +2.4041262e-06 9.11880000e+01 7.81860800e-03 1.13011600e-01
       25 -1    0    0    0    0 +0.0000000000e+00 +0.0000000000e+00 +9.9999998245e-15 1.2500000000e+02 1.2500000000e+02 0.0000e+00 0.0000e+00
      -13  1    1    0    0    0 -6.7182588747e+00 +6.1933950051e+01 +5.0288829715e+00 6.2499999993e+01 1.0566000000e-01 0.0000e+00 1.0000e+00
       13  1    1    0    0    0 +6.7182588753e+00 -6.1933950057e+01 -5.0288829719e+00 6.2500000000e+01 1.0566000000e-01 0.0000e+00 1.0000e+00
       22  1    1    0    0    0 -5.7818430207e-10 +6.7949602590e-09 +4.0788080449e-10 6.8317017470e-09 0.0000000000e+00 0.0000e+00 1.0000e+00
</event>
<event>
 4      1 +2.4041262e-06 9.11880000e+01 7.81860800e-03 1.13011600e-01
       25 -1    0    0    0    0 +0.0000000000e+00 +0.0000000000e+00 +9.9999998245e-15 1.2500000000e+02 1.2500000000e+02 0.0000e+00 0.0000e+00
      -11  1    1    0    0    0 -2.8098441527e-01 +2.1411399392e+00 -3.1956595903e+01 3.2029477899e+01 5.1100000000e-04 0.0000e+00 -1.0000e+00
       11  1    1    0    0    0 +3.6103309386e+00 +1.3887064424e+01 -2.7652943845e+01 3.1153978099e+01 5.1100000000e-04 0.0000e+00 1.0000e+00
       22  1    1    0    0    0 -3.3293465234e+00 -1.6028204363e+01 +5.9609539749e+01 6.1816544003e+01 0.0000000000e+00 0.0000e+00 1.0000e+00
</event>
<event>
 4      1 +2.4041262e-06 9.11880000e+01 7.81860800e-03 1.13011600e-01
       25 -1    0    0    0    0 +0.0000000000e+00 +0.0000000000e+00 +9.9999998245e-15 1.2500000000e+02 1.2500000000e+02 0.0000e+00 0.0000e+00
      -13  1    1    0    0    0 +2.0673576277e+01 -3.4384097751e+01 +4.7922603237e+01 6.2499999994e+01 1.0566000000e-01 0.0000e+00 -1.0000e+00
       13  1    1    0    0    0 -2.0673576279e+01 +3.4384097752e+01 -4.7922603243e+01 6.2500000000e+01 1.0566000000e-01 0.0000e+00 -1.0000e+00
       22  1    1    0    0    0 +2.0447696714e-09 -1.0606276392e-09 +5.7581932881e-09 6.2018387549e-09 0.0000000000e+00 0.0000e+00 -1.0000e+00
</event>
<event>
 4      1 +2.4041262e-06 9.11880000e+01 7.81860800e-03 1.13011600e-01
       25 -1    0    0    0    0 +0.0000000000e+00 +0.0000000000e+00 +9.9999998245e-15 1.2500000000e+02 1.2500000000e+02 0.0000e+00 0.0000e+00
      -13  1    1    0    0    0 -8.5980882861e+00 -5.6717559689e+00 +6.1328819069e+01 6.2187869801e+01 1.0566000000e-01 0.0000e+00 -1.0000e+00
       13  1    1    0    0    0 +8.6396940160e+00 +5.6974880715e+00 -6.1637100185e+01 6.2499991730e+01 1.0566000000e-01 0.0000e+00 -1.0000e+00
       22  1    1    0    0    0 -4.1605729900e-02 -2.5732102574e-02 +3.0828111515e-01 3.1213846899e-01 0.0000000000e+00 0.0000e+00 1.0000e+00
</event>
<event>
 4      1 +2.4041262e-06 9.11880000e+01 7.81860800e-03 1.13011600e-01
       25 -1    0    0    0    0 +0.0000000000e+00 +0.0000000000e+00 +9.9999998245e-15 1.2500000000e+02 1.2500000000e+02 0.0000e+00 0.0000e+00
      -13  1    1    0    0    0 +9.5856619171e+00 +3.1303151540e+01 -5.3239709102e+01 6.2500000000e+01 1.0566000000e-01 0.0000e+00 -1.0000e+00
       13  1    1    0    0    0 -9.5856618941e+00 -3.1303151464e+01 +5.3239708974e+01 6.2499999849e+01 1.0566000000e-01 0.0000e+00 -1.0000e+00
       22  1    1    0    0    0 -2.3056677670e-08 -7.5912289343e-08 +1.2804279797e-07 1.5062949303e-07 0.0000000000e+00 0.0000e+00 1.0000e+00
</event>
<event>
 5      1 +2.4041262e-06 9.11880000e+01 7.81860800e-03 1.13011600e-01
       25 -1    0    0    0    0 +0.0000000000e+00 +0.0000000000e+00 +9.9999998245e-15 1.2500000000e+02 1.2500000000e+02 0.0000e+00 0.0000e+00
       23  2    1    0    0    0 -1.4401106736e+01 +1.8670122231e+01 +1.8344509400e+01 9.5125489720e+01 9.0312637155e+01 0.0000e+00 0.0000e+00
      -11  1    2    2    0    0 +3.4388014254e+01 +4.3972313285e+00 -1.1072683079e+01 3.6393343877e+01 5.1100000000e-04 0.0000e+00 1.0000e+00
       11  1    2    2    0    0 -4.8789120990e+01 +1.4272890902e+01 +2.9417192479e+01 5.8732145843e+01 5.1100000000e-04 0.0000e+00 -1.0000e+00
       22  1    1    0    0    0 +1.4401106736e+01 -1.8670122231e+01 -1.8344509400e+01 2.9874510280e+01 0.0000000000e+00 0.0000e+00 -1.0000e+00
</event>
<event>
 4      1 +2.4041262e-06 9.11880000e+01 7.81860800e-03 1.13011600e-01
       25 -1    0    0    0    0 +0.0000000000e+00 +0.0000000000e+00 +9.9999998245e-15 1.2500000000e+02 1.2500000000e+02 0.0000e+00 0.0000e+00
      -13  1    1    0    0    0 -5.6706562802e+01 +9.6424640917e+00 +2.4446419775e+01 6.2499999860e+01 1.0566000000e-01 0.0000e+00 -1.0000e+00
       13  1    1    0    0    0 +5.6656849746e+01 -9.6341551523e+00 -2.4424951632e+01 6.2445215949e+01 1.0566000000e-01 0.0000e+00 -1.0000e+00
       22  1    1    0    0    0 +4.9713056767e-02 -8.3089393791e-03 -2.1468143064e-02 5.4784191637e-02 0.0000000000e+00 0.0000e+00 -1.0000e+00
</event>
<event>
 4      1 +2.4041262e-06 9.11880000e+01 7.81860800e-03 1.13011600e-01
       25 -1    0    0    0    0 +0.0000000000e+00 +0.0000000000e+00 +9.9999998245e-15 1.2500000000e+02 1.2500000000e+02 0.0000e+00 0.0000e+00
      -11  1    1    0    0    0 +1.2770222755e-01 -2.2847380298e+00 -2.5539239565e+00 3.4291199396e+00 5.1100000000e-04 0.0000e+00 -1.0000e+00
       11  1    1    0    0    0 +1.9667583785e+00 -3.9309679407e+01 -4.4048285685e+01 5.9070893896e+01 5.1100000000e-04 0.0000e+00 1.0000e+00
       22  1    1    0    0    0 -2.0944606060e+00 +4.1594417436e+01 +4.6602209642e+01 6.2499986165e+01 0.0000000000e+00 0.0000e+00 1.0000e+00
</event>
<event>
 5      1 +2.4041262e-06 9.11880000e+01 7.81860800e-03 1.13011600e-01
       25 -1    0    0    0    0 +0.0000000000e+00 +0.0000000000e+00 +9.9999998245e-15 1.2500000000e+02 1.2500000000e+02 0.0000e+00 0.0000e+00
       23  2    1    0    0    0 -9.5962708842e-01 -3.1671557062e+01 -3.1420163288e+00 9.3158506983e+01 8.7547854033e+01 0.0000e+00 0.0000e+00
      -13  1    2    2    0    0 -2.8445839607e+00 +4.5062386227e+00 -4.0658283694e+01 4.1006158579e+01 1.0566000000e-01 0.0000e+00 -1.0000e+00
       13  1    2    2    0    0 +1.8849568723e+00 -3.6177795685e+01 +3.7516267365e+01 5.2152348404e+01 1.0566000000e-01 0.0000e+00 1.0000e+00
       22  1    1    0    0    0 +9.5962708842e-01 +3.1671557062e+01 +3.1420163288e+00 3.1841493017e+01 0.0000000000e+00 0.0000e+00 1.0000e+00
</event>
<event>
 4      1 +2.4041262e-06 9.11880000e+01 7.81860800e-03 1.13011600e-01
       25 -1    0    0    0    0 +0.0000000000e+00 +0.0000000000e+00 +9.9999998245e-15 1.2500000000e+02 1.2500000000e+02 0.0000e+00 0.0000e+00
      -11  1    1    0    0    0 +2.1211819022e+00 -4.5189312521e+01 +2.4523757366e+01 5.1458605251e+01 5.1100000000e-04 0.0000e+00 -1.0000e+00
       11  1    1    0    0    0 +3.6823591635e-01 -9.6351820746e+00 +5.3805662601e+00 1.1041866909e+01 5.1100000000e-04 0.0000e+00 1.0000e+00
       22  1    1    0    0    0 -2.4894178185e+00 +5.4824494595e+01 -2.9904323626e+01 6.2499527840e+01 0.0000000000e+00 0.0000e+00 -1.0000e+00
</event>
<event>
 4      1 +2.4041262e-06 9.11880000e+01 7.81860800e-03 1.13011600e-01
       25 -1    0    0    0    0 +0.0000000000e+00 +0.0000000000e+00 +9.9999998245e-15 1.2500000000e+02 1.2500000000e+02 0.0000e+00 0.0000e+00
      -13  1    1    0    0    0 -3.7090694059e+01 -3.0294849043e+00 +1.5747633199e+00 3.7247663123e+01 1.0566000000e-01 0.0000e+00 -1.0000e+00
       13  1    1    0    0    0 -1.8647719167e+01 -1.8391105485e+01 -8.7404545954e+00 2.7611173493e+01 1.0566000000e-01 0.0000e+00 1.0000e+00
       22  1    1    0    0    0 +5.5738413227e+01 +2.1420590390e+01 +7.1656912755e+00 6.0141163383e+01 0.0000000000e+00 0.0000e+00 -1.0000e+00
</event>
<event>
 4      1 +2.4041262e-06 9.11880000e+01 7.81860800e-03 1.13011600e-01
       25 -1    0    0    0    0 +0.0000000000e+00 +0.0000000000e+00 +9.9999998245e-15 1.2500000000e+02 1.2500000000e+02 0.0000e+00 0.0000e+00
      -13  1    1    0    0    0 +1.6466616194e+01 +4.4657338526e+01 +4.0506928659e+01 6.2499998132e+01 1.0566000000e-01 0.0000e+00 -1.0000e+00
       13  1    1    0    0    0 -1.6458475735e+01 -4.4636052696e+01 -4.0488032997e+01 6.2470397820e+01 1.0566000000e-01 0.0000e+00 -1.0000e+00
       22  1    1    0    0    0 -8.1404590333e-03 -2.1285829458e-02 -1.8895662370e-02 2.9604048125e-02 0.0000000000e+00 0.0000e+00 1.0000e+00
</event>
<event>
 5      1 +2.4041262e-06 9.11880000e+01 7.81860800e-03 1.13011600e-01
       25 -1    0    0    0    0 +0.0000000000e+00 +0.0000000000e+00 +9.9999998245e-15 1.2500000000e+02 1.2500000000e+02 0.0000e+00 0.0000e+00
       23  2    1    0    0    0 +1.3939160655e+01 +2.3559258131e+01 -1.2226430635e+01 9.5019598910e+01 9.0165956588e+01 0.0000e+00 0.0000e+00
      -13  1    2    2    0    0 +2.0705494552e+01 +4.7966802606e+01 +1.8296685903e+01 5.5356224004e+01 1.0566000000e-01 0.0000e+00 1.0000e+00
       13  1    2    2    0    0 -6.7663338976e+00 -2.4407544475e+01 -3.0523116538e+01 3.9663374906e+01 1.0566000000e-01 0.0000e+00 -1.0000e+00
       22  1    1    0    0    0 -1.3939160655e+01 -2.3559258131e+01 +1.2226430635e+01 2.9980401090e+01 0.0000000000e+00 0.0000e+00 1.0000e+00
</event>
<event>
 4      1 +2.4041262e-06 9.11880000e+01 7.81860800e-03 1.13011600e-01
       25 -1    0    0    0    0 +0.0000000000e+00 +0.0000000000e+00 +9.9999998245e-15 1.2500000000e+02 1.2500000000e+02 0.0000e+00 0.0000e+00
      -13  1    1    0    0    0 -1.0172152635e+01 -5.5988868806e+01 +2.5845941974e+01 6.2500000000e+01 1.0566000000e-01 0.0000e+00 1.0000e+00
       13  1    1    0    0    0 +1.0172152635e+01 +5.5988868806e+01 -2.5845941974e+01 6.2500000000e+01 1.0566000000e-01 0.0000e+00 1.0000e+00
       22  1    1    0    0    0 +2.9243260812e-12 +1.2698354233e-10 -4.3005743371e-11 1.3410020756e-10 0.0000000000e+00 0.0000e+00 1.0000e+00
</event>
<event>
 5      1 +2.4041262e-06 9.11880000e+01 7.81860800e-03 1.13011600e-01
       25 -1    0    0    0    0 +0.0000000000e+00 +0.0000000000e+00 +9.9999998245e-15 1.2500000000e+02 1.2500000000e+02 0.0000e+00 0.0000e+00
       23  2    1    0    0    0 -2.5524573402e+01 -2.6825323261e+00 -1.4505985307e+01 9.5519100476e+01 9.0855792985e+01 0.0000e+00 0.0000e+00
      -11  1    2    2    0    0 +3.4049122135e+01 -5.5626134982e-01 -1.1072983724e+01 3.5808701647e+01 5.1100000000e-04 0.0000e+00 1.0000e+00
       11  1    2    2    0    0 -5.9573695537e+01 -2.1262709762e+00 -3.4330015829e+00 5.9710398829e+01 5.1100000000e-04 0.0000e+00 -1.0000e+00
       22  1    1    0    0    0 +2.5524573402e+01 +2.6825323261e+00 +1.4505985307e+01 2.9480899524e+01 0.0000000000e+00 0.0000e+00 -1.0000e+00
</event>
<event>
 5      1 +2.4041262e-06 9.11880000e+01 7.81860800e-03 1.13011600e-01
       25 -1    0    0    0    0 +0.0000000000e+00 +0.0000000000e+00 +9.9999998245e-15 1.2500000000e+02 1.2500000000e+02 0.0000e+00 0.0000e+00
       23  2    1    0    0    0 +4.5414821617e+00 -2.8052386608e+01 +4.0594200722e+00 9.6293897061e+01 9.1915582276e+01 0.0000e+00 0.0000e+00
      -11  1    2    2    0    0 +1.6979793292e+01 -5.0128438063e+01 +2.9328165344e+01 6.0508800729e+01 5.1100000000e-04 0.0000e+00 -1.0000e+00
       11  1    2    2    0    0 -1.2438311131e+01 +2.2076051455e+01 -2.5268745271e+01 3.5785096332e+01 5.1100000000e-04 0.0000e+00 1.0000e+00
       22  1    1    0    0    0 -4.5414821617e+00 +2.8052386608e+01 -4.0594200722e+00 2.8706102939e+01 0.0000000000e+00 0.0000e+00 -1.0000e+00
</event>
<event>
 4      1 +2.4041262e-06 9.11880000e+01 7.81860800e-03 1.13011600e-01
       25 -1    0    0    0    0 +0.0000000000e+00 +0.0000000000e+00 +9.9999998245e-15 1.2500000000e+02 1.2500000000e+02 0.0000e+00 0.0000e+00
      -13  1    1    0    0    0 +2.2104937619e+01 -1.8411167448e+01 -4.9859790670e+01 5.7563957852e+01 1.0566000000e-01 0.0000e+00 1.0000e+00
       13  1    1    0    0    0 -2.3073309060e+01 +1.9759818275e+01 +5.4562294573e+01 6.2449044528e+01 1.0566000000e-01 0.0000e+00 1.0000e+00
       22  1    1    0    0    0 +9.6837144172e-01 -1.3486508270e+00 -4.7025039038e+00 4.9869976206e+00 0.0000000000e+00 0.0000e+00 1.0000e+00
</event>
<event>
 4      1 +2.4041262e-06 9.11880000e+01 7.81860800e-03 1.13011600e-01
       25 -1    0    0    0    0 +0.0000000000e+00 +0.0000000000e+00 +9.9999998245e-15 1.2500000000e+02 1.2500000000e+02 0.0000e+00 0.0000e+00
      -11  1    1    0    0    0 -1.2442294530e+01 -3.3174770344e+00 +4.8963263680e+01 5.0628228662e+01 5.1100000000e-04 0.0000e+00 1.0000e+00
       11  1    1    0    0    0 -2.8967503532e+00 -7.4315508976e-01 +1.1488959962e+01 1.1871800342e+01 5.1100000000e-04 0.0000e+00 -1.0000e+00
       22  1    1    0    0    0 +1.5339044883e+01 +4.0606321242e+00 -6.0452223642e+01 6.2499970995e+01 0.0000000000e+00 0.0000e+00 1.0000e+00
</event>
<event>
 4      1 +2.4041262e-06 9.11880000e+01 7.81860800e-03 1.13011600e-01
       25 -1    0    0    0    0 +0.0000000000e+00 +0.0000000000e+00 +9.9999998245e-15 1.2500000000e+02 1.2500000000e+02 0.0000e+00 0.0000e+00
      -13  1    1    0    0    0 -6.4188755501e+00 +5.4935693393e+00 +1.8812017675e+01 2.0622425669e+01 1.0566000000e-01 0.0000e+00 -1.0000e+00
       13  1    1    0    0    0 -6.2314298137e+00 +4.4666713018e+01 +8.4785469369e+00 4.5889463840e+01 1.0566000000e-01 0.0000e+00 1.0000e+00
       22  1    1    0    0    0 +1.2650305364e+01 -5.0160282357e+01 -2.7290564612e+01 5.8488110491e+01 0.0000000000e+00 0.0000e+00 1.0000e+00
</event>
<event>
 5      1 +2.4041262e-06 9.11880000e+01 7.81860800e-03 1.13011600e-01
       25 -1    0    0    0    0 +0.0000000000e+00 +0.0000000000e+00 +9.9999998245e-15 1.2500000000e+02 1.2500000000e+02 0.0000e+00 0.0000e+00
       23  2    1    0    0    0 +2.3358134836e+01 +1.9149803644e-01 -1.5732397581e+01 9.6837126067e+01 9.2651397814e+01 0.0000e+00 0.0000e+00
      -13  1    2    2    0    0 +9.9572454842e+00 +2.9739919950e+01 -4.3844532953e+01 5.3906992219e+01 1.0566000000e-01 0.0000e+00 -1.0000e+00
       13  1    2    2    0    0 +1.3400889352e+01 -2.9548421914e+01 +2.8112135372e+01 4.2930133848e+01 1.0566000000e-01 0.0000e+00 1.0000e+00
       22  1    1    0    0    0 -2.3358134836e+01 -1.9149803644e-01 +1.5732397581e+01 2.8162873933e+01 0.0000000000e+00 0.0000e+00 1.0000e+00
</event>
<event>
 4      1 +2.4041262e-06 9.11880000e+01 7.81860800e-03 1.13011600e-01
       25 -1    0    0    0    0 +0.0000000000e+00 +0.0000000000e+00 +9.9999998245e-15 1.2500000000e+02 1.2500000000e+02 0.0000e+00 0.0000e+00
      -11  1    1    0    0    0 +4.1597498608e+01 -4.0949231817e+00 +1.6695526966e+00 4.1831898030e+01 5.1100000000e-04 0.0000e+00 -1.0000e+00
       11  1    1    0    0    0 +2.0703973354e+01 +4.9533188575e-01 +6.4328199009e-01 2.0719886059e+01 5.1100000000e-04 0.0000e+00 1.0000e+00
       22  1    1    0    0    0 -6.2301471962e+01 +3.5995912960e+00 -2.3128346867e+00 6.2448215911e+01 0.0000000000e+00 0.0000e+00 1.0000e+00
</event>
<event>
 4      1 +2.4041262e-06 9.11880000e+01 7.81860800e-03 1.13011600e-01
       25 -1    0    0    0    0 +0.0000000000e+00 +0.0000000000e+00 +9.9999998245e-15 1.2500000000e+02 1.2500000000e+02 0.0000e+00 0.0000e+00
      -13  1    1    0    0    0 -3.0903065456e+01 -4.9098388918e+01 +1.3470466644e+01 5.9557668563e+01 1.0566000000e-01 0.0000e+00 1.0000e+00
       13  1    1    0    0    0 +3.2425759943e+01 +5.1525813646e+01 -1.4138561285e+01 6.2499995672e+01 1.0566000000e-01 0.0000e+00 1.0000e+00
       22  1    1    0    0    0 -1.5226944870e+00 -2.4274247271e+00 +6.6809464111e-01 2.9423357653e+00 0.0000000000e+00 0.0000e+00 -1.0000e+00
</event>
<event>
 4      1 +2.4041262e-06 9.11880000e+01 7.81860800e-03 1.13011600e-01
       25 -1    0    0    0    0 +0.0000000000e+00 +0.0000000000e+00 +9.9999998245e-15 1.2500000000e+02 1.2500000000e+02 0.0000e+00 0.0000e+00
      -11  1    1    0    0    0 +4.2717757703e+01 -1.5677993133e+01 -2.9764342184e+01 5.4373912474e+01 5.1100000000e-04 0.0000e+00 1.0000e+00
       11  1    1    0    0    0 +7.2216099310e+00 -1.2400668441e-01 -4.0492027628e+00 8.2802820561e+00 5.1100000000e-04 0.0000e+00 -1.0000e+00
       22  1    1    0    0    0 -4.9939367634e+01 +1.5801999817e+01 +3.3813544947e+01 6.2345805470e+01 0.0000000000e+00 0.0000e+00 1.0000e+00
</event>
<event>
 4      1 +2.4041262e-06 9.11880000e+01 7.81860800e-03 1.13011600e-01
       25 -1    0    0    0    0 +0.0000000000e+00 +0.0000000000e+00 +9.9999998245e-15 1.2500000000e+02 1.2500000000e+02 0.0000e+00 0.0000e+00
      -13  1    1    0    0    0 +1.0257107795e+01 -5.2184244864e+01 +3.2830399986e+01 6.2499999997e+01 1.0566000000e-01 0.0000e+00 1.0000e+00
       13  1    1    0    0    0 -1.0257107760e+01 +5.2184244813e+01 -3.2830399928e+01 6.2499999919e+01 1.0566000000e-01 0.0000e+00 1.0000e+00
       22  1    1    0    0    0 -3.4439840124e-08 +5.0922442457e-08 -5.7540162826e-08 8.4202541954e-08 0.0000000000e+00 0.0000e+00 -1.0000e+00
</event>
<event>
 5      1 +2.4041262e-06 9.11880000e+01 7.81860800e-03 1.13011600e-01
       25 -1    0    0    0    0 +0.0000000000e+00 +0.0000000000e+00 +9.9999998245e-15 1.2500000000e+02 1.2500000000e+02 0.0000e+00 0.0000e+00
       23  2    1    0    0    0 -2.4417144936e+01 -5.9538506047e+00 -1.8651763225e+01 9.3702498897e+01 8.8321145397e+01 0.0000e+00 0.0000e+00
      -11  1    2    2    0    0 +1.4685422442e+01 -3.2295979509e+01 +1.2016532096e+01 3.7457829203e+01 5.1100000000e-04 0.0000e+00 -1.0000e+00
       11  1    2    2    0    0 -3.9102567379e+01 +2.6342128904e+01 -3.0668295321e+01 5.6244669694e+01 5.1100000000e-04 0.0000e+00 1.0000e+00
       22  1    1    0    0    0 +2.4417144936e+01 +5.9538506047e+00 +1.8651763225e+01 3.1297501103e+01 0.0000000000e+00 0.0000e+00 1.0000e+00
</event>
<event>
 4      1 +2.4041262e-06 9.11880000e+01 7.81860800e-03 1.13011600e-01
       25 -1    0    0    0    0 +0.0000000000e+00 +0.0000000000e+00 +9.9999998245e-15 1.2500000000e+02 1.2500000000e+02 0.0000e+00 0.0000e+00
      -13  1    1    0    0    0 +2.8249541724e-01 -4.3960956370e+01 +3.6898530653e+01 5.7394757749e+01 1.0566000000e-01 0.0000e+00 -1.0000e+00
       13  1    1    0    0    0 -2.9338772242e-02 -4.0054019565e+00 +3.1663816228e+00 5.1069797546e+00 1.0566000000e-01 0.0000e+00 1.0000e+00
       22  1    1    0    0    0 -2.5315664499e-01 +4.7966358326e+01 -4.0064912276e+01 6.2498262497e+01 0.0000000000e+00 0.0000e+00 -1.0000e+00
</event>
<event>
 5      1 +2.4041262e-06 9.11880000e+01 7.81860800e-03 1.13011600e-01
       25 -1    0    0    0    0 +0.0000000000e+00 +0.0000000000e+00 +9.9999998245e-15 1.2500000000e+02 1.2500000000e+02 0.0000e+00 0.0000e+00
       23  2    1    0    0    0 +2.4084285746e+01 +1.0527211000e+01 -1.3378167313e+01 9.5506774473e+01 9.0838833206e+01 0.0000e+00 0.0000e+00
      -13  1    2    2    0    0 -2.9241614868e+01 +1.8276136682e+01 +1.1232493945e+01 3.6266641647e+01 1.0566000000e-01 0.0000e+00 1.0000e+00
       13  1    2    2    0    0 +5.3325900614e+01 -7.7489256824e+00 -2.4610661259e+01 5.9240132825e+01 1.0566000000e-01 0.0000e+00 -1.0000e+00
       22  1    1    0    0    0 -2.4084285746e+01 -1.0527211000e+01 +1.3378167313e+01 2.9493225527e+01 0.0000000000e+00 0.0000e+00 -1.0000e+00
</event>
<event>
 4      1 +2.4041262e-06 9.11880000e+01 7.81860800e-03 1.13011600e-01
       25 -1    0    0    0    0 +0.0000000000e+00 +0.0000000000e+00 +9.9999998245e-15 1.2500000000e+02 1.2500000000e+02 0.0000e+00 0.0000e+00
      -11  1    1    0    0    0 +3.1551765184e+00 +4.1704424814e-01 +1.6101247328e+00 3.5667305314e+00 5.1100000000e-04 0.0000e+00 -1.0000e+00
       11  1    1    0    0    0 +5.4947927764e+01 +3.6878256868e+00 +2.1015838707e+01 5.8945231365e+01 5.1100000000e-04 0.0000e+00 1.0000e+00
       22  1    1    0    0    0 -5.8103104283e+01 -4.1048699349e+00 -2.2625963439e+01 6.2488038104e+01 0.0000000000e+00 0.0000e+00 1.0000e+00
</event>
<event>
 4      1 +2.4041262e-06 9.11880000e+01 7.81860800e-03 1.13011600e-01
       25 -1    0    0    0    0 +0.0000000000e+00 +0.0000000000e+00 +9.9999998245e-15 1.2500000000e+02 1.2500000000e+02 0.0000e+00 0.0000e+00
      -13  1    1    0    0    0 +5.7016834991e+00 -2.7875599680e+01 +3.8953532674e+01 4.8238440315e+01 1.0566000000e-01 0.0000e+00 -1.0000e+00
       13  1    1    0    0    0 +1.8872229978e+00 -8.7480000576e+00 +1.1112017734e+01 1.4268048844e+01 1.0566000000e-01 0.0000e+00 1.0000e+00
       22  1    1    0    0    0 -7.5889064969e+00 +3.6623599738e+01 -5.0065550408e+01 6.2493510841e+01 0.0000000000e+00 0.0000e+00 -1.0000e+00
</event>
<event>
 4      1 +2.4041262e-06 9.11880000e+01 7.81860800e-03 1.13011600e-01
       25 -1    0    0    0    0 +0.0000000000e+00 +0.0000000000e+00 +9.9999998245e-15 1.2500000000e+02 1.2500000000e+02 0.0000e+00 0.0000e+00
      -13  1    1    0    0    0 +3.3604213305e+01 +5.1015175255e+01 +1.3207859670e+01 6.2499999834e+01 1.0566000000e-01 0.0000e+00 1.0000e+00
       13  1    1    0    0    0 -3.3604213391e+01 -5.1015175391e+01 -1.3207859711e+01 6.2500000000e+01 1.0566000000e-01 0.0000e+00 1.0000e+00
       22  1    1    0    0    0 +8.5853133135e-08 +1.3572330075e-07 +4.0839193270e-08 1.6570882458e-07 0.0000000000e+00 0.0000e+00 1.0000e+00
</event>
<event>
 4      1 +2.4041262e-06 9.11880000e+01 7.81860800e-03 1.13011600e-01
       25 -1    0    0    0    0 +0.0000000000e+00 +0.0000000000e+00 +9.9999998245e-15 1.2500000000e+02 1.2500000000e+02 0.0000e+00 0.0000e+00
      -13  1    1    0    0    0 -1.0255744061e+01 +1.0231203833e+01 -6.0797870169e+01 6.2499999994e+01 1.0566000000e-01 0.0000e+00 1.0000e+00
       13  1    1    0    0    0 +1.0255744062e+01 -1.0231203834e+01 +6.0797870175e+01 6.2500000000e+01 1.0566000000e-01 0.0000e+00 1.0000e+00
       22  1    1    0    0    0 -1.1379321644e-09 +6.6694968140e-10 -6.1525150193e-09 6.2923089999e-09 0.0000000000e+00 0.0000e+00 -1.0000e+00
</event>
<event>
 4      1 +2.4041262e-06 9.11880000e+01 7.81860800e-03 1.13011600e-01
       25 -1    0    0    0    0 +0.0000000000e+00 +0.0000000000e+00 +9.9999998245e-15 1.2500000000e+02 1.2500000000e+02 0.0000e+00 0.0000e+00
      -13  1    1    0    0    0 -9.2424158404e+00 -5.2716652936e+01 +3.2276478851e+01 6.2499999987e+01 1.0566000000e-01 0.0000e+00 1.0000e+00
       13  1    1    0    0    0 +9.2423261326e+00 +5.2716172160e+01 -3.2276184058e+01 6.2499428964e+01 1.0566000000e-01 0.0000e+00 1.0000e+00
       22  1    1    0    0    0 +8.9707832947e-05 +4.8077617330e-04 -2.9479374798e-04 5.7104866514e-04 0.0000000000e+00 0.0000e+00 1.0000e+00
</event>
<event>
 4      1 +2.4041262e-06 9.11880000e+01 7.81860800e-03 1.13011600e-01
       25 -1    0    0    0    0 +0.0000000000e+00 +0.0000000000e+00 +9.9999998245e-15 1.2500000000e+02 1.2500000000e+02 0.0000e+00 0.0000e+00
      -11  1    1    0    0    0 +2.8287075086e+01 -6.1931008242e+00 -3.5384110143e+01 4.5722514865e+01 5.1100000000e-04 0.0000e+00 1.0000e+00
       11  1    1    0    0    0 +1.0380757970e+01 -2.2786310025e+00 -1.2981977028e+01 1.6777485601e+01 5.1100000000e-04 0.0000e+00 -1.0000e+00
       22  1    1    0    0    0 -3.8667833056e+01 +8.4717318268e+00 +4.8366087171e+01 6.2499999533e+01 0.0000000000e+00 0.0000e+00 1.0000e+00
</event>
<event>
 4      1 +2.4041262e-06 9.11880000e+01 7.81860800e-03 1.13011600e-01
       25 -1    0    0    0    0 +0.0000000000e+00 +0.0000000000e+00 +9.9999998245e-15 1.2500000000e+02 1.2500000000e+02 0.0000e+00 0.0000e+00
      -13  1    1    0    0    0 +2.7644071992e+01 -4.7370858958e+01 +2.9967412988e+01 6.2500000000e+01 1.0566000000e-01 0.0000e+00 1.0000e+00
       13  1    1    0    0    0 -2.7644071993e+01 +4.7370858958e+01 -2.9967412988e+01 6.2500000000e+01 1.0566000000e-01 0.0000e+00 1.0000e+00
       22  1    1    0    0    0 +3.1306058736e-11 -1.2800707445e-10 +8.4371948972e-11 1.5647525745e-10 0.0000000000e+00 0.0000e+00 1.0000e+00
</event>
<event>
 5      1 +2.4041262e-06 9.11880000e+01 7.81860800e-03 1.13011600e-01
       25 -1    0    0    0    0 +0.0000000000e+00 +0.0000000000e+00 +9.9999998245e-15 1.2500000000e+02 1.2500000000e+02 0.0000e+00 0.0000e+00
       23  2    1    0    0    0 +2.2271020843e+01 -5.8591213939e+00 +1.4550086795e+01 9.7759722860e+01 9.3887862448e+01 0.0000e+00 0.0000e+00
      -13  1    2    2    0    0 +8.9545819655e+00 +2.3171244763e+01 -3.2491664984e+01 4.0900007085e+01 1.0566000000e-01 0.0000e+00 1.0000e+00
       13  1    2    2    0    0 +1.3316438878e+01 -2.9030366157e+01 +4.7041751779e+01 5.6859715776e+01 1.0566000000e-01 0.0000e+00 -1.0000e+00
       22  1    1    0    0    0 -2.2271020843e+01 +5.8591213939e+00 -1.4550086795e+01 2.7240277140e+01 0.0000000000e+00 0.0000e+00 -1.0000e+00
</event>
<event>
 5      1 +2.4041262e-06 9.11880000e+01 7.81860800e-03 1.13011600e-01
       25 -1    0    0    0    0 +0.0000000000e+00 +0.0000000000e+00 +9.9999998245e-15 1.2500000000e+02 1.2500000000e+02 0.0000e+00 0.0000e+00
       23  2    1    0    0    0 +1.4436809771e+00 -2.4864531090e+01 -1.3230545359e+01 9.6797580750e+01 9.2598030149e+01 0.0000e+00 0.0000e+00
      -11  1    2    2    0    0 +7.8561128598e+00 -2.4263979690e+01 +3.7669761394e+01 4.5491429340e+01 5.1100000000e-04 0.0000e+00 -1.0000e+00
       11  1    2    2    0    0 -6.4124318827e+00 -6.0055139981e-01 -5.0900306753e+01 5.1306151409e+01 5.1100000000e-04 0.0000e+00 1.0000e+00
       22  1    1    0    0    0 -1.4436809771e+00 +2.4864531090e+01 +1.3230545359e+01 2.8202419250e+01 0.0000000000e+00 0.0000e+00 1.0000e+00
</event>
<event>
 5      1 +2.4041262e-06 9.11880000e+01 7.81860800e-03 1.13011600e-01
       25 -1    0    0    0    0 +0.0000000000e+00 +0.0000000000e+00 +9.9999998245e-15 1.2500000000e+02 1.2500000000e+02 0.0000e+00 0.0000e+00
       23  2    1    0    0    0 -1.4496372920e+01 +1.5018043746e+01 -1.2161959282e-01 1.0412654180e+02 1.0201291806e+02 0.0000e+00 0.0000e+00
      -11  1    2    2    0    0 +2.1263211984e+01 -5.7481794507e+00 +4.0536683097e+01 4.6134460305e+01 5.1100000000e-04 0.0000e+00 1.0000e+00
       11  1    2    2    0    0 -3.5759584905e+01 +2.0766223197e+01 -4.0658302690e+01 5.7992081497e+01 5.1100000000e-04 0.0000e+00 -1.0000e+00
       22  1    1    0    0    0 +1.4496372920e+01 -1.5018043746e+01 +1.2161959282e-01 2.0873458198e+01 0.0000000000e+00 0.0000e+00 -1.0000e+00
</event>
<event>
 4      1 +2.4041262e-06 9.11880000e+01 7.81860800e-03 1.13011600e-01
       25 -1    0    0    0    0 +0.0000000000e+00 +0.0000000000e+00 +9.9999998245e-15 1.2500000000e+02 1.2500000000e+02 0.0000e+00 0.0000e+00
      -11  1    1    0    0    0 -2.3617341245e+01 +4.5620159425e+01 +1.8242194004e+01 5.4513809221e+01 5.1100000000e-04 0.0000e+00 -1.0000e+00
       11  1    1    0    0    0 -3.4591414867e+00 +6.6834763069e+00 +2.6729624134e+00 7.9861908126e+00 5.1100000000e-04 0.0000e+00 1.0000e+00
       22  1    1    0    0    0 +2.7076482731e+01 -5.2303635732e+01 -2.0915156418e+01 6.2499999967e+01 0.0000000000e+00 0.0000e+00 -1.0000e+00
</event>
<event>
 5      1 +2.4041262e-06 9.11880000e+01 7.81860800e-03 1.13011600e-01
       25 -1    0    0    0    0 +0.0000000000e+00 +0.0000000000e+00 +9.9999998245e-15 1.2500000000e+02 1.2500000000e+02 0.0000e+00 0.0000e+00
       23  2    1    0    0    0 +9.6095928985e+00 -2.6063680212e+01 +8.3053047183e+00 9.6006245701e+01 9.1523556669e+01 0.0000e+00 0.0000e+00
      -11  1    2    2    0    0 -7.1933453208e+00 -5.6576385389e+01 +1.8077083605e+01 5.9828191955e+01 5.1100000000e-04 0.0000e+00 -1.0000e+00
       11  1    2    2    0    0 +1.6802938219e+01 +3.0512705177e+01 -9.7717788866e+00 3.6178053747e+01 5.1100000000e-04 0.0000e+00 1.0000e+00
       22  1    1    0    0    0 -9.6095928985e+00 +2.6063680212e+01 -8.3053047183e+00 2.8993754299e+01 0.0000000000e+00 0.0000e+00 -1.0000e+00
</event>
<event>
 5      1 +2.4041262e-06 9.11880000e+01 7.81860800e-03 1.13011600e-01
       25 -1    0    0    0    0 +0.0000000000e+00 +0.0000000000e+00 +9.9999998245e-15 1.2500000000e+02 1.2500000000e+02 0.0000e+00 0.0000e+00
       23  2    1    0    0    0 +1.3846616005e+01 +2.7649883709e+01 +4.5945583835e+00 9.3737325600e+01 8.8370421522e+01 0.0000e+00 0.0000e+00
      -11  1    2    2    0    0 +1.5849638584e+01 -2.3661778474e+01 -2.1926324544e+01 3.5942377663e+01 5.1100000000e-04 0.0000e+00 -1.0000e+00
       11  1    2    2    0    0 -2.0030225795e+00 +5.1311662183e+01 +2.6520882928e+01 5.7794947937e+01 5.1100000000e-04 0.0000e+00 1.0000e+00
       22  1    1    0    0    0 -1.3846616005e+01 -2.7649883709e+01 -4.5945583835e+00 3.1262674400e+01 0.0000000000e+00 0.0000e+00 1.0000e+00
</event>
<event>
 4      1 +2.4041262e-06 9.11880000e+01 7.81860800e-03 1.13011600e-01
       25 -1    0    0    0    0 +0.0000000000e+00 +0.0000000000e+00 +9.9999998245e-15 1.2500000000e+02 1.2500000000e+02 0.0000e+00 0.0000e+00
      -13  1    1    0    0    0 -4.3743430338e+01 +3.4039251682e+01 +2.8879819826e+01 6.2499708080e+01 1.0566000000e-01 0.0000e+00 -1.0000e+00
       13  1    1    0    0    0 +4.3603886774e+01 -3.3942068790e+01 -2.8777552818e+01 6.2301859409e+01 1.0566000000e-01 0.0000e+00 -1.0000e+00
       22  1    1    0    0    0 +1.3954356365e-01 -9.7182892024e-02 -1.0226700821e-01 1.9843251152e-01 0.0000000000e+00 0.0000e+00 -1.0000e+00
</event>
<event>
 4      1 +2.4041262e-06 9.11880000e+01 7.81860800e-03 1.13011600e-01
       25 -1    0    0    0    0 +0.0000000000e+00 +0.0000000000e+00 +9.9999998245e-15 1.2500000000e+02 1.2500000000e+02 0.0000e+00 0.0000e+00
      -13  1    1    0    0    0 +5.7448602959e+01 +3.7554472478e+00 -2.4326802151e+01 6.2499998664e+01 1.0566000000e-01 0.0000e+00 -1.0000e+00
       13  1    1    0    0    0 -5.7447914038e+01 -3.7553385352e+00 +2.4326507310e+01 6.2499244129e+01 1.0566000000e-01 0.0000e+00 -1.0000e+00
       22  1    1    0    0    0 -6.8892179342e-04 -1.0871254401e-04 +2.9484133418e-04 7.5720741347e-04 0.0000000000e+00 0.0000e+00 1.0000e+00
</event>
<event>
 4      1 +2.4041262e-06 9.11880000e+01 7.81860800e-03 1.13011600e-01
       25 -1    0    0    0    0 +0.0000000000e+00 +0.0000000000e+00 +9.9999998245e-15 1.2500000000e+02 1.2500000000e+02 0.0000e+00 0.0000e+00
      -13  1    1    0    0    0 -1.1570964991e+01 +6.4852516792e+00 +6.1076125439e+01 6.2499999863e+01 1.0566000000e-01 0.0000e+00 1.0000e+00
       13  1    1    0    0    0 +1.1570851419e+01 -6.4851693460e+00 -6.1075523775e+01 6.2499382337e+01 1.0566000000e-01 0.0000e+00 1.0000e+00
       22  1    1    0    0    0 +1.1357216753e-04 -8.2333280886e-05 -6.0166409551e-04 6.1780020249e-04 0.0000000000e+00 0.0000e+00 1.0000e+00
</event>
<event>
 4      1 +2.4041262e-06 9.11880000e+01 7.81860800e-03 1.13011600e-01
       25 -1    0    0    0    0 +0.0000000000e+00 +0.0000000000e+00 +9.9999998245e-15 1.2500000000e+02 1.2500000000e+02 0.0000e+00 0.0000e+00
      -11  1    1    0    0    0 -4.9808613209e+01 -2.6239568672e+01 -4.5839563247e+00 5.6483852292e+01 5.1100000000e-04 0.0000e+00 -1.0000e+00
       11  1    1    0    0    0 -5.3088870466e+00 -2.7889409049e+00 -4.8125247713e-01 6.0161513655e+00 5.1100000000e-04 0.0000e+00 1.0000e+00
       22  1    1    0    0    0 +5.5117500255e+01 +2.9028509577e+01 +5.0652088018e+00 6.2499996343e+01 0.0000000000e+00 0.0000e+00 -1.0000e+00
</event>
<event>
 4      1 +2.4041262e-06 9.11880000e+01 7.81860800e-03 1.13011600e-01
       25 -1    0    0    0    0 +0.0000000000e+00 +0.0000000000e+00 +9.9999998245e-15 1.2500000000e+02 1.2500000000e+02 0.0000e+00 0.0000e+00
      -13  1    1    0    0    0 +5.8326578578e+01 -6.9083718775e+00 -2.1121916954e+01 6.2416839959e+01 1.0566000000e-01 0.0000e+00 -1.0000e+00
       13  1    1    0    0    0 -5.8403079328e+01 +6.9153977494e+00 +2.1153923793e+01 6.2499936455e+01 1.0566000000e-01 0.0000e+00 -1.0000e+00
       22  1    1    0    0    0 +7.6500749321e-02 -7.0258718674e-03 -3.2006838715e-02 8.3223585880e-02 0.0000000000e+00 0.0000e+00 1.0000e+00
</event>
<event>
 4      1 +2.4041262e-06 9.11880000e+01 7.81860800e-03 1.13011600e-01
       25 -1    0    0    0    0 +0.0000000000e+00 +0.0000000000e+00 +9.9999998245e-15 1.2500000000e+02 1.2500000000e+02 0.0000e+00 0.0000e+00
      -13  1    1    0    0    0 -3.6435057394e+01 +4.2339450190e+01 +2.8037410367e+01 6.2499999950e+01 1.0566000000e-01 0.0000e+00 -1.0000e+00
       13  1    1    0    0    0 +3.6435057142e+01 -4.2339450176e+01 -2.8037410373e+01 6.2499999797e+01 1.0566000000e-01 0.0000e+00 -1.0000e+00
       22  1    1    0    0    0 +2.5213746744e-07 -1.3660136261e-08 +6.4524868181e-09 2.5258966011e-07 0.0000000000e+00 0.0000e+00 1.0000e+00
</event>
<event>
 4      1 +2.4041262e-06 9.11880000e+01 7.81860800e-03 1.13011600e-01
       25 -1    0    0    0    0 +0.0000000000e+00 +0.0000000000e+00 +9.9999998245e-15 1.2500000000e+02 1.2500000000e+02 0.0000e+00 0.0000e+00
      -13  1    1    0    0    0 -4.8907248797e+01 +1.6074356131e+01 +3.5439172041e+01 6.2499999911e+01 1.0566000000e-01 0.0000e+00 -1.0000e+00
       13  1    1    0    0    0 +4.8906538052e+01 -1.6074119184e+01 -3.5438677548e+01 6.2499102410e+01 1.0566000000e-01 0.0000e+00 -1.0000e+00
       22  1    1    0    0    0 +7.1074568414e-04 -2.3694723384e-04 -4.9449309818e-04 8.9767858574e-04 0.0000000000e+00 0.0000e+00 1.0000e+00
</event>
<event>
 4      1 +2.4041262e-06 9.11880000e+01 7.81860800e-03 1.13011600e-01
       25 -1    0    0    0    0 +0.0000000000e+00 +0.0000000000e+00 +9.9999998245e-15 1.2500000000e+02 1.2500000000e+02 0.0000e+00 0.0000e+00
      -11  1    1    0    0    0 -4.0344227585e+01 +8.7288682127e+00 -2.7439898910e+01 4.9566096197e+01 5.1100000000e-04 0.0000e+00 1.0000e+00
       11  1    1    0    0    0 -1.0519690045e+01 +2.2784314385e+00 -7.1715280182e+00 1.2933906712e+01 5.1100000000e-04 0.0000e+00 -1.0000e+00
       22  1    1    0    0    0 +5.0863917630e+01 -1.1007299651e+01 +3.4611426929e+01 6.2499997091e+01 0.0000000000e+00 0.0000e+00 1.0000e+00
</event>
<event>
 4      1 +2.4041262e-06 9.11880000e+01 7.81860800e-03 1.13011600e-01
       25 -1    0    0    0    0 +0.0000000000e+00 +0.0000000000e+00 +9.9999998245e-15 1.2500000000e+02 1.2500000000e+02 0.0000e+00 0.0000e+00
      -13  1    1    0    0    0 -5.7861913400e+01 -5.2104564364e+00 +2.3043726466e+01 6.2499394973e+01 1.0566000000e-01 0.0000e+00 1.0000e+00
       13  1    1    0    0    0 +5.2520427112e+01 +4.6182384680e+00 -2.0892516970e+01 5.6711831393e+01 1.0566000000e-01 0.0000e+00 1.0000e+00
       22  1    1    0    0    0 +5.3414862880e+00 +5.9221796839e-01 -2.1512094953e+00 5.7887736335e+00 0.0000000000e+00 0.0000e+00 -1.0000e+00
</event>
<event>
 4      1 +2.4041262e-06 9.11880000e+01 7.81860800e-03 1.13011600e-01
       25 -1    0    0    0    0 +0.0000000000e+00 +0.0000000000e+00 +9.9999998245e-15 1.2500000000e+02 1.2500000000e+02 0.0000e+00 0.0000e+00
      -13  1    1    0    0    0 +1.1525836539e+00 -4.6278746430e+01 +4.1990325858e+01 6.2499995599e+01 1.0566000000e-01 0.0000e+00 -1.0000e+00
       13  1    1    0    0    0 -1.1523939493e+00 +4.6267020622e+01 -4.1980376595e+01 6.2484625246e+01 1.0566000000e-01 0.0000e+00 -1.0000e+00
       22  1    1    0    0    0 -1.8970466406e-04 +1.1725807610e-02 -9.9492632677e-03 1.5379154448e-02 0.0000000000e+00 0.0000e+00 -1.0000e+00
</event>
<event>
 4      1 +2.4041262e-06 9.11880000e+01 7.81860800e-03 1.13011600e-01
       25 -1    0    0    0    0 +0.0000000000e+00 +0.0000000000e+00 +9.9999998245e-15 1.2500000000e+02 1.2500000000e+02 0.0000e+00 0.0000e+00
      -13  1    1    0    0    0 +3.7214239061e+01 -4.3174506917e+00 -4.4321211747e+01 5.8033791399e+01 1.0566000000e-01 0.0000e+00 -1.0000e+00
       13  1    1    0    0    0 +2.1951238871e+00 -2.8358650999e-01 -3.9208614106e+00 4.5036994155e+00 1.0566000000e-01 0.0000e+00 1.0000e+00
       22  1    1    0    0    0 -3.9409362948e+01 +4.6010372017e+00 +4.8242073157e+01 6.2462509186e+01 0.0000000000e+00 0.0000e+00 -1.0000e+00
</event>
<event>
 4      1 +2.4041262e-06 9.11880000e+01 7.81860800e-03 1.13011600e-01
       25 -1    0    0    0    0 +0.0000000000e+00 +0.0000000000e+00 +9.9999998245e-15 1.2500000000e+02 1.2500000000e+02 0.0000e+00 0.0000e+00
      -13  1    1    0    0    0 -4.8179052713e+01 +2.2800246030e+01 -3.2636877468e+01 6.2499994194e+01 1.0566000000e-01 0.0000e+00 -1.0000e+00
       13  1    1    0    0    0 +4.8178723258e+01 -2.2800164887e+01 +3.2636745691e+01 6.2499641814e+01 1.0566000000e-01 0.0000e+00 -1.0000e+00
       22  1    1    0    0    0 +3.2945521858e-04 -8.1143570415e-05 +1.3177680889e-04 3.6399196066e-04 0.0000000000e+00 0.0000e+00 -1.0000e+00
</event>
<event>
 5      1 +2.4041262e-06 9.11880000e+01 7.81860800e-03 1.13011600e-01
       25 -1    0    0    0    0 +0.0000000000e+00 +0.0000000000e+00 +9.9999998245e-15 1.2500000000e+02 1.2500000000e+02 0.0000e+00 0.0000e+00
       23  2    1    0    0    0 +1.8492140103e+01 +9.4145548155e+00 -2.2586350657e+01 9.4328574797e+01 8.9202823382e+01 0.0000e+00 0.0000e+00
      -11  1    2    2    0    0 -1.1123328803e+00 +3.3024093709e+01 +2.2365561621e+01 3.9900456095e+01 5.1100000000e-04 0.0000e+00 1.0000e+00
       11  1    2    2    0    0 +1.9604472983e+01 -2.3609538893e+01 -4.4951912278e+01 5.4428118702e+01 5.1100000000e-04 0.0000e+00 -1.0000e+00
       22  1    1    0    0    0 -1.8492140103e+01 -9.4145548155e+00 +2.2586350657e+01 3.0671425203e+01 0.0000000000e+00 0.0000e+00 -1.0000e+00
</event>
<event>
 5      1 +2.4041262e-06 9.11880000e+01 7.81860800e-03 1.13011600e-01
       25 -1    0    0    0    0 +0.0000000000e+00 +0.0000000000e+00 +9.9999998245e-15 1.2500000000e+02 1.2500000000e+02 0.0000e+00 0.0000e+00
       23  2    1    0    0    0 -7.2378426241e+00 -2.1426813593e+01 -2.0666156183e+01 9.4363669966e+01 8.9251988726e+01 0.0000e+00 0.0000e+00
      -13  1    2    2    0    0 -1.1474152603e+01 +1.8250821484e+01 -4.3385089027e+01 4.8446112091e+01 1.0566000000e-01 0.0000e+00 -1.0000e+00
       13  1    2    2    0    0 +4.2363099785e+00 -3.9677635077e+01 +2.2718932845e+01 4.5917557875e+01 1.0566000000e-01 0.0000e+00 1.0000e+00
       22  1    1    0    0    0 +7.2378426241e+00 +2.1426813593e+01 +2.0666156183e+01 3.0636330034e+01 0.0000000000e+00 0.0000e+00 -1.0000e+00
</event>
<event>
 4      1 +2.4041262e-06 9.11880000e+01 7.81860800e-03 1.13011600e-01
       25 -1    0    0    0    0 +0.0000000000e+00 +0.0000000000e+00 +9.9999998245e-15 1.2500000000e+02 1.2500000000e+02 0.0000e+00 0.0000e+00
      -11  1    1    0    0    0 +8.6130691956e-01 +2.2269569904e+00 +2.4720419564e+00 3.4368850348e+00 5.1100000000e-04 0.0000e+00 1.0000e+00
       11  1    1    0    0    0 +1.4813189857e+01 +3.8266288715e+01 +4.2481903322e+01 5.9063115020e+01 5.1100000000e-04 0.0000e+00 1.0000e+00
       22  1    1    0    0    0 -1.5674496777e+01 -4.0493245706e+01 -4.4953945279e+01 6.2499999945e+01 0.0000000000e+00 0.0000e+00 1.0000e+00
</event>
<event>
 4      1 +2.4041262e-06 9.11880000e+01 7.81860800e-03 1.13011600e-01
       25 -1    0    0    0    0 +0.0000000000e+00 +0.0000000000e+00 +9.9999998245e-15 1.2500000000e+02 1.2500000000e+02 0.0000e+00 0.0000e+00
      -13  1    1    0    0    0 -5.6571840545e+01 -4.3845617732e+00 -2.6203834396e+01 6.2499997006e+01 1.0566000000e-01 0.0000e+00 -1.0000e+00
       13  1    1    0    0    0 +5.6567615507e+01 +4.3840078721e+00 +2.6201787228e+01 6.2495275559e+01 1.0566000000e-01 0.0000e+00 -1.0000e+00
       22  1    1    0    0    0 +4.2250377531e-03 +5.5390105745e-04 +2.0471685994e-03 4.7274358452e-03 0.0000000000e+00 0.0000e+00 -1.0000e+00
</event>
<event>
 5      1 +2.4041262e-06 9.11880000e+01 7.81860800e-03 1.13011600e-01
       25 -1    0    0    0    0 +0.0000000000e+00 +0.0000000000e+00 +9.9999998245e-15 1.2500000000e+02 1.2500000000e+02 0.0000e+00 0.0000e+00
       23  2    1    0    0    0 -8.8988437740e+00 +2.6653804981e+01 -7.2918894320e+00 9.5969216477e+01 9.1472969336e+01 0.0000e+00 0.0000e+00
      -11  1    2    2    0    0 +2.7836129934e+01 +2.1512692099e+00 -3.4285520312e+01 4.4215099144e+01 5.1100000000e-04 0.0000e+00 -1.0000e+00
       11  1    2    2    0    0 -3.6734973708e+01 +2.4502535771e+01 +2.6993630880e+01 5.1754117333e+01 5.1100000000e-04 0.0000e+00 1.0000e+00
       22  1    1    0    0    0 +8.8988437740e+00 -2.6653804981e+01 +7.2918894320e+00 2.9030783523e+01 0.0000000000e+00 0.0000e+00 -1.0000e+00
</event>
<event>
 4      1 +2.4041262e-06 9.11880000e+01 7.81860800e-03 1.13011600e-01
       25 -1    0    0    0    0 +0.0000000000e+00 +0.0000000000e+00 +9.9999998245e-15 1.2500000000e+02 1.2500000000e+02 0.0000e+00 0.0000e+00
      -13  1    1    0    0    0 +5.5108017857e+00 -8.2965742316e+00 -6.1294453616e+01 6.2098496668e+01 1.0566000000e-01 0.0000e+00 -1.0000e+00
       13  1    1    0    0    0 -5.5452011785e+00 +8.3506699473e+00 +6.1690807434e+01 6.2499998645e+01 1.0566000000e-01 0.0000e+00 -1.0000e+00
       22  1    1    0    0    0 +3.4399392817e-02 -5.4095715645e-02 -3.9635381776e-01 4.0150468681e-01 0.0000000000e+00 0.0000e+00 -1.0000e+00
</event>
<event>
 5      1 +2.4041262e-06 9.11880000e+01 7.81860800e-03 1.13011600e-01
       25 -1    0    0    0    0 +0.0000000000e+00 +0.0000000000e+00 +9.9999998245e-15 1.2500000000e+02 1.2500000000e+02 0.0000e+00 0.0000e+00
       23  2    1    0    0    0 +1.0454952864e+01 -2.1188442340e+01 -1.7151391896e+01 9.5803658240e+01 9.1246449575e+01 0.0000e+00 0.0000e+00
      -13  1    2    2    0    0 -2.4278875711e+01 +2.6038990406e+01 -5.3305854248e+00 3.5998876818e+01 1.0566000000e-01 0.0000e+00 1.0000e+00
       13  1    2    2    0    0 +3.4733828575e+01 -4.7227432746e+01 -1.1820806471e+01 5.9804781422e+01 1.0566000000e-01 0.0000e+00 -1.0000e+00
       22  1    1    0    0    0 -1.0454952864e+01 +2.1188442340e+01 +1.7151391896e+01 2.9196341760e+01 0.0000000000e+00 0.0000e+00 -1.0000e+00
</event>
<event>
 4      1 +2.4041262e-06 9.11880000e+01 7.81860800e-03 1.13011600e-01
       25 -1    0    0    0    0 +0.0000000000e+00 +0.0000000000e+00 +9.9999998245e-15 1.2500000000e+02 1.2500000000e+02 0.0000e+00 0.0000e+00
      -13  1    1    0    0    0 -4.7755535571e+01 +3.9275665326e+01 -9.1142591963e+00 6.2499999594e+01 1.0566000000e-01 0.0000e+00 1.0000e+00
       13  1    1    0    0    0 +4.7754889695e+01 -3.9275162699e+01 +9.1141089014e+00 6.2499168314e+01 1.0566000000e-01 0.0000e+00 1.0000e+00
       22  1    1    0    0    0 +6.4587601689e-04 -5.0262733668e-04 +1.5029491806e-04 8.3209292219e-04 0.0000000000e+00 0.0000e+00 -1.0000e+00
</event>
<event>
 4      1 +2.4041262e-06 9.11880000e+01 7.81860800e-03 1.13011600e-01
       25 -1    0    0    0    0 +0.0000000000e+00 +0.0000000000e+00 +9.9999998245e-15 1.2500000000e+02 1.2500000000e+02 0.0000e+00 0.0000e+00
      -13  1    1    0    0    0 -2.9025193353e+00 +5.8274394688e+01 +2.2403328796e+01 6.2500000000e+01 1.0566000000e-01 0.0000e+00 -1.0000e+00
       13  1    1    0    0    0 +2.9025193353e+00 -5.8274394688e+01 -2.2403328797e+01 6.2500000000e+01 1.0566000000e-01 0.0000e+00 -1.0000e+00
       22  1    1    0    0    0 -3.0202943081e-11 -2.2100662176e-10 +5.1312983318e-10 5.5951619307e-10 0.0000000000e+00 0.0000e+00 -1.0000e+00
</event>
<event>
 4      1 +2.4041262e-06 9.11880000e+01 7.81860800e-03 1.13011600e-01
       25 -1    0    0    0    0 +0.0000000000e+00 +0.0000000000e+00 +9.9999998245e-15 1.2500000000e+02 1.2500000000e+02 0.0000e+00 0.0000e+00
      -13  1    1    0    0    0 +4.8196307686e+01 -2.1901401113e+01 +3.3220520825e+01 6.2499356902e+01 1.0566000000e-01 0.0000e+00 1.0000e+00
       13  1    1    0    0    0 -4.8196806440e+01 +2.1901622518e+01 -3.3220861137e+01 6.2499999989e+01 1.0566000000e-01 0.0000e+00 1.0000e+00
       22  1    1    0    0    0 +4.9875456561e-04 -2.2140477817e-04 +3.4031205873e-04 6.4310845884e-04 0.0000000000e+00 0.0000e+00 1.0000e+00
</event>
<event>
 4      1 +2.4041262e-06 9.11880000e+01 7.81860800e-03 1.13011600e-01
       25 -1    0    0    0    0 +0.0000000000e+00 +0.0000000000e+00 +9.9999998245e-15 1.2500000000e+02 1.2500000000e+02 0.0000e+00 0.0000e+00
      -13  1    1    0    0    0 -6.0433385258e+01 -1.1834299445e+01 -8.3013292144e+00 6.2138296789e+01 1.0566000000e-01 0.0000e+00 1.0000e+00
       13  1    1    0    0    0 +6.0784750869e+01 +1.1902838225e+01 +8.3530988935e+00 6.2499991369e+01 1.0566000000e-01 0.0000e+00 1.0000e+00
       22  1    1    0    0    0 -3.5136561051e-01 -6.8538780152e-02 -5.1769679063e-02 3.6171184153e-01 0.0000000000e+00 0.0000e+00 1.0000e+00
</event>
<event>
 4      1 +2.4041262e-06 9.11880000e+01 7.81860800e-03 1.13011600e-01
       25 -1    0    0    0    0 +0.0000000000e+00 +0.0000000000e+00 +9.9999998245e-15 1.2500000000e+02 1.2500000000e+02 0.0000e+00 0.0000e+00
      -11  1    1    0    0    0 -4.0088769340e-01 -3.1714841679e+00 -5.6437024060e-01 3.2461572358e+00 5.1100000000e-04 0.0000e+00 -1.0000e+00
       11  1    1    0    0    0 -7.3331680117e+00 -5.7888674922e+01 -1.0302613923e+01 5.9253842840e+01 5.1100000000e-04 0.0000e+00 -1.0000e+00
       22  1    1    0    0    0 +7.7340557051e+00 +6.1060159090e+01 +1.0866984164e+01 6.2499999925e+01 0.0000000000e+00 0.0000e+00 -1.0000e+00
</event>
<event>
 5      1 +2.4041262e-06 9.11880000e+01 7.81860800e-03 1.13011600e-01
       25 -1    0    0    0    0 +0.0000000000e+00 +0.0000000000e+00 +9.9999998245e-15 1.2500000000e+02 1.2500000000e+02 0.0000e+00 0.0000e+00
       23  2    1    0    0    0 -1.4289477665e+01 -2.1726567514e+01 +5.2009393295e-01 9.8990320925e+01 9.5512199385e+01 0.0000e+00 0.0000e+00
      -11  1    2    2    0    0 -1.3667719507e+01 -5.8028138106e+01 +1.2198832777e+01 6.0851317898e+01 5.1100000000e-04 0.0000e+00 1.0000e+00
       11  1    2    2    0    0 -6.2175815837e-01 +3.6301570592e+01 -1.1678738844e+01 3.8139003027e+01 5.1100000000e-04 0.0000e+00 -1.0000e+00
       22  1    1    0    0    0 +1.4289477665e+01 +2.1726567514e+01 -5.2009393295e-01 2.6009679075e+01 0.0000000000e+00 0.0000e+00 1.0000e+00
</event>
<event>
 5      1 +2.4041262e-06 9.11880000e+01 7.81860800e-03 1.13011600e-01
       25 -1    0    0    0    0 +0.0000000000e+00 +0.0000000000e+00 +9.9999998245e-15 1.2500000000e+02 1.2500000000e+02 0.0000e+00 0.0000e+00
       23  2    1    0    0    0 -2.6477703953e+01 +1.2264332154e+01 +4.7578577016e+00 9.5434481914e+01 9.0739299526e+01 0.0000e+00 0.0000e+00
      -13  1    2    2    0    0 -5.9648153521e+01 +1.5959306540e+01 +5.9880707283e+00 6.2036036614e+01 1.0566000000e-01 0.0000e+00 -1.0000e+00
       13  1    2    2    0    0 +3.3170449568e+01 -3.6949743858e+00 -1.2302130267e+00 3.3398445299e+01 1.0566000000e-01 0.0000e+00 1.0000e+00
       22  1    1    0    0    0 +2.6477703953e+01 -1.2264332154e+01 -4.7578577016e+00 2.9565518086e+01 0.0000000000e+00 0.0000e+00 -1.0000e+00
</event>
<event>
 4      1 +2.4041262e-06 9.11880000e+01 7.81860800e-03 1.13011600e-01
       25 -1    0    0    0    0 +0.0000000000e+00 +0.0000000000e+00 +9.9999998245e-15 1.2500000000e+02 1.2500000000e+02 0.0000e+00 0.0000e+00
      -13  1    1    0    0    0 +7.6331258339e+00 +3.7874523075e+00 +6.1916307495e+01 6.2499997623e+01 1.0566000000e-01 0.0000e+00 -1.0000e+00
       13  1    1    0    0    0 -7.6331261283e+00 -3.7874521170e+00 -6.1916309858e+01 6.2499999988e+01 1.0566000000e-01 0.0000e+00 -1.0000e+00
       22  1    1    0    0    0 +2.9443326912e-07 -1.9052454305e-07 +2.3629482347e-06 2.3888312857e-06 0.0000000000e+00 0.0000e+00 1.0000e+00
</event>
<event>
 4      1 +2.4041262e-06 9.11880000e+01 7.81860800e-03 1.13011600e-01
       25 -1    0    0    0    0 +0.0000000000e+00 +0.0000000000e+00 +9.9999998245e-15 1.2500000000e+02 1.2500000000e+02 0.0000e+00 0.0000e+00
      -13  1    1    0    0    0 +2.7016585240e+01 -5.2805690906e+01 -1.9695223325e+01 6.2499998848e+01 1.0566000000e-01 0.0000e+00 -1.0000e+00
       13  1    1    0    0    0 -2.6993549081e+01 +5.2760078548e+01 +1.9678687954e+01 6.2446292957e+01 1.0566000000e-01 0.0000e+00 -1.0000e+00
       22  1    1    0    0    0 -2.3036158598e-02 +4.5612357810e-02 +1.6535371454e-02 5.3708195809e-02 0.0000000000e+00 0.0000e+00 1.0000e+00
</event>
<event>
 4      1 +2.4041262e-06 9.11880000e+01 7.81860800e-03 1.13011600e-01
       25 -1    0    0    0    0 +0.0000000000e+00 +0.0000000000e+00 +9.9999998245e-15 1.2500000000e+02 1.2500000000e+02 0.0000e+00 0.0000e+00
      -13  1    1    0    0    0 -3.8750806588e+00 +4.5868266461e+00 +2.0929773928e+01 2.1774338785e+01 1.0566000000e-01 0.0000e+00 -1.0000e+00
       13  1    1    0    0    0 -4.2670353012e+00 +7.2763133073e+00 +3.9866856755e+01 4.0749598245e+01 1.0566000000e-01 0.0000e+00 1.0000e+00
       22  1    1    0    0    0 +8.1421159600e+00 -1.1863139953e+01 -6.0796630683e+01 6.2476062970e+01 0.0000000000e+00 0.0000e+00 1.0000e+00
</event>
<event>
 5      1 +2.4041262e-06 9.11880000e+01 7.81860800e-03 1.13011600e-01
       25 -1    0    0    0    0 +0.0000000000e+00 +0.0000000000e+00 +9.9999998245e-15 1.2500000000e+02 1.2500000000e+02 0.0000e+00 0.0000e+00
       23  2    1    0    0    0 +1.2665083647e+01 -2.0008945790e+01 +6.8272862772e+00 1.0035503919e+02 9.7281857494e+01 0.0000e+00 0.0000e+00
      -11  1    2    2    0    0 +4.2154992243e+00 -5.2348179290e+01 -2.1297564606e+01 5.6671761637e+01 5.1100000000e-04 0.0000e+00 1.0000e+00
       11  1    2    2    0    0 +8.4495844232e+00 +3.2339233499e+01 +2.8124850884e+01 4.3683277553e+01 5.1100000000e-04 0.0000e+00 -1.0000e+00
       22  1    1    0    0    0 -1.2665083647e+01 +2.0008945790e+01 -6.8272862772e+00 2.4644960810e+01 0.0000000000e+00 0.0000e+00 1.0000e+00
</event>
<event>
 4      1 +2.4041262e-06 9.11880000e+01 7.81860800e-03 1.13011600e-01
       25 -1    0    0    0    0 +0.0000000000e+00 +0.0000000000e+00 +9.9999998245e-15 1.2500000000e+02 1.2500000000e+02 0.0000e+00 0.0000e+00
      -13  1    1    0    0    0 +3.4060836444e+01 -4.7116875337e+01 -2.2936833155e+01 6.2500000000e+01 1.0566000000e-01 0.0000e+00 1.0000e+00
       13  1    1    0    0    0 -3.4060836443e+01 +4.7116875334e+01 +2.2936833153e+01 6.2499999996e+01 1.0566000000e-01 0.0000e+00 1.0000e+00
       22  1    1    0    0    0 -1.8864522610e-09 +3.1565820926e-09 +1.4382697425e-09 3.9485861384e-09 0.0000000000e+00 0.0000e+00 1.0000e+00
</event>
<event>
 4      1 +2.4041262e-06 9.11880000e+01 7.81860800e-03 1.13011600e-01
       25 -1    0    0    0    0 +0.0000000000e+00 +0.0000000000e+00 +9.9999998245e-15 1.2500000000e+02 1.2500000000e+02 0.0000e+00 0.0000e+00
      -13  1    1    0    0    0 +5.8742719636e+01 +7.1957424634e+00 -2.0093606273e+01 6.2499999975e+01 1.0566000000e-01 0.0000e+00 -1.0000e+00
       13  1    1    0    0    0 -5.8742272405e+01 -7.1956807970e+00 +2.0093452501e+01 6.2499523093e+01 1.0566000000e-01 0.0000e+00 -1.0000e+00
       22  1    1    0    0    0 -4.4723074004e-04 -6.1666436727e-05 +1.5377211243e-04 4.7693180521e-04 0.0000000000e+00 0.0000e+00 -1.0000e+00
</event>
<event>
 4      1 +2.4041262e-06 9.11880000e+01 7.81860800e-03 1.13011600e-01
       25 -1    0    0    0    0 +0.0000000000e+00 +0.0000000000e+00 +9.9999998245e-15 1.2500000000e+02 1.2500000000e+02 0.0000e+00 0.0000e+00
      -13  1    1    0    0    0 -4.4240636668e+01 +3.7354735755e+01 -2.3500367768e+01 6.2489108373e+01 1.0566000000e-01 0.0000e+00 1.0000e+00
       13  1    1    0    0    0 +4.4248463064e+01 -3.7360296755e+01 +2.3505619122e+01 6.2499948412e+01 1.0566000000e-01 0.0000e+00 1.0000e+00
       22  1    1    0    0    0 -7.8263966908e-03 +5.5610007073e-03 -5.2513544337e-03 1.0943214218e-02 0.0000000000e+00 0.0000e+00 -1.0000e+00
</event>
<event>
 5      1 +2.4041262e-06 9.11880000e+01 7.81860800e-03 1.13011600e-01
       25 -1    0    0    0    0 +0.0000000000e+00 +0.0000000000e+00 +9.9999998245e-15 1.2500000000e+02 1.2500000000e+02 0.0000e+00 0.0000e+00
       23  2    1    0    0    0 +1.0760568304e+01 -2.2960380607e+01 +1.1818655036e+01 9.7024126203e+01 9.2903345208e+01 0.0000e+00 0.0000e+00
      -11  1    2    2    0    0 +3.7305723301e+00 -3.3676108123e+01 +4.7935399303e+01 5.8700936405e+01 5.1100000000e-04 0.0000e+00 1.0000e+00
       11  1    2    2    0    0 +7.0299959739e+00 +1.0715727516e+01 -3.6116744267e+01 3.8323189798e+01 5.1100000000e-04 0.0000e+00 -1.0000e+00
       22  1    1    0    0    0 -1.0760568304e+01 +2.2960380607e+01 -1.1818655036e+01 2.7975873797e+01 0.0000000000e+00 0.0000e+00 1.0000e+00
</event>
<event>
 4      1 +2.4041262e-06 9.11880000e+01 7.81860800e-03 1.13011600e-01
       25 -1    0    0    0    0 +0.0000000000e+00 +0.0000000000e+00 +9.9999998245e-15 1.2500000000e+02 1.2500000000e+02 0.0000e+00 0.0000e+00
      -13  1    1    0    0    0 +5.8877722643e+01 -7.6026741293e+00 +1.9541027044e+01 6.2499998236e+01 1.0566000000e-01 0.0000e+00 1.0000e+00
       13  1    1    0    0    0 -5.8877658663e+01 +7.6026458957e+00 -1.9541015263e+01 6.2499930847e+01 1.0566000000e-01 0.0000e+00 1.0000e+00
       22  1    1    0    0    0 -6.3979235425e-05 +2.8233611171e-05 -1.1781095570e-05 7.0917371483e-05 0.0000000000e+00 0.0000e+00 1.0000e+00
</event>
<event>
 4      1 +2.4041262e-06 9.11880000e+01 7.81860800e-03 1.13011600e-01
       25 -1    0    0    0    0 +0.0000000000e+00 +0.0000000000e+00 +9.9999998245e-15 1.2500000000e+02 1.2500000000e+02 0.0000e+00 0.0000e+00
      -13  1    1    0    0    0 -5.4485206930e+01 -2.6869342849e+01 +1.4684668076e+01 6.2500000000e+01 1.0566000000e-01 0.0000e+00 1.0000e+00
       13  1    1    0    0    0 +5.4485206926e+01 +2.6869342848e+01 -1.4684668072e+01 6.2499999994e+01 1.0566000000e-01 0.0000e+00 1.0000e+00
       22  1    1    0    0    0 +4.5598208175e-09 +1.2762570423e-09 -4.5961565916e-09 6.5988978882e-09 0.0000000000e+00 0.0000e+00 -1.0000e+00
</event>
<event>
 4      1 +2.4041262e-06 9.11880000e+01 7.81860800e-03 1.13011600e-01
       25 -1    0    0    0    0 +0.0000000000e+00 +0.0000000000e+00 +9.9999998245e-15 1.2500000000e+02 1.2500000000e+02 0.0000e+00 0.0000e+00
      -13  1    1    0    0    0 +3.2870758447e+01 +4.3072611924e+01 +3.1152883930e+01 6.2500000000e+01 1.0566000000e-01 0.0000e+00 1.0000e+00
       13  1    1    0    0    0 -3.2870758447e+01 -4.3072611924e+01 -3.1152883930e+01 6.2500000000e+01 1.0566000000e-01 0.0000e+00 1.0000e+00
       22  1    1    0    0    0 +3.4628699550e-11 +8.1678639725e-12 -3.8882756239e-11 5.2704170299e-11 0.0000000000e+00 0.0000e+00 1.0000e+00
</event>
<event>
 4      1 +2.4041262e-06 9.11880000e+01 7.81860800e-03 1.13011600e-01
       25 -1    0    0    0    0 +0.0000000000e+00 +0.0000000000e+00 +9.9999998245e-15 1.2500000000e+02 1.2500000000e+02 0.0000e+00 0.0000e+00
      -13  1    1    0    0    0 -4.4165982092e+01 +4.0937936158e+01 +1.6723775878e+01 6.2499955477e+01 1.0566000000e-01 0.0000e+00 -1.0000e+00
       13  1    1    0    0    0 +4.4165984266e+01 -4.0937987459e+01 -1.6723737287e+01 6.2499980290e+01 1.0566000000e-01 0.0000e+00 -1.0000e+00
       22  1    1    0    0    0 -2.1745649048e-06 +5.1301475738e-05 -3.8590762522e-05 6.4232523671e-05 0.0000000000e+00 0.0000e+00 -1.0000e+00
</event>
<event>
 4      1 +2.4041262e-06 9.11880000e+01 7.81860800e-03 1.13011600e-01
       25 -1    0    0    0    0 +0.0000000000e+00 +0.0000000000e+00 +9.9999998245e-15 1.2500000000e+02 1.2500000000e+02 0.0000e+00 0.0000e+00
      -11  1    1    0    0    0 -4.3620780697e-01 -1.4887106109e-02 -6.9685409883e-01 8.2225590480e-01 5.1100000000e-04 0.0000e+00 -1.0000e+00
       11  1    1    0    0    0 +5.0079944641e+01 +2.9611791270e+01 +2.2536946197e+01 6.2392090697e+01 5.1100000000e-04 0.0000e+00 1.0000e+00
       22  1    1    0    0    0 -4.9643736834e+01 -2.9596904164e+01 -2.1840092098e+01 6.1785653398e+01 0.0000000000e+00 0.0000e+00 1.0000e+00
</event>
<event>
 4      1 +2.4041262e-06 9.11880000e+01 7.81860800e-03 1.13011600e-01
       25 -1    0    0    0    0 +0.0000000000e+00 +0.0000000000e+00 +9.9999998245e-15 1.2500000000e+02 1.2500000000e+02 0.0000e+00 0.0000e+00
      -13  1    1    0    0    0 -3.1010105141e+01 -5.3291079998e+01 +1.0230957540e+01 6.2499995875e+01 1.0566000000e-01 0.0000e+00 -1.0000e+00
       13  1    1    0    0    0 +3.1010076281e+01 +5.3291056673e+01 -1.0230972497e+01 6.2499964116e+01 1.0566000000e-01 0.0000e+00 -1.0000e+00
       22  1    1    0    0    0 +2.8859518274e-05 +2.3325258930e-05 +1.4957134995e-05 4.0008191492e-05 0.0000000000e+00 0.0000e+00 1.0000e+00
</event>
<event>
 4      1 +2.4041262e-06 9.11880000e+01 7.81860800e-03 1.13011600e-01
       25 -1    0    0    0    0 +0.0000000000e+00 +0.0000000000e+00 +9.9999998245e-15 1.2500000000e+02 1.2500000000e+02 0.0000e+00 0.0000e+00
      -13  1    1    0    0    0 -3.4114759103e+01 +5.1377275032e+01 +1.0138025301e+01 6.2499855195e+01 1.0566000000e-01 0.0000e+00 -1.0000e+00
       13  1    1    0    0    0 +2.7320835428e+01 -4.1201044023e+01 -8.1936575409e+00 5.0110889685e+01 1.0566000000e-01 0.0000e+00 -1.0000e+00
       22  1    1    0    0    0 +6.7939236748e+00 -1.0176231009e+01 -1.9443677605e+00 1.2389255120e+01 0.0000000000e+00 0.0000e+00 1.0000e+00
</event>
<event>
 4      1 +2.4041262e-06 9.11880000e+01 7.81860800e-03 1.13011600e-01
       25 -1    0    0    0    0 +0.0000000000e+00 +0.0000000000e+00 +9.9999998245e-15 1.2500000000e+02 1.2500000000e+02 0.0000e+00 0.0000e+00
      -11  1    1    0    0    0 -2.4957383393e+01 -5.0937120186e+01 -2.0392220834e+01 6.0276893329e+01 5.1100000000e-04 0.0000e+00 -1.0000e+00
       11  1    1    0    0    0 -9.7290476555e-01 -1.8553433739e+00 -7.4496489182e-01 2.2234692868e+00 5.1100000000e-04 0.0000e+00 1.0000e+00
       22  1    1    0    0    0 +2.5930288159e+01 +5.2792463560e+01 +2.1137185726e+01 6.2499637384e+01 0.0000000000e+00 0.0000e+00 -1.0000e+00
</event>
<event>
 4      1 +2.4041262e-06 9.11880000e+01 7.81860800e-03 1.13011600e-01
       25 -1    0    0    0    0 +0.0000000000e+00 +0.0000000000e+00 +9.9999998245e-15 1.2500000000e+02 1.2500000000e+02 0.0000e+00 0.0000e+00
      -13  1    1    0    0    0 -2.8893392432e+01 +1.7109735762e+01 -5.2713068901e+01 6.2499999848e+01 1.0566000000e-01 0.0000e+00 -1.0000e+00
       13  1    1    0    0    0 +2.8893392302e+01 -1.7109735770e+01 +5.2713069073e+01 6.2499999936e+01 1.0566000000e-01 0.0000e+00 -1.0000e+00
       22  1    1    0    0    0 +1.3006322672e-07 +8.0624547988e-09 -1.7234077671e-07 2.1606200370e-07 0.0000000000e+00 0.0000e+00 -1.0000e+00
</event>
<event>
 4      1 +2.4041262e-06 9.11880000e+01 7.81860800e-03 1.13011600e-01
       25 -1    0    0    0    0 +0.0000000000e+00 +0.0000000000e+00 +9.9999998245e-15 1.2500000000e+02 1.2500000000e+02 0.0000e+00 0.0000e+00
      -13  1    1    0    0    0 -1.8458206794e+01 +5.9525529156e+01 -4.7164409936e+00 6.2499999992e+01 1.0566000000e-01 0.0000e+00 -1.0000e+00
       13  1    1    0    0    0 +1.8458178791e+01 -5.9525444437e+01 +4.7164345208e+00 6.2499910547e+01 1.0566000000e-01 0.0000e+00 -1.0000e+00
       22  1    1    0    0    0 +2.8003415404e-05 -8.4718231246e-05 +6.4728364501e-06 8.9460983627e-05 0.0000000000e+00 0.0000e+00 -1.0000e+00
</event>
<event>
 5      1 +2.4041262e-06 9.11880000e+01 7.81860800e-03 1.13011600e-01
       25 -1    0    0    0    0 +0.0000000000e+00 +0.0000000000e+00 +9.9999998245e-15 1.2500000000e+02 1.2500000000e+02 0.0000e+00 0.0000e+00
       23  2    1    0    0    0 -3.6488287889e+00 -1.6223364185e+01 -2.7874360254e+01 9.2542466875e+01 8.6663814356e+01 0.0000e+00 0.0000e+00
      -13  1    2    2    0    0 +3.5125699755e+01 +4.3077374210e+00 -3.2976693779e+01 4.8371943124e+01 1.0566000000e-01 0.0000e+00 -1.0000e+00
       13  1    2    2    0    0 -3.8774528544e+01 -2.0531101606e+01 +5.1023335245e+00 4.4170523751e+01 1.0566000000e-01 0.0000e+00 1.0000e+00
       22  1    1    0    0    0 +3.6488287889e+00 +1.6223364185e+01 +2.7874360254e+01 3.2457533125e+01 0.0000000000e+00 0.0000e+00 -1.0000e+00
</event>
<event>
 4      1 +2.4041262e-06 9.11880000e+01 7.81860800e-03 1.13011600e-01
       25 -1    0    0    0    0 +0.0000000000e+00 +0.0000000000e+00 +9.9999998245e-15 1.2500000000e+02 1.2500000000e+02 0.0000e+00 0.0000e+00
      -13  1    1    0    0    0 +5.5600341789e+01 +1.8725090181e+01 -2.1545571528e+01 6.2499998607e+01 1.0566000000e-01 0.0000e+00 -1.0000e+00
       13  1    1    0    0    0 -5.5599675939e+01 -1.8724832700e+01 +2.1545247801e+01 6.2499217523e+01 1.0566000000e-01 0.0000e+00 -1.0000e+00
       22  1    1    0    0    0 -6.6584978208e-04 -2.5748091249e-04 +3.2372709492e-04 7.8386962218e-04 0.0000000000e+00 0.0000e+00 1.0000e+00
</event>
<event>
 4      1 +2.4041262e-06 9.11880000e+01 7.81860800e-03 1.13011600e-01
       25 -1    0    0    0    0 +0.0000000000e+00 +0.0000000000e+00 +9.9999998245e-15 1.2500000000e+02 1.2500000000e+02 0.0000e+00 0.0000e+00
      -13  1    1    0    0    0 +1.6679013670e+00 -2.8620639398e+01 +2.2601239981e+00 2.8758341729e+01 1.0566000000e-01 0.0000e+00 -1.0000e+00
       13  1    1    0    0    0 +2.8044437595e+01 -2.1005012359e+01 +1.1331861496e+01 3.6825579062e+01 1.0566000000e-01 0.0000e+00 1.0000e+00
       22  1    1    0    0    0 -2.9712338962e+01 +4.9625651757e+01 -1.3591985494e+01 5.9416079209e+01 0.0000000000e+00 0.0000e+00 1.0000e+00
</event>
<event>
 4      1 +2.4041262e-06 9.11880000e+01 7.81860800e-03 1.13011600e-01
       25 -1    0    0    0    0 +0.0000000000e+00 +0.0000000000e+00 +9.9999998245e-15 1.2500000000e+02 1.2500000000e+02 0.0000e+00 0.0000e+00
      -13  1    1    0    0    0 +4.9226577990e+01 +2.0163855287e+00 -3.8456690500e+01 6.2499999995e+01 1.0566000000e-01 0.0000e+00 1.0000e+00
       13  1    1    0    0    0 -4.9226493934e+01 -2.0163831762e+00 +3.8456625939e+01 6.2499893990e+01 1.0566000000e-01 0.0000e+00 1.0000e+00
       22  1    1    0    0    0 -8.4056237296e-05 -2.3525369145e-06 +6.4560342250e-05 1.0601425965e-04 0.0000000000e+00 0.0000e+00 -1.0000e+00
</event>
<event>
 5      1 +2.4041262e-06 9.11880000e+01 7.81860800e-03 1.13011600e-01
       25 -1    0    0    0    0 +0.0000000000e+00 +0.0000000000e+00 +9.9999998245e-15 1.2500000000e+02 1.2500000000e+02 0.0000e+00 0.0000e+00
       23  2    1    0    0    0 -2.6698479190e+01 +2.0352726199e+01 +1.8249929264e+01 8.6788716680e+01 7.7924188607e+01 0.0000e+00 0.0000e+00
      -13  1    2    2    0    0 -3.1079068020e+01 -9.9621480686e+00 +3.8193286029e+01 5.0238343174e+01 1.0566000000e-01 0.0000e+00 -1.0000e+00
       13  1    2    2    0    0 +4.3805888296e+00 +3.0314874268e+01 -1.9943356765e+01 3.6550373506e+01 1.0566000000e-01 0.0000e+00 1.0000e+00
       22  1    1    0    0    0 +2.6698479190e+01 -2.0352726199e+01 -1.8249929264e+01 3.8211283320e+01 0.0000000000e+00 0.0000e+00 -1.0000e+00
</event>
<event>
 4      1 +2.4041262e-06 9.11880000e+01 7.81860800e-03 1.13011600e-01
       25 -1    0    0    0    0 +0.0000000000e+00 +0.0000000000e+00 +9.9999998245e-15 1.2500000000e+02 1.2500000000e+02 0.0000e+00 0.0000e+00
      -11  1    1    0    0    0 +8.4267573557e+00 -1.5994408546e+01 +4.6441488813e+00 1.8665461778e+01 5.1100000000e-04 0.0000e+00 -1.0000e+00
       11  1    1    0    0    0 -4.3020139558e+01 +1.7410950407e+01 -3.6687494637e+01 5.9159495135e+01 5.1100000000e-04 0.0000e+00 1.0000e+00
       22  1    1    0    0    0 +3.4593382203e+01 -1.4165418605e+00 +3.2043345756e+01 4.7175043087e+01 0.0000000000e+00 0.0000e+00 1.0000e+00
</event>
<event>
 4      1 +2.4041262e-06 9.11880000e+01 7.81860800e-03 1.13011600e-01
       25 -1    0    0    0    0 +0.0000000000e+00 +0.0000000000e+00 +9.9999998245e-15 1.2500000000e+02 1.2500000000e+02 0.0000e+00 0.0000e+00
      -13  1    1    0    0    0 +2.9501082527e+01 +2.7012505011e+00 +4.0744915496e+01 5.0376283381e+01 1.0566000000e-01 0.0000e+00 1.0000e+00
       13  1    1    0    0    0 -3.6865801167e+01 -4.0398054363e+00 -5.0294769722e+01 6.2489857970e+01 1.0566000000e-01 0.0000e+00 1.0000e+00
       22  1    1    0    0    0 +7.3647186405e+00 +1.3385549352e+00 +9.5498542261e+00 1.2133858649e+01 0.0000000000e+00 0.0000e+00 -1.0000e+00
</event>
<event>
 4      1 +2.4041262e-06 9.11880000e+01 7.81860800e-03 1.13011600e-01
       25 -1    0    0    0    0 +0.0000000000e+00 +0.0000000000e+00 +9.9999998245e-15 1.2500000000e+02 1.2500000000e+02 0.0000e+00 0.0000e+00
      -11  1    1    0    0    0 +1.5192083152e+01 +1.8465664385e+01 -2.2988098014e+01 3.3169757344e+01 5.1100000000e-04 0.0000e+00 -1.0000e+00
       11  1    1    0    0    0 +1.3434471607e+01 +1.6323806953e+01 -2.0330062495e+01 2.9330242790e+01 5.1100000000e-04 0.0000e+00 1.0000e+00
       22  1    1    0    0    0 -2.8626554759e+01 -3.4789471338e+01 +4.3318160509e+01 6.2499999866e+01 0.0000000000e+00 0.0000e+00 -1.0000e+00
</event>
<event>
 5      1 +2.4041262e-06 9.11880000e+01 7.81860800e-03 1.13011600e-01
       25 -1    0    0    0    0 +0.0000000000e+00 +0.0000000000e+00 +9.9999998245e-15 1.2500000000e+02 1.2500000000e+02 0.0000e+00 0.0000e+00
       23  2    1    0    0    0 -1.6512091075e+00 -1.5389232068e+01 +2.4484219146e+01 9.6033951903e+01 9.1561389110e+01 0.0000e+00 0.0000e+00
      -13  1    2    2    0    0 +2.7423129373e+01 -4.3657181783e+01 +1.9742173749e+01 5.5206359545e+01 1.0566000000e-01 0.0000e+00 -1.0000e+00
       13  1    2    2    0    0 -2.9074338480e+01 +2.8267949715e+01 +4.7420453968e+00 4.0827592358e+01 1.0566000000e-01 0.0000e+00 1.0000e+00
       22  1    1    0    0    0 +1.6512091075e+00 +1.5389232068e+01 -2.4484219146e+01 2.8966048097e+01 0.0000000000e+00 0.0000e+00 -1.0000e+00
</event>
<event>
 5      1 +2.4041262e-06 9.11880000e+01 7.81860800e-03 1.13011600e-01
       25 -1    0    0    0    0 +0.0000000000e+00 +0.0000000000e+00 +9.9999998245e-15 1.2500000000e+02 1.2500000000e+02 0.0000e+00 0.0000e+00
       23  2    1    0    0    0 +1.8663265173e+01 -1.1156775626e+01 +2.1768123887e+01 9.4232446850e+01 8.9068017338e+01 0.0000e+00 0.0000e+00
      -11  1    2    2    0    0 -2.6929160138e+01 +1.5785815280e+01 +2.6657942043e+01 4.1048964713e+01 5.1100000000e-04 0.0000e+00 1.0000e+00
       11  1    2    2    0    0 +4.5592425310e+01 -2.6942590905e+01 -4.8898181565e+00 5.3183482137e+01 5.1100000000e-04 0.0000e+00 -1.0000e+00
       22  1    1    0    0    0 -1.8663265173e+01 +1.1156775626e+01 -2.1768123887e+01 3.0767553150e+01 0.0000000000e+00 0.0000e+00 -1.0000e+00
</event>
<event>
 4      1 +2.4041262e-06 9.11880000e+01 7.81860800e-03 1.13011600e-01
       25 -1    0    0    0    0 +0.0000000000e+00 +0.0000000000e+00 +9.9999998245e-15 1.2500000000e+02 1.2500000000e+02 0.0000e+00 0.0000e+00
      -13  1    1    0    0    0 +2.1878141924e-01 -8.8597932663e-01 +6.2493232794e+01 6.2499985070e+01 1.0566000000e-01 0.0000e+00 1.0000e+00
       13  1    1    0    0    0 -2.1879291910e-01 +8.8597331197e-01 -6.2493244931e+01 6.2499997161e+01 1.0566000000e-01 0.0000e+00 1.0000e+00
       22  1    1    0    0    0 +1.1499853907e-05 +6.0146570116e-06 +1.2137656852e-05 1.7769227690e-05 0.0000000000e+00 0.0000e+00 1.0000e+00
</event>
<event>
 5      1 +2.4041262e-06 9.11880000e+01 7.81860800e-03 1.13011600e-01
       25 -1    0    0    0    0 +0.0000000000e+00 +0.0000000000e+00 +9.9999998245e-15 1.2500000000e+02 1.2500000000e+02 0.0000e+00 0.0000e+00
       23  2    1    0    0    0 -1.4316449948e+01 -1.2598002238e+01 +1.8143843065e+01 9.8677586724e+01 9.5102033002e+01 0.0000e+00 0.0000e+00
      -13  1    2    2    0    0 -5.0449575108e+01 -2.7303203736e+01 +1.6247189351e+01 5.9620524056e+01 1.0566000000e-01 0.0000e+00 1.0000e+00
       13  1    2    2    0    0 +3.6133125160e+01 +1.4705201498e+01 +1.8966537141e+00 3.9057062669e+01 1.0566000000e-01 0.0000e+00 -1.0000e+00
       22  1    1    0    0    0 +1.4316449948e+01 +1.2598002238e+01 -1.8143843065e+01 2.6322413276e+01 0.0000000000e+00 0.0000e+00 1.0000e+00
</event>
<event>
 4      1 +2.4041262e-06 9.11880000e+01 7.81860800e-03 1.13011600e-01
       25 -1    0    0    0    0 +0.0000000000e+00 +0.0000000000e+00 +9.9999998245e-15 1.2500000000e+02 1.2500000000e+02 0.0000e+00 0.0000e+00
      -13  1    1    0    0    0 +5.5154196598e+01 -2.3384832021e+01 -1.7815809409e+01 6.2500000000e+01 1.0566000000e-01 0.0000e+00 1.0000e+00
       13  1    1    0    0    0 -5.5154194301e+01 +2.3384831038e+01 +1.7815808651e+01 6.2499997389e+01 1.0566000000e-01 0.0000e+00 1.0000e+00
       22  1    1    0    0    0 -2.2971769704e-06 +9.8273684708e-07 +7.5782821464e-07 2.6109571706e-06 0.0000000000e+00 0.0000e+00 1.0000e+00
</event>
<event>
 4      1 +2.4041262e-06 9.11880000e+01 7.81860800e-03 1.13011600e-01
       25 -1    0    0    0    0 +0.0000000000e+00 +0.0000000000e+00 +9.9999998245e-15 1.2500000000e+02 1.2500000000e+02 0.0000e+00 0.0000e+00
      -11  1    1    0    0    0 -2.2003855587e+00 +1.9535827044e+00 +1.1934731556e+01 1.2292111274e+01 5.1100000000e-04 0.0000e+00 1.0000e+00
       11  1    1    0    0    0 -1.5776007763e+01 -2.2763330636e+01 +4.3073461576e+01 5.1209127458e+01 5.1100000000e-04 0.0000e+00 -1.0000e+00
       22  1    1    0    0    0 +1.7976393321e+01 +2.0809747932e+01 -5.5008193132e+01 6.1498761268e+01 0.0000000000e+00 0.0000e+00 -1.0000e+00
</event>
<event>
 4      1 +2.4041262e-06 9.11880000e+01 7.81860800e-03 1.13011600e-01
       25 -1    0    0    0    0 +0.0000000000e+00 +0.0000000000e+00 +9.9999998245e-15 1.2500000000e+02 1.2500000000e+02 0.0000e+00 0.0000e+00
      -13  1    1    0    0    0 +5.2409983496e+01 -2.9203702073e+01 +1.7509103316e+01 6.2499939583e+01 1.0566000000e-01 0.0000e+00 -1.0000e+00
       13  1    1    0    0    0 -5.2410037383e+01 +2.9203723891e+01 -1.7509120530e+01 6.2499999787e+01 1.0566000000e-01 0.0000e+00 -1.0000e+00
       22  1    1    0    0    0 +5.3886425524e-05 -2.1818118491e-05 +1.7213935433e-05 6.0630823212e-05 0.0000000000e+00 0.0000e+00 -1.0000e+00
</event>
<event>
 5      1 +2.4041262e-06 9.11880000e+01 7.81860800e-03 1.13011600e-01
       25 -1    0    0    0    0 +0.0000000000e+00 +0.0000000000e+00 +9.9999998245e-15 1.2500000000e+02 1.2500000000e+02 0.0000e+00 0.0000e+00
       23  2    1    0    0    0 +1.6725717300e+01 +1.1428164829e+01 -2.1256511701e+01 9.5636896277e+01 9.1017712942e+01 0.0000e+00 0.0000e+00
      -13  1    2    2    0    0 +3.3953312313e+01 +3.0224605316e+01 +1.7946507998e+01 4.8871694230e+01 1.0566000000e-01 0.0000e+00 1.0000e+00
       13  1    2    2    0    0 -1.7227595013e+01 -1.8796440487e+01 -3.9203019699e+01 4.6765202047e+01 1.0566000000e-01 0.0000e+00 -1.0000e+00
       22  1    1    0    0    0 -1.6725717300e+01 -1.1428164829e+01 +2.1256511701e+01 2.9363103723e+01 0.0000000000e+00 0.0000e+00 1.0000e+00
</event>
<event>
 5      1 +2.4041262e-06 9.11880000e+01 7.81860800e-03 1.13011600e-01
       25 -1    0    0    0    0 +0.0000000000e+00 +0.0000000000e+00 +9.9999998245e-15 1.2500000000e+02 1.2500000000e+02 0.0000e+00 0.0000e+00
       23  2    1    0    0    0 -2.6293743952e+01 +1.0859482153e+01 -5.2869481778e+00 9.6064880427e+01 9.1603603132e+01 0.0000e+00 0.0000e+00
      -11  1    2    2    0    0 +2.3569173433e+01 -1.9304039199e+01 -1.9381622847e+01 3.6108159329e+01 5.1100000000e-04 0.0000e+00 1.0000e+00
       11  1    2    2    0    0 -4.9862917385e+01 +3.0163521352e+01 +1.4094674669e+01 5.9956721098e+01 5.1100000000e-04 0.0000e+00 -1.0000e+00
       22  1    1    0    0    0 +2.6293743952e+01 -1.0859482153e+01 +5.2869481778e+00 2.8935119573e+01 0.0000000000e+00 0.0000e+00 -1.0000e+00
</event>
<event>
 4      1 +2.4041262e-06 9.11880000e+01 7.81860800e-03 1.13011600e-01
       25 -1    0    0    0    0 +0.0000000000e+00 +0.0000000000e+00 +9.9999998245e-15 1.2500000000e+02 1.2500000000e+02 0.0000e+00 0.0000e+00
      -13  1    1    0    0    0 +4.8920281548e+01 -2.4241759948e+01 +2.9710224864e+01 6.2157586002e+01 1.0566000000e-01 0.0000e+00 -1.0000e+00
       13  1    1    0    0    0 -4.9190478080e+01 +2.4374739736e+01 -2.9873192263e+01 6.2499998807e+01 1.0566000000e-01 0.0000e+00 -1.0000e+00
       22  1    1    0    0    0 +2.7019653232e-01 -1.3297978738e-01 +1.6296739845e-01 3.4241519080e-01 0.0000000000e+00 0.0000e+00 1.0000e+00
</event>
<event>
 4      1 +2.4041262e-06 9.11880000e+01 7.81860800e-03 1.13011600e-01
       25 -1    0    0    0    0 +0.0000000000e+00 +0.0000000000e+00 +9.9999998245e-15 1.2500000000e+02 1.2500000000e+02 0.0000e+00 0.0000e+00
      -13  1    1    0    0    0 -5.8493634478e+01 -2.1942281164e+01 +1.6678806426e+00 6.2496095614e+01 1.0566000000e-01 0.0000e+00 -1.0000e+00
       13  1    1    0    0    0 +5.8497273451e+01 +2.1943690166e+01 -1.6680153655e+00 6.2499999829e+01 1.0566000000e-01 0.0000e+00 -1.0000e+00
       22  1    1    0    0    0 -3.6389735341e-03 -1.4090020758e-03 +1.3472292683e-04 3.9045570169e-03 0.0000000000e+00 0.0000e+00 1.0000e+00
</event>
<event>
 4      1 +2.4041262e-06 9.11880000e+01 7.81860800e-03 1.13011600e-01
       25 -1    0    0    0    0 +0.0000000000e+00 +0.0000000000e+00 +9.9999998245e-15 1.2500000000e+02 1.2500000000e+02 0.0000e+00 0.0000e+00
      -13  1    1    0    0    0 +2.5135734628e+01 -1.9682715821e+01 -5.3731037386e+01 6.2500000000e+01 1.0566000000e-01 0.0000e+00 -1.0000e+00
       13  1    1    0    0    0 -2.5135734627e+01 +1.9682715820e+01 +5.3731037385e+01 6.2499999999e+01 1.0566000000e-01 0.0000e+00 -1.0000e+00
       22  1    1    0    0    0 -8.0793706369e-10 +6.3480248462e-10 +1.0279577075e-09 1.4534213229e-09 0.0000000000e+00 0.0000e+00 -1.0000e+00
</event>
<event>
 4      1 +2.4041262e-06 9.11880000e+01 7.81860800e-03 1.13011600e-01
       25 -1    0    0    0    0 +0.0000000000e+00 +0.0000000000e+00 +9.9999998245e-15 1.2500000000e+02 1.2500000000e+02 0.0000e+00 0.0000e+00
      -11  1    1    0    0    0 -6.4300064097e+00 +2.5463580164e-01 +1.3349739984e+01 1.4819763146e+01 5.1100000000e-04 0.0000e+00 1.0000e+00
       11  1    1    0    0    0 -2.0318872511e+01 +4.9789087803e-01 +4.3131574835e+01 4.7680574907e+01 5.1100000000e-04 0.0000e+00 -1.0000e+00
       22  1    1    0    0    0 +2.6748878920e+01 -7.5252667967e-01 -5.6481314818e+01 6.2499661947e+01 0.0000000000e+00 0.0000e+00 -1.0000e+00
</event>
<event>
 5      1 +2.4041262e-06 9.11880000e+01 7.81860800e-03 1.13011600e-01
       25 -1    0    0    0    0 +0.0000000000e+00 +0.0000000000e+00 +9.9999998245e-15 1.2500000000e+02 1.2500000000e+02 0.0000e+00 0.0000e+00
       23  2    1    0    0    0 +1.5156947635e+01 +1.9996264623e+01 +2.6641812983e+01 8.8402597640e+01 8.0471419834e+01 0.0000e+00 0.0000e+00
      -11  1    2    2    0    0 +2.5851797596e+01 -2.6135677069e+01 +1.4481441257e+01 3.9510773163e+01 5.1100000000e-04 0.0000e+00 -1.0000e+00
       11  1    2    2    0    0 -1.0694849961e+01 +4.6131941692e+01 +1.2160371726e+01 4.8891824477e+01 5.1100000000e-04 0.0000e+00 1.0000e+00
       22  1    1    0    0    0 -1.5156947635e+01 -1.9996264623e+01 -2.6641812983e+01 3.6597402360e+01 0.0000000000e+00 0.0000e+00 1.0000e+00
</event>
<event>
 4      1 +2.4041262e-06 9.11880000e+01 7.81860800e-03 1.13011600e-01
       25 -1    0    0    0    0 +0.0000000000e+00 +0.0000000000e+00 +9.9999998245e-15 1.2500000000e+02 1.2500000000e+02 0.0000e+00 0.0000e+00
      -11  1    1    0    0    0 +2.6380515801e+00 -6.2507094693e-01 +2.0117376526e+01 2.0299233196e+01 5.1100000000e-04 0.0000e+00 1.0000e+00
       11  1    1    0    0    0 +5.6074378359e+00 -1.0119951032e+00 +4.1814508478e+01 4.2200955116e+01 5.1100000000e-04 0.0000e+00 -1.0000e+00
       22  1    1    0    0    0 -8.2454894160e+00 +1.6370660501e+00 -6.1931885003e+01 6.2499811688e+01 0.0000000000e+00 0.0000e+00 -1.0000e+00
</event>
<event>
 4      1 +2.4041262e-06 9.11880000e+01 7.81860800e-03 1.13011600e-01
       25 -1    0    0    0    0 +0.0000000000e+00 +0.0000000000e+00 +9.9999998245e-15 1.2500000000e+02 1.2500000000e+02 0.0000e+00 0.0000e+00
      -13  1    1    0    0    0 -1.3566149505e+01 -3.8817388159e+00 -5.7599306575e+01 5.9302610318e+01 1.0566000000e-01 0.0000e+00 1.0000e+00
       13  1    1    0    0    0 +4.2233942357e+00 +8.8637412477e-01 -2.3742923647e+00 4.9265755071e+00 1.0566000000e-01 0.0000e+00 -1.0000e+00
       22  1    1    0    0    0 +9.3427552693e+00 +2.9953646911e+00 +5.9973598940e+01 6.0770814174e+01 0.0000000000e+00 0.0000e+00 1.0000e+00
</event>
<event>
 4      1 +2.4041262e-06 9.11880000e+01 7.81860800e-03 1.13011600e-01
       25 -1    0    0    0    0 +0.0000000000e+00 +0.0000000000e+00 +9.9999998245e-15 1.2500000000e+02 1.2500000000e+02 0.0000e+00 0.0000e+00
      -13  1    1    0    0    0 -3.9829416079e+01 -4.5952607736e+01 -1.3701062216e+01 6.2335822869e+01 1.0566000000e-01 0.0000e+00 -1.0000e+00
       13  1    1    0    0    0 +3.7823071502e+01 +4.2288298695e+01 +1.1313189632e+01 5.7852263292e+01 1.0566000000e-01 0.0000e+00 -1.0000e+00
       22  1    1    0    0    0 +2.0063445769e+00 +3.6643090413e+00 +2.3878725846e+00 4.8119138387e+00 0.0000000000e+00 0.0000e+00 -1.0000e+00
</event>
<event>
 4      1 +2.4041262e-06 9.11880000e+01 7.81860800e-03 1.13011600e-01
       25 -1    0    0    0    0 +0.0000000000e+00 +0.0000000000e+00 +9.9999998245e-15 1.2500000000e+02 1.2500000000e+02 0.0000e+00 0.0000e+00
      -13  1    1    0    0    0 -4.0751532398e+01 +4.0916602876e+01 +2.3903620067e+01 6.2500000000e+01 1.0566000000e-01 0.0000e+00 1.0000e+00
       13  1    1    0    0    0 +4.0751532398e+01 -4.0916602876e+01 -2.3903620067e+01 6.2500000000e+01 1.0566000000e-01 0.0000e+00 1.0000e+00
       22  1    1    0    0    0 +8.2499142037e-11 +2.4205587186e-11 -1.2601596605e-10 1.5255177020e-10 0.0000000000e+00 0.0000e+00 1.0000e+00
</event>
<event>
 5      1 +2.4041262e-06 9.11880000e+01 7.81860800e-03 1.13011600e-01
       25 -1    0    0    0    0 +0.0000000000e+00 +0.0000000000e+00 +9.9999998245e-15 1.2500000000e+02 1.2500000000e+02 0.0000e+00 0.0000e+00
       23  2    1    0    0    0 -2.4126069192e+01 -9.7722368992e+00 -1.7411568337e+01 9.3683446220e+01 8.8294176224e+01 0.0000e+00 0.0000e+00
      -13  1    2    2    0    0 +2.7030788716e+01 +1.9215679037e+01 -8.2404789206e+00 3.4173418271e+01 1.0566000000e-01 0.0000e+00 1.0000e+00
       13  1    2    2    0    0 -5.1156857908e+01 -2.8987915936e+01 -9.1710894166e+00 5.9510027949e+01 1.0566000000e-01 0.0000e+00 -1.0000e+00
       22  1    1    0    0    0 +2.4126069192e+01 +9.7722368992e+00 +1.7411568337e+01 3.1316553780e+01 0.0000000000e+00 0.0000e+00 -1.0000e+00
</event>
<event>
 4      1 +2.4041262e-06 9.11880000e+01 7.81860800e-03 1.13011600e-01
       25 -1    0    0    0    0 +0.0000000000e+00 +0.0000000000e+00 +9.9999998245e-15 1.2500000000e+02 1.2500000000e+02 0.0000e+00 0.0000e+00
      -13  1    1    0    0    0 +1.8209958569e+01 -4.2246415912e+01 -4.2306933087e+01 6.2499999998e+01 1.0566000000e-01 0.0000e+00 -1.0000e+00
       13  1    1    0    0    0 -1.8209957472e+01 +4.2246412902e+01 +4.2306930145e+01 6.2499995653e+01 1.0566000000e-01 0.0000e+00 -1.0000e+00
       22  1    1    0    0    0 -1.0962077453e-06 +3.0099886155e-06 +2.9414757236e-06 4.3490208460e-06 0.0000000000e+00 0.0000e+00 -1.0000e+00
</event>
<event>
 4      1 +2.4041262e-06 9.11880000e+01 7.81860800e-03 1.13011600e-01
       25 -1    0    0    0    0 +0.0000000000e+00 +0.0000000000e+00 +9.9999998245e-15 1.2500000000e+02 1.2500000000e+02 0.0000e+00 0.0000e+00
      -13  1    1    0    0    0 +6.8783563485e+00 +2.8012353650e+01 -5.8686758522e+00 2.9435629149e+01 1.0566000000e-01 0.0000e+00 1.0000e+00
       13  1    1    0    0    0 +7.6220932662e+00 +3.1489501078e+01 -6.6008357903e+00 3.3064591046e+01 1.0566000000e-01 0.0000e+00 1.0000e+00
       22  1    1    0    0    0 -1.4500449615e+01 -5.9501854728e+01 +1.2469511642e+01 6.2499779805e+01 0.0000000000e+00 0.0000e+00 1.0000e+00
</event>
<event>
 4      1 +2.4041262e-06 9.11880000e+01 7.81860800e-03 1.13011600e-01
       25 -1    0    0    0    0 +0.0000000000e+00 +0.0000000000e+00 +9.9999998245e-15 1.2500000000e+02 1.2500000000e+02 0.0000e+00 0.0000e+00
      -11  1    1    0    0    0 +2.9558779421e+01 -2.7910011545e+01 +2.7099628957e+01 4.8857753480e+01 5.1100000000e-04 0.0000e+00 -1.0000e+00
       11  1    1    0    0    0 +8.2635491485e+00 -7.8299111235e+00 +7.5178881723e+00 1.3642301696e+01 5.1100000000e-04 0.0000e+00 1.0000e+00
       22  1    1    0    0    0 -3.7822328569e+01 +3.5739922669e+01 -3.4617517129e+01 6.2499944824e+01 0.0000000000e+00 0.0000e+00 -1.0000e+00
</event>
<event>
 4      1 +2.4041262e-06 9.11880000e+01 7.81860800e-03 1.13011600e-01
       25 -1    0    0    0    0 +0.0000000000e+00 +0.0000000000e+00 +9.9999998245e-15 1.2500000000e+02 1.2500000000e+02 0.0000e+00 0.0000e+00
      -11  1    1    0    0    0 +1.8291233002e+01 +5.1057924035e+01 -4.4661886714e+00 5.4419000845e+01 5.1100000000e-04 0.0000e+00 1.0000e+00
       11  1    1    0    0    0 +2.7136479587e+00 +7.5825053615e+00 -6.6654497597e-01 8.0809996453e+00 5.1100000000e-04 0.0000e+00 -1.0000e+00
       22  1    1    0    0    0 -2.1004880961e+01 -5.8640429397e+01 +5.1327336474e+00 6.2499999509e+01 0.0000000000e+00 0.0000e+00 1.0000e+00
</event>
<event>
 4      1 +2.4041262e-06 9.11880000e+01 7.81860800e-03 1.13011600e-01
       25 -1    0    0    0    0 +0.0000000000e+00 +0.0000000000e+00 +9.9999998245e-15 1.2500000000e+02 1.2500000000e+02 0.0000e+00 0.0000e+00
      -13  1    1    0    0    0 -2.8039432898e+01 -4.9044635200e+01 +2.6732990791e+01 6.2499999998e+01 1.0566000000e-01 0.0000e+00 -1.0000e+00
       13  1    1    0    0    0 +2.8039377175e+01 +4.9044536117e+01 -2.6732937516e+01 6.2499874461e+01 1.0566000000e-01 0.0000e+00 -1.0000e+00
       22  1    1    0    0    0 +5.5723648966e-05 +9.9082396021e-05 -5.3274194410e-05 1.2554117271e-04 0.0000000000e+00 0.0000e+00 1.0000e+00
</event>
<event>
 5      1 +2.4041262e-06 9.11880000e+01 7.81860800e-03 1.13011600e-01
       25 -1    0    0    0    0 +0.0000000000e+00 +0.0000000000e+00 +9.9999998245e-15 1.2500000000e+02 1.2500000000e+02 0.0000e+00 0.0000e+00
       23  2    1    0    0    0 -9.9290242175e+00 -2.5891674978e+01 -3.2109891241e+00 9.7084505983e+01 9.2984549769e+01 0.0000e+00 0.0000e+00
      -11  1    2    2    0    0 +8.7506113490e+00 -5.4188064168e+01 +1.7184228545e+01 5.7517103615e+01 5.1100000000e-04 0.0000e+00 -1.0000e+00
       11  1    2    2    0    0 -1.8679635567e+01 +2.8296389191e+01 -2.0395217669e+01 3.9567402368e+01 5.1100000000e-04 0.0000e+00 1.0000e+00
       22  1    1    0    0    0 +9.9290242175e+00 +2.5891674978e+01 +3.2109891241e+00 2.7915494017e+01 0.0000000000e+00 0.0000e+00 1.0000e+00
</event>
<event>
 4      1 +2.4041262e-06 9.11880000e+01 7.81860800e-03 1.13011600e-01
       25 -1    0    0    0    0 +0.0000000000e+00 +0.0000000000e+00 +9.9999998245e-15 1.2500000000e+02 1.2500000000e+02 0.0000e+00 0.0000e+00
      -13  1    1    0    0    0 -5.3795341126e+01 +3.1224743622e+00 -5.6630292886e+00 5.4182742988e+01 1.0566000000e-01 0.0000e+00 1.0000e+00
       13  1    1    0    0    0 +4.5263141309e+01 -4.9660371248e+00 -1.5358616303e+01 4.8055298820e+01 1.0566000000e-01 0.0000e+00 -1.0000e+00
       22  1    1    0    0    0 +8.5321998162e+00 +1.8435627625e+00 +2.1021645591e+01 2.2761958192e+01 0.0000000000e+00 0.0000e+00 1.0000e+00
</event>
<event>
 4      1 +2.4041262e-06 9.11880000e+01 7.81860800e-03 1.13011600e-01
       25 -1    0    0    0    0 +0.0000000000e+00 +0.0000000000e+00 +9.9999998245e-15 1.2500000000e+02 1.2500000000e+02 0.0000e+00 0.0000e+00
      -13  1    1    0    0    0 -1.5653105421e+01 -5.7485474457e+01 -1.7905622294e+01 6.2211107984e+01 1.0566000000e-01 0.0000e+00 -1.0000e+00
       13  1    1    0    0    0 +1.5714477854e+01 +5.7748757307e+01 +1.8008793663e+01 6.2499532782e+01 1.0566000000e-01 0.0000e+00 -1.0000e+00
       22  1    1    0    0    0 -6.1372433252e-02 -2.6328285049e-01 -1.0317136877e-01 2.8935923393e-01 0.0000000000e+00 0.0000e+00 1.0000e+00
</event>
<event>
 4      1 +2.4041262e-06 9.11880000e+01 7.81860800e-03 1.13011600e-01
       25 -1    0    0    0    0 +0.0000000000e+00 +0.0000000000e+00 +9.9999998245e-15 1.2500000000e+02 1.2500000000e+02 0.0000e+00 0.0000e+00
      -11  1    1    0    0    0 -3.4137147653e+01 -2.0090676231e+01 -1.2288470457e+01 4.1472721490e+01 5.1100000000e-04 0.0000e+00 1.0000e+00
       11  1    1    0    0    0 -1.8275225537e+01 -3.1869325479e+00 -1.1070966771e+01 2.1603395868e+01 5.1100000000e-04 0.0000e+00 -1.0000e+00
       22  1    1    0    0    0 +5.2412373191e+01 +2.3277608779e+01 +2.3359437228e+01 6.1923882643e+01 0.0000000000e+00 0.0000e+00 1.0000e+00
</event>
<event>
 4      1 +2.4041262e-06 9.11880000e+01 7.81860800e-03 1.13011600e-01
       25 -1    0    0    0    0 +0.0000000000e+00 +0.0000000000e+00 +9.9999998245e-15 1.2500000000e+02 1.2500000000e+02 0.0000e+00 0.0000e+00
      -13  1    1    0    0    0 -4.8866629474e+01 -1.3431183296e+01 +3.1931148230e+01 5.9899528815e+01 1.0566000000e-01 0.0000e+00 -1.0000e+00
       13  1    1    0    0    0 +5.0981837823e+01 +1.4017120493e+01 -3.3325812478e+01 6.2499987169e+01 1.0566000000e-01 0.0000e+00 -1.0000e+00
       22  1    1    0    0    0 -2.1152083488e+00 -5.8593719737e-01 +1.3946642477e+00 2.6004840169e+00 0.0000000000e+00 0.0000e+00 -1.0000e+00
</event>
<event>
 4      1 +2.4041262e-06 9.11880000e+01 7.81860800e-03 1.13011600e-01
       25 -1    0    0    0    0 +0.0000000000e+00 +0.0000000000e+00 +9.9999998245e-15 1.2500000000e+02 1.2500000000e+02 0.0000e+00 0.0000e+00
      -13  1    1    0    0    0 -1.2305823850e+01 +2.3676664038e+01 +5.6517317308e+01 6.2499888322e+01 1.0566000000e-01 0.0000e+00 -1.0000e+00
       13  1    1    0    0    0 +1.2305840892e+01 -2.3676704003e+01 -5.6517420270e+01 6.2499999924e+01 1.0566000000e-01 0.0000e+00 -1.0000e+00
       22  1    1    0    0    0 -1.7042187887e-05 +3.9965085374e-05 +1.0296221362e-04 1.1175357556e-04 0.0000000000e+00 0.0000e+00 -1.0000e+00
</event>
<event>
 4      1 +2.4041262e-06 9.11880000e+01 7.81860800e-03 1.13011600e-01
       25 -1    0    0    0    0 +0.0000000000e+00 +0.0000000000e+00 +9.9999998245e-15 1.2500000000e+02 1.2500000000e+02 0.0000e+00 0.0000e+00
      -13  1    1    0    0    0 +4.1657514093e+01 -2.1701501141e+01 +4.1230270340e+01 6.2499999908e+01 1.0566000000e-01 0.0000e+00 -1.0000e+00
       13  1    1    0    0    0 -4.1657502496e+01 +2.1701497666e+01 -4.1230258556e+01 6.2499983198e+01 1.0566000000e-01 0.0000e+00 -1.0000e+00
       22  1    1    0    0    0 -1.1596829836e-05 +3.4745861022e-06 -1.1783402460e-05 1.6894016229e-05 0.0000000000e+00 0.0000e+00 -1.0000e+00
</event>
<event>
 4      1 +2.4041262e-06 9.11880000e+01 7.81860800e-03 1.13011600e-01
       25 -1    0    0    0    0 +0.0000000000e+00 +0.0000000000e+00 +9.9999998245e-15 1.2500000000e+02 1.2500000000e+02 0.0000e+00 0.0000e+00
      -13  1    1    0    0    0 -1.0664555332e+01 +3.1557386685e+01 +5.2883096366e+01 6.2499875521e+01 1.0566000000e-01 0.0000e+00 -1.0000e+00
       13  1    1    0    0    0 +1.0664508103e+01 -3.1557502271e+01 -5.2883163565e+01 6.2499982682e+01 1.0566000000e-01 0.0000e+00 -1.0000e+00
       22  1    1    0    0    0 +4.7229055790e-05 +1.1558566735e-04 +6.7198708907e-05 1.4179667375e-04 0.0000000000e+00 0.0000e+00 1.0000e+00
</event>
<event>
 4      1 +2.4041262e-06 9.11880000e+01 7.81860800e-03 1.13011600e-01
       25 -1    0    0    0    0 +0.0000000000e+00 +0.0000000000e+00 +9.9999998245e-15 1.2500000000e+02 1.2500000000e+02 0.0000e+00 0.0000e+00
      -13  1    1    0    0    0 +2.4157748392e+01 +5.7100403481e+01 -7.8856392558e+00 6.2499978844e+01 1.0566000000e-01 0.0000e+00 1.0000e+00
       13  1    1    0    0    0 -2.3850713371e+01 -5.6365151807e+01 +7.7770629362e+00 6.1695872945e+01 1.0566000000e-01 0.0000e+00 1.0000e+00
       22  1    1    0    0    0 -3.0703502048e-01 -7.3525167404e-01 +1.0857631962e-01 8.0414821094e-01 0.0000000000e+00 0.0000e+00 -1.0000e+00
</event>
<event>
 4      1 +2.4041262e-06 9.11880000e+01 7.81860800e-03 1.13011600e-01
       25 -1    0    0    0    0 +0.0000000000e+00 +0.0000000000e+00 +9.9999998245e-15 1.2500000000e+02 1.2500000000e+02 0.0000e+00 0.0000e+00
      -13  1    1    0    0    0 -2.1264438721e+01 -5.8486418813e+01 -5.7793489948e+00 6.2499996628e+01 1.0566000000e-01 0.0000e+00 -1.0000e+00
       13  1    1    0    0    0 +2.1068809362e+01 +5.7954715413e+01 +5.7281381597e+00 6.1931143194e+01 1.0566000000e-01 0.0000e+00 -1.0000e+00
       22  1    1    0    0    0 +1.9562935919e-01 +5.3170339985e-01 +5.1210835157e-02 5.6886017722e-01 0.0000000000e+00 0.0000e+00 -1.0000e+00
</event>
<event>
 4      1 +2.4041262e-06 9.11880000e+01 7.81860800e-03 1.13011600e-01
       25 -1    0    0    0    0 +0.0000000000e+00 +0.0000000000e+00 +9.9999998245e-15 1.2500000000e+02 1.2500000000e+02 0.0000e+00 0.0000e+00
      -13  1    1    0    0    0 -1.0017948978e+01 +1.4715034754e+01 +5.9911153094e+01 6.2499991829e+01 1.0566000000e-01 0.0000e+00 1.0000e+00
       13  1    1    0    0    0 +9.9677118903e+00 -1.4637666584e+01 -5.9591857489e+01 6.2167654020e+01 1.0566000000e-01 0.0000e+00 1.0000e+00
       22  1    1    0    0    0 +5.0237087767e-02 -7.7368169771e-02 -3.1929560464e-01 3.3235415120e-01 0.0000000000e+00 0.0000e+00 1.0000e+00
</event>
<event>
 4      1 +2.4041262e-06 9.11880000e+01 7.81860800e-03 1.13011600e-01
       25 -1    0    0    0    0 +0.0000000000e+00 +0.0000000000e+00 +9.9999998245e-15 1.2500000000e+02 1.2500000000e+02 0.0000e+00 0.0000e+00
      -11  1    1    0    0    0 -2.8355963149e-02 -1.3478920622e-01 -8.3448699916e-02 1.6104700369e-01 5.1100000000e-04 0.0000e+00 1.0000e+00
       11  1    1    0    0    0 -1.1697650323e+01 -5.2894194960e+01 -3.0846690139e+01 6.2338986007e+01 5.1100000000e-04 0.0000e+00 -1.0000e+00
       22  1    1    0    0    0 +1.1726006286e+01 +5.3028984166e+01 +3.0930138839e+01 6.2499966990e+01 0.0000000000e+00 0.0000e+00 -1.0000e+00
</event>
<event>
 4      1 +2.4041262e-06 9.11880000e+01 7.81860800e-03 1.13011600e-01
       25 -1    0    0    0    0 +0.0000000000e+00 +0.0000000000e+00 +9.9999998245e-15 1.2500000000e+02 1.2500000000e+02 0.0000e+00 0.0000e+00
      -13  1    1    0    0    0 -2.1726049005e+01 -5.6935699140e+00 -5.8254985969e+01 6.2434705877e+01 1.0566000000e-01 0.0000e+00 -1.0000e+00
       13  1    1    0    0    0 +2.1754321334e+01 +5.7065616839e+00 +5.8312781232e+01 6.2499655695e+01 1.0566000000e-01 0.0000e+00 -1.0000e+00
       22  1    1    0    0    0 -2.8272328629e-02 -1.2991769851e-02 -5.7795263455e-02 6.5638427219e-02 0.0000000000e+00 0.0000e+00 1.0000e+00
</event>
<event>
 4      1 +2.4041262e-06 9.11880000e+01 7.81860800e-03 1.13011600e-01
       25 -1    0    0    0    0 +0.0000000000e+00 +0.0000000000e+00 +9.9999998245e-15 1.2500000000e+02 1.2500000000e+02 0.0000e+00 0.0000e+00
      -11  1    1    0    0    0 +4.5770187116e+00 -3.4014532582e+01 +3.9388837068e+01 5.2243832295e+01 5.1100000000e-04 0.0000e+00 1.0000e+00
       11  1    1    0    0    0 +8.9055409152e-01 -6.6873191553e+00 +7.7250076012e+00 1.0256172131e+01 5.1100000000e-04 0.0000e+00 -1.0000e+00
       22  1    1    0    0    0 -5.4675728031e+00 +4.0701851737e+01 -4.7113844669e+01 6.2499995574e+01 0.0000000000e+00 0.0000e+00 1.0000e+00
</event>
<event>
 4      1 +2.4041262e-06 9.11880000e+01 7.81860800e-03 1.13011600e-01
       25 -1    0    0    0    0 +0.0000000000e+00 +0.0000000000e+00 +9.9999998245e-15 1.2500000000e+02 1.2500000000e+02 0.0000e+00 0.0000e+00
      -13  1    1    0    0    0 +5.8113692084e+01 +6.1760721745e+00 -2.2156122411e+01 6.2499999996e+01 1.0566000000e-01 0.0000e+00 -1.0000e+00
       13  1    1    0    0    0 -5.8113692087e+01 -6.1760721769e+00 +2.2156122413e+01 6.2500000000e+01 1.0566000000e-01 0.0000e+00 -1.0000e+00
       22  1    1    0    0    0 +3.4792890949e-09 +2.3382063229e-09 -1.5261143661e-09 4.4611306273e-09 0.0000000000e+00 0.0000e+00 -1.0000e+00
</event>
<event>
 4      1 +2.4041262e-06 9.11880000e+01 7.81860800e-03 1.13011600e-01
       25 -1    0    0    0    0 +0.0000000000e+00 +0.0000000000e+00 +9.9999998245e-15 1.2500000000e+02 1.2500000000e+02 0.0000e+00 0.0000e+00
      -13  1    1    0    0    0 +1.8635660364e+01 -4.5571692286e+01 +3.5159060940e+01 6.0499898391e+01 1.0566000000e-01 0.0000e+00 1.0000e+00
       13  1    1    0    0    0 -1.9245934282e+01 +4.7077441099e+01 -3.6325561547e+01 6.2499992260e+01 1.0566000000e-01 0.0000e+00 1.0000e+00
       22  1    1    0    0    0 +6.1027391816e-01 -1.5057488127e+00 +1.1665006067e+00 2.0001093489e+00 0.0000000000e+00 0.0000e+00 1.0000e+00
</event>
<event>
 4      1 +2.4041262e-06 9.11880000e+01 7.81860800e-03 1.13011600e-01
       25 -1    0    0    0    0 +0.0000000000e+00 +0.0000000000e+00 +9.9999998245e-15 1.2500000000e+02 1.2500000000e+02 0.0000e+00 0.0000e+00
      -13  1    1    0    0    0 -2.7635930489e+01 +3.4290359954e+01 -4.4347101324e+01 6.2499999997e+01 1.0566000000e-01 0.0000e+00 -1.0000e+00
       13  1    1    0    0    0 +2.7635930490e+01 -3.4290359956e+01 +4.4347101326e+01 6.2500000000e+01 1.0566000000e-01 0.0000e+00 -1.0000e+00
       22  1    1    0    0    0 -1.2737044027e-09 +1.3534707356e-09 -1.9639746375e-09 2.7039604869e-09 0.0000000000e+00 0.0000e+00 -1.0000e+00
</event>
<event>
 4      1 +2.4041262e-06 9.11880000e+01 7.81860800e-03 1.13011600e-01
       25 -1    0    0    0    0 +0.0000000000e+00 +0.0000000000e+00 +9.9999998245e-15 1.2500000000e+02 1.2500000000e+02 0.0000e+00 0.0000e+00
      -13  1    1    0    0    0 -2.2516968996e+00 -5.3195985922e+01 -3.2731567093e+01 6.2499997644e+01 1.0566000000e-01 0.0000e+00 1.0000e+00
       13  1    1    0    0    0 +2.2516970004e+00 +5.3195987926e+01 +3.2731568326e+01 6.2500000000e+01 1.0566000000e-01 0.0000e+00 1.0000e+00
       22  1    1    0    0    0 -1.0078690128e-07 -2.0046367946e-06 -1.2331141577e-06 2.3556946329e-06 0.0000000000e+00 0.0000e+00 -1.0000e+00
</event>
<event>
 4      1 +2.4041262e-06 9.11880000e+01 7.81860800e-03 1.13011600e-01
       25 -1    0    0    0    0 +0.0000000000e+00 +0.0000000000e+00 +9.9999998245e-15 1.2500000000e+02 1.2500000000e+02 0.0000e+00 0.0000e+00
      -13  1    1    0    0    0 +3.7755770766e+01 -4.7049934756e+01 -1.6341488581e+01 6.2499999998e+01 1.0566000000e-01 0.0000e+00 1.0000e+00
       13  1    1    0    0    0 -3.7755770755e+01 +4.7049934756e+01 +1.6341488576e+01 6.2499999990e+01 1.0566000000e-01 0.0000e+00 1.0000e+00
       22  1    1    0    0    0 -1.0660870265e-08 +1.8617753335e-10 +5.0877452135e-09 1.1814142721e-08 0.0000000000e+00 0.0000e+00 1.0000e+00
</event>
<event>
 4      1 +2.4041262e-06 9.11880000e+01 7.81860800e-03 1.13011600e-01
       25 -1    0    0    0    0 +0.0000000000e+00 +0.0000000000e+00 +9.9999998245e-15 1.2500000000e+02 1.2500000000e+02 0.0000e+00 0.0000e+00
      -13  1    1    0    0    0 -2.0598555976e+01 +2.9858737534e+00 -5.8932358559e+01 6.2499999998e+01 1.0566000000e-01 0.0000e+00 -1.0000e+00
       13  1    1    0    0    0 +2.0598549839e+01 -2.9858728920e+00 +5.8932339697e+01 6.2499980149e+01 1.0566000000e-01 0.0000e+00 -1.0000e+00
       22  1    1    0    0    0 +6.1373818225e-06 -8.6139579413e-07 +1.8861091753e-05 1.9853217383e-05 0.0000000000e+00 0.0000e+00 1.0000e+00
</event>
<event>
 4      1 +2.4041262e-06 9.11880000e+01 7.81860800e-03 1.13011600e-01
       25 -1    0    0    0    0 +0.0000000000e+00 +0.0000000000e+00 +9.9999998245e-15 1.2500000000e+02 1.2500000000e+02 0.0000e+00 0.0000e+00
      -13  1    1    0    0    0 -5.8325223728e+01 +1.6093238943e+01 -1.5665717599e+01 6.2499999476e+01 1.0566000000e-01 0.0000e+00 1.0000e+00
       13  1    1    0    0    0 +5.8323210548e+01 -1.6092739792e+01 +1.5665140134e+01 6.2497847500e+01 1.0566000000e-01 0.0000e+00 1.0000e+00
       22  1    1    0    0    0 +2.0131800605e-03 -4.9915043348e-04 +5.7746451142e-04 2.1530235422e-03 0.0000000000e+00 0.0000e+00 -1.0000e+00
</event>
<event>
 4      1 +2.4041262e-06 9.11880000e+01 7.81860800e-03 1.13011600e-01
       25 -1    0    0    0    0 +0.0000000000e+00 +0.0000000000e+00 +9.9999998245e-15 1.2500000000e+02 1.2500000000e+02 0.0000e+00 0.0000e+00
      -13  1    1    0    0    0 -5.2578196930e+01 -2.2735467114e+01 +2.4997401202e+01 6.2499995905e+01 1.0566000000e-01 0.0000e+00 1.0000e+00
       13  1    1    0    0    0 +5.2578201709e+01 +2.2735465297e+01 -2.4997400296e+01 6.2499998902e+01 1.0566000000e-01 0.0000e+00 1.0000e+00
       22  1    1    0    0    0 -4.7791160747e-06 +1.8171163909e-06 -9.0557231292e-07 5.1924872313e-06 0.0000000000e+00 0.0000e+00 -1.0000e+00
</event>
<event>
 4      1 +2.4041262e-06 9.11880000e+01 7.81860800e-03 1.13011600e-01
       25 -1    0    0    0    0 +0.0000000000e+00 +0.0000000000e+00 +9.9999998245e-15 1.2500000000e+02 1.2500000000e+02 0.0000e+00 0.0000e+00
      -13  1    1    0    0    0 -2.7913073837e+01 +3.9654227294e+01 +3.1094759147e+01 5.7606359403e+01 1.0566000000e-01 0.0000e+00 -1.0000e+00
       13  1    1    0    0    0 -2.1491216276e+00 +3.6901505167e+00 +2.4087491640e+00 4.9039954299e+00 1.0566000000e-01 0.0000e+00 1.0000e+00
       22  1    1    0    0    0 +3.0062195465e+01 -4.3344377810e+01 -3.3503508311e+01 6.2489645167e+01 0.0000000000e+00 0.0000e+00 -1.0000e+00
</event>
<event>
 4      1 +2.4041262e-06 9.11880000e+01 7.81860800e-03 1.13011600e-01
       25 -1    0    0    0    0 +0.0000000000e+00 +0.0000000000e+00 +9.9999998245e-15 1.2500000000e+02 1.2500000000e+02 0.0000e+00 0.0000e+00
      -13  1    1    0    0    0 +1.0244380298e+01 -1.4208349986e+01 +1.1947525633e+01 2.1203279694e+01 1.0566000000e-01 0.0000e+00 1.0000e+00
       13  1    1    0    0    0 +1.9611153729e+01 -2.7390594604e+01 +2.3888924579e+01 4.1298110186e+01 1.0566000000e-01 0.0000e+00 -1.0000e+00
       22  1    1    0    0    0 -2.9855534027e+01 +4.1598944591e+01 -3.5836450211e+01 6.2498610119e+01 0.0000000000e+00 0.0000e+00 -1.0000e+00
</event>
<event>
 4      1 +2.4041262e-06 9.11880000e+01 7.81860800e-03 1.13011600e-01
       25 -1    0    0    0    0 +0.0000000000e+00 +0.0000000000e+00 +9.9999998245e-15 1.2500000000e+02 1.2500000000e+02 0.0000e+00 0.0000e+00
      -13  1    1    0    0    0 +2.5493437303e+01 +4.3679158705e+01 +3.6721280467e+01 6.2499982831e+01 1.0566000000e-01 0.0000e+00 -1.0000e+00
       13  1    1    0    0    0 -2.5405166483e+01 -4.3532206310e+01 -3.6600640734e+01 6.2290396823e+01 1.0566000000e-01 0.0000e+00 -1.0000e+00
       22  1    1    0    0    0 -8.8270820568e-02 -1.4695239508e-01 -1.2063973345e-01 2.0962034603e-01 0.0000000000e+00 0.0000e+00 1.0000e+00
</event>
<event>
 4      1 +2.4041262e-06 9.11880000e+01 7.81860800e-03 1.13011600e-01
       25 -1    0    0    0    0 +0.0000000000e+00 +0.0000000000e+00 +9.9999998245e-15 1.2500000000e+02 1.2500000000e+02 0.0000e+00 0.0000e+00
      -13  1    1    0    0    0 -4.8248115572e+01 +1.8194549676e+01 +3.5317368840e+01 6.2500000000e+01 1.0566000000e-01 0.0000e+00 -1.0000e+00
       13  1    1    0    0    0 +4.8248115568e+01 -1.8194549675e+01 -3.5317368837e+01 6.2499999995e+01 1.0566000000e-01 0.0000e+00 -1.0000e+00
       22  1    1    0    0    0 +4.0482795375e-09 -1.6885682806e-09 -2.5555149036e-09 5.0764639735e-09 0.0000000000e+00 0.0000e+00 -1.0000e+00
</event>
<event>
 4      1 +2.4041262e-06 9.11880000e+01 7.81860800e-03 1.13011600e-01
       25 -1    0    0    0    0 +0.0000000000e+00 +0.0000000000e+00 +9.9999998245e-15 1.2500000000e+02 1.2500000000e+02 0.0000e+00 0.0000e+00
      -13  1    1    0    0    0 -3.5596845149e+01 +4.7517493365e+01 +1.9523984804e+01 6.2499957655e+01 1.0566000000e-01 0.0000e+00 -1.0000e+00
       13  1    1    0    0    0 +3.5309101071e+01 -4.7125237758e+01 -1.9372238830e+01 6.1990446470e+01 1.0566000000e-01 0.0000e+00 -1.0000e+00
       22  1    1    0    0    0 +2.8774407743e-01 -3.9225560735e-01 -1.5174597362e-01 5.0959587528e-01 0.0000000000e+00 0.0000e+00 -1.0000e+00
</event>
<event>
 4      1 +2.4041262e-06 9.11880000e+01 7.81860800e-03 1.13011600e-01
       25 -1    0    0    0    0 +0.0000000000e+00 +0.0000000000e+00 +9.9999998245e-15 1.2500000000e+02 1.2500000000e+02 0.0000e+00 0.0000e+00
      -13  1    1    0    0    0 +9.3394319034e+00 +6.1134022417e+01 -9.0357704038e+00 6.2499999968e+01 1.0566000000e-01 0.0000e+00 -1.0000e+00
       13  1    1    0    0    0 -9.3394319149e+00 -6.1134022445e+01 +9.0357704177e+00 6.2499999999e+01 1.0566000000e-01 0.0000e+00 -1.0000e+00
       22  1    1    0    0    0 +1.1548897093e-08 +2.8042016983e-08 -1.3972729653e-08 3.3391150242e-08 0.0000000000e+00 0.0000e+00 -1.0000e+00
</event>
<event>
 4      1 +2.4041262e-06 9.11880000e+01 7.81860800e-03 1.13011600e-01
       25 -1    0    0    0    0 +0.0000000000e+00 +0.0000000000e+00 +9.9999998245e-15 1.2500000000e+02 1.2500000000e+02 0.0000e+00 0.0000e+00
      -11  1    1    0    0    0 +1.9399314520e+01 +1.0971590051e+01 +2.0522876226e+01 3.0296825592e+01 5.1100000000e-04 0.0000e+00 1.0000e+00
       11  1    1    0    0    0 +2.0609306147e+01 +1.1647912793e+01 +2.1831793784e+01 3.2203176743e+01 5.1100000000e-04 0.0000e+00 -1.0000e+00
       22  1    1    0    0    0 -4.0008620666e+01 -2.2619502844e+01 -4.2354670010e+01 6.2499997665e+01 0.0000000000e+00 0.0000e+00 -1.0000e+00
</event>
<event>
 4      1 +2.4041262e-06 9.11880000e+01 7.81860800e-03 1.13011600e-01
       25 -1    0    0    0    0 +0.0000000000e+00 +0.0000000000e+00 +9.9999998245e-15 1.2500000000e+02 1.2500000000e+02 0.0000e+00 0.0000e+00
      -13  1    1    0    0    0 +5.6829150191e+01 +2.3521684959e+01 -1.1109314162e+01 6.2500000000e+01 1.0566000000e-01 0.0000e+00 1.0000e+00
       13  1    1    0    0    0 -5.6829150191e+01 -2.3521684959e+01 +1.1109314162e+01 6.2500000000e+01 1.0566000000e-01 0.0000e+00 1.0000e+00
       22  1    1    0    0    0 -4.3412863167e-10 -1.5148206884e-10 +1.2542186810e-10 4.7659745175e-10 0.0000000000e+00 0.0000e+00 1.0000e+00
</event>
<event>
 4      1 +2.4041262e-06 9.11880000e+01 7.81860800e-03 1.13011600e-01
       25 -1    0    0    0    0 +0.0000000000e+00 +0.0000000000e+00 +9.9999998245e-15 1.2500000000e+02 1.2500000000e+02 0.0000e+00 0.0000e+00
      -11  1    1    0    0    0 -3.7295285641e-01 +1.1264058633e+00 -3.0791430377e-01 1.2258448032e+00 5.1100000000e-04 0.0000e+00 -1.0000e+00
       11  1    1    0    0    0 -2.9955179548e+01 -2.6508770518e+01 +4.7567163073e+01 6.2150323404e+01 5.1100000000e-04 0.0000e+00 1.0000e+00
       22  1    1    0    0    0 +3.0328132404e+01 +2.5382364654e+01 -4.7259248770e+01 6.1623831793e+01 0.0000000000e+00 0.0000e+00 1.0000e+00
</event>
<event>
 4      1 +2.4041262e-06 9.11880000e+01 7.81860800e-03 1.13011600e-01
       25 -1    0    0    0    0 +0.0000000000e+00 +0.0000000000e+00 +9.9999998245e-15 1.2500000000e+02 1.2500000000e+02 0.0000e+00 0.0000e+00
      -13  1    1    0    0    0 -4.7259208598e+00 -2.4278402102e+01 -5.7397418926e+01 6.2500000000e+01 1.0566000000e-01 0.0000e+00 -1.0000e+00
       13  1    1    0    0    0 +4.7259208595e+00 +2.4278402103e+01 +5.7397418923e+01 6.2499999997e+01 1.0566000000e-01 0.0000e+00 -1.0000e+00
       22  1    1    0    0    0 +2.8653131689e-10 -4.9429572016e-10 +2.8179224875e-09 2.8752592231e-09 0.0000000000e+00 0.0000e+00 -1.0000e+00
</event>
<event>
 4      1 +2.4041262e-06 9.11880000e+01 7.81860800e-03 1.13011600e-01
       25 -1    0    0    0    0 +0.0000000000e+00 +0.0000000000e+00 +9.9999998245e-15 1.2500000000e+02 1.2500000000e+02 0.0000e+00 0.0000e+00
      -13  1    1    0    0    0 -8.1082951471e+00 -3.8854897592e+00 -6.1849796720e+01 6.2499999994e+01 1.0566000000e-01 0.0000e+00 -1.0000e+00
       13  1    1    0    0    0 +8.1082951479e+00 +3.8854897608e+00 +6.1849796726e+01 6.2500000000e+01 1.0566000000e-01 0.0000e+00 -1.0000e+00
       22  1    1    0    0    0 -8.0625316669e-10 -1.6206489444e-09 -5.7730948952e-09 6.0502208091e-09 0.0000000000e+00 0.0000e+00 1.0000e+00
</event>
<event>
 4      1 +2.4041262e-06 9.11880000e+01 7.81860800e-03 1.13011600e-01
       25 -1    0    0    0    0 +0.0000000000e+00 +0.0000000000e+00 +9.9999998245e-15 1.2500000000e+02 1.2500000000e+02 0.0000e+00 0.0000e+00
      -11  1    1    0    0    0 -2.5021379415e+00 -4.7574211863e+01 +6.4341057702e+00 4.8072487412e+01 5.1100000000e-04 0.0000e+00 -1.0000e+00
       11  1    1    0    0    0 -1.9001027680e+00 -1.4274032668e+01 +1.2230010343e+00 1.4451786427e+01 5.1100000000e-04 0.0000e+00 1.0000e+00
       22  1    1    0    0    0 +4.4022407095e+00 +6.1848244531e+01 -7.6571068044e+00 6.2475726161e+01 0.0000000000e+00 0.0000e+00 -1.0000e+00
</event>
<event>
 4      1 +2.4041262e-06 9.11880000e+01 7.81860800e-03 1.13011600e-01
       25 -1    0    0    0    0 +0.0000000000e+00 +0.0000000000e+00 +9.9999998245e-15 1.2500000000e+02 1.2500000000e+02 0.0000e+00 0.0000e+00
      -13  1    1    0    0    0 +2.5859807133e+01 -5.5726784485e+01 -1.1490635254e+01 6.2499999973e+01 1.0566000000e-01 0.0000e+00 -1.0000e+00
       13  1    1    0    0    0 -2.5859792665e+01 +5.5726748540e+01 +1.1490628543e+01 6.2499960703e+01 1.0566000000e-01 0.0000e+00 -1.0000e+00
       22  1    1    0    0    0 -1.4467447550e-05 +3.5945073154e-05 +6.7114509397e-06 3.9324278714e-05 0.0000000000e+00 0.0000e+00 -1.0000e+00
</event>
<event>
 4      1 +2.4041262e-06 9.11880000e+01 7.81860800e-03 1.13011600e-01
       25 -1    0    0    0    0 +0.0000000000e+00 +0.0000000000e+00 +9.9999998245e-15 1.2500000000e+02 1.2500000000e+02 0.0000e+00 0.0000e+00
      -13  1    1    0    0    0 -3.0232383180e+01 +3.5733481060e+01 -3.4995125097e+01 5.8442695061e+01 1.0566000000e-01 0.0000e+00 1.0000e+00
       13  1    1    0    0    0 +3.2104012916e+01 -3.8069899442e+01 +3.7748846789e+01 6.2489771057e+01 1.0566000000e-01 0.0000e+00 1.0000e+00
       22  1    1    0    0    0 -1.8716297363e+00 +2.3364183818e+00 -2.7537216922e+00 4.0675338822e+00 0.0000000000e+00 0.0000e+00 -1.0000e+00
</event>
<event>
 5      1 +2.4041262e-06 9.11880000e+01 7.81860800e-03 1.13011600e-01
       25 -1    0    0    0    0 +0.0000000000e+00 +0.0000000000e+00 +9.9999998245e-15 1.2500000000e+02 1.2500000000e+02 0.0000e+00 0.0000e+00
       23  2    1    0    0    0 +1.6280128208e+01 -1.4371741382e+01 +2.0284039847e+01 9.5284149056e+01 9.0531968189e+01 0.0000e+00 0.0000e+00
      -11  1    2    2    0    0 -1.1436341932e+01 +3.0876543726e+01 -9.7137905270e+00 3.4329412985e+01 5.1100000000e-04 0.0000e+00 -1.0000e+00
       11  1    2    2    0    0 +2.7716470139e+01 -4.5248285107e+01 +2.9997830374e+01 6.0954736071e+01 5.1100000000e-04 0.0000e+00 1.0000e+00
       22  1    1    0    0    0 -1.6280128208e+01 +1.4371741382e+01 -2.0284039847e+01 2.9715850944e+01 0.0000000000e+00 0.0000e+00 1.0000e+00
</event>
<event>
 4      1 +2.4041262e-06 9.11880000e+01 7.81860800e-03 1.13011600e-01
       25 -1    0    0    0    0 +0.0000000000e+00 +0.0000000000e+00 +9.9999998245e-15 1.2500000000e+02 1.2500000000e+02 0.0000e+00 0.0000e+00
      -13  1    1    0    0    0 -2.1123007975e+00 -2.6215856819e+01 -5.6696611372e+01 6.2499998948e+01 1.0566000000e-01 0.0000e+00 -1.0000e+00
       13  1    1    0    0    0 +2.1123008356e+00 +2.6215857260e+01 +5.6696612326e+01 6.2500000000e+01 1.0566000000e-01 0.0000e+00 -1.0000e+00
       22  1    1    0    0    0 -3.8067911086e-08 -4.4118022767e-07 -9.5403798898e-07 1.0517973396e-06 0.0000000000e+00 0.0000e+00 -1.0000e+00
</event>
<event>
 5      1 +2.4041262e-06 9.11880000e+01 7.81860800e-03 1.13011600e-01
       25 -1    0    0    0    0 +0.0000000000e+00 +0.0000000000e+00 +9.9999998245e-15 1.2500000000e+02 1.2500000000e+02 0.0000e+00 0.0000e+00
       23  2    1    0    0    0 +1.7662795033e+01 -1.0677893903e+01 +1.9615160381e+01 9.6526393566e+01 9.2231222434e+01 0.0000e+00 0.0000e+00
      -11  1    2    2    0    0 -1.5497826083e+01 -1.7267799887e+01 -2.9106735527e+01 3.7223132318e+01 5.1100000000e-04 0.0000e+00 1.0000e+00
       11  1    2    2    0    0 +3.3160621115e+01 +6.5899059839e+00 +4.8721895908e+01 5.9303261249e+01 5.1100000000e-04 0.0000e+00 -1.0000e+00
       22  1    1    0    0    0 -1.7662795033e+01 +1.0677893903e+01 -1.9615160381e+01 2.8473606434e+01 0.0000000000e+00 0.0000e+00 -1.0000e+00
</event>
<event>
 4      1 +2.4041262e-06 9.11880000e+01 7.81860800e-03 1.13011600e-01
       25 -1    0    0    0    0 +0.0000000000e+00 +0.0000000000e+00 +9.9999998245e-15 1.2500000000e+02 1.2500000000e+02 0.0000e+00 0.0000e+00
      -13  1    1    0    0    0 -4.7067708051e+01 -8.9292218546e-02 +4.1120089028e+01 6.2500000000e+01 1.0566000000e-01 0.0000e+00 -1.0000e+00
       13  1    1    0    0    0 +4.7067708045e+01 +8.9292218697e-02 -4.1120089021e+01 6.2499999990e+01 1.0566000000e-01 0.0000e+00 -1.0000e+00
       22  1    1    0    0    0 +6.5638306852e-09 -1.5063319272e-10 -6.9959723143e-09 9.5942791415e-09 0.0000000000e+00 0.0000e+00 1.0000e+00
</event>
<event>
 4      1 +2.4041262e-06 9.11880000e+01 7.81860800e-03 1.13011600e-01
       25 -1    0    0    0    0 +0.0000000000e+00 +0.0000000000e+00 +9.9999998245e-15 1.2500000000e+02 1.2500000000e+02 0.0000e+00 0.0000e+00
      -13  1    1    0    0    0 +1.4534697237e+01 -6.0670635008e+01 -3.7476593586e+00 6.2499915926e+01 1.0566000000e-01 0.0000e+00 1.0000e+00
       13  1    1    0    0    0 -1.4526720283e+01 +6.0619726786e+01 +3.7438710594e+00 6.2448415612e+01 1.0566000000e-01 0.0000e+00 1.0000e+00
       22  1    1    0    0    0 -7.9769532669e-03 +5.0908221681e-02 +3.7882991705e-03 5.1668462613e-02 0.0000000000e+00 0.0000e+00 -1.0000e+00
</event>
<event>
 4      1 +2.4041262e-06 9.11880000e+01 7.81860800e-03 1.13011600e-01
       25 -1    0    0    0    0 +0.0000000000e+00 +0.0000000000e+00 +9.9999998245e-15 1.2500000000e+02 1.2500000000e+02 0.0000e+00 0.0000e+00
      -13  1    1    0    0    0 -1.5648911475e+01 -3.3497500275e+00 -1.5656818759e+01 2.2388755956e+01 1.0566000000e-01 0.0000e+00 -1.0000e+00
       13  1    1    0    0    0 -2.8032712820e+01 -5.7904123728e+00 -2.8099161026e+01 4.0111542951e+01 1.0566000000e-01 0.0000e+00 -1.0000e+00
       22  1    1    0    0    0 +4.3681624295e+01 +9.1401624003e+00 +4.3755979785e+01 6.2499701093e+01 0.0000000000e+00 0.0000e+00 -1.0000e+00
</event>
<event>
 4      1 +2.4041262e-06 9.11880000e+01 7.81860800e-03 1.13011600e-01
       25 -1    0    0    0    0 +0.0000000000e+00 +0.0000000000e+00 +9.9999998245e-15 1.2500000000e+02 1.2500000000e+02 0.0000e+00 0.0000e+00
      -13  1    1    0    0    0 +6.2635524280e+00 +3.9949348297e+01 -4.7655599323e+01 6.2499998634e+01 1.0566000000e-01 0.0000e+00 -1.0000e+00
       13  1    1    0    0    0 -6.2607938084e+00 -3.9933367216e+01 +4.7636067832e+01 6.2474614676e+01 1.0566000000e-01 0.0000e+00 -1.0000e+00
       22  1    1    0    0    0 -2.7586195910e-03 -1.5981080823e-02 +1.9531490883e-02 2.5386690656e-02 0.0000000000e+00 0.0000e+00 1.0000e+00
</event>
<event>
 5      1 +2.4041262e-06 9.11880000e+01 7.81860800e-03 1.13011600e-01
       25 -1    0    0    0    0 +0.0000000000e+00 +0.0000000000e+00 +9.9999998245e-15 1.2500000000e+02 1.2500000000e+02 0.0000e+00 0.0000e+00
       23  2    1    0    0    0 +1.9618539205e+01 -2.1480303298e+01 +2.4380276805e+00 9.5806944502e+01 9.1250951368e+01 0.0000e+00 0.0000e+00
      -13  1    2    2    0    0 +5.3935223615e+01 -2.5028048149e+01 -7.4345335655e+00 5.9922408111e+01 1.0566000000e-01 0.0000e+00 -1.0000e+00
       13  1    2    2    0    0 -3.4316684410e+01 +3.5477448507e+00 +9.8725612460e+00 3.5884536391e+01 1.0566000000e-01 0.0000e+00 1.0000e+00
       22  1    1    0    0    0 -1.9618539205e+01 +2.1480303298e+01 -2.4380276805e+00 2.9193055498e+01 0.0000000000e+00 0.0000e+00 -1.0000e+00
</event>
<event>
 4      1 +2.4041262e-06 9.11880000e+01 7.81860800e-03 1.13011600e-01
       25 -1    0    0    0    0 +0.0000000000e+00 +0.0000000000e+00 +9.9999998245e-15 1.2500000000e+02 1.2500000000e+02 0.0000e+00 0.0000e+00
      -13  1    1    0    0    0 +3.8436114040e+01 -3.2704811870e+01 -3.6546159865e+01 6.2310292463e+01 1.0566000000e-01 0.0000e+00 1.0000e+00
       13  1    1    0    0    0 -3.3191393423e+01 +3.1002992387e+01 +3.2775085147e+01 5.6009566189e+01 1.0566000000e-01 0.0000e+00 1.0000e+00
       22  1    1    0    0    0 -5.2447206169e+00 +1.7018194830e+00 +3.7710747178e+00 6.6801413480e+00 0.0000000000e+00 0.0000e+00 1.0000e+00
</event>
<event>
 4      1 +2.4041262e-06 9.11880000e+01 7.81860800e-03 1.13011600e-01
       25 -1    0    0    0    0 +0.0000000000e+00 +0.0000000000e+00 +9.9999998245e-15 1.2500000000e+02 1.2500000000e+02 0.0000e+00 0.0000e+00
      -13  1    1    0    0    0 -1.5818708770e+01 -1.2784361657e+01 -5.8548461078e+01 6.1980681738e+01 1.0566000000e-01 0.0000e+00 -1.0000e+00
       13  1    1    0    0    0 +1.5901018334e+01 +1.3022247035e+01 +5.9013674114e+01 6.2490368845e+01 1.0566000000e-01 0.0000e+00 -1.0000e+00
       22  1    1    0    0    0 -8.2309563603e-02 -2.3788537726e-01 -4.6521303592e-01 5.2894941702e-01 0.0000000000e+00 0.0000e+00 -1.0000e+00
</event>
<event>
 4      1 +2.4041262e-06 9.11880000e+01 7.81860800e-03 1.13011600e-01
       25 -1    0    0    0    0 +0.0000000000e+00 +0.0000000000e+00 +9.9999998245e-15 1.2500000000e+02 1.2500000000e+02 0.0000e+00 0.0000e+00
      -13  1    1    0    0    0 +5.9346584524e+01 -6.8017211880e+00 +1.8383641602e+01 6.2499999587e+01 1.0566000000e-01 0.0000e+00 1.0000e+00
       13  1    1    0    0    0 -5.9346584918e+01 +6.8017212349e+00 -1.8383641715e+01 6.2500000000e+01 1.0566000000e-01 0.0000e+00 1.0000e+00
       22  1    1    0    0    0 +3.9405167224e-07 -4.6897656891e-08 +1.1329721398e-07 4.1268919214e-07 0.0000000000e+00 0.0000e+00 -1.0000e+00
</event>
<event>
 4      1 +2.4041262e-06 9.11880000e+01 7.81860800e-03 1.13011600e-01
       25 -1    0    0    0    0 +0.0000000000e+00 +0.0000000000e+00 +9.9999998245e-15 1.2500000000e+02 1.2500000000e+02 0.0000e+00 0.0000e+00
      -13  1    1    0    0    0 -5.6343878702e+01 -2.6313413996e+01 +5.9532194159e+00 6.2469835992e+01 1.0566000000e-01 0.0000e+00 -1.0000e+00
       13  1    1    0    0    0 +5.6359771413e+01 +2.6322108265e+01 -5.9877891411e+00 6.2491135372e+01 1.0566000000e-01 0.0000e+00 -1.0000e+00
       22  1    1    0    0    0 -1.5892710611e-02 -8.6942690265e-03 +3.4569725219e-02 3.9028636489e-02 0.0000000000e+00 0.0000e+00 -1.0000e+00
</event>
<event>
 4      1 +2.4041262e-06 9.11880000e+01 7.81860800e-03 1.13011600e-01
       25 -1    0    0    0    0 +0.0000000000e+00 +0.0000000000e+00 +9.9999998245e-15 1.2500000000e+02 1.2500000000e+02 0.0000e+00 0.0000e+00
      -13  1    1    0    0    0 -2.5756006594e+01 +4.8022326742e+01 +3.0605932343e+01 6.2500000000e+01 1.0566000000e-01 0.0000e+00 1.0000e+00
       13  1    1    0    0    0 +2.5756006343e+01 -4.8022326251e+01 -3.0605932009e+01 6.2499999356e+01 1.0566000000e-01 0.0000e+00 1.0000e+00
       22  1    1    0    0    0 +2.5045612081e-07 -4.9019753745e-07 -3.3455788703e-07 6.4416680600e-07 0.0000000000e+00 0.0000e+00 -1.0000e+00
</event>
<event>
 5      1 +2.4041262e-06 9.11880000e+01 7.81860800e-03 1.13011600e-01
       25 -1    0    0    0    0 +0.0000000000e+00 +0.0000000000e+00 +9.9999998245e-15 1.2500000000e+02 1.2500000000e+02 0.0000e+00 0.0000e+00
       23  2    1    0    0    0 -2.4581855083e+01 -3.3745435250e-01 +1.5396535731e+01 9.5992504636e+01 9.1504787629e+01 0.0000e+00 0.0000e+00
      -11  1    2    2    0    0 -5.1865014184e+01 -2.4187595576e+01 +1.7059158059e+01 5.9716282118e+01 5.1100000000e-04 0.0000e+00 1.0000e+00
       11  1    2    2    0    0 +2.7283159101e+01 +2.3850141223e+01 -1.6626223283e+00 3.6276222518e+01 5.1100000000e-04 0.0000e+00 -1.0000e+00
       22  1    1    0    0    0 +2.4581855083e+01 +3.3745435250e-01 -1.5396535731e+01 2.9007495364e+01 0.0000000000e+00 0.0000e+00 1.0000e+00
</event>
<event>
 4      1 +2.4041262e-06 9.11880000e+01 7.81860800e-03 1.13011600e-01
       25 -1    0    0    0    0 +0.0000000000e+00 +0.0000000000e+00 +9.9999998245e-15 1.2500000000e+02 1.2500000000e+02 0.0000e+00 0.0000e+00
      -11  1    1    0    0    0 +2.4416905041e+01 +1.0871559978e+01 +4.3490686469e+00 2.7079336523e+01 5.1100000000e-04 0.0000e+00 -1.0000e+00
       11  1    1    0    0    0 -2.3814052708e+01 +3.5241534070e+01 -2.2789020449e+01 4.8253645285e+01 5.1100000000e-04 0.0000e+00 1.0000e+00
       22  1    1    0    0    0 -6.0285233321e-01 -4.6113094049e+01 +1.8439951802e+01 4.9667018192e+01 0.0000000000e+00 0.0000e+00 1.0000e+00
</event>
<event>
 4      1 +2.4041262e-06 9.11880000e+01 7.81860800e-03 1.13011600e-01
       25 -1    0    0    0    0 +0.0000000000e+00 +0.0000000000e+00 +9.9999998245e-15 1.2500000000e+02 1.2500000000e+02 0.0000e+00 0.0000e+00
      -11  1    1    0    0    0 +2.1543353868e+01 +3.0861433081e+01 +4.3489577462e+01 5.7514237331e+01 5.1100000000e-04 0.0000e+00 1.0000e+00
       11  1    1    0    0    0 +1.8780804587e+00 +2.6811725945e+00 +3.7605936106e+00 4.9857734862e+00 5.1100000000e-04 0.0000e+00 -1.0000e+00
       22  1    1    0    0    0 -2.3421434327e+01 -3.3542605675e+01 -4.7250171073e+01 6.2499989183e+01 0.0000000000e+00 0.0000e+00 1.0000e+00
</event>
<event>
 4      1 +2.4041262e-06 9.11880000e+01 7.81860800e-03 1.13011600e-01
       25 -1    0    0    0    0 +0.0000000000e+00 +0.0000000000e+00 +9.9999998245e-15 1.2500000000e+02 1.2500000000e+02 0.0000e+00 0.0000e+00
      -13  1    1    0    0    0 +1.6351993642e+01 -2.5945141129e+01 -5.4458248151e+01 6.2500000000e+01 1.0566000000e-01 0.0000e+00 -1.0000e+00
       13  1    1    0    0    0 -1.6351993641e+01 +2.5945141128e+01 +5.4458248147e+01 6.2499999995e+01 1.0566000000e-01 0.0000e+00 -1.0000e+00
       22  1    1    0    0    0 -1.3434447409e-09 +1.8832404147e-09 +4.2134387395e-09 4.8067144957e-09 0.0000000000e+00 0.0000e+00 -1.0000e+00
</event>
<event>
 4      1 +2.4041262e-06 9.11880000e+01 7.81860800e-03 1.13011600e-01
       25 -1    0    0    0    0 +0.0000000000e+00 +0.0000000000e+00 +9.9999998245e-15 1.2500000000e+02 1.2500000000e+02 0.0000e+00 0.0000e+00
      -11  1    1    0    0    0 +1.9061261499e+01 -4.2158958755e+00 -5.6051572347e+01 5.9353889770e+01 5.1100000000e-04 0.0000e+00 1.0000e+00
       11  1    1    0    0    0 +1.0230444341e+00 -2.5398830563e-01 -2.9643582042e+00 3.1461960837e+00 5.1100000000e-04 0.0000e+00 -1.0000e+00
       22  1    1    0    0    0 -2.0084305933e+01 +4.4698841812e+00 +5.9015930552e+01 6.2499914146e+01 0.0000000000e+00 0.0000e+00 1.0000e+00
</event>
<event>
 4      1 +2.4041262e-06 9.11880000e+01 7.81860800e-03 1.13011600e-01
       25 -1    0    0    0    0 +0.0000000000e+00 +0.0000000000e+00 +9.9999998245e-15 1.2500000000e+02 1.2500000000e+02 0.0000e+00 0.0000e+00
      -13  1    1    0    0    0 +7.8026813887e+00 -3.2868086753e+01 +5.2583703234e+01 6.2499999788e+01 1.0566000000e-01 0.0000e+00 -1.0000e+00
       13  1    1    0    0    0 -7.8026808151e+00 +3.2868086901e+01 -5.2583702949e+01 6.2499999554e+01 1.0566000000e-01 0.0000e+00 -1.0000e+00
       22  1    1    0    0    0 -5.7364061716e-07 -1.4816151520e-07 -2.8543230999e-07 6.5763743496e-07 0.0000000000e+00 0.0000e+00 1.0000e+00
</event>
<event>
 5      1 +2.4041262e-06 9.11880000e+01 7.81860800e-03 1.13011600e-01
       25 -1    0    0    0    0 +0.0000000000e+00 +0.0000000000e+00 +9.9999998245e-15 1.2500000000e+02 1.2500000000e+02 0.0000e+00 0.0000e+00
       23  2    1    0    0    0 -2.3269495418e+01 +1.1863623865e+01 -1.5854408158e+01 9.4445503666e+01 8.9366525704e+01 0.0000e+00 0.0000e+00
      -13  1    2    2    0    0 +2.7588201159e+01 -1.5499087470e+01 +6.8748932402e+00 3.2382184557e+01 1.0566000000e-01 0.0000e+00 1.0000e+00
       13  1    2    2    0    0 -5.0857696577e+01 +2.7362711335e+01 -2.2729301398e+01 6.2063319109e+01 1.0566000000e-01 0.0000e+00 -1.0000e+00
       22  1    1    0    0    0 +2.3269495418e+01 -1.1863623865e+01 +1.5854408158e+01 3.0554496334e+01 0.0000000000e+00 0.0000e+00 -1.0000e+00
</event>
<event>
 5      1 +2.4041262e-06 9.11880000e+01 7.81860800e-03 1.13011600e-01
       25 -1    0    0    0    0 +0.0000000000e+00 +0.0000000000e+00 +9.9999998245e-15 1.2500000000e+02 1.2500000000e+02 0.0000e+00 0.0000e+00
       23  2    1    0    0    0 +1.8296467939e+01 +1.5296612025e+01 -1.7558579477e+01 9.5384956665e+01 9.0671049218e+01 0.0000e+00 0.0000e+00
      -13  1    2    2    0    0 +4.0771576738e+01 -2.2293633280e+01 +3.8648315671e+00 4.6629128681e+01 1.0566000000e-01 0.0000e+00 -1.0000e+00
       13  1    2    2    0    0 -2.2475108799e+01 +3.7590245305e+01 -2.1423411044e+01 4.8755827984e+01 1.0566000000e-01 0.0000e+00 1.0000e+00
       22  1    1    0    0    0 -1.8296467939e+01 -1.5296612025e+01 +1.7558579477e+01 2.9615043335e+01 0.0000000000e+00 0.0000e+00 -1.0000e+00
</event>
<event>
 4      1 +2.4041262e-06 9.11880000e+01 7.81860800e-03 1.13011600e-01
       25 -1    0    0    0    0 +0.0000000000e+00 +0.0000000000e+00 +9.9999998245e-15 1.2500000000e+02 1.2500000000e+02 0.0000e+00 0.0000e+00
      -13  1    1    0    0    0 +1.1159184547e+01 +3.3803893415e+01 -3.6530887111e+01 5.1007327777e+01 1.0566000000e-01 0.0000e+00 -1.0000e+00
       13  1    1    0    0    0 +1.4457280217e+01 -4.6624720294e+00 -6.0810249660e+00 1.6362812270e+01 1.0566000000e-01 0.0000e+00 1.0000e+00
       22  1    1    0    0    0 -2.5616464764e+01 -2.9141421385e+01 +4.2611912077e+01 5.7629859954e+01 0.0000000000e+00 0.0000e+00 1.0000e+00
</event>
<event>
 4      1 +2.4041262e-06 9.11880000e+01 7.81860800e-03 1.13011600e-01
       25 -1    0    0    0    0 +0.0000000000e+00 +0.0000000000e+00 +9.9999998245e-15 1.2500000000e+02 1.2500000000e+02 0.0000e+00 0.0000e+00
      -13  1    1    0    0    0 +1.3031739579e+01 -5.6165844617e+01 +2.4114371539e+01 6.2497539286e+01 1.0566000000e-01 0.0000e+00 1.0000e+00
       13  1    1    0    0    0 -1.3031884729e+01 +5.6168524602e+01 -2.4113034041e+01 6.2499462000e+01 1.0566000000e-01 0.0000e+00 1.0000e+00
       22  1    1    0    0    0 +1.4514976291e-04 -2.6799851208e-03 -1.3374973170e-03 2.9987143536e-03 0.0000000000e+00 0.0000e+00 1.0000e+00
</event>
<event>
 5      1 +2.4041262e-06 9.11880000e+01 7.81860800e-03 1.13011600e-01
       25 -1    0    0    0    0 +0.0000000000e+00 +0.0000000000e+00 +9.9999998245e-15 1.2500000000e+02 1.2500000000e+02 0.0000e+00 0.0000e+00
       23  2    1    0    0    0 +1.2200513010e+01 +6.7511391520e+00 +2.9800064694e+01 9.2099023520e+01 8.6021833740e+01 0.0000e+00 0.0000e+00
      -13  1    2    2    0    0 +2.6918058651e+00 +2.5328184098e+01 -2.3626132203e+01 3.4741445212e+01 1.0566000000e-01 0.0000e+00 -1.0000e+00
       13  1    2    2    0    0 +9.5087071453e+00 -1.8577044946e+01 +5.3426196897e+01 5.7357578308e+01 1.0566000000e-01 0.0000e+00 1.0000e+00
       22  1    1    0    0    0 -1.2200513010e+01 -6.7511391520e+00 -2.9800064694e+01 3.2900976480e+01 0.0000000000e+00 0.0000e+00 1.0000e+00
</event>
<event>
 4      1 +2.4041262e-06 9.11880000e+01 7.81860800e-03 1.13011600e-01
       25 -1    0    0    0    0 +0.0000000000e+00 +0.0000000000e+00 +9.9999998245e-15 1.2500000000e+02 1.2500000000e+02 0.0000e+00 0.0000e+00
      -11  1    1    0    0    0 +5.1130818260e+00 +3.0191177649e+01 -2.0253809623e+01 3.6713316632e+01 5.1100000000e-04 0.0000e+00 1.0000e+00
       11  1    1    0    0    0 +3.5156103091e+00 +2.1157763525e+01 -1.4315980891e+01 2.5786775338e+01 5.1100000000e-04 0.0000e+00 -1.0000e+00
       22  1    1    0    0    0 -8.6286921351e+00 -5.1348941173e+01 +3.4569790514e+01 6.2499908030e+01 0.0000000000e+00 0.0000e+00 -1.0000e+00
</event>
<event>
 4      1 +2.4041262e-06 9.11880000e+01 7.81860800e-03 1.13011600e-01
       25 -1    0    0    0    0 +0.0000000000e+00 +0.0000000000e+00 +9.9999998245e-15 1.2500000000e+02 1.2500000000e+02 0.0000e+00 0.0000e+00
      -11  1    1    0    0    0 -3.1348859559e+01 +2.2110986211e+01 +1.1142800655e+01 3.9947574565e+01 5.1100000000e-04 0.0000e+00 -1.0000e+00
       11  1    1    0    0    0 -1.7702002905e+01 +1.2607818772e+01 +6.0267041631e+00 2.2553030049e+01 5.1100000000e-04 0.0000e+00 1.0000e+00
       22  1    1    0    0    0 +4.9050862464e+01 -3.4718804984e+01 -1.7169504818e+01 6.2499395387e+01 0.0000000000e+00 0.0000e+00 -1.0000e+00
</event>
<event>
 4      1 +2.4041262e-06 9.11880000e+01 7.81860800e-03 1.13011600e-01
       25 -1    0    0    0    0 +0.0000000000e+00 +0.0000000000e+00 +9.9999998245e-15 1.2500000000e+02 1.2500000000e+02 0.0000e+00 0.0000e+00
      -13  1    1    0    0    0 -2.6580628330e+01 -5.4602464407e+00 -5.6301818286e+01 6.2500000000e+01 1.0566000000e-01 0.0000e+00 1.0000e+00
       13  1    1    0    0    0 +2.6580628330e+01 +5.4602464407e+00 +5.6301818286e+01 6.2500000000e+01 1.0566000000e-01 0.0000e+00 1.0000e+00
       22  1    1    0    0    0 +2.9927880045e-11 +4.3045860576e-12 +2.5766484304e-11 3.9725548184e-11 0.0000000000e+00 0.0000e+00 -1.0000e+00
</event>
<event>
 4      1 +2.4041262e-06 9.11880000e+01 7.81860800e-03 1.13011600e-01
       25 -1    0    0    0    0 +0.0000000000e+00 +0.0000000000e+00 +9.9999998245e-15 1.2500000000e+02 1.2500000000e+02 0.0000e+00 0.0000e+00
      -13  1    1    0    0    0 +4.8223484989e+00 -4.4220835071e+01 +3.3991411561e+01 5.5983609417e+01 1.0566000000e-01 0.0000e+00 1.0000e+00
       13  1    1    0    0    0 -5.1226936109e+00 +3.9335778009e+01 -4.3161819864e+01 5.8621662202e+01 1.0566000000e-01 0.0000e+00 1.0000e+00
       22  1    1    0    0    0 +3.0034511207e-01 +4.8850570617e+00 +9.1704083021e+00 1.0394728381e+01 0.0000000000e+00 0.0000e+00 1.0000e+00
</event>
<event>
 4      1 +2.4041262e-06 9.11880000e+01 7.81860800e-03 1.13011600e-01
       25 -1    0    0    0    0 +0.0000000000e+00 +0.0000000000e+00 +9.9999998245e-15 1.2500000000e+02 1.2500000000e+02 0.0000e+00 0.0000e+00
      -11  1    1    0    0    0 -4.6514489948e+01 +1.6818030601e+01 -2.2108570910e+00 4.9510926246e+01 5.1100000000e-04 0.0000e+00 -1.0000e+00
       11  1    1    0    0    0 -1.2202430795e+01 +4.4139190142e+00 -5.7796325107e-01 1.2989073876e+01 5.1100000000e-04 0.0000e+00 1.0000e+00
       22  1    1    0    0    0 +5.8716920742e+01 -2.1231949615e+01 +2.7888203421e+00 6.2499999879e+01 0.0000000000e+00 0.0000e+00 -1.0000e+00
</event>
<event>
 4      1 +2.4041262e-06 9.11880000e+01 7.81860800e-03 1.13011600e-01
       25 -1    0    0    0    0 +0.0000000000e+00 +0.0000000000e+00 +9.9999998245e-15 1.2500000000e+02 1.2500000000e+02 0.0000e+00 0.0000e+00
      -11  1    1    0    0    0 -1.9905685046e+01 -3.2116054025e+01 +4.7260884589e+01 6.0508416239e+01 5.1100000000e-04 0.0000e+00 1.0000e+00
       11  1    1    0    0    0 +9.0041929623e-01 +1.1927143841e+00 +2.4920597433e+00 2.9058018749e+00 5.1100000000e-04 0.0000e+00 -1.0000e+00
       22  1    1    0    0    0 +1.9005265750e+01 +3.0923339641e+01 -4.9752944333e+01 6.1585781886e+01 0.0000000000e+00 0.0000e+00 1.0000e+00
</event>
<event>
 4      1 +2.4041262e-06 9.11880000e+01 7.81860800e-03 1.13011600e-01
       25 -1    0    0    0    0 +0.0000000000e+00 +0.0000000000e+00 +9.9999998245e-15 1.2500000000e+02 1.2500000000e+02 0.0000e+00 0.0000e+00
      -13  1    1    0    0    0 +6.0986832683e+01 -6.5167821006e+00 -1.0541683522e+01 6.2233435268e+01 1.0566000000e-01 0.0000e+00 -1.0000e+00
       13  1    1    0    0    0 -6.1100878199e+01 +6.8866287418e+00 +1.0485598482e+01 6.2375491275e+01 1.0566000000e-01 0.0000e+00 -1.0000e+00
       22  1    1    0    0    0 +1.1404551612e-01 -3.6984664124e-01 +5.6085039395e-02 3.9107345784e-01 0.0000000000e+00 0.0000e+00 -1.0000e+00
</event>
<event>
 4      1 +2.4041262e-06 9.11880000e+01 7.81860800e-03 1.13011600e-01
       25 -1    0    0    0    0 +0.0000000000e+00 +0.0000000000e+00 +9.9999998245e-15 1.2500000000e+02 1.2500000000e+02 0.0000e+00 0.0000e+00
      -11  1    1    0    0    0 -3.9923463556e+00 -1.5612344141e+00 -1.5700914566e+00 4.5652458600e+00 5.1100000000e-04 0.0000e+00 1.0000e+00
       11  1    1    0    0    0 -4.7393527568e+01 +1.4683702200e+01 -3.0707360546e+01 5.8349803407e+01 5.1100000000e-04 0.0000e+00 -1.0000e+00
       22  1    1    0    0    0 +5.1385873924e+01 -1.3122467786e+01 +3.2277452003e+01 6.2084950733e+01 0.0000000000e+00 0.0000e+00 -1.0000e+00
</event>
<event>
 4      1 +2.4041262e-06 9.11880000e+01 7.81860800e-03 1.13011600e-01
       25 -1    0    0    0    0 +0.0000000000e+00 +0.0000000000e+00 +9.9999998245e-15 1.2500000000e+02 1.2500000000e+02 0.0000e+00 0.0000e+00
      -13  1    1    0    0    0 +1.6081721643e+01 -3.4937686156e+01 +4.9217140453e+01 6.2462803037e+01 1.0566000000e-01 0.0000e+00 -1.0000e+00
       13  1    1    0    0    0 -1.6054053558e+01 +3.4850496873e+01 -4.9256174872e+01 6.2437742552e+01 1.0566000000e-01 0.0000e+00 -1.0000e+00
       22  1    1    0    0    0 -2.7668084833e-02 +8.7189282438e-02 +3.9034419119e-02 9.9454410492e-02 0.0000000000e+00 0.0000e+00 1.0000e+00
</event>
<event>
 4      1 +2.4041262e-06 9.11880000e+01 7.81860800e-03 1.13011600e-01
       25 -1    0    0    0    0 +0.0000000000e+00 +0.0000000000e+00 +9.9999998245e-15 1.2500000000e+02 1.2500000000e+02 0.0000e+00 0.0000e+00
      -13  1    1    0    0    0 +8.9017936901e+00 +6.1285742956e+01 -8.4293899739e+00 6.2500000000e+01 1.0566000000e-01 0.0000e+00 1.0000e+00
       13  1    1    0    0    0 -8.9017936333e+00 -6.1285742693e+01 +8.4293899490e+00 6.2499999730e+01 1.0566000000e-01 0.0000e+00 1.0000e+00
       22  1    1    0    0    0 -5.6854437185e-08 -2.6273257909e-07 +2.4899026746e-08 2.6996443594e-07 0.0000000000e+00 0.0000e+00 -1.0000e+00
</event>
<event>
 5      1 +2.4041262e-06 9.11880000e+01 7.81860800e-03 1.13011600e-01
       25 -1    0    0    0    0 +0.0000000000e+00 +0.0000000000e+00 +9.9999998245e-15 1.2500000000e+02 1.2500000000e+02 0.0000e+00 0.0000e+00
       23  2    1    0    0    0 -2.0366948351e+01 +1.7364627589e+01 -1.2014225807e+01 9.5662575127e+01 9.1052972394e+01 0.0000e+00 0.0000e+00
      -11  1    2    2    0    0 +1.4848222158e+01 -1.7784862520e+01 -3.4099754845e+01 4.1225772483e+01 5.1100000000e-04 0.0000e+00 1.0000e+00
       11  1    2    2    0    0 -3.5215170509e+01 +3.5149490109e+01 +2.2085529038e+01 5.4436802643e+01 5.1100000000e-04 0.0000e+00 -1.0000e+00
       22  1    1    0    0    0 +2.0366948351e+01 -1.7364627589e+01 +1.2014225807e+01 2.9337424873e+01 0.0000000000e+00 0.0000e+00 -1.0000e+00
</event>
<event>
 4      1 +2.4041262e-06 9.11880000e+01 7.81860800e-03 1.13011600e-01
       25 -1    0    0    0    0 +0.0000000000e+00 +0.0000000000e+00 +9.9999998245e-15 1.2500000000e+02 1.2500000000e+02 0.0000e+00 0.0000e+00
      -13  1    1    0    0    0 +3.7017243832e+01 +4.1808349738e+01 +2.4375767426e+01 6.0929497375e+01 1.0566000000e-01 0.0000e+00 1.0000e+00
       13  1    1    0    0    0 -3.8301372404e+01 -4.2650203409e+01 -2.4828016327e+01 6.2469805008e+01 1.0566000000e-01 0.0000e+00 1.0000e+00
       22  1    1    0    0    0 +1.2841285720e+00 +8.4185367150e-01 +4.5224890144e-01 1.6006976175e+00 0.0000000000e+00 0.0000e+00 1.0000e+00
</event>
<event>
 4      1 +2.4041262e-06 9.11880000e+01 7.81860800e-03 1.13011600e-01
       25 -1    0    0    0    0 +0.0000000000e+00 +0.0000000000e+00 +9.9999998245e-15 1.2500000000e+02 1.2500000000e+02 0.0000e+00 0.0000e+00
      -13  1    1    0    0    0 -2.7478291354e+01 -4.8138413080e+01 +2.8876902992e+01 6.2500000000e+01 1.0566000000e-01 0.0000e+00 -1.0000e+00
       13  1    1    0    0    0 +2.7478291221e+01 +4.8138412846e+01 -2.8876902855e+01 6.2499999699e+01 1.0566000000e-01 0.0000e+00 -1.0000e+00
       22  1    1    0    0    0 +1.3271885125e-07 +2.3319547213e-07 -1.3703030358e-07 3.0128346419e-07 0.0000000000e+00 0.0000e+00 -1.0000e+00
</event>
<event>
 4      1 +2.4041262e-06 9.11880000e+01 7.81860800e-03 1.13011600e-01
       25 -1    0    0    0    0 +0.0000000000e+00 +0.0000000000e+00 +9.9999998245e-15 1.2500000000e+02 1.2500000000e+02 0.0000e+00 0.0000e+00
      -13  1    1    0    0    0 -3.5093387551e+01 +5.1632039210e+01 +2.9707331650e+00 6.2499997939e+01 1.0566000000e-01 0.0000e+00 -1.0000e+00
       13  1    1    0    0    0 +3.5091160335e+01 -5.1629065485e+01 -2.9705166910e+00 6.2496280449e+01 1.0566000000e-01 0.0000e+00 -1.0000e+00
       22  1    1    0    0    0 +2.2272163980e-03 -2.9737248708e-03 -2.1647394216e-04 3.7216116749e-03 0.0000000000e+00 0.0000e+00 -1.0000e+00
</event>
<event>
 5      1 +2.4041262e-06 9.11880000e+01 7.81860800e-03 1.13011600e-01
       25 -1    0    0    0    0 +0.0000000000e+00 +0.0000000000e+00 +9.9999998245e-15 1.2500000000e+02 1.2500000000e+02 0.0000e+00 0.0000e+00
       23  2    1    0    0    0 +8.3675944521e+00 +1.9738679225e+01 +1.4034266368e+00 1.0351508202e+02 1.0126090314e+02 0.0000e+00 0.0000e+00
      -13  1    2    2    0    0 -4.0814351073e+01 +2.9318788296e+01 -1.1960321753e+01 5.1657168536e+01 1.0566000000e-01 0.0000e+00 -1.0000e+00
       13  1    2    2    0    0 +4.9181945525e+01 -9.5801090711e+00 +1.3363748390e+01 5.1857913480e+01 1.0566000000e-01 0.0000e+00 -1.0000e+00
       22  1    1    0    0    0 -8.3675944521e+00 -1.9738679225e+01 -1.4034266368e+00 2.1484917984e+01 0.0000000000e+00 0.0000e+00 -1.0000e+00
</event>
<event>
 5      1 +2.4041262e-06 9.11880000e+01 7.81860800e-03 1.13011600e-01
       25 -1    0    0    0    0 +0.0000000000e+00 +0.0000000000e+00 +9.9999998245e-15 1.2500000000e+02 1.2500000000e+02 0.0000e+00 0.0000e+00
       23  2    1    0    0    0 +3.2004578285e+01 +2.7581428761e+00 -2.3872494927e+00 9.2788211110e+01 8.7017542930e+01 0.0000e+00 0.0000e+00
      -13  1    2    2    0    0 -2.8879119568e+01 -9.4757897336e+00 -4.0649647245e+00 3.0664788282e+01 1.0566000000e-01 0.0000e+00 1.0000e+00
       13  1    2    2    0    0 +6.0883697854e+01 +1.2233932610e+01 +1.6777152318e+00 6.2123422828e+01 1.0566000000e-01 0.0000e+00 -1.0000e+00
       22  1    1    0    0    0 -3.2004578285e+01 -2.7581428761e+00 +2.3872494927e+00 3.2211788890e+01 0.0000000000e+00 0.0000e+00 -1.0000e+00
</event>
<event>
 4      1 +2.4041262e-06 9.11880000e+01 7.81860800e-03 1.13011600e-01
       25 -1    0    0    0    0 +0.0000000000e+00 +0.0000000000e+00 +9.9999998245e-15 1.2500000000e+02 1.2500000000e+02 0.0000e+00 0.0000e+00
      -13  1    1    0    0    0 -1.2304110740e+01 +5.6458652561e+01 -2.3817393767e+01 6.2500000000e+01 1.0566000000e-01 0.0000e+00 1.0000e+00
       13  1    1    0    0    0 +1.2304110718e+01 -5.6458652452e+01 +2.3817393719e+01 6.2499999879e+01 1.0566000000e-01 0.0000e+00 1.0000e+00
       22  1    1    0    0    0 +2.2396769230e-08 -1.0928890427e-07 +4.7560974291e-08 1.2127541442e-07 0.0000000000e+00 0.0000e+00 1.0000e+00
</event>
<event>
 4      1 +2.4041262e-06 9.11880000e+01 7.81860800e-03 1.13011600e-01
       25 -1    0    0    0    0 +0.0000000000e+00 +0.0000000000e+00 +9.9999998245e-15 1.2500000000e+02 1.2500000000e+02 0.0000e+00 0.0000e+00
      -11  1    1    0    0    0 +6.3037348221e+00 -4.1125107906e+01 +5.1033530918e+00 4.1917249266e+01 5.1100000000e-04 0.0000e+00 -1.0000e+00
       11  1    1    0    0    0 +3.6311352321e+00 -2.0171624691e+01 +1.9424136672e+00 2.0587679735e+01 5.1100000000e-04 0.0000e+00 1.0000e+00
       22  1    1    0    0    0 -9.9348700542e+00 +6.1296732597e+01 -7.0457667590e+00 6.2495071000e+01 0.0000000000e+00 0.0000e+00 -1.0000e+00
</event>
<event>
 4      1 +2.4041262e-06 9.11880000e+01 7.81860800e-03 1.13011600e-01
       25 -1    0    0    0    0 +0.0000000000e+00 +0.0000000000e+00 +9.9999998245e-15 1.2500000000e+02 1.2500000000e+02 0.0000e+00 0.0000e+00
      -13  1    1    0    0    0 -2.8505333805e+01 +4.5339483931e+01 +3.2201049560e+01 6.2491132293e+01 1.0566000000e-01 0.0000e+00 -1.0000e+00
       13  1    1    0    0    0 +2.8507539299e+01 -4.5347081077e+01 -3.2205347208e+01 6.2499864896e+01 1.0566000000e-01 0.0000e+00 -1.0000e+00
       22  1    1    0    0    0 -2.2054948550e-03 +7.5971463746e-03 +4.2976479470e-03 9.0028116979e-03 0.0000000000e+00 0.0000e+00 -1.0000e+00
</event>
<event>
 4      1 +2.4041262e-06 9.11880000e+01 7.81860800e-03 1.13011600e-01
       25 -1    0    0    0    0 +0.0000000000e+00 +0.0000000000e+00 +9.9999998245e-15 1.2500000000e+02 1.2500000000e+02 0.0000e+00 0.0000e+00
      -13  1    1    0    0    0 -4.4828411611e+01 -4.3142217957e+01 +5.9498926165e+00 6.2499998752e+01 1.0566000000e-01 0.0000e+00 1.0000e+00
       13  1    1    0    0    0 +4.4818854705e+01 +4.3132686225e+01 -5.9486976185e+00 6.2486450735e+01 1.0566000000e-01 0.0000e+00 1.0000e+00
       22  1    1    0    0    0 +9.5569060510e-03 +9.5317325805e-03 -1.1949979688e-03 1.3550512883e-02 0.0000000000e+00 0.0000e+00 1.0000e+00
</event>
<event>
 4      1 +2.4041262e-06 9.11880000e+01 7.81860800e-03 1.13011600e-01
       25 -1    0    0    0    0 +0.0000000000e+00 +0.0000000000e+00 +9.9999998245e-15 1.2500000000e+02 1.2500000000e+02 0.0000e+00 0.0000e+00
      -13  1    1    0    0    0 -5.9306479194e+01 +1.8233007033e+01 +7.5191459368e+00 6.2499997916e+01 1.0566000000e-01 0.0000e+00 -1.0000e+00
       13  1    1    0    0    0 +5.9188439530e+01 -1.8196818661e+01 -7.5051811303e+00 6.2375752430e+01 1.0566000000e-01 0.0000e+00 -1.0000e+00
       22  1    1    0    0    0 +1.1803966434e-01 -3.6188372823e-02 -1.3964806544e-02 1.2424965395e-01 0.0000000000e+00 0.0000e+00 1.0000e+00
</event>
<event>
 4      1 +2.4041262e-06 9.11880000e+01 7.81860800e-03 1.13011600e-01
       25 -1    0    0    0    0 +0.0000000000e+00 +0.0000000000e+00 +9.9999998245e-15 1.2500000000e+02 1.2500000000e+02 0.0000e+00 0.0000e+00
      -13  1    1    0    0    0 +3.3384024137e+01 -1.1961358264e+01 -1.0086042745e+01 3.6868775155e+01 1.0566000000e-01 0.0000e+00 -1.0000e+00
       13  1    1    0    0    0 +2.1794586296e+01 -1.0629056525e+01 -8.4721090166e+00 2.5685961723e+01 1.0566000000e-01 0.0000e+00 1.0000e+00
       22  1    1    0    0    0 -5.5178610433e+01 +2.2590414789e+01 +1.8558151761e+01 6.2445263122e+01 0.0000000000e+00 0.0000e+00 -1.0000e+00
</event>
<event>
 4      1 +2.4041262e-06 9.11880000e+01 7.81860800e-03 1.13011600e-01
       25 -1    0    0    0    0 +0.0000000000e+00 +0.0000000000e+00 +9.9999998245e-15 1.2500000000e+02 1.2500000000e+02 0.0000e+00 0.0000e+00
      -13  1    1    0    0    0 +3.5060275815e+00 -5.9499400269e+01 +1.8808699916e+01 6.2499993747e+01 1.0566000000e-01 0.0000e+00 -1.0000e+00
       13  1    1    0    0    0 -3.4364011582e+00 +5.8382294425e+01 -1.8458885615e+01 6.1327341190e+01 1.0566000000e-01 0.0000e+00 -1.0000e+00
       22  1    1    0    0    0 -6.9626423260e-02 +1.1171058435e+00 -3.4981430139e-01 1.1726650630e+00 0.0000000000e+00 0.0000e+00 -1.0000e+00
</event>
<event>
 4      1 +2.4041262e-06 9.11880000e+01 7.81860800e-03 1.13011600e-01
       25 -1    0    0    0    0 +0.0000000000e+00 +0.0000000000e+00 +9.9999998245e-15 1.2500000000e+02 1.2500000000e+02 0.0000e+00 0.0000e+00
      -13  1    1    0    0    0 +5.5347646711e+01 +7.7025279624e+00 -2.7991925136e+01 6.2499999763e+01 1.0566000000e-01 0.0000e+00 -1.0000e+00
       13  1    1    0    0    0 -5.5344782140e+01 -7.7021111138e+00 +2.7990533195e+01 6.2496788224e+01 1.0566000000e-01 0.0000e+00 -1.0000e+00
       22  1    1    0    0    0 -2.8645710909e-03 -4.1684859577e-04 +1.3919415142e-03 3.2120136155e-03 0.0000000000e+00 0.0000e+00 -1.0000e+00
</event>
<event>
 4      1 +2.4041262e-06 9.11880000e+01 7.81860800e-03 1.13011600e-01
       25 -1    0    0    0    0 +0.0000000000e+00 +0.0000000000e+00 +9.9999998245e-15 1.2500000000e+02 1.2500000000e+02 0.0000e+00 0.0000e+00
      -13  1    1    0    0    0 -1.7936833975e+01 -1.5348342436e+01 +2.7455110086e+01 3.6209057740e+01 1.0566000000e-01 0.0000e+00 -1.0000e+00
       13  1    1    0    0    0 -1.1175528761e+01 -9.7998990794e+00 +2.1742652003e+01 2.6337891814e+01 1.0566000000e-01 0.0000e+00 1.0000e+00
       22  1    1    0    0    0 +2.9112362737e+01 +2.5148241515e+01 -4.9197762089e+01 6.2453050445e+01 0.0000000000e+00 0.0000e+00 -1.0000e+00
</event>
<event>
 4      1 +2.4041262e-06 9.11880000e+01 7.81860800e-03 1.13011600e-01
       25 -1    0    0    0    0 +0.0000000000e+00 +0.0000000000e+00 +9.9999998245e-15 1.2500000000e+02 1.2500000000e+02 0.0000e+00 0.0000e+00
      -13  1    1    0    0    0 +4.1168930364e+01 -2.0300223282e+01 -4.2417672155e+01 6.2499999741e+01 1.0566000000e-01 0.0000e+00 -1.0000e+00
       13  1    1    0    0    0 -4.1165647429e+01 +2.0298655832e+01 +4.2414383799e+01 6.2495096399e+01 1.0566000000e-01 0.0000e+00 -1.0000e+00
       22  1    1    0    0    0 -3.2829346240e-03 +1.5674495955e-03 +3.2883552617e-03 4.9038595317e-03 0.0000000000e+00 0.0000e+00 -1.0000e+00
</event>
<event>
 4      1 +2.4041262e-06 9.11880000e+01 7.81860800e-03 1.13011600e-01
       25 -1    0    0    0    0 +0.0000000000e+00 +0.0000000000e+00 +9.9999998245e-15 1.2500000000e+02 1.2500000000e+02 0.0000e+00 0.0000e+00
      -13  1    1    0    0    0 +4.6058416468e+01 -3.4645103434e+01 -2.4178046167e+01 6.2500000000e+01 1.0566000000e-01 0.0000e+00 1.0000e+00
       13  1    1    0    0    0 -4.6058416468e+01 +3.4645103434e+01 +2.4178046167e+01 6.2500000000e+01 1.0566000000e-01 0.0000e+00 1.0000e+00
       22  1    1    0    0    0 +4.5409167967e-11 -1.2991673770e-11 +2.5338195813e-11 5.3598510145e-11 0.0000000000e+00 0.0000e+00 1.0000e+00
</event>
<event>
 4      1 +2.4041262e-06 9.11880000e+01 7.81860800e-03 1.13011600e-01
       25 -1    0    0    0    0 +0.0000000000e+00 +0.0000000000e+00 +9.9999998245e-15 1.2500000000e+02 1.2500000000e+02 0.0000e+00 0.0000e+00
      -13  1    1    0    0    0 +2.3514068494e+01 +1.7932037391e+01 -5.5061506098e+01 6.2500000000e+01 1.0566000000e-01 0.0000e+00 1.0000e+00
       13  1    1    0    0    0 -2.3514067225e+01 -1.7932036472e+01 +5.5061503080e+01 6.2499996599e+01 1.0566000000e-01 0.0000e+00 1.0000e+00
       22  1    1    0    0    0 -1.2691693704e-06 -9.1932328012e-07 +3.0184087185e-06 3.4009906463e-06 0.0000000000e+00 0.0000e+00 1.0000e+00
</event>
<event>
 5      1 +2.4041262e-06 9.11880000e+01 7.81860800e-03 1.13011600e-01
       25 -1    0    0    0    0 +0.0000000000e+00 +0.0000000000e+00 +9.9999998245e-15 1.2500000000e+02 1.2500000000e+02 0.0000e+00 0.0000e+00
       23  2    1    0    0    0 +2.4323234498e+01 -1.3349545497e+01 -1.8465360826e+00 9.7192810337e+01 9.3130030518e+01 0.0000e+00 0.0000e+00
      -13  1    2    2    0    0 +5.8578682007e+01 -1.1137244822e+01 +1.0823030746e+01 6.0602387465e+01 1.0566000000e-01 0.0000e+00 -1.0000e+00
       13  1    2    2    0    0 -3.4255447509e+01 -2.2123006751e+00 -1.2669566829e+01 3.6590422872e+01 1.0566000000e-01 0.0000e+00 1.0000e+00
       22  1    1    0    0    0 -2.4323234498e+01 +1.3349545497e+01 +1.8465360826e+00 2.7807189663e+01 0.0000000000e+00 0.0000e+00 -1.0000e+00
</event>
<event>
 4      1 +2.4041262e-06 9.11880000e+01 7.81860800e-03 1.13011600e-01
       25 -1    0    0    0    0 +0.0000000000e+00 +0.0000000000e+00 +9.9999998245e-15 1.2500000000e+02 1.2500000000e+02 0.0000e+00 0.0000e+00
      -13  1    1    0    0    0 +1.9034635879e+01 -4.8373392537e+01 +3.4697784116e+01 6.2499998841e+01 1.0566000000e-01 0.0000e+00 1.0000e+00
       13  1    1    0    0    0 -1.8998649335e+01 +4.8279978690e+01 -3.4630990823e+01 6.2379657808e+01 1.0566000000e-01 0.0000e+00 1.0000e+00
       22  1    1    0    0    0 -3.5986543808e-02 +9.3413846998e-02 -6.6793292516e-02 1.2034335076e-01 0.0000000000e+00 0.0000e+00 1.0000e+00
</event>
<event>
 4      1 +2.4041262e-06 9.11880000e+01 7.81860800e-03 1.13011600e-01
       25 -1    0    0    0    0 +0.0000000000e+00 +0.0000000000e+00 +9.9999998245e-15 1.2500000000e+02 1.2500000000e+02 0.0000e+00 0.0000e+00
      -13  1    1    0    0    0 -3.4574802273e+01 -3.1013876113e+01 +4.1016331453e+01 6.1964732499e+01 1.0566000000e-01 0.0000e+00 -1.0000e+00
       13  1    1    0    0    0 +2.7989338028e+01 +2.7492932059e+01 -2.8619010924e+01 4.8562571048e+01 1.0566000000e-01 0.0000e+00 -1.0000e+00
       22  1    1    0    0    0 +6.5854642453e+00 +3.5209440537e+00 -1.2397320528e+01 1.4472696454e+01 0.0000000000e+00 0.0000e+00 -1.0000e+00
</event>
<event>
 4      1 +2.4041262e-06 9.11880000e+01 7.81860800e-03 1.13011600e-01
       25 -1    0    0    0    0 +0.0000000000e+00 +0.0000000000e+00 +9.9999998245e-15 1.2500000000e+02 1.2500000000e+02 0.0000e+00 0.0000e+00
      -13  1    1    0    0    0 +6.1631126633e+01 -7.0056054657e-01 +8.0138185426e+00 6.2153994295e+01 1.0566000000e-01 0.0000e+00 -1.0000e+00
       13  1    1    0    0    0 -6.1949941836e+01 +7.5195728806e-01 -8.1634184315e+00 6.2490105599e+01 1.0566000000e-01 0.0000e+00 -1.0000e+00
       22  1    1    0    0    0 +3.1881520320e-01 -5.1396741485e-02 +1.4959988888e-01 3.5590010618e-01 0.0000000000e+00 0.0000e+00 1.0000e+00
</event>
<event>
 4      1 +2.4041262e-06 9.11880000e+01 7.81860800e-03 1.13011600e-01
       25 -1    0    0    0    0 +0.0000000000e+00 +0.0000000000e+00 +9.9999998245e-15 1.2500000000e+02 1.2500000000e+02 0.0000e+00 0.0000e+00
      -11  1    1    0    0    0 -4.0894383825e+00 -3.7881908938e+00 +1.7136428821e+00 5.8318495111e+00 5.1100000000e-04 0.0000e+00 1.0000e+00
       11  1    1    0    0    0 -3.9937295629e+01 -3.6978706001e+01 +1.5776751850e+01 5.6668493706e+01 5.1100000000e-04 0.0000e+00 -1.0000e+00
       22  1    1    0    0    0 +4.4026734011e+01 +4.0766896895e+01 -1.7490394732e+01 6.2499656783e+01 0.0000000000e+00 0.0000e+00 -1.0000e+00
</event>
<event>
 4      1 +2.4041262e-06 9.11880000e+01 7.81860800e-03 1.13011600e-01
       25 -1    0    0    0    0 +0.0000000000e+00 +0.0000000000e+00 +9.9999998245e-15 1.2500000000e+02 1.2500000000e+02 0.0000e+00 0.0000e+00
      -13  1    1    0    0    0 -2.1615124762e+01 -9.4370537088e+00 +2.9827664150e+00 2.3773507539e+01 1.0566000000e-01 0.0000e+00 -1.0000e+00
       13  1    1    0    0    0 -3.8613231364e+01 +1.8615664402e+00 -1.0502838885e+01 4.0059553850e+01 1.0566000000e-01 0.0000e+00 1.0000e+00
       22  1    1    0    0    0 +6.0228356126e+01 +7.5754872687e+00 +7.5200724702e+00 6.1166938611e+01 0.0000000000e+00 0.0000e+00 -1.0000e+00
</event>
<event>
 4      1 +2.4041262e-06 9.11880000e+01 7.81860800e-03 1.13011600e-01
       25 -1    0    0    0    0 +0.0000000000e+00 +0.0000000000e+00 +9.9999998245e-15 1.2500000000e+02 1.2500000000e+02 0.0000e+00 0.0000e+00
      -13  1    1    0    0    0 -5.2865812183e+01 -4.6757984153e+00 +3.3008811662e+01 6.2499999999e+01 1.0566000000e-01 0.0000e+00 -1.0000e+00
       13  1    1    0    0    0 +5.2865809951e+01 +4.6757982636e+00 -3.3008810196e+01 6.2499997327e+01 1.0566000000e-01 0.0000e+00 -1.0000e+00
       22  1    1    0    0    0 +2.2314262232e-06 +1.5171654137e-07 -1.4654374099e-06 2.6739086934e-06 0.0000000000e+00 0.0000e+00 1.0000e+00
</event>
<event>
 4      1 +2.4041262e-06 9.11880000e+01 7.81860800e-03 1.13011600e-01
       25 -1    0    0    0    0 +0.0000000000e+00 +0.0000000000e+00 +9.9999998245e-15 1.2500000000e+02 1.2500000000e+02 0.0000e+00 0.0000e+00
      -13  1    1    0    0    0 +2.9255561528e+01 -3.0258052849e+01 +4.6203796642e+01 6.2499917045e+01 1.0566000000e-01 0.0000e+00 1.0000e+00
       13  1    1    0    0    0 -2.9255376547e+01 +3.0258138310e+01 -4.6203806282e+01 6.2499878959e+01 1.0566000000e-01 0.0000e+00 1.0000e+00
       22  1    1    0    0    0 -1.8498069059e-04 -8.5460864259e-05 +9.6403352067e-06 2.0399595897e-04 0.0000000000e+00 0.0000e+00 -1.0000e+00
</event>
<event>
 5      1 +2.4041262e-06 9.11880000e+01 7.81860800e-03 1.13011600e-01
       25 -1    0    0    0    0 +0.0000000000e+00 +0.0000000000e+00 +9.9999998245e-15 1.2500000000e+02 1.2500000000e+02 0.0000e+00 0.0000e+00
       23  2    1    0    0    0 +1.8855259222e+01 -1.3562944450e+01 -1.1937087442e+01 9.8885476855e+01 9.5374887752e+01 0.0000e+00 0.0000e+00
      -11  1    2    2    0    0 +3.4001337881e+01 -3.5103040710e+01 -3.7947162276e+01 6.1873270237e+01 5.1100000000e-04 0.0000e+00 -1.0000e+00
       11  1    2    2    0    0 -1.5146078659e+01 +2.1540096260e+01 +2.6010074833e+01 3.7012206618e+01 5.1100000000e-04 0.0000e+00 1.0000e+00
       22  1    1    0    0    0 -1.8855259222e+01 +1.3562944450e+01 +1.1937087442e+01 2.6114523145e+01 0.0000000000e+00 0.0000e+00 -1.0000e+00
</event>
<event>
 4      1 +2.4041262e-06 9.11880000e+01 7.81860800e-03 1.13011600e-01
       25 -1    0    0    0    0 +0.0000000000e+00 +0.0000000000e+00 +9.9999998245e-15 1.2500000000e+02 1.2500000000e+02 0.0000e+00 0.0000e+00
      -13  1    1    0    0    0 +2.7334236279e+01 -4.2703568829e+01 +3.6542348704e+01 6.2498877402e+01 1.0566000000e-01 0.0000e+00 -1.0000e+00
       13  1    1    0    0    0 -2.3700098642e+01 +3.7349567013e+01 -3.1847707094e+01 5.4506627514e+01 1.0566000000e-01 0.0000e+00 -1.0000e+00
       22  1    1    0    0    0 -3.6341376368e+00 +5.3540018159e+00 -4.6946416096e+00 7.9944950841e+00 0.0000000000e+00 0.0000e+00 -1.0000e+00
</event>
<event>
 4      1 +2.4041262e-06 9.11880000e+01 7.81860800e-03 1.13011600e-01
       25 -1    0    0    0    0 +0.0000000000e+00 +0.0000000000e+00 +9.9999998245e-15 1.2500000000e+02 1.2500000000e+02 0.0000e+00 0.0000e+00
      -11  1    1    0    0    0 -1.3121605183e+01 -8.4207161424e+00 -7.2839983523e+00 1.7208765650e+01 5.1100000000e-04 0.0000e+00 -1.0000e+00
       11  1    1    0    0    0 -3.5005477914e+01 +1.8585462733e+00 +3.6904457552e+01 5.0899672550e+01 5.1100000000e-04 0.0000e+00 1.0000e+00
       22  1    1    0    0    0 +4.8127083097e+01 +6.5621698691e+00 -2.9620459200e+01 5.6891561800e+01 0.0000000000e+00 0.0000e+00 1.0000e+00
</event>
<event>
 4      1 +2.4041262e-06 9.11880000e+01 7.81860800e-03 1.13011600e-01
       25 -1    0    0    0    0 +0.0000000000e+00 +0.0000000000e+00 +9.9999998245e-15 1.2500000000e+02 1.2500000000e+02 0.0000e+00 0.0000e+00
      -13  1    1    0    0    0 +5.5357285535e+00 -6.0755694185e+01 -1.1238380986e+01 6.2033950686e+01 1.0566000000e-01 0.0000e+00 -1.0000e+00
       13  1    1    0    0    0 -5.3762213346e+00 +6.1222396601e+01 +1.1209548821e+01 6.2471999730e+01 1.0566000000e-01 0.0000e+00 -1.0000e+00
       22  1    1    0    0    0 -1.5950721893e-01 -4.6670241603e-01 +2.8832164958e-02 4.9404958431e-01 0.0000000000e+00 0.0000e+00 -1.0000e+00
</event>
<event>
 4      1 +2.4041262e-06 9.11880000e+01 7.81860800e-03 1.13011600e-01
       25 -1    0    0    0    0 +0.0000000000e+00 +0.0000000000e+00 +9.9999998245e-15 1.2500000000e+02 1.2500000000e+02 0.0000e+00 0.0000e+00
      -13  1    1    0    0    0 +2.3109423279e+01 -5.2318194313e+01 -2.5199199044e+01 6.2499997576e+01 1.0566000000e-01 0.0000e+00 -1.0000e+00
       13  1    1    0    0    0 -2.3109424114e+01 +5.2318194618e+01 +2.5199202004e+01 6.2499999333e+01 1.0566000000e-01 0.0000e+00 -1.0000e+00
       22  1    1    0    0    0 +8.3501079331e-07 -3.0451794433e-07 -2.9600764661e-06 3.0906353535e-06 0.0000000000e+00 0.0000e+00 -1.0000e+00
</event>
<event>
 4      1 +2.4041262e-06 9.11880000e+01 7.81860800e-03 1.13011600e-01
       25 -1    0    0    0    0 +0.0000000000e+00 +0.0000000000e+00 +9.9999998245e-15 1.2500000000e+02 1.2500000000e+02 0.0000e+00 0.0000e+00
      -13  1    1    0    0    0 -5.3415441460e+01 +9.7124861380e+00 -3.0962826846e+01 6.2499996669e+01 1.0566000000e-01 0.0000e+00 -1.0000e+00
       13  1    1    0    0    0 +5.3335950972e+01 -9.6984387114e+00 +3.0917967320e+01 6.2407653751e+01 1.0566000000e-01 0.0000e+00 -1.0000e+00
       22  1    1    0    0    0 +7.9490488122e-02 -1.4047426535e-02 +4.4859525838e-02 9.2349580143e-02 0.0000000000e+00 0.0000e+00 -1.0000e+00
</event>
<event>
 4      1 +2.4041262e-06 9.11880000e+01 7.81860800e-03 1.13011600e-01
       25 -1    0    0    0    0 +0.0000000000e+00 +0.0000000000e+00 +9.9999998245e-15 1.2500000000e+02 1.2500000000e+02 0.0000e+00 0.0000e+00
      -13  1    1    0    0    0 -1.8285436510e+00 -3.2183009527e+00 -4.4602514919e+00 5.7970717016e+00 1.0566000000e-01 0.0000e+00 1.0000e+00
       13  1    1    0    0    0 -1.6011515895e+01 -3.2138780063e+01 -4.3888352562e+01 5.6705101004e+01 1.0566000000e-01 0.0000e+00 1.0000e+00
       22  1    1    0    0    0 +1.7840059547e+01 +3.5357081016e+01 +4.8348604054e+01 6.2497827295e+01 0.0000000000e+00 0.0000e+00 1.0000e+00
</event>
<event>
 5      1 +2.4041262e-06 9.11880000e+01 7.81860800e-03 1.13011600e-01
       25 -1    0    0    0    0 +0.0000000000e+00 +0.0000000000e+00 +9.9999998245e-15 1.2500000000e+02 1.2500000000e+02 0.0000e+00 0.0000e+00
       23  2    1    0    0    0 +5.2884392235e+00 -2.1698849816e-01 -2.8512994240e+01 9.5999904932e+01 9.1514896236e+01 0.0000e+00 0.0000e+00
      -13  1    2    2    0    0 +4.7153005225e+01 +8.4466419731e+00 -2.2151778398e+01 5.2777496271e+01 1.0566000000e-01 0.0000e+00 -1.0000e+00
       13  1    2    2    0    0 -4.1864566002e+01 -8.6636304712e+00 -6.3612158420e+00 4.3222408661e+01 1.0566000000e-01 0.0000e+00 1.0000e+00
       22  1    1    0    0    0 -5.2884392235e+00 +2.1698849816e-01 +2.8512994240e+01 2.9000095068e+01 0.0000000000e+00 0.0000e+00 -1.0000e+00
</event>
<event>
 4      1 +2.4041262e-06 9.11880000e+01 7.81860800e-03 1.13011600e-01
       25 -1    0    0    0    0 +0.0000000000e+00 +0.0000000000e+00 +9.9999998245e-15 1.2500000000e+02 1.2500000000e+02 0.0000e+00 0.0000e+00
      -13  1    1    0    0    0 +3.2606279168e+00 -5.8643855768e+00 -6.2138483464e+01 6.2499800030e+01 1.0566000000e-01 0.0000e+00 1.0000e+00
       13  1    1    0    0    0 -2.8984167771e+00 +5.0733080401e+00 +5.3811749099e+01 5.4128132975e+01 1.0566000000e-01 0.0000e+00 1.0000e+00
       22  1    1    0    0    0 -3.6221113971e-01 +7.9107753671e-01 +8.3267343648e+00 8.3720669945e+00 0.0000000000e+00 0.0000e+00 -1.0000e+00
</event>
<event>
 4      1 +2.4041262e-06 9.11880000e+01 7.81860800e-03 1.13011600e-01
       25 -1    0    0    0    0 +0.0000000000e+00 +0.0000000000e+00 +9.9999998245e-15 1.2500000000e+02 1.2500000000e+02 0.0000e+00 0.0000e+00
      -13  1    1    0    0    0 +4.3751566232e+01 -3.8741759336e+01 -2.2161122980e+01 6.2500000000e+01 1.0566000000e-01 0.0000e+00 1.0000e+00
       13  1    1    0    0    0 -4.3751566215e+01 +3.8741759320e+01 +2.2161122971e+01 6.2499999975e+01 1.0566000000e-01 0.0000e+00 1.0000e+00
       22  1    1    0    0    0 -1.7038195660e-08 +1.6077668735e-08 +9.2768970631e-09 2.5196276757e-08 0.0000000000e+00 0.0000e+00 1.0000e+00
</event>
<event>
 4      1 +2.4041262e-06 9.11880000e+01 7.81860800e-03 1.13011600e-01
       25 -1    0    0    0    0 +0.0000000000e+00 +0.0000000000e+00 +9.9999998245e-15 1.2500000000e+02 1.2500000000e+02 0.0000e+00 0.0000e+00
      -13  1    1    0    0    0 -1.2895868929e+01 -6.0839395447e+01 +6.2050986050e+00 6.2499999092e+01 1.0566000000e-01 0.0000e+00 -1.0000e+00
       13  1    1    0    0    0 +1.2895869253e+01 +6.0839396302e+01 -6.2050986194e+00 6.2499999993e+01 1.0566000000e-01 0.0000e+00 -1.0000e+00
       22  1    1    0    0    0 -3.2368575403e-07 -8.5577504721e-07 +1.4374280447e-08 9.1505738549e-07 0.0000000000e+00 0.0000e+00 1.0000e+00
</event>
<event>
 4      1 +2.4041262e-06 9.11880000e+01 7.81860800e-03 1.13011600e-01
       25 -1    0    0    0    0 +0.0000000000e+00 +0.0000000000e+00 +9.9999998245e-15 1.2500000000e+02 1.2500000000e+02 0.0000e+00 0.0000e+00
      -13  1    1    0    0    0 -3.7987183426e+01 -9.8205518322e+00 -4.8649455205e+01 6.2499999990e+01 1.0566000000e-01 0.0000e+00 -1.0000e+00
       13  1    1    0    0    0 +3.7987172631e+01 +9.8205498540e+00 +4.8649441062e+01 6.2499982109e+01 1.0566000000e-01 0.0000e+00 -1.0000e+00
       22  1    1    0    0    0 +1.0794449877e-05 +1.9781748594e-06 +1.4143039788e-05 1.7901365824e-05 0.0000000000e+00 0.0000e+00 1.0000e+00
</event>
<event>
 4      1 +2.4041262e-06 9.11880000e+01 7.81860800e-03 1.13011600e-01
       25 -1    0    0    0    0 +0.0000000000e+00 +0.0000000000e+00 +9.9999998245e-15 1.2500000000e+02 1.2500000000e+02 0.0000e+00 0.0000e+00
      -13  1    1    0    0    0 -5.6054108207e+01 -2.6490313026e+01 +7.9018374125e+00 6.2499999437e+01 1.0566000000e-01 0.0000e+00 1.0000e+00
       13  1    1    0    0    0 +5.6053365395e+01 +2.6490003554e+01 -7.9017143391e+00 6.2499186506e+01 1.0566000000e-01 0.0000e+00 1.0000e+00
       22  1    1    0    0    0 +7.4281208135e-04 +3.0947226332e-04 -1.2307336199e-04 8.1405768985e-04 0.0000000000e+00 0.0000e+00 -1.0000e+00
</event>
<event>
 4      1 +2.4041262e-06 9.11880000e+01 7.81860800e-03 1.13011600e-01
       25 -1    0    0    0    0 +0.0000000000e+00 +0.0000000000e+00 +9.9999998245e-15 1.2500000000e+02 1.2500000000e+02 0.0000e+00 0.0000e+00
      -13  1    1    0    0    0 +2.5587254345e+01 +1.8306362425e+01 +5.4003780848e+01 6.2500000000e+01 1.0566000000e-01 0.0000e+00 -1.0000e+00
       13  1    1    0    0    0 -2.5587254269e+01 -1.8306362374e+01 -5.4003780692e+01 6.2499999820e+01 1.0566000000e-01 0.0000e+00 -1.0000e+00
       22  1    1    0    0    0 -7.5060895994e-08 -5.1319516725e-08 -1.5530944086e-07 1.7996903435e-07 0.0000000000e+00 0.0000e+00 -1.0000e+00
</event>
<event>
 4      1 +2.4041262e-06 9.11880000e+01 7.81860800e-03 1.13011600e-01
       25 -1    0    0    0    0 +0.0000000000e+00 +0.0000000000e+00 +9.9999998245e-15 1.2500000000e+02 1.2500000000e+02 0.0000e+00 0.0000e+00
      -13  1    1    0    0    0 -3.1733496869e+01 +3.7536488988e+01 -1.8081350020e+01 5.2373172633e+01 1.0566000000e-01 0.0000e+00 -1.0000e+00
       13  1    1    0    0    0 +3.7948752497e+01 -4.4566274879e+01 +2.1898840613e+01 6.2496648365e+01 1.0566000000e-01 0.0000e+00 -1.0000e+00
       22  1    1    0    0    0 -6.2152556273e+00 +7.0297858908e+00 -3.8174905931e+00 1.0130179002e+01 0.0000000000e+00 0.0000e+00 -1.0000e+00
</event>
<event>
 4      1 +2.4041262e-06 9.11880000e+01 7.81860800e-03 1.13011600e-01
       25 -1    0    0    0    0 +0.0000000000e+00 +0.0000000000e+00 +9.9999998245e-15 1.2500000000e+02 1.2500000000e+02 0.0000e+00 0.0000e+00
      -11  1    1    0    0    0 -9.7870796242e+00 +8.6014089932e+00 -1.8518062984e+01 2.2642654906e+01 5.1100000000e-04 0.0000e+00 -1.0000e+00
       11  1    1    0    0    0 -1.7228081381e+01 +1.5141534956e+01 -3.2596550266e+01 3.9857345100e+01 5.1100000000e-04 0.0000e+00 1.0000e+00
       22  1    1    0    0    0 +2.7015161005e+01 -2.3742943949e+01 +5.1114613251e+01 6.2499999994e+01 0.0000000000e+00 0.0000e+00 1.0000e+00
</event>
<event>
 4      1 +2.4041262e-06 9.11880000e+01 7.81860800e-03 1.13011600e-01
       25 -1    0    0    0    0 +0.0000000000e+00 +0.0000000000e+00 +9.9999998245e-15 1.2500000000e+02 1.2500000000e+02 0.0000e+00 0.0000e+00
      -13  1    1    0    0    0 -1.0346847194e+01 +4.7231613220e+01 +3.9602478480e+01 6.2500000000e+01 1.0566000000e-01 0.0000e+00 1.0000e+00
       13  1    1    0    0    0 +1.0346847194e+01 -4.7231613220e+01 -3.9602478479e+01 6.2499999999e+01 1.0566000000e-01 0.0000e+00 1.0000e+00
       22  1    1    0    0    0 +6.7441387199e-11 -4.7187628579e-10 -3.5558202722e-10 5.9468827791e-10 0.0000000000e+00 0.0000e+00 1.0000e+00
</event>
<event>
 4      1 +2.4041262e-06 9.11880000e+01 7.81860800e-03 1.13011600e-01
       25 -1    0    0    0    0 +0.0000000000e+00 +0.0000000000e+00 +9.9999998245e-15 1.2500000000e+02 1.2500000000e+02 0.0000e+00 0.0000e+00
      -13  1    1    0    0    0 +1.4931259361e+01 +5.7049670061e+01 -2.0703417007e+01 6.2500000000e+01 1.0566000000e-01 0.0000e+00 -1.0000e+00
       13  1    1    0    0    0 -1.4931259360e+01 -5.7049670061e+01 +2.0703417007e+01 6.2500000000e+01 1.0566000000e-01 0.0000e+00 -1.0000e+00
       22  1    1    0    0    0 -1.0100975244e-10 -1.2876086830e-10 +4.3560679026e-11 1.6935130365e-10 0.0000000000e+00 0.0000e+00 1.0000e+00
</event>
<event>
 4      1 +2.4041262e-06 9.11880000e+01 7.81860800e-03 1.13011600e-01
       25 -1    0    0    0    0 +0.0000000000e+00 +0.0000000000e+00 +9.9999998245e-15 1.2500000000e+02 1.2500000000e+02 0.0000e+00 0.0000e+00
      -13  1    1    0    0    0 +3.6475109506e+01 +2.3817948209e+01 -4.4816409556e+01 6.2499999999e+01 1.0566000000e-01 0.0000e+00 1.0000e+00
       13  1    1    0    0    0 -3.6475109507e+01 -2.3817948209e+01 +4.4816409557e+01 6.2500000000e+01 1.0566000000e-01 0.0000e+00 1.0000e+00
       22  1    1    0    0    0 +5.3969531992e-10 +2.1547771279e-10 -8.0936741796e-10 9.9638210557e-10 0.0000000000e+00 0.0000e+00 1.0000e+00
</event>
<event>
 5      1 +2.4041262e-06 9.11880000e+01 7.81860800e-03 1.13011600e-01
       25 -1    0    0    0    0 +0.0000000000e+00 +0.0000000000e+00 +9.9999998245e-15 1.2500000000e+02 1.2500000000e+02 0.0000e+00 0.0000e+00
       23  2    1    0    0    0 +8.7183035173e+00 -2.2611829546e+01 -1.7749390438e+01 9.4960950205e+01 9.0084613288e+01 0.0000e+00 0.0000e+00
      -13  1    2    2    0    0 +1.6299533622e+01 -5.5073056552e+01 -2.1690504135e+01 6.1393855457e+01 1.0566000000e-01 0.0000e+00 1.0000e+00
       13  1    2    2    0    0 -7.5812301047e+00 +3.2461227006e+01 +3.9411136974e+00 3.3567094748e+01 1.0566000000e-01 0.0000e+00 -1.0000e+00
       22  1    1    0    0    0 -8.7183035173e+00 +2.2611829546e+01 +1.7749390438e+01 3.0039049795e+01 0.0000000000e+00 0.0000e+00 1.0000e+00
</event>
<event>
 4      1 +2.4041262e-06 9.11880000e+01 7.81860800e-03 1.13011600e-01
       25 -1    0    0    0    0 +0.0000000000e+00 +0.0000000000e+00 +9.9999998245e-15 1.2500000000e+02 1.2500000000e+02 0.0000e+00 0.0000e+00
      -13  1    1    0    0    0 +1.9479859479e+01 -2.9686049404e+01 -5.1434312160e+01 6.2499808687e+01 1.0566000000e-01 0.0000e+00 -1.0000e+00
       13  1    1    0    0    0 -1.9479928907e+01 +2.9686131396e+01 +5.1434470734e+01 6.2499999770e+01 1.0566000000e-01 0.0000e+00 -1.0000e+00
       22  1    1    0    0    0 +6.9428115561e-05 -8.1992165575e-05 -1.5857400268e-04 1.9154292671e-04 0.0000000000e+00 0.0000e+00 1.0000e+00
</event>
<event>
 4      1 +2.4041262e-06 9.11880000e+01 7.81860800e-03 1.13011600e-01
       25 -1    0    0    0    0 +0.0000000000e+00 +0.0000000000e+00 +9.9999998245e-15 1.2500000000e+02 1.2500000000e+02 0.0000e+00 0.0000e+00
      -11  1    1    0    0    0 -1.9846154231e+01 -2.5798849569e+00 +5.7417128953e+01 6.0805035496e+01 5.1100000000e-04 0.0000e+00 1.0000e+00
       11  1    1    0    0    0 +8.7215373840e-02 -1.2149657050e+00 +1.5027774794e+00 1.9344478797e+00 5.1100000000e-04 0.0000e+00 -1.0000e+00
       22  1    1    0    0    0 +1.9758938857e+01 +3.7948506619e+00 -5.8919906433e+01 6.2260516624e+01 0.0000000000e+00 0.0000e+00 1.0000e+00
</event>
<event>
 4      1 +2.4041262e-06 9.11880000e+01 7.81860800e-03 1.13011600e-01
       25 -1    0    0    0    0 +0.0000000000e+00 +0.0000000000e+00 +9.9999998245e-15 1.2500000000e+02 1.2500000000e+02 0.0000e+00 0.0000e+00
      -13  1    1    0    0    0 +4.0822131738e+01 -2.9759311287e+01 +3.6799078044e+01 6.2499970855e+01 1.0566000000e-01 0.0000e+00 1.0000e+00
       13  1    1    0    0    0 -4.0811972082e+01 +2.9750634261e+01 -3.6788167328e+01 6.2482779416e+01 1.0566000000e-01 0.0000e+00 1.0000e+00
       22  1    1    0    0    0 -1.0159656638e-02 +8.6770263718e-03 -1.0910716403e-02 1.7249728754e-02 0.0000000000e+00 0.0000e+00 -1.0000e+00
</event>
<event>
 5      1 +2.4041262e-06 9.11880000e+01 7.81860800e-03 1.13011600e-01
       25 -1    0    0    0    0 +0.0000000000e+00 +0.0000000000e+00 +9.9999998245e-15 1.2500000000e+02 1.2500000000e+02 0.0000e+00 0.0000e+00
       23  2    1    0    0    0 +2.7942017390e+01 +1.0094136962e+01 +2.9730635397e+00 9.5142219714e+01 9.0335789853e+01 0.0000e+00 0.0000e+00
      -13  1    2    2    0    0 -1.6467400954e+01 -1.2811442023e+01 +3.1364991520e+01 3.7670707426e+01 1.0566000000e-01 0.0000e+00 -1.0000e+00
       13  1    2    2    0    0 +4.4409418343e+01 +2.2905578985e+01 -2.8391927980e+01 5.7471512288e+01 1.0566000000e-01 0.0000e+00 1.0000e+00
       22  1    1    0    0    0 -2.7942017390e+01 -1.0094136962e+01 -2.9730635397e+00 2.9857780286e+01 0.0000000000e+00 0.0000e+00 1.0000e+00
</event>
<event>
 4      1 +2.4041262e-06 9.11880000e+01 7.81860800e-03 1.13011600e-01
       25 -1    0    0    0    0 +0.0000000000e+00 +0.0000000000e+00 +9.9999998245e-15 1.2500000000e+02 1.2500000000e+02 0.0000e+00 0.0000e+00
      -13  1    1    0    0    0 -2.3143380485e+01 +5.0669226545e+01 -2.8341705257e+01 6.2499999999e+01 1.0566000000e-01 0.0000e+00 -1.0000e+00
       13  1    1    0    0    0 +2.3143380485e+01 -5.0669226546e+01 +2.8341705258e+01 6.2500000000e+01 1.0566000000e-01 0.0000e+00 -1.0000e+00
       22  1    1    0    0    0 -3.4767413188e-10 +1.0875729881e-09 -5.1791319277e-10 1.2537648830e-09 0.0000000000e+00 0.0000e+00 1.0000e+00
</event>
<event>
 4      1 +2.4041262e-06 9.11880000e+01 7.81860800e-03 1.13011600e-01
       25 -1    0    0    0    0 +0.0000000000e+00 +0.0000000000e+00 +9.9999998245e-15 1.2500000000e+02 1.2500000000e+02 0.0000e+00 0.0000e+00
      -13  1    1    0    0    0 -5.2780055468e+01 +2.4973938963e+00 -2.1326891375e+01 5.6980862500e+01 1.0566000000e-01 0.0000e+00 -1.0000e+00
       13  1    1    0    0    0 -3.8241186211e+00 +2.5542217979e+00 -3.7193599314e+00 5.9154657091e+00 1.0566000000e-01 0.0000e+00 1.0000e+00
       22  1    1    0    0    0 +5.6604174089e+01 -5.0516156942e+00 +2.5046251306e+01 6.2103671791e+01 0.0000000000e+00 0.0000e+00 -1.0000e+00
</event>
<event>
 4      1 +2.4041262e-06 9.11880000e+01 7.81860800e-03 1.13011600e-01
       25 -1    0    0    0    0 +0.0000000000e+00 +0.0000000000e+00 +9.9999998245e-15 1.2500000000e+02 1.2500000000e+02 0.0000e+00 0.0000e+00
      -13  1    1    0    0    0 -1.4368261233e+01 -3.7094746322e+01 +4.8205515058e+01 6.2499999853e+01 1.0566000000e-01 0.0000e+00 1.0000e+00
       13  1    1    0    0    0 +1.4368261527e+01 +3.7094746382e+01 -4.8205514723e+01 6.2499999697e+01 1.0566000000e-01 0.0000e+00 1.0000e+00
       22  1    1    0    0    0 -2.9394971472e-07 -5.9821603555e-08 -3.3524154972e-07 4.4985770606e-07 0.0000000000e+00 0.0000e+00 1.0000e+00
</event>
<event>
 4      1 +2.4041262e-06 9.11880000e+01 7.81860800e-03 1.13011600e-01
       25 -1    0    0    0    0 +0.0000000000e+00 +0.0000000000e+00 +9.9999998245e-15 1.2500000000e+02 1.2500000000e+02 0.0000e+00 0.0000e+00
      -13  1    1    0    0    0 -1.7212027038e+01 -1.6385608693e+00 +6.0060802249e+01 6.2499999098e+01 1.0566000000e-01 0.0000e+00 1.0000e+00
       13  1    1    0    0    0 +1.7212027288e+01 +1.6385608903e+00 -6.0060803115e+01 6.2500000000e+01 1.0566000000e-01 0.0000e+00 1.0000e+00
       22  1    1    0    0    0 -2.4957502556e-07 -2.1050660853e-08 +8.6639128939e-07 9.0186733505e-07 0.0000000000e+00 0.0000e+00 -1.0000e+00
</event>
<event>
 5      1 +2.4041262e-06 9.11880000e+01 7.81860800e-03 1.13011600e-01
       25 -1    0    0    0    0 +0.0000000000e+00 +0.0000000000e+00 +9.9999998245e-15 1.2500000000e+02 1.2500000000e+02 0.0000e+00 0.0000e+00
       23  2    1    0    0    0 -1.8885780381e+01 -2.2074461637e+01 -9.1873521258e+00 9.4530966601e+01 8.9485985775e+01 0.0000e+00 0.0000e+00
      -11  1    2    2    0    0 -1.0018130946e+01 -5.6343592457e+01 +2.4204375534e+00 5.7278459100e+01 5.1100000000e-04 0.0000e+00 1.0000e+00
       11  1    2    2    0    0 -8.8676494349e+00 +3.4269130820e+01 -1.1607789679e+01 3.7252507501e+01 5.1100000000e-04 0.0000e+00 -1.0000e+00
       22  1    1    0    0    0 +1.8885780381e+01 +2.2074461637e+01 +9.1873521258e+00 3.0469033399e+01 0.0000000000e+00 0.0000e+00 1.0000e+00
</event>
<event>
 4      1 +2.4041262e-06 9.11880000e+01 7.81860800e-03 1.13011600e-01
       25 -1    0    0    0    0 +0.0000000000e+00 +0.0000000000e+00 +9.9999998245e-15 1.2500000000e+02 1.2500000000e+02 0.0000e+00 0.0000e+00
      -13  1    1    0    0    0 -1.9309621221e+01 +5.7504683139e+01 +4.4006622101e+00 6.0819627149e+01 1.0566000000e-01 0.0000e+00 -1.0000e+00
       13  1    1    0    0    0 +1.9824101026e+01 -5.9098819566e+01 -4.5346841942e+00 6.2499919843e+01 1.0566000000e-01 0.0000e+00 -1.0000e+00
       22  1    1    0    0    0 -5.1447980525e-01 +1.5941364270e+00 +1.3402198411e-01 1.6804530074e+00 0.0000000000e+00 0.0000e+00 1.0000e+00
</event>
<event>
 5      1 +2.4041262e-06 9.11880000e+01 7.81860800e-03 1.13011600e-01
       25 -1    0    0    0    0 +0.0000000000e+00 +0.0000000000e+00 +9.9999998245e-15 1.2500000000e+02 1.2500000000e+02 0.0000e+00 0.0000e+00
       23  2    1    0    0    0 +8.0690533156e+00 -2.3453160278e+01 -1.6524867772e+01 9.5196785353e+01 9.0411262231e+01 0.0000e+00 0.0000e+00
      -13  1    2    2    0    0 +1.9502734627e+01 -4.7940637946e+01 -3.4982625945e+01 6.2469646283e+01 1.0566000000e-01 0.0000e+00 1.0000e+00
       13  1    2    2    0    0 -1.1433681311e+01 +2.4487477668e+01 +1.8457758173e+01 3.2727139070e+01 1.0566000000e-01 0.0000e+00 1.0000e+00
       22  1    1    0    0    0 -8.0690533156e+00 +2.3453160278e+01 +1.6524867772e+01 2.9803214647e+01 0.0000000000e+00 0.0000e+00 1.0000e+00
</event>
<event>
 4      1 +2.4041262e-06 9.11880000e+01 7.81860800e-03 1.13011600e-01
       25 -1    0    0    0    0 +0.0000000000e+00 +0.0000000000e+00 +9.9999998245e-15 1.2500000000e+02 1.2500000000e+02 0.0000e+00 0.0000e+00
      -13  1    1    0    0    0 +3.6273590771e+01 +8.3562241705e+00 -5.0163067712e+01 6.2465545672e+01 1.0566000000e-01 0.0000e+00 -1.0000e+00
       13  1    1    0    0    0 -3.1903978028e+01 -7.3613667839e+00 +4.5612213685e+01 5.6147473106e+01 1.0566000000e-01 0.0000e+00 -1.0000e+00
       22  1    1    0    0    0 -4.3696127427e+00 -9.9485738664e-01 +4.5508540279e+00 6.3869812215e+00 0.0000000000e+00 0.0000e+00 -1.0000e+00
</event>
<event>
 4      1 +2.4041262e-06 9.11880000e+01 7.81860800e-03 1.13011600e-01
       25 -1    0    0    0    0 +0.0000000000e+00 +0.0000000000e+00 +9.9999998245e-15 1.2500000000e+02 1.2500000000e+02 0.0000e+00 0.0000e+00
      -13  1    1    0    0    0 -1.8351383376e+01 -8.5916432477e+00 -5.9122546268e+01 6.2498609959e+01 1.0566000000e-01 0.0000e+00 -1.0000e+00
       13  1    1    0    0    0 +1.8345075076e+01 +8.5959357135e+00 +5.9116580092e+01 6.2491704218e+01 1.0566000000e-01 0.0000e+00 -1.0000e+00
       22  1    1    0    0    0 +6.3082994113e-03 -4.2924657508e-03 +5.9661763632e-03 9.6858228397e-03 0.0000000000e+00 0.0000e+00 -1.0000e+00
</event>
<event>
 5      1 +2.4041262e-06 9.11880000e+01 7.81860800e-03 1.13011600e-01
       25 -1    0    0    0    0 +0.0000000000e+00 +0.0000000000e+00 +9.9999998245e-15 1.2500000000e+02 1.2500000000e+02 0.0000e+00 0.0000e+00
       23  2    1    0    0    0 +1.1067654486e+01 -2.2535942085e+01 -1.3086672187e+01 9.6687058606e+01 9.2448713628e+01 0.0000e+00 0.0000e+00
      -13  1    2    2    0    0 -1.1181418537e+01 -5.5086476315e+01 -1.0431965794e+01 5.7169756583e+01 1.0566000000e-01 0.0000e+00 1.0000e+00
       13  1    2    2    0    0 +2.2249073023e+01 +3.2550534231e+01 -2.6547063938e+00 3.9517302023e+01 1.0566000000e-01 0.0000e+00 -1.0000e+00
       22  1    1    0    0    0 -1.1067654486e+01 +2.2535942085e+01 +1.3086672187e+01 2.8312941394e+01 0.0000000000e+00 0.0000e+00 1.0000e+00
</event>
<event>
 4      1 +2.4041262e-06 9.11880000e+01 7.81860800e-03 1.13011600e-01
       25 -1    0    0    0    0 +0.0000000000e+00 +0.0000000000e+00 +9.9999998245e-15 1.2500000000e+02 1.2500000000e+02 0.0000e+00 0.0000e+00
      -13  1    1    0    0    0 +2.3004991576e+01 -5.1502858354e+01 +2.6915202408e+01 6.2499706725e+01 1.0566000000e-01 0.0000e+00 -1.0000e+00
       13  1    1    0    0    0 -1.0656062230e+01 +2.3673952244e+01 -1.2280313658e+01 2.8719765749e+01 1.0566000000e-01 0.0000e+00 -1.0000e+00
       22  1    1    0    0    0 -1.2348929346e+01 +2.7828906109e+01 -1.4634888750e+01 3.3780527526e+01 0.0000000000e+00 0.0000e+00 1.0000e+00
</event>
<event>
 4      1 +2.4041262e-06 9.11880000e+01 7.81860800e-03 1.13011600e-01
       25 -1    0    0    0    0 +0.0000000000e+00 +0.0000000000e+00 +9.9999998245e-15 1.2500000000e+02 1.2500000000e+02 0.0000e+00 0.0000e+00
      -13  1    1    0    0    0 -5.5898365156e+01 +2.1203971095e+01 -1.8204899501e+01 6.2495321003e+01 1.0566000000e-01 0.0000e+00 -1.0000e+00
       13  1    1    0    0    0 +5.5896827775e+01 -2.1187457016e+01 +1.8203942712e+01 6.2488065936e+01 1.0566000000e-01 0.0000e+00 -1.0000e+00
       22  1    1    0    0    0 +1.5373813968e-03 -1.6514079140e-02 +9.5678907650e-04 1.6613061028e-02 0.0000000000e+00 0.0000e+00 1.0000e+00
</event>
<event>
 5      1 +2.4041262e-06 9.11880000e+01 7.81860800e-03 1.13011600e-01
       25 -1    0    0    0    0 +0.0000000000e+00 +0.0000000000e+00 +9.9999998245e-15 1.2500000000e+02 1.2500000000e+02 0.0000e+00 0.0000e+00
       23  2    1    0    0    0 -4.8508497432e+00 -2.2673231558e+01 +1.8711313523e+01 9.5205379240e+01 9.0423143110e+01 0.0000e+00 0.0000e+00
      -11  1    2    2    0    0 +2.0339488705e+01 +1.4335554702e+01 +3.8834047144e+01 4.6122512369e+01 5.1100000000e-04 0.0000e+00 1.0000e+00
       11  1    2    2    0    0 -2.5190338448e+01 -3.7008786260e+01 -2.0122733621e+01 4.9082866870e+01 5.1100000000e-04 0.0000e+00 -1.0000e+00
       22  1    1    0    0    0 +4.8508497432e+00 +2.2673231558e+01 -1.8711313523e+01 2.9794620760e+01 0.0000000000e+00 0.0000e+00 -1.0000e+00
</event>
<event>
 4      1 +2.4041262e-06 9.11880000e+01 7.81860800e-03 1.13011600e-01
       25 -1    0    0    0    0 +0.0000000000e+00 +0.0000000000e+00 +9.9999998245e-15 1.2500000000e+02 1.2500000000e+02 0.0000e+00 0.0000e+00
      -11  1    1    0    0    0 -1.0907876091e+01 +9.4056389354e-01 -4.9728974785e+00 1.2024813131e+01 5.1100000000e-04 0.0000e+00 1.0000e+00
       11  1    1    0    0    0 -4.5762166610e+01 +3.9396547087e+00 -2.0929598142e+01 5.0475190448e+01 5.1100000000e-04 0.0000e+00 -1.0000e+00
       22  1    1    0    0    0 +5.6670042701e+01 -4.8802186022e+00 +2.5902495620e+01 6.2499996421e+01 0.0000000000e+00 0.0000e+00 -1.0000e+00
</event>
<event>
 5      1 +2.4041262e-06 9.11880000e+01 7.81860800e-03 1.13011600e-01
       25 -1    0    0    0    0 +0.0000000000e+00 +0.0000000000e+00 +9.9999998245e-15 1.2500000000e+02 1.2500000000e+02 0.0000e+00 0.0000e+00
       23  2    1    0    0    0 -1.3989554529e+01 +2.1817357685e+01 +1.2930811061e+01 9.6036046420e+01 9.1564248510e+01 0.0000e+00 0.0000e+00
      -11  1    2    2    0    0 -5.0318904311e+01 +8.0629777710e-01 +1.8671745516e+01 5.3677521627e+01 5.1100000000e-04 0.0000e+00 1.0000e+00
       11  1    2    2    0    0 +3.6329349782e+01 +2.1011059907e+01 -5.7409344549e+00 4.2358524793e+01 5.1100000000e-04 0.0000e+00 -1.0000e+00
       22  1    1    0    0    0 +1.3989554529e+01 -2.1817357685e+01 -1.2930811061e+01 2.8963953580e+01 0.0000000000e+00 0.0000e+00 1.0000e+00
</event>
<event>
 5      1 +2.4041262e-06 9.11880000e+01 7.81860800e-03 1.13011600e-01
       25 -1    0    0    0    0 +0.0000000000e+00 +0.0000000000e+00 +9.9999998245e-15 1.2500000000e+02 1.2500000000e+02 0.0000e+00 0.0000e+00
       23  2    1    0    0    0 -2.1652731901e+01 +8.9613205704e+00 -5.6020627423e+00 1.0090582701e+02 9.7987023388e+01 0.0000e+00 0.0000e+00
      -13  1    2    2    0    0 +6.4400516834e+00 -9.0934591547e+00 +4.1610404485e+01 4.3076701250e+01 1.0566000000e-01 0.0000e+00 -1.0000e+00
       13  1    2    2    0    0 -2.8092783584e+01 +1.8054779725e+01 -4.7212467228e+01 5.7829125760e+01 1.0566000000e-01 0.0000e+00 1.0000e+00
       22  1    1    0    0    0 +2.1652731901e+01 -8.9613205704e+00 +5.6020627423e+00 2.4094172990e+01 0.0000000000e+00 0.0000e+00 1.0000e+00
</event>
<event>
 5      1 +2.4041262e-06 9.11880000e+01 7.81860800e-03 1.13011600e-01
       25 -1    0    0    0    0 +0.0000000000e+00 +0.0000000000e+00 +9.9999998245e-15 1.2500000000e+02 1.2500000000e+02 0.0000e+00 0.0000e+00
       23  2    1    0    0    0 +3.7713755026e+00 -6.5004238749e+00 +3.0244180690e+01 9.3836090596e+01 8.8510014400e+01 0.0000e+00 0.0000e+00
      -13  1    2    2    0    0 -2.1940078147e+01 -4.0575203800e+01 +1.4869014254e+01 4.8464553453e+01 1.0566000000e-01 0.0000e+00 1.0000e+00
       13  1    2    2    0    0 +2.5711453649e+01 +3.4074779925e+01 +1.5375166436e+01 4.5371537143e+01 1.0566000000e-01 0.0000e+00 -1.0000e+00
       22  1    1    0    0    0 -3.7713755026e+00 +6.5004238749e+00 -3.0244180690e+01 3.1163909404e+01 0.0000000000e+00 0.0000e+00 1.0000e+00
</event>
<event>
 4      1 +2.4041262e-06 9.11880000e+01 7.81860800e-03 1.13011600e-01
       25 -1    0    0    0    0 +0.0000000000e+00 +0.0000000000e+00 +9.9999998245e-15 1.2500000000e+02 1.2500000000e+02 0.0000e+00 0.0000e+00
      -13  1    1    0    0    0 -5.9741946903e+01 -6.4957437428e+00 -1.7173930591e+01 6.2499999700e+01 1.0566000000e-01 0.0000e+00 1.0000e+00
       13  1    1    0    0    0 +5.9626040854e+01 +6.4828257827e+00 +1.7140672575e+01 6.2378727130e+01 1.0566000000e-01 0.0000e+00 1.0000e+00
       22  1    1    0    0    0 +1.1590604922e-01 +1.2917960062e-02 +3.3258015889e-02 1.2127316916e-01 0.0000000000e+00 0.0000e+00 -1.0000e+00
</event>
<event>
 4      1 +2.4041262e-06 9.11880000e+01 7.81860800e-03 1.13011600e-01
       25 -1    0    0    0    0 +0.0000000000e+00 +0.0000000000e+00 +9.9999998245e-15 1.2500000000e+02 1.2500000000e+02 0.0000e+00 0.0000e+00
      -13  1    1    0    0    0 +1.9821590263e+01 +5.1682210475e+01 +1.1317905408e+01 5.6498251894e+01 1.0566000000e-01 0.0000e+00 1.0000e+00
       13  1    1    0    0    0 -2.2390932358e+01 -5.7076889440e+01 -1.2040654603e+01 6.2482907161e+01 1.0566000000e-01 0.0000e+00 1.0000e+00
       22  1    1    0    0    0 +2.5693420953e+00 +5.3946789642e+00 +7.2274919524e-01 6.0188409456e+00 0.0000000000e+00 0.0000e+00 1.0000e+00
</event>
<event>
 4      1 +2.4041262e-06 9.11880000e+01 7.81860800e-03 1.13011600e-01
       25 -1    0    0    0    0 +0.0000000000e+00 +0.0000000000e+00 +9.9999998245e-15 1.2500000000e+02 1.2500000000e+02 0.0000e+00 0.0000e+00
      -11  1    1    0    0    0 +2.8610371159e+01 +2.3215921494e+00 -4.7734574028e+01 5.5700383175e+01 5.1100000000e-04 0.0000e+00 -1.0000e+00
       11  1    1    0    0    0 +3.4924484476e+00 +2.8705514793e-01 -5.8271088866e+00 6.7996172727e+00 5.1100000000e-04 0.0000e+00 1.0000e+00
       22  1    1    0    0    0 -3.2102819606e+01 -2.6086472973e+00 +5.3561682915e+01 6.2499999552e+01 0.0000000000e+00 0.0000e+00 -1.0000e+00
</event>
<event>
 5      1 +2.4041262e-06 9.11880000e+01 7.81860800e-03 1.13011600e-01
       25 -1    0    0    0    0 +0.0000000000e+00 +0.0000000000e+00 +9.9999998245e-15 1.2500000000e+02 1.2500000000e+02 0.0000e+00 0.0000e+00
       23  2    1    0    0    0 +2.1834312711e+01 -1.1740544407e+01 -2.5924316787e+01 8.9130126911e+01 8.1593699069e+01 0.0000e+00 0.0000e+00
      -11  1    2    2    0    0 -8.5550024398e+00 +3.1320183590e+01 -1.2036311052e+01 3.4626792384e+01 5.1100000000e-04 0.0000e+00 -1.0000e+00
       11  1    2    2    0    0 +3.0389315151e+01 -4.3060727997e+01 -1.3888005735e+01 5.4503334527e+01 5.1100000000e-04 0.0000e+00 1.0000e+00
       22  1    1    0    0    0 -2.1834312711e+01 +1.1740544407e+01 +2.5924316787e+01 3.5869873089e+01 0.0000000000e+00 0.0000e+00 1.0000e+00
</event>
<event>
 4      1 +2.4041262e-06 9.11880000e+01 7.81860800e-03 1.13011600e-01
       25 -1    0    0    0    0 +0.0000000000e+00 +0.0000000000e+00 +9.9999998245e-15 1.2500000000e+02 1.2500000000e+02 0.0000e+00 0.0000e+00
      -13  1    1    0    0    0 -3.8899337157e+01 -2.3963321140e+01 +2.0649926095e+01 5.0138107295e+01 1.0566000000e-01 0.0000e+00 1.0000e+00
       13  1    1    0    0    0 +3.9756205117e+01 +1.4106937350e+01 -3.6761482244e+01 5.5955154074e+01 1.0566000000e-01 0.0000e+00 1.0000e+00
       22  1    1    0    0    0 -8.5686795976e-01 +9.8563837901e+00 +1.6111556149e+01 1.8906738631e+01 0.0000000000e+00 0.0000e+00 -1.0000e+00
</event>
<event>
 4      1 +2.4041262e-06 9.11880000e+01 7.81860800e-03 1.13011600e-01
       25 -1    0    0    0    0 +0.0000000000e+00 +0.0000000000e+00 +9.9999998245e-15 1.2500000000e+02 1.2500000000e+02 0.0000e+00 0.0000e+00
      -13  1    1    0    0    0 +3.0684820920e+01 +5.1684169469e+01 -1.7121297141e+01 6.2497692665e+01 1.0566000000e-01 0.0000e+00 -1.0000e+00
       13  1    1    0    0    0 -3.0356710083e+01 -5.1266053418e+01 +1.6951306121e+01 6.1944297747e+01 1.0566000000e-01 0.0000e+00 -1.0000e+00
       22  1    1    0    0    0 -3.2811083762e-01 -4.1811605060e-01 +1.6999102080e-01 5.5800958835e-01 0.0000000000e+00 0.0000e+00 1.0000e+00
</event>
<event>
 4      1 +2.4041262e-06 9.11880000e+01 7.81860800e-03 1.13011600e-01
       25 -1    0    0    0    0 +0.0000000000e+00 +0.0000000000e+00 +9.9999998245e-15 1.2500000000e+02 1.2500000000e+02 0.0000e+00 0.0000e+00
      -11  1    1    0    0    0 -2.9425474030e+01 -2.4894952463e+01 -1.4735356351e+01 4.1264366069e+01 5.1100000000e-04 0.0000e+00 -1.0000e+00
       11  1    1    0    0    0 -1.5226944605e+01 -1.2756620876e+01 -7.5077378298e+00 2.1235756302e+01 5.1100000000e-04 0.0000e+00 1.0000e+00
       22  1    1    0    0    0 +4.4652418635e+01 +3.7651573339e+01 +2.2243094180e+01 6.2499877628e+01 0.0000000000e+00 0.0000e+00 -1.0000e+00
</event>
<event>
 4      1 +2.4041262e-06 9.11880000e+01 7.81860800e-03 1.13011600e-01
       25 -1    0    0    0    0 +0.0000000000e+00 +0.0000000000e+00 +9.9999998245e-15 1.2500000000e+02 1.2500000000e+02 0.0000e+00 0.0000e+00
      -13  1    1    0    0    0 -5.3300199954e+01 -1.8421971562e+01 +2.6943612176e+01 6.2499998020e+01 1.0566000000e-01 0.0000e+00 1.0000e+00
       13  1    1    0    0    0 +5.3233651428e+01 +1.8399176040e+01 -2.6910832112e+01 6.2422394798e+01 1.0566000000e-01 0.0000e+00 1.0000e+00
       22  1    1    0    0    0 +6.6548525873e-02 +2.2795522147e-02 -3.2780063704e-02 7.7607182027e-02 0.0000000000e+00 0.0000e+00 1.0000e+00
</event>
<event>
 4      1 +2.4041262e-06 9.11880000e+01 7.81860800e-03 1.13011600e-01
       25 -1    0    0    0    0 +0.0000000000e+00 +0.0000000000e+00 +9.9999998245e-15 1.2500000000e+02 1.2500000000e+02 0.0000e+00 0.0000e+00
      -13  1    1    0    0    0 +1.7659495910e+01 -5.9478211933e+01 +4.1996352941e+00 6.2186522584e+01 1.0566000000e-01 0.0000e+00 -1.0000e+00
       13  1    1    0    0    0 -1.8634710782e+01 +5.7620163423e+01 -4.3128149139e+00 6.0712002234e+01 1.0566000000e-01 0.0000e+00 -1.0000e+00
       22  1    1    0    0    0 +9.7521487201e-01 +1.8580485097e+00 +1.1317961981e-01 2.1014751813e+00 0.0000000000e+00 0.0000e+00 1.0000e+00
</event>
<event>
 5      1 +2.4041262e-06 9.11880000e+01 7.81860800e-03 1.13011600e-01
       25 -1    0    0    0    0 +0.0000000000e+00 +0.0000000000e+00 +9.9999998245e-15 1.2500000000e+02 1.2500000000e+02 0.0000e+00 0.0000e+00
       23  2    1    0    0    0 +2.2400479582e+01 +1.8006409589e+01 +8.0429295433e+00 9.5155385956e+01 9.0354006491e+01 0.0000e+00 0.0000e+00
      -13  1    2    2    0    0 +5.0279371274e+01 +3.2731879060e+01 -6.6657338555e+00 6.0364180226e+01 1.0566000000e-01 0.0000e+00 -1.0000e+00
       13  1    2    2    0    0 -2.7878891692e+01 -1.4725469471e+01 +1.4708663399e+01 3.4791205730e+01 1.0566000000e-01 0.0000e+00 1.0000e+00
       22  1    1    0    0    0 -2.2400479582e+01 -1.8006409589e+01 -8.0429295433e+00 2.9844614044e+01 0.0000000000e+00 0.0000e+00 -1.0000e+00
</event>
<event>
 5      1 +2.4041262e-06 9.11880000e+01 7.81860800e-03 1.13011600e-01
       25 -1    0    0    0    0 +0.0000000000e+00 +0.0000000000e+00 +9.9999998245e-15 1.2500000000e+02 1.2500000000e+02 0.0000e+00 0.0000e+00
       23  2    1    0    0    0 +1.8845038422e+00 -1.1605414319e+01 -2.6311421159e+01 9.6181119389e+01 9.1762082841e+01 0.0000e+00 0.0000e+00
      -11  1    2    2    0    0 +5.3751961359e-03 -2.1685230930e+00 +3.4522693535e+01 3.4590734171e+01 5.1100000000e-04 0.0000e+00 -1.0000e+00
       11  1    2    2    0    0 +1.8791286460e+00 -9.4368912260e+00 -6.0834114694e+01 6.1590385218e+01 5.1100000000e-04 0.0000e+00 1.0000e+00
       22  1    1    0    0    0 -1.8845038422e+00 +1.1605414319e+01 +2.6311421159e+01 2.8818880611e+01 0.0000000000e+00 0.0000e+00 1.0000e+00
</event>
<event>
 4      1 +2.4041262e-06 9.11880000e+01 7.81860800e-03 1.13011600e-01
       25 -1    0    0    0    0 +0.0000000000e+00 +0.0000000000e+00 +9.9999998245e-15 1.2500000000e+02 1.2500000000e+02 0.0000e+00 0.0000e+00
      -13  1    1    0    0    0 -1.8805240305e+01 +3.7989132642e+01 +4.5921762131e+01 6.2495045109e+01 1.0566000000e-01 0.0000e+00 1.0000e+00
       13  1    1    0    0    0 +1.8811132630e+01 -3.7992314914e+01 -4.5921035371e+01 6.2498218830e+01 1.0566000000e-01 0.0000e+00 1.0000e+00
       22  1    1    0    0    0 -5.8923246858e-03 +3.1822720743e-03 -7.2676090005e-04 6.7360616954e-03 0.0000000000e+00 0.0000e+00 1.0000e+00
</event>
<event>
 4      1 +2.4041262e-06 9.11880000e+01 7.81860800e-03 1.13011600e-01
       25 -1    0    0    0    0 +0.0000000000e+00 +0.0000000000e+00 +9.9999998245e-15 1.2500000000e+02 1.2500000000e+02 0.0000e+00 0.0000e+00
      -13  1    1    0    0    0 -2.8824908437e+01 +5.2634374775e+01 +1.7463850709e+01 6.2500000000e+01 1.0566000000e-01 0.0000e+00 -1.0000e+00
       13  1    1    0    0    0 +2.8824908413e+01 -5.2634374733e+01 -1.7463850696e+01 6.2499999949e+01 1.0566000000e-01 0.0000e+00 -1.0000e+00
       22  1    1    0    0    0 +2.4381273839e-08 -4.2505939418e-08 -1.3237172976e-08 5.0758488435e-08 0.0000000000e+00 0.0000e+00 -1.0000e+00
</event>
<event>
 4      1 +2.4041262e-06 9.11880000e+01 7.81860800e-03 1.13011600e-01
       25 -1    0    0    0    0 +0.0000000000e+00 +0.0000000000e+00 +9.9999998245e-15 1.2500000000e+02 1.2500000000e+02 0.0000e+00 0.0000e+00
      -13  1    1    0    0    0 -3.3776295644e+01 +4.5481488909e+01 -2.6388361903e+01 6.2496086187e+01 1.0566000000e-01 0.0000e+00 1.0000e+00
       13  1    1    0    0    0 +3.3754392689e+01 -4.5408185493e+01 +2.6323117085e+01 6.2403365235e+01 1.0566000000e-01 0.0000e+00 1.0000e+00
       22  1    1    0    0    0 +2.1902955165e-02 -7.3303415284e-02 +6.5244818326e-02 1.0054857759e-01 0.0000000000e+00 0.0000e+00 1.0000e+00
</event>
<event>
 4      1 +2.4041262e-06 9.11880000e+01 7.81860800e-03 1.13011600e-01
       25 -1    0    0    0    0 +0.0000000000e+00 +0.0000000000e+00 +9.9999998245e-15 1.2500000000e+02 1.2500000000e+02 0.0000e+00 0.0000e+00
      -13  1    1    0    0    0 +4.7654306634e+01 -3.6387469012e+01 +1.7642505284e+01 6.2499999988e+01 1.0566000000e-01 0.0000e+00 1.0000e+00
       13  1    1    0    0    0 -4.7654249766e+01 +3.6387423377e+01 -1.7642483176e+01 6.2499923819e+01 1.0566000000e-01 0.0000e+00 1.0000e+00
       22  1    1    0    0    0 -5.6867982403e-05 +4.5635237375e-05 -2.2107667601e-05 7.6192462092e-05 0.0000000000e+00 0.0000e+00 1.0000e+00
</event>
<event>
 4      1 +2.4041262e-06 9.11880000e+01 7.81860800e-03 1.13011600e-01
       25 -1    0    0    0    0 +0.0000000000e+00 +0.0000000000e+00 +9.9999998245e-15 1.2500000000e+02 1.2500000000e+02 0.0000e+00 0.0000e+00
      -13  1    1    0    0    0 -4.8864703533e+00 -5.3857032669e-02 -3.1027757755e+00 5.7895487426e+00 1.0566000000e-01 0.0000e+00 1.0000e+00
       13  1    1    0    0    0 -4.8403328668e+01 -5.9435193169e+00 -2.8972096976e+01 5.6723903386e+01 1.0566000000e-01 0.0000e+00 -1.0000e+00
       22  1    1    0    0    0 +5.3289799022e+01 +5.9973763496e+00 +3.2074872752e+01 6.2486547872e+01 0.0000000000e+00 0.0000e+00 -1.0000e+00
</event>
<event>
 4      1 +2.4041262e-06 9.11880000e+01 7.81860800e-03 1.13011600e-01
       25 -1    0    0    0    0 +0.0000000000e+00 +0.0000000000e+00 +9.9999998245e-15 1.2500000000e+02 1.2500000000e+02 0.0000e+00 0.0000e+00
      -13  1    1    0    0    0 -5.9087383031e+00 +1.1897270464e+01 +6.1071723706e+01 6.2499798666e+01 1.0566000000e-01 0.0000e+00 -1.0000e+00
       13  1    1    0    0    0 +5.6088392609e+00 -1.1273086880e+01 -5.8110060898e+01 5.9458657126e+01 1.0566000000e-01 0.0000e+00 -1.0000e+00
       22  1    1    0    0    0 +2.9989904220e-01 -6.2418358425e-01 -2.9616628081e+00 3.0415442084e+00 0.0000000000e+00 0.0000e+00 -1.0000e+00
</event>
<event>
 4      1 +2.4041262e-06 9.11880000e+01 7.81860800e-03 1.13011600e-01
       25 -1    0    0    0    0 +0.0000000000e+00 +0.0000000000e+00 +9.9999998245e-15 1.2500000000e+02 1.2500000000e+02 0.0000e+00 0.0000e+00
      -13  1    1    0    0    0 -5.8589773964e+01 +1.3463119346e+01 -1.7094223940e+01 6.2499926815e+01 1.0566000000e-01 0.0000e+00 -1.0000e+00
       13  1    1    0    0    0 +5.8589495957e+01 -1.3463012123e+01 +1.7094443391e+01 6.2499703126e+01 1.0566000000e-01 0.0000e+00 -1.0000e+00
       22  1    1    0    0    0 +2.7800722642e-04 -1.0722320322e-04 -2.1945095647e-04 3.7005885417e-04 0.0000000000e+00 0.0000e+00 1.0000e+00
</event>
<event>
 4      1 +2.4041262e-06 9.11880000e+01 7.81860800e-03 1.13011600e-01
       25 -1    0    0    0    0 +0.0000000000e+00 +0.0000000000e+00 +9.9999998245e-15 1.2500000000e+02 1.2500000000e+02 0.0000e+00 0.0000e+00
      -13  1    1    0    0    0 -1.2763350391e+01 +2.3063399631e+01 +5.6669350801e+01 6.2500000000e+01 1.0566000000e-01 0.0000e+00 1.0000e+00
       13  1    1    0    0    0 +1.2763350226e+01 -2.3063399355e+01 -5.6669350129e+01 6.2499999255e+01 1.0566000000e-01 0.0000e+00 1.0000e+00
       22  1    1    0    0    0 +1.6531701654e-07 -2.7595475635e-07 -6.7176750353e-07 7.4481697236e-07 0.0000000000e+00 0.0000e+00 -1.0000e+00
</event>
<event>
 5      1 +2.4041262e-06 9.11880000e+01 7.81860800e-03 1.13011600e-01
       25 -1    0    0    0    0 +0.0000000000e+00 +0.0000000000e+00 +9.9999998245e-15 1.2500000000e+02 1.2500000000e+02 0.0000e+00 0.0000e+00
       23  2    1    0    0    0 +2.2452728870e+01 +1.7682182400e+01 -5.3768454411e+00 9.5919163096e+01 9.1404544603e+01 0.0000e+00 0.0000e+00
      -11  1    2    2    0    0 -2.3778315721e+01 -1.3743788399e+01 -2.4534028199e+01 3.6826872769e+01 5.1100000000e-04 0.0000e+00 1.0000e+00
       11  1    2    2    0    0 +4.6231044591e+01 +3.1425970799e+01 +1.9157182758e+01 5.9092290327e+01 5.1100000000e-04 0.0000e+00 -1.0000e+00
       22  1    1    0    0    0 -2.2452728870e+01 -1.7682182400e+01 +5.3768454411e+00 2.9080836904e+01 0.0000000000e+00 0.0000e+00 -1.0000e+00
</event>
<event>
 5      1 +2.4041262e-06 9.11880000e+01 7.81860800e-03 1.13011600e-01
       25 -1    0    0    0    0 +0.0000000000e+00 +0.0000000000e+00 +9.9999998245e-15 1.2500000000e+02 1.2500000000e+02 0.0000e+00 0.0000e+00
       23  2    1    0    0    0 +2.3602669012e+01 -1.0939205740e+01 +8.4075142606e+00 9.7660678451e+01 9.3755904416e+01 0.0000e+00 0.0000e+00
      -11  1    2    2    0    0 +4.9946755099e+01 -9.7155431427e-01 +3.3327263012e+01 6.0052716199e+01 5.1100000000e-04 0.0000e+00 1.0000e+00
       11  1    2    2    0    0 -2.6344086087e+01 -9.9676514258e+00 -2.4919748751e+01 3.7607962253e+01 5.1100000000e-04 0.0000e+00 -1.0000e+00
       22  1    1    0    0    0 -2.3602669012e+01 +1.0939205740e+01 -8.4075142606e+00 2.7339321549e+01 0.0000000000e+00 0.0000e+00 1.0000e+00
</event>
<event>
 4      1 +2.4041262e-06 9.11880000e+01 7.81860800e-03 1.13011600e-01
       25 -1    0    0    0    0 +0.0000000000e+00 +0.0000000000e+00 +9.9999998245e-15 1.2500000000e+02 1.2500000000e+02 0.0000e+00 0.0000e+00
      -13  1    1    0    0    0 -4.8387351064e+01 -1.5912350637e+01 +2.4703478729e+01 5.6611056086e+01 1.0566000000e-01 0.0000e+00 -1.0000e+00
       13  1    1    0    0    0 +5.3242549346e+01 +1.7511146022e+01 -2.7640765102e+01 6.2493458500e+01 1.0566000000e-01 0.0000e+00 -1.0000e+00
       22  1    1    0    0    0 -4.8551982813e+00 -1.5987953845e+00 +2.9372863731e+00 5.8954854143e+00 0.0000000000e+00 0.0000e+00 -1.0000e+00
</event>
<event>
 4      1 +2.4041262e-06 9.11880000e+01 7.81860800e-03 1.13011600e-01
       25 -1    0    0    0    0 +0.0000000000e+00 +0.0000000000e+00 +9.9999998245e-15 1.2500000000e+02 1.2500000000e+02 0.0000e+00 0.0000e+00
      -13  1    1    0    0    0 +1.7675059380e+01 -5.8042491445e+01 -1.4988876331e+01 6.2498128891e+01 1.0566000000e-01 0.0000e+00 -1.0000e+00
       13  1    1    0    0    0 -1.7675557049e+01 +5.8044249307e+01 +1.4989282420e+01 6.2499999569e+01 1.0566000000e-01 0.0000e+00 -1.0000e+00
       22  1    1    0    0    0 +4.9766975048e-04 -1.7578621940e-03 -4.0608890936e-04 1.8715402416e-03 0.0000000000e+00 0.0000e+00 -1.0000e+00
</event>
<event>
 4      1 +2.4041262e-06 9.11880000e+01 7.81860800e-03 1.13011600e-01
       25 -1    0    0    0    0 +0.0000000000e+00 +0.0000000000e+00 +9.9999998245e-15 1.2500000000e+02 1.2500000000e+02 0.0000e+00 0.0000e+00
      -13  1    1    0    0    0 +3.4913814851e+01 -8.5507466646e+00 +5.1128567730e+01 6.2499850705e+01 1.0566000000e-01 0.0000e+00 1.0000e+00
       13  1    1    0    0    0 -3.4884223143e+01 +8.5380912161e+00 -5.1078548996e+01 6.2440670701e+01 1.0566000000e-01 0.0000e+00 1.0000e+00
       22  1    1    0    0    0 -2.9591707511e-02 +1.2655448587e-02 -5.0018733337e-02 5.9478594612e-02 0.0000000000e+00 0.0000e+00 -1.0000e+00
</event>
<event>
 5      1 +2.4041262e-06 9.11880000e+01 7.81860800e-03 1.13011600e-01
       25 -1    0    0    0    0 +0.0000000000e+00 +0.0000000000e+00 +9.9999998245e-15 1.2500000000e+02 1.2500000000e+02 0.0000e+00 0.0000e+00
       23  2    1    0    0    0 +1.2387608951e+01 -2.1382741862e+01 +1.4273247084e+01 9.6462304098e+01 9.2144321716e+01 0.0000e+00 0.0000e+00
      -11  1    2    2    0    0 -5.0557380855e+00 -5.6191557452e+01 +9.9330675407e+00 5.7286276258e+01 5.1100000000e-04 0.0000e+00 -1.0000e+00
       11  1    2    2    0    0 +1.7443347037e+01 +3.4808815590e+01 +4.3401795434e+00 3.9176027840e+01 5.1100000000e-04 0.0000e+00 1.0000e+00
       22  1    1    0    0    0 -1.2387608951e+01 +2.1382741862e+01 -1.4273247084e+01 2.8537695902e+01 0.0000000000e+00 0.0000e+00 -1.0000e+00
</event>
<event>
 4      1 +2.4041262e-06 9.11880000e+01 7.81860800e-03 1.13011600e-01
       25 -1    0    0    0    0 +0.0000000000e+00 +0.0000000000e+00 +9.9999998245e-15 1.2500000000e+02 1.2500000000e+02 0.0000e+00 0.0000e+00
      -11  1    1    0    0    0 -1.5422858888e+01 -8.5321221167e+00 -7.5151851917e+00 1.9160889666e+01 5.1100000000e-04 0.0000e+00 1.0000e+00
       11  1    1    0    0    0 -3.5721745894e+01 -1.6244324164e+01 -1.8444939301e+01 4.3360546391e+01 5.1100000000e-04 0.0000e+00 -1.0000e+00
       22  1    1    0    0    0 +5.1144604782e+01 +2.4776446281e+01 +2.5960124492e+01 6.2478563942e+01 0.0000000000e+00 0.0000e+00 -1.0000e+00
</event>
<event>
 4      1 +2.4041262e-06 9.11880000e+01 7.81860800e-03 1.13011600e-01
       25 -1    0    0    0    0 +0.0000000000e+00 +0.0000000000e+00 +9.9999998245e-15 1.2500000000e+02 1.2500000000e+02 0.0000e+00 0.0000e+00
      -11  1    1    0    0    0 +2.4120575473e+00 -8.2329390622e+00 +1.7024133047e+01 1.9063588683e+01 5.1100000000e-04 0.0000e+00 -1.0000e+00
       11  1    1    0    0    0 +5.4916750697e+00 -1.8759717080e+01 +3.8789642317e+01 4.3436411354e+01 5.1100000000e-04 0.0000e+00 1.0000e+00
       22  1    1    0    0    0 -7.9037326170e+00 +2.6992656142e+01 -5.5813775364e+01 6.2499999962e+01 0.0000000000e+00 0.0000e+00 1.0000e+00
</event>
<event>
 4      1 +2.4041262e-06 9.11880000e+01 7.81860800e-03 1.13011600e-01
       25 -1    0    0    0    0 +0.0000000000e+00 +0.0000000000e+00 +9.9999998245e-15 1.2500000000e+02 1.2500000000e+02 0.0000e+00 0.0000e+00
      -13  1    1    0    0    0 -4.7105908937e+01 +3.4419242741e+01 +2.2411454593e+01 6.2497483059e+01 1.0566000000e-01 0.0000e+00 1.0000e+00
       13  1    1    0    0    0 +4.7101539235e+01 -3.4400575242e+01 -2.2397957654e+01 6.2479070466e+01 1.0566000000e-01 0.0000e+00 1.0000e+00
       22  1    1    0    0    0 +4.3697028701e-03 -1.8667498907e-02 -1.3496939011e-02 2.3446474816e-02 0.0000000000e+00 0.0000e+00 -1.0000e+00
</event>
<event>
 4      1 +2.4041262e-06 9.11880000e+01 7.81860800e-03 1.13011600e-01
       25 -1    0    0    0    0 +0.0000000000e+00 +0.0000000000e+00 +9.9999998245e-15 1.2500000000e+02 1.2500000000e+02 0.0000e+00 0.0000e+00
      -13  1    1    0    0    0 +1.8511202792e+01 -4.5649107672e+01 -1.2329746511e+01 5.0779321314e+01 1.0566000000e-01 0.0000e+00 -1.0000e+00
       13  1    1    0    0    0 -2.2698918551e+01 +5.6228163610e+01 +1.5144922011e+01 6.2499816904e+01 1.0566000000e-01 0.0000e+00 -1.0000e+00
       22  1    1    0    0    0 +4.1877157593e+00 -1.0579055938e+01 -2.8151754992e+00 1.1720861782e+01 0.0000000000e+00 0.0000e+00 1.0000e+00
</event>
<event>
 4      1 +2.4041262e-06 9.11880000e+01 7.81860800e-03 1.13011600e-01
       25 -1    0    0    0    0 +0.0000000000e+00 +0.0000000000e+00 +9.9999998245e-15 1.2500000000e+02 1.2500000000e+02 0.0000e+00 0.0000e+00
      -13  1    1    0    0    0 -2.7978791220e+01 -4.3091868317e+01 -3.1369158465e+01 6.0197650619e+01 1.0566000000e-01 0.0000e+00 -1.0000e+00
       13  1    1    0    0    0 +1.6873490730e+01 +3.3048430559e+01 +3.3106149013e+01 4.9728681044e+01 1.0566000000e-01 0.0000e+00 -1.0000e+00
       22  1    1    0    0    0 +1.1105300490e+01 +1.0043437758e+01 -1.7369905480e+00 1.5073668337e+01 0.0000000000e+00 0.0000e+00 1.0000e+00
</event>
<event>
 5      1 +2.4041262e-06 9.11880000e+01 7.81860800e-03 1.13011600e-01
       25 -1    0    0    0    0 +0.0000000000e+00 +0.0000000000e+00 +9.9999998245e-15 1.2500000000e+02 1.2500000000e+02 0.0000e+00 0.0000e+00
       23  2    1    0    0    0 +4.0705574882e+00 -2.2076469776e+01 +1.9843741002e+01 9.5038124007e+01 9.0191634877e+01 0.0000e+00 0.0000e+00
      -13  1    2    2    0    0 -1.0698073536e+01 -4.1819389159e+01 -2.0476653368e+01 4.7776715921e+01 1.0566000000e-01 0.0000e+00 1.0000e+00
       13  1    2    2    0    0 +1.4768631024e+01 +1.9742919383e+01 +4.0320394370e+01 4.7261408086e+01 1.0566000000e-01 0.0000e+00 -1.0000e+00
       22  1    1    0    0    0 -4.0705574882e+00 +2.2076469776e+01 -1.9843741002e+01 2.9961875993e+01 0.0000000000e+00 0.0000e+00 -1.0000e+00
</event>
<event>
 4      1 +2.4041262e-06 9.11880000e+01 7.81860800e-03 1.13011600e-01
       25 -1    0    0    0    0 +0.0000000000e+00 +0.0000000000e+00 +9.9999998245e-15 1.2500000000e+02 1.2500000000e+02 0.0000e+00 0.0000e+00
      -11  1    1    0    0    0 +5.5004701374e+01 +1.4974915771e+01 -1.0937568610e+01 5.8046495872e+01 5.1100000000e-04 0.0000e+00 1.0000e+00
       11  1    1    0    0    0 +3.9299730066e+00 +2.2298492527e+00 +1.8814099674e+00 4.8945499537e+00 5.1100000000e-04 0.0000e+00 -1.0000e+00
       22  1    1    0    0    0 -5.8934674381e+01 -1.7204765024e+01 +9.0561586431e+00 6.2058954175e+01 0.0000000000e+00 0.0000e+00 1.0000e+00
</event>
<event>
 4      1 +2.4041262e-06 9.11880000e+01 7.81860800e-03 1.13011600e-01
       25 -1    0    0    0    0 +0.0000000000e+00 +0.0000000000e+00 +9.9999998245e-15 1.2500000000e+02 1.2500000000e+02 0.0000e+00 0.0000e+00
      -13  1    1    0    0    0 -3.7281479086e+01 -4.3361042922e+01 -2.5083097332e+01 6.2444068268e+01 1.0566000000e-01 0.0000e+00 1.0000e+00
       13  1    1    0    0    0 +1.1688115068e+01 +1.3826716131e+01 +6.0703675442e+00 1.9095827790e+01 1.0566000000e-01 0.0000e+00 1.0000e+00
       22  1    1    0    0    0 +2.5593364018e+01 +2.9534326791e+01 +1.9012729787e+01 4.3460103942e+01 0.0000000000e+00 0.0000e+00 1.0000e+00
</event>
<event>
 4      1 +2.4041262e-06 9.11880000e+01 7.81860800e-03 1.13011600e-01
       25 -1    0    0    0    0 +0.0000000000e+00 +0.0000000000e+00 +9.9999998245e-15 1.2500000000e+02 1.2500000000e+02 0.0000e+00 0.0000e+00
      -11  1    1    0    0    0 -3.6598667333e+01 -4.5824005846e+00 -3.5156822838e+01 5.0955500566e+01 5.1100000000e-04 0.0000e+00 1.0000e+00
       11  1    1    0    0    0 -8.2913773127e+00 -1.0384512824e+00 -7.9655601463e+00 1.1544499448e+01 5.1100000000e-04 0.0000e+00 -1.0000e+00
       22  1    1    0    0    0 +4.4890044645e+01 +5.6208518671e+00 +4.3122382984e+01 6.2499999986e+01 0.0000000000e+00 0.0000e+00 1.0000e+00
</event>
<event>
 4      1 +2.4041262e-06 9.11880000e+01 7.81860800e-03 1.13011600e-01
       25 -1    0    0    0    0 +0.0000000000e+00 +0.0000000000e+00 +9.9999998245e-15 1.2500000000e+02 1.2500000000e+02 0.0000e+00 0.0000e+00
      -13  1    1    0    0    0 +5.3289038194e+01 +2.6398721372e+01 -1.8370559956e+01 6.2242290437e+01 1.0566000000e-01 0.0000e+00 1.0000e+00
       13  1    1    0    0    0 -4.1278391991e+01 -2.4039212942e+01 +1.4710776394e+01 4.9982071890e+01 1.0566000000e-01 0.0000e+00 1.0000e+00
       22  1    1    0    0    0 -1.2010646203e+01 -2.3595084299e+00 +3.6597835622e+00 1.2775637673e+01 0.0000000000e+00 0.0000e+00 1.0000e+00
</event>
<event>
 4      1 +2.4041262e-06 9.11880000e+01 7.81860800e-03 1.13011600e-01
       25 -1    0    0    0    0 +0.0000000000e+00 +0.0000000000e+00 +9.9999998245e-15 1.2500000000e+02 1.2500000000e+02 0.0000e+00 0.0000e+00
      -13  1    1    0    0    0 -8.0841899518e+00 +2.0214127382e+01 +5.8585563257e+01 6.2499955673e+01 1.0566000000e-01 0.0000e+00 -1.0000e+00
       13  1    1    0    0    0 +8.0841971304e+00 -2.0214142122e+01 -5.8585604455e+01 6.2499999987e+01 1.0566000000e-01 0.0000e+00 -1.0000e+00
       22  1    1    0    0    0 -7.1785978045e-06 +1.4739917666e-05 +4.1197906849e-05 4.4340331166e-05 0.0000000000e+00 0.0000e+00 1.0000e+00
</event>
<event>
 4      1 +2.4041262e-06 9.11880000e+01 7.81860800e-03 1.13011600e-01
       25 -1    0    0    0    0 +0.0000000000e+00 +0.0000000000e+00 +9.9999998245e-15 1.2500000000e+02 1.2500000000e+02 0.0000e+00 0.0000e+00
      -11  1    1    0    0    0 -1.3326486310e+00 +1.0433864133e+00 +6.4348387969e-01 1.8107123863e+00 5.1100000000e-04 0.0000e+00 1.0000e+00
       11  1    1    0    0    0 -4.5385162899e+01 +3.5055326537e+01 +1.9863292029e+01 6.0689696823e+01 5.1100000000e-04 0.0000e+00 -1.0000e+00
       22  1    1    0    0    0 +4.6717811530e+01 -3.6098712950e+01 -2.0506775909e+01 6.2499590791e+01 0.0000000000e+00 0.0000e+00 -1.0000e+00
</event>
<event>
 4      1 +2.4041262e-06 9.11880000e+01 7.81860800e-03 1.13011600e-01
       25 -1    0    0    0    0 +0.0000000000e+00 +0.0000000000e+00 +9.9999998245e-15 1.2500000000e+02 1.2500000000e+02 0.0000e+00 0.0000e+00
      -13  1    1    0    0    0 +5.5870078100e+01 -1.6265090996e+01 +2.2773357333e+01 6.2487244941e+01 1.0566000000e-01 0.0000e+00 -1.0000e+00
       13  1    1    0    0    0 -5.4752279562e+01 +1.5957138158e+01 -2.2040541265e+01 6.1141139985e+01 1.0566000000e-01 0.0000e+00 -1.0000e+00
       22  1    1    0    0    0 -1.1177985384e+00 +3.0795283709e-01 -7.3281606768e-01 1.3716150740e+00 0.0000000000e+00 0.0000e+00 1.0000e+00
</event>
<event>
 4      1 +2.4041262e-06 9.11880000e+01 7.81860800e-03 1.13011600e-01
       25 -1    0    0    0    0 +0.0000000000e+00 +0.0000000000e+00 +9.9999998245e-15 1.2500000000e+02 1.2500000000e+02 0.0000e+00 0.0000e+00
      -13  1    1    0    0    0 -2.3195025343e+01 -5.2083448260e+00 -5.7759596438e+01 6.2460533148e+01 1.0566000000e-01 0.0000e+00 -1.0000e+00
       13  1    1    0    0    0 +2.3278260222e+01 +5.0884405758e+00 +5.7291719294e+01 6.2049350441e+01 1.0566000000e-01 0.0000e+00 -1.0000e+00
       22  1    1    0    0    0 -8.3234879033e-02 +1.1990425021e-01 +4.6787714413e-01 4.9011641097e-01 0.0000000000e+00 0.0000e+00 -1.0000e+00
</event>
<event>
 5      1 +2.4041262e-06 9.11880000e+01 7.81860800e-03 1.13011600e-01
       25 -1    0    0    0    0 +0.0000000000e+00 +0.0000000000e+00 +9.9999998245e-15 1.2500000000e+02 1.2500000000e+02 0.0000e+00 0.0000e+00
       23  2    1    0    0    0 -1.9172661228e+01 -2.3438754149e+01 -1.5118277874e+00 9.4680835138e+01 8.9695087851e+01 0.0000e+00 0.0000e+00
      -13  1    2    2    0    0 +6.9754808051e+00 +2.9391171991e+01 +1.4629573723e+01 3.3563878125e+01 1.0566000000e-01 0.0000e+00 1.0000e+00
       13  1    2    2    0    0 -2.6148142033e+01 -5.2829926140e+01 -1.6141401511e+01 6.1116957013e+01 1.0566000000e-01 0.0000e+00 -1.0000e+00
       22  1    1    0    0    0 +1.9172661228e+01 +2.3438754149e+01 +1.5118277874e+00 3.0319164862e+01 0.0000000000e+00 0.0000e+00 -1.0000e+00
</event>
<event>
 4      1 +2.4041262e-06 9.11880000e+01 7.81860800e-03 1.13011600e-01
       25 -1    0    0    0    0 +0.0000000000e+00 +0.0000000000e+00 +9.9999998245e-15 1.2500000000e+02 1.2500000000e+02 0.0000e+00 0.0000e+00
      -13  1    1    0    0    0 -3.7557396952e+00 +6.2365651283e+01 -1.6305805535e+00 6.2499999981e+01 1.0566000000e-01 0.0000e+00 1.0000e+00
       13  1    1    0    0    0 +3.7557396963e+00 -6.2365651302e+01 +1.6305805545e+00 6.2500000000e+01 1.0566000000e-01 0.0000e+00 1.0000e+00
       22  1    1    0    0    0 -1.1072724455e-09 +1.9434683724e-08 -9.8742653936e-10 1.9491228666e-08 0.0000000000e+00 0.0000e+00 1.0000e+00
</event>
<event>
 4      1 +2.4041262e-06 9.11880000e+01 7.81860800e-03 1.13011600e-01
       25 -1    0    0    0    0 +0.0000000000e+00 +0.0000000000e+00 +9.9999998245e-15 1.2500000000e+02 1.2500000000e+02 0.0000e+00 0.0000e+00
      -11  1    1    0    0    0 -2.8839256796e+01 +2.2834138030e+01 -3.4727923677e+01 5.0587837227e+01 5.1100000000e-04 0.0000e+00 1.0000e+00
       11  1    1    0    0    0 -6.8153940975e+00 +5.3892882791e+00 -8.1490018859e+00 1.1912189423e+01 5.1100000000e-04 0.0000e+00 -1.0000e+00
       22  1    1    0    0    0 +3.5654650894e+01 -2.8223426309e+01 +4.2876925563e+01 6.2499973350e+01 0.0000000000e+00 0.0000e+00 1.0000e+00
</event>
<event>
 4      1 +2.4041262e-06 9.11880000e+01 7.81860800e-03 1.13011600e-01
       25 -1    0    0    0    0 +0.0000000000e+00 +0.0000000000e+00 +9.9999998245e-15 1.2500000000e+02 1.2500000000e+02 0.0000e+00 0.0000e+00
      -11  1    1    0    0    0 +1.0805746054e+01 -2.2666892542e+01 +9.4164834909e+00 2.6818320732e+01 5.1100000000e-04 0.0000e+00 1.0000e+00
       11  1    1    0    0    0 +1.4377768549e+01 -3.0158264583e+01 +1.2527612888e+01 3.5681679277e+01 5.1100000000e-04 0.0000e+00 1.0000e+00
       22  1    1    0    0    0 -2.5183514604e+01 +5.2825157124e+01 -2.1944096379e+01 6.2499999991e+01 0.0000000000e+00 0.0000e+00 1.0000e+00
</event>
<event>
 4      1 +2.4041262e-06 9.11880000e+01 7.81860800e-03 1.13011600e-01
       25 -1    0    0    0    0 +0.0000000000e+00 +0.0000000000e+00 +9.9999998245e-15 1.2500000000e+02 1.2500000000e+02 0.0000e+00 0.0000e+00
      -13  1    1    0    0    0 -9.8459209666e+00 +5.9395459454e+01 +1.6663275241e+01 6.2469501913e+01 1.0566000000e-01 0.0000e+00 -1.0000e+00
       13  1    1    0    0    0 +9.8495792716e+00 -5.9425750566e+01 -1.6666706604e+01 6.2499794522e+01 1.0566000000e-01 0.0000e+00 -1.0000e+00
       22  1    1    0    0    0 -3.6583050603e-03 +3.0291112252e-02 +3.4313631995e-03 3.0703565441e-02 0.0000000000e+00 0.0000e+00 1.0000e+00
</event>
<event>
 4      1 +2.4041262e-06 9.11880000e+01 7.81860800e-03 1.13011600e-01
       25 -1    0    0    0    0 +0.0000000000e+00 +0.0000000000e+00 +9.9999998245e-15 1.2500000000e+02 1.2500000000e+02 0.0000e+00 0.0000e+00
      -13  1    1    0    0    0 -2.2093445825e+01 -5.6258741439e+01 +1.5907372113e+01 6.2499775906e+01 1.0566000000e-01 0.0000e+00 1.0000e+00
       13  1    1    0    0    0 +2.2093503447e+01 +5.6258959091e+01 -1.5907223670e+01 6.2499954412e+01 1.0566000000e-01 0.0000e+00 1.0000e+00
       22  1    1    0    0    0 -5.7622371518e-05 -2.1765251179e-04 -1.4844325815e-04 2.6968195060e-04 0.0000000000e+00 0.0000e+00 1.0000e+00
</event>
<event>
 4      1 +2.4041262e-06 9.11880000e+01 7.81860800e-03 1.13011600e-01
       25 -1    0    0    0    0 +0.0000000000e+00 +0.0000000000e+00 +9.9999998245e-15 1.2500000000e+02 1.2500000000e+02 0.0000e+00 0.0000e+00
      -13  1    1    0    0    0 -3.4585363912e+01 -4.6892824280e+01 -2.2608725530e+01 6.2500000000e+01 1.0566000000e-01 0.0000e+00 -1.0000e+00
       13  1    1    0    0    0 +3.4585363912e+01 +4.6892824279e+01 +2.2608725530e+01 6.2500000000e+01 1.0566000000e-01 0.0000e+00 -1.0000e+00
       22  1    1    0    0    0 +2.0225723119e-10 +3.7103724880e-10 -8.2454048576e-11 4.3055231702e-10 0.0000000000e+00 0.0000e+00 -1.0000e+00
</event>
<event>
 5      1 +2.4041262e-06 9.11880000e+01 7.81860800e-03 1.13011600e-01
       25 -1    0    0    0    0 +0.0000000000e+00 +0.0000000000e+00 +9.9999998245e-15 1.2500000000e+02 1.2500000000e+02 0.0000e+00 0.0000e+00
       23  2    1    0    0    0 -1.5990583163e+01 +1.7208850729e+01 -1.8578033593e+01 9.5050265018e+01 9.0208459994e+01 0.0000e+00 0.0000e+00
      -11  1    2    2    0    0 -2.7142048110e+01 -1.0414778871e+01 -4.6094800875e+01 5.4496688546e+01 5.1100000000e-04 0.0000e+00 1.0000e+00
       11  1    2    2    0    0 +1.1151464947e+01 +2.7623629600e+01 +2.7516767282e+01 4.0553576472e+01 5.1100000000e-04 0.0000e+00 -1.0000e+00
       22  1    1    0    0    0 +1.5990583163e+01 -1.7208850729e+01 +1.8578033593e+01 2.9949734982e+01 0.0000000000e+00 0.0000e+00 1.0000e+00
</event>
<event>
 4      1 +2.4041262e-06 9.11880000e+01 7.81860800e-03 1.13011600e-01
       25 -1    0    0    0    0 +0.0000000000e+00 +0.0000000000e+00 +9.9999998245e-15 1.2500000000e+02 1.2500000000e+02 0.0000e+00 0.0000e+00
      -13  1    1    0    0    0 +5.3693303577e+01 -2.2214856167e+01 -2.1071636521e-01 5.8107884568e+01 1.0566000000e-01 0.0000e+00 -1.0000e+00
       13  1    1    0    0    0 -5.7758877325e+01 +2.3876832010e+01 +2.0493489967e-01 6.2499953432e+01 1.0566000000e-01 0.0000e+00 -1.0000e+00
       22  1    1    0    0    0 +4.0655737480e+00 -1.6619758427e+00 +5.7814655413e-03 4.3921619992e+00 0.0000000000e+00 0.0000e+00 -1.0000e+00
</event>
<event>
 4      1 +2.4041262e-06 9.11880000e+01 7.81860800e-03 1.13011600e-01
       25 -1    0    0    0    0 +0.0000000000e+00 +0.0000000000e+00 +9.9999998245e-15 1.2500000000e+02 1.2500000000e+02 0.0000e+00 0.0000e+00
      -11  1    1    0    0    0 -5.5201967759e+00 +4.0128014065e+01 -8.3287825961e+00 4.1353339709e+01 5.1100000000e-04 0.0000e+00 1.0000e+00
       11  1    1    0    0    0 -2.8276840184e+00 +2.0519785259e+01 -4.2572134491e+00 2.1146660507e+01 5.1100000000e-04 0.0000e+00 -1.0000e+00
       22  1    1    0    0    0 +8.3478807943e+00 -6.0647799324e+01 +1.2585996045e+01 6.2499999785e+01 0.0000000000e+00 0.0000e+00 1.0000e+00
</event>
<event>
 5      1 +2.4041262e-06 9.11880000e+01 7.81860800e-03 1.13011600e-01
       25 -1    0    0    0    0 +0.0000000000e+00 +0.0000000000e+00 +9.9999998245e-15 1.2500000000e+02 1.2500000000e+02 0.0000e+00 0.0000e+00
       23  2    1    0    0    0 -2.4872793003e+00 -2.7560175439e+01 -9.3147374591e+00 9.5802154832e+01 9.1244390008e+01 0.0000e+00 0.0000e+00
      -13  1    2    2    0    0 +8.8044678176e+00 +2.9301533502e+01 -2.0408707704e+01 3.6778050972e+01 1.0566000000e-01 0.0000e+00 -1.0000e+00
       13  1    2    2    0    0 -1.1291747118e+01 -5.6861708941e+01 +1.1093970245e+01 5.9024103860e+01 1.0566000000e-01 0.0000e+00 1.0000e+00
       22  1    1    0    0    0 +2.4872793003e+00 +2.7560175439e+01 +9.3147374591e+00 2.9197845168e+01 0.0000000000e+00 0.0000e+00 1.0000e+00
</event>
<event>
 4      1 +2.4041262e-06 9.11880000e+01 7.81860800e-03 1.13011600e-01
       25 -1    0    0    0    0 +0.0000000000e+00 +0.0000000000e+00 +9.9999998245e-15 1.2500000000e+02 1.2500000000e+02 0.0000e+00 0.0000e+00
      -13  1    1    0    0    0 -2.3484469797e+01 +3.4656670358e+01 -4.6407258674e+01 6.2499999549e+01 1.0566000000e-01 0.0000e+00 -1.0000e+00
       13  1    1    0    0    0 +2.3484469972e+01 -3.4656670603e+01 +4.6407259010e+01 6.2500000000e+01 1.0566000000e-01 0.0000e+00 -1.0000e+00
       22  1    1    0    0    0 -1.7492805409e-07 +2.4472220741e-07 -3.3638157232e-07 4.5126637932e-07 0.0000000000e+00 0.0000e+00 1.0000e+00
</event>
<event>
 4      1 +2.4041262e-06 9.11880000e+01 7.81860800e-03 1.13011600e-01
       25 -1    0    0    0    0 +0.0000000000e+00 +0.0000000000e+00 +9.9999998245e-15 1.2500000000e+02 1.2500000000e+02 0.0000e+00 0.0000e+00
      -13  1    1    0    0    0 +4.1096309821e-02 -2.0596804983e-03 +6.1387688587e-02 1.2894042374e-01 1.0566000000e-01 0.0000e+00 1.0000e+00
       13  1    1    0    0    0 -4.7746920171e+01 -3.9613853765e+01 -7.1751455330e+00 6.2454140563e+01 1.0566000000e-01 0.0000e+00 -1.0000e+00
       22  1    1    0    0    0 +4.7705823862e+01 +3.9615913446e+01 +7.1137578444e+00 6.2416919013e+01 0.0000000000e+00 0.0000e+00 -1.0000e+00
</event>
<event>
 4      1 +2.4041262e-06 9.11880000e+01 7.81860800e-03 1.13011600e-01
       25 -1    0    0    0    0 +0.0000000000e+00 +0.0000000000e+00 +9.9999998245e-15 1.2500000000e+02 1.2500000000e+02 0.0000e+00 0.0000e+00
      -13  1    1    0    0    0 +2.7286516976e+01 -3.4228451208e+01 +4.4605019138e+01 6.2496078094e+01 1.0566000000e-01 0.0000e+00 -1.0000e+00
       13  1    1    0    0    0 -2.6776814642e+01 +3.3405540805e+01 -4.3486382767e+01 6.1024622973e+01 1.0566000000e-01 0.0000e+00 -1.0000e+00
       22  1    1    0    0    0 -5.0970233354e-01 +8.2291040359e-01 -1.1186363715e+00 1.4792989328e+00 0.0000000000e+00 0.0000e+00 1.0000e+00
</event>
<event>
 4      1 +2.4041262e-06 9.11880000e+01 7.81860800e-03 1.13011600e-01
       25 -1    0    0    0    0 +0.0000000000e+00 +0.0000000000e+00 +9.9999998245e-15 1.2500000000e+02 1.2500000000e+02 0.0000e+00 0.0000e+00
      -13  1    1    0    0    0 -5.1673853919e+01 +2.1097980851e+01 +2.8122732688e+01 6.2499689861e+01 1.0566000000e-01 0.0000e+00 1.0000e+00
       13  1    1    0    0    0 +5.1674094463e+01 -2.1098109764e+01 -2.8122881583e+01 6.2499999254e+01 1.0566000000e-01 0.0000e+00 1.0000e+00
       22  1    1    0    0    0 -2.4054430853e-04 +1.2891320954e-04 +1.4889466844e-04 3.1088551309e-04 0.0000000000e+00 0.0000e+00 -1.0000e+00
</event>
<event>
 5      1 +2.4041262e-06 9.11880000e+01 7.81860800e-03 1.13011600e-01
       25 -1    0    0    0    0 +0.0000000000e+00 +0.0000000000e+00 +9.9999998245e-15 1.2500000000e+02 1.2500000000e+02 0.0000e+00 0.0000e+00
       23  2    1    0    0    0 +1.9269952769e+01 -7.9675286955e-01 +2.2370389792e+01 9.5463577835e+01 9.0779372430e+01 0.0000e+00 0.0000e+00
      -13  1    2    2    0    0 +3.4791983141e+01 +2.8850455055e+01 -1.2740529070e+01 4.6959164098e+01 1.0566000000e-01 0.0000e+00 -1.0000e+00
       13  1    2    2    0    0 -1.5522030372e+01 -2.9647207925e+01 +3.5110918862e+01 4.8504413737e+01 1.0566000000e-01 0.0000e+00 1.0000e+00
       22  1    1    0    0    0 -1.9269952769e+01 +7.9675286955e-01 -2.2370389792e+01 2.9536422165e+01 0.0000000000e+00 0.0000e+00 -1.0000e+00
</event>
<event>
 4      1 +2.4041262e-06 9.11880000e+01 7.81860800e-03 1.13011600e-01
       25 -1    0    0    0    0 +0.0000000000e+00 +0.0000000000e+00 +9.9999998245e-15 1.2500000000e+02 1.2500000000e+02 0.0000e+00 0.0000e+00
      -13  1    1    0    0    0 -5.5015180860e+00 -4.9565350041e+01 +3.7672910825e+01 6.2500000000e+01 1.0566000000e-01 0.0000e+00 1.0000e+00
       13  1    1    0    0    0 +5.5015180866e+00 +4.9565350037e+01 -3.7672910822e+01 6.2499999995e+01 1.0566000000e-01 0.0000e+00 1.0000e+00
       22  1    1    0    0    0 -6.2885410626e-10 +3.8323196802e-09 -3.0029229636e-09 4.9091422819e-09 0.0000000000e+00 0.0000e+00 -1.0000e+00
</event>
<event>
 4      1 +2.4041262e-06 9.11880000e+01 7.81860800e-03 1.13011600e-01
       25 -1    0    0    0    0 +0.0000000000e+00 +0.0000000000e+00 +9.9999998245e-15 1.2500000000e+02 1.2500000000e+02 0.0000e+00 0.0000e+00
      -11  1    1    0    0    0 -9.6923134022e-01 +2.4151905318e+00 +2.3822119318e+00 3.5280998633e+00 5.1100000000e-04 0.0000e+00 1.0000e+00
       11  1    1    0    0    0 -1.5637287569e+01 +3.9446397569e+01 +4.0953771036e+01 5.8972488552e+01 5.1100000000e-04 0.0000e+00 -1.0000e+00
       22  1    1    0    0    0 +1.6606518909e+01 -4.1861588101e+01 -4.3335982968e+01 6.2499411585e+01 0.0000000000e+00 0.0000e+00 -1.0000e+00
</event>
<event>
 5      1 +2.4041262e-06 9.11880000e+01 7.81860800e-03 1.13011600e-01
       25 -1    0    0    0    0 +0.0000000000e+00 +0.0000000000e+00 +9.9999998245e-15 1.2500000000e+02 1.2500000000e+02 0.0000e+00 0.0000e+00
       23  2    1    0    0    0 +2.1670597411e+01 +1.2464374458e+01 -1.3227725872e+01 9.6716645275e+01 9.2488709142e+01 0.0000e+00 0.0000e+00
      -11  1    2    2    0    0 -1.3530197253e+00 -2.7491586689e+01 +2.4719820735e+01 3.6995777306e+01 5.1100000000e-04 0.0000e+00 1.0000e+00
       11  1    2    2    0    0 +2.3023617136e+01 +3.9955961147e+01 -3.7947546607e+01 5.9720867969e+01 5.1100000000e-04 0.0000e+00 -1.0000e+00
       22  1    1    0    0    0 -2.1670597411e+01 -1.2464374458e+01 +1.3227725872e+01 2.8283354725e+01 0.0000000000e+00 0.0000e+00 1.0000e+00
</event>
<event>
 4      1 +2.4041262e-06 9.11880000e+01 7.81860800e-03 1.13011600e-01
       25 -1    0    0    0    0 +0.0000000000e+00 +0.0000000000e+00 +9.9999998245e-15 1.2500000000e+02 1.2500000000e+02 0.0000e+00 0.0000e+00
      -13  1    1    0    0    0 +4.5789082802e+01 -1.7904900505e+01 +3.8587567954e+01 6.2499897044e+01 1.0566000000e-01 0.0000e+00 -1.0000e+00
       13  1    1    0    0    0 -4.5789136953e+01 +1.7904954535e+01 -3.8587640917e+01 6.2499997243e+01 1.0566000000e-01 0.0000e+00 -1.0000e+00
       22  1    1    0    0    0 +5.4150931838e-05 -5.4029686628e-05 +7.2963428306e-05 1.0571278223e-04 0.0000000000e+00 0.0000e+00 -1.0000e+00
</event>
<event>
 4      1 +2.4041262e-06 9.11880000e+01 7.81860800e-03 1.13011600e-01
       25 -1    0    0    0    0 +0.0000000000e+00 +0.0000000000e+00 +9.9999998245e-15 1.2500000000e+02 1.2500000000e+02 0.0000e+00 0.0000e+00
      -13  1    1    0    0    0 -3.2914313247e+01 -2.4332822913e+01 -3.6280233691e-01 4.0933862229e+01 1.0566000000e-01 0.0000e+00 1.0000e+00
       13  1    1    0    0    0 -1.9131044911e+01 -9.5162360610e+00 +4.5287617934e+00 2.1842080386e+01 1.0566000000e-01 0.0000e+00 -1.0000e+00
       22  1    1    0    0    0 +5.2045358158e+01 +3.3849058974e+01 -4.1659594565e+00 6.2224057385e+01 0.0000000000e+00 0.0000e+00 1.0000e+00
</event>
<event>
 5      1 +2.4041262e-06 9.11880000e+01 7.81860800e-03 1.13011600e-01
       25 -1    0    0    0    0 +0.0000000000e+00 +0.0000000000e+00 +9.9999998245e-15 1.2500000000e+02 1.2500000000e+02 0.0000e+00 0.0000e+00
       23  2    1    0    0    0 +2.7025913373e+01 -1.1591500244e+01 -3.7766086617e+00 9.5351633358e+01 9.0625097735e+01 0.0000e+00 0.0000e+00
      -13  1    2    2    0    0 +4.4100640167e+01 -4.0298246014e+01 -1.2046082727e+01 6.0942057465e+01 1.0566000000e-01 0.0000e+00 1.0000e+00
       13  1    2    2    0    0 -1.7074726794e+01 +2.8706745770e+01 +8.2694740656e+00 3.4409575893e+01 1.0566000000e-01 0.0000e+00 -1.0000e+00
       22  1    1    0    0    0 -2.7025913373e+01 +1.1591500244e+01 +3.7766086617e+00 2.9648366642e+01 0.0000000000e+00 0.0000e+00 1.0000e+00
</event>
<event>
 4      1 +2.4041262e-06 9.11880000e+01 7.81860800e-03 1.13011600e-01
       25 -1    0    0    0    0 +0.0000000000e+00 +0.0000000000e+00 +9.9999998245e-15 1.2500000000e+02 1.2500000000e+02 0.0000e+00 0.0000e+00
      -13  1    1    0    0    0 -2.0795855910e+01 -2.3485595332e+01 +5.4057100551e+01 6.2499776761e+01 1.0566000000e-01 0.0000e+00 -1.0000e+00
       13  1    1    0    0    0 +2.0796366072e+01 +2.3485645677e+01 -5.4056279421e+01 6.2499255224e+01 1.0566000000e-01 0.0000e+00 -1.0000e+00
       22  1    1    0    0    0 -5.1016158521e-04 -5.0345819649e-05 -8.2113037615e-04 9.6801582591e-04 0.0000000000e+00 0.0000e+00 -1.0000e+00
</event>
<event>
 4      1 +2.4041262e-06 9.11880000e+01 7.81860800e-03 1.13011600e-01
       25 -1    0    0    0    0 +0.0000000000e+00 +0.0000000000e+00 +9.9999998245e-15 1.2500000000e+02 1.2500000000e+02 0.0000e+00 0.0000e+00
      -13  1    1    0    0    0 -1.6258619228e+01 +5.4168394141e+01 -2.6450246304e+01 6.2435441190e+01 1.0566000000e-01 0.0000e+00 1.0000e+00
       13  1    1    0    0    0 +1.6232023903e+01 -5.4170398781e+01 +2.6541868560e+01 6.2469133616e+01 1.0566000000e-01 0.0000e+00 1.0000e+00
       22  1    1    0    0    0 +2.6595324405e-02 +2.0046397824e-03 -9.1622256101e-02 9.5425194125e-02 0.0000000000e+00 0.0000e+00 -1.0000e+00
</event>
<event>
 4      1 +2.4041262e-06 9.11880000e+01 7.81860800e-03 1.13011600e-01
       25 -1    0    0    0    0 +0.0000000000e+00 +0.0000000000e+00 +9.9999998245e-15 1.2500000000e+02 1.2500000000e+02 0.0000e+00 0.0000e+00
      -11  1    1    0    0    0 -3.3041512760e+01 +1.5648626528e+01 +2.7252789590e+00 3.6661263254e+01 5.1100000000e-04 0.0000e+00 1.0000e+00
       11  1    1    0    0    0 -9.4643372611e+00 +2.5137719506e+01 +8.8943734611e+00 2.8294672666e+01 5.1100000000e-04 0.0000e+00 -1.0000e+00
       22  1    1    0    0    0 +4.2505850021e+01 -4.0786346034e+01 -1.1619652420e+01 6.0044064080e+01 0.0000000000e+00 0.0000e+00 1.0000e+00
</event>
<event>
 4      1 +2.4041262e-06 9.11880000e+01 7.81860800e-03 1.13011600e-01
       25 -1    0    0    0    0 +0.0000000000e+00 +0.0000000000e+00 +9.9999998245e-15 1.2500000000e+02 1.2500000000e+02 0.0000e+00 0.0000e+00
      -13  1    1    0    0    0 -5.8345958805e+00 -3.0534495631e+01 +1.6926134146e+01 3.5396371476e+01 1.0566000000e-01 0.0000e+00 1.0000e+00
       13  1    1    0    0    0 +2.3355839479e+00 -1.8290985726e+01 +2.0803827403e+01 2.7799739385e+01 1.0566000000e-01 0.0000e+00 -1.0000e+00
       22  1    1    0    0    0 +3.4990119326e+00 +4.8825481357e+01 -3.7729961548e+01 6.1803889139e+01 0.0000000000e+00 0.0000e+00 -1.0000e+00
</event>
<event>
 4      1 +2.4041262e-06 9.11880000e+01 7.81860800e-03 1.13011600e-01
       25 -1    0    0    0    0 +0.0000000000e+00 +0.0000000000e+00 +9.9999998245e-15 1.2500000000e+02 1.2500000000e+02 0.0000e+00 0.0000e+00
      -13  1    1    0    0    0 +5.9085903829e+01 +2.8995348316e+00 +1.9913628789e+01 6.2418868214e+01 1.0566000000e-01 0.0000e+00 -1.0000e+00
       13  1    1    0    0    0 -5.9162223970e+01 -2.9039934105e+00 -1.9940812038e+01 6.2499992573e+01 1.0566000000e-01 0.0000e+00 -1.0000e+00
       22  1    1    0    0    0 +7.6320141195e-02 +4.4585788553e-03 +2.7183249359e-02 8.1139213227e-02 0.0000000000e+00 0.0000e+00 -1.0000e+00
</event>
<event>
 4      1 +2.4041262e-06 9.11880000e+01 7.81860800e-03 1.13011600e-01
       25 -1    0    0    0    0 +0.0000000000e+00 +0.0000000000e+00 +9.9999998245e-15 1.2500000000e+02 1.2500000000e+02 0.0000e+00 0.0000e+00
      -13  1    1    0    0    0 -4.2925961628e+01 +1.4523973691e+01 -4.3042476904e+01 6.2499999804e+01 1.0566000000e-01 0.0000e+00 -1.0000e+00
       13  1    1    0    0    0 +4.2925961759e+01 -1.4523973738e+01 +4.3042477041e+01 6.2500000000e+01 1.0566000000e-01 0.0000e+00 -1.0000e+00
       22  1    1    0    0    0 -1.3103582411e-07 +4.7186641412e-08 -1.3730579567e-07 1.9557568318e-07 0.0000000000e+00 0.0000e+00 1.0000e+00
</event>
<event>
 4      1 +2.4041262e-06 9.11880000e+01 7.81860800e-03 1.13011600e-01
       25 -1    0    0    0    0 +0.0000000000e+00 +0.0000000000e+00 +9.9999998245e-15 1.2500000000e+02 1.2500000000e+02 0.0000e+00 0.0000e+00
      -13  1    1    0    0    0 +3.2506144529e+01 +3.5719379891e+01 +3.9669273932e+01 6.2499487920e+01 1.0566000000e-01 0.0000e+00 1.0000e+00
       13  1    1    0    0    0 -3.2506698281e+01 -3.5717192793e+01 -3.9668756051e+01 6.2498197292e+01 1.0566000000e-01 0.0000e+00 1.0000e+00
       22  1    1    0    0    0 +5.5375180603e-04 -2.1870983131e-03 -5.1788168615e-04 2.3147875787e-03 0.0000000000e+00 0.0000e+00 1.0000e+00
</event>
<event>
 4      1 +2.4041262e-06 9.11880000e+01 7.81860800e-03 1.13011600e-01
       25 -1    0    0    0    0 +0.0000000000e+00 +0.0000000000e+00 +9.9999998245e-15 1.2500000000e+02 1.2500000000e+02 0.0000e+00 0.0000e+00
      -13  1    1    0    0    0 -7.4210071282e+00 -4.5809384224e+01 +4.1864875565e+01 6.2500000000e+01 1.0566000000e-01 0.0000e+00 1.0000e+00
       13  1    1    0    0    0 +7.4210071281e+00 +4.5809384225e+01 -4.1864875566e+01 6.2500000000e+01 1.0566000000e-01 0.0000e+00 1.0000e+00
       22  1    1    0    0    0 +3.0146546263e-11 -2.3804964081e-10 +1.9306176789e-10 3.0797612238e-10 0.0000000000e+00 0.0000e+00 -1.0000e+00
</event>
<event>
 4      1 +2.4041262e-06 9.11880000e+01 7.81860800e-03 1.13011600e-01
       25 -1    0    0    0    0 +0.0000000000e+00 +0.0000000000e+00 +9.9999998245e-15 1.2500000000e+02 1.2500000000e+02 0.0000e+00 0.0000e+00
      -13  1    1    0    0    0 +4.0493069580e+01 +4.6793238247e+01 +8.7667805190e+00 6.2499307471e+01 1.0566000000e-01 0.0000e+00 1.0000e+00
       13  1    1    0    0    0 -4.0488026001e+01 -4.6786801134e+01 -8.7604111746e+00 6.2490327074e+01 1.0566000000e-01 0.0000e+00 1.0000e+00
       22  1    1    0    0    0 -5.0435785295e-03 -6.4371126564e-03 -6.3693443423e-03 1.0365454697e-02 0.0000000000e+00 0.0000e+00 1.0000e+00
</event>
<event>
 4      1 +2.4041262e-06 9.11880000e+01 7.81860800e-03 1.13011600e-01
       25 -1    0    0    0    0 +0.0000000000e+00 +0.0000000000e+00 +9.9999998245e-15 1.2500000000e+02 1.2500000000e+02 0.0000e+00 0.0000e+00
      -11  1    1    0    0    0 -1.4817830206e+00 -2.9784016768e+01 -2.6756441611e+01 4.0064828762e+01 5.1100000000e-04 0.0000e+00 -1.0000e+00
       11  1    1    0    0    0 -3.0404403353e+00 -1.7535164444e+01 -1.3744303655e+01 2.2486265869e+01 5.1100000000e-04 0.0000e+00 1.0000e+00
       22  1    1    0    0    0 +4.5222233559e+00 +4.7319181212e+01 +4.0500745266e+01 6.2448905369e+01 0.0000000000e+00 0.0000e+00 -1.0000e+00
</event>
<event>
 4      1 +2.4041262e-06 9.11880000e+01 7.81860800e-03 1.13011600e-01
       25 -1    0    0    0    0 +0.0000000000e+00 +0.0000000000e+00 +9.9999998245e-15 1.2500000000e+02 1.2500000000e+02 0.0000e+00 0.0000e+00
      -13  1    1    0    0    0 +4.5174849630e+01 -3.6021590845e+01 -2.3826627448e+01 6.2498331063e+01 1.0566000000e-01 0.0000e+00 1.0000e+00
       13  1    1    0    0    0 -4.5174600674e+01 +3.6023366623e+01 +2.3827695504e+01 6.2499581807e+01 1.0566000000e-01 0.0000e+00 1.0000e+00
       22  1    1    0    0    0 -2.4895625871e-04 -1.7757784073e-03 -1.0680563014e-03 2.0871301909e-03 0.0000000000e+00 0.0000e+00 1.0000e+00
</event>
<event>
 4      1 +2.4041262e-06 9.11880000e+01 7.81860800e-03 1.13011600e-01
       25 -1    0    0    0    0 +0.0000000000e+00 +0.0000000000e+00 +9.9999998245e-15 1.2500000000e+02 1.2500000000e+02 0.0000e+00 0.0000e+00
      -13  1    1    0    0    0 +5.1732777063e+01 +3.5065194141e+01 -6.2511412073e-01 6.2499999956e+01 1.0566000000e-01 0.0000e+00 -1.0000e+00
       13  1    1    0    0    0 -5.1732777099e+01 -3.5065194166e+01 +6.2511412161e-01 6.2500000000e+01 1.0566000000e-01 0.0000e+00 -1.0000e+00
       22  1    1    0    0    0 +3.5989655487e-08 +2.5128630136e-08 -8.7851947004e-10 4.3903019840e-08 0.0000000000e+00 0.0000e+00 -1.0000e+00
</event>
<event>
 4      1 +2.4041262e-06 9.11880000e+01 7.81860800e-03 1.13011600e-01
       25 -1    0    0    0    0 +0.0000000000e+00 +0.0000000000e+00 +9.9999998245e-15 1.2500000000e+02 1.2500000000e+02 0.0000e+00 0.0000e+00
      -13  1    1    0    0    0 -5.3649670094e+01 +7.5127838744e+00 +3.1119919652e+01 6.2475511890e+01 1.0566000000e-01 0.0000e+00 1.0000e+00
       13  1    1    0    0    0 +5.3670647216e+01 -7.5155821776e+00 -3.1132241093e+01 6.2499999581e+01 1.0566000000e-01 0.0000e+00 1.0000e+00
       22  1    1    0    0    0 -2.0977122698e-02 +2.7983031938e-03 +1.2321440282e-02 2.4488529316e-02 0.0000000000e+00 0.0000e+00 -1.0000e+00
</event>
<event>
 4      1 +2.4041262e-06 9.11880000e+01 7.81860800e-03 1.13011600e-01
       25 -1    0    0    0    0 +0.0000000000e+00 +0.0000000000e+00 +9.9999998245e-15 1.2500000000e+02 1.2500000000e+02 0.0000e+00 0.0000e+00
      -13  1    1    0    0    0 -5.7884632318e+01 -6.5767248990e+00 -2.2619316654e+01 6.2494228685e+01 1.0566000000e-01 0.0000e+00 1.0000e+00
       13  1    1    0    0    0 +5.7886858223e+01 +6.5852013644e+00 +2.2618787576e+01 6.2496991507e+01 1.0566000000e-01 0.0000e+00 1.0000e+00
       22  1    1    0    0    0 -2.2259050178e-03 -8.4764653554e-03 +5.2907715841e-04 8.7798086944e-03 0.0000000000e+00 0.0000e+00 1.0000e+00
</event>
<event>
 4      1 +2.4041262e-06 9.11880000e+01 7.81860800e-03 1.13011600e-01
       25 -1    0    0    0    0 +0.0000000000e+00 +0.0000000000e+00 +9.9999998245e-15 1.2500000000e+02 1.2500000000e+02 0.0000e+00 0.0000e+00
      -13  1    1    0    0    0 +3.6703047964e+00 -4.7505958104e+01 +4.0446888807e+01 6.2499993367e+01 1.0566000000e-01 0.0000e+00 -1.0000e+00
       13  1    1    0    0    0 -3.6703052429e+00 +4.7505963098e+01 -4.0446893150e+01 6.2500000000e+01 1.0566000000e-01 0.0000e+00 -1.0000e+00
       22  1    1    0    0    0 +4.4649549690e-07 -4.9938490672e-06 +4.3428702161e-06 6.6331296119e-06 0.0000000000e+00 0.0000e+00 1.0000e+00
</event>
<event>
 4      1 +2.4041262e-06 9.11880000e+01 7.81860800e-03 1.13011600e-01
       25 -1    0    0    0    0 +0.0000000000e+00 +0.0000000000e+00 +9.9999998245e-15 1.2500000000e+02 1.2500000000e+02 0.0000e+00 0.0000e+00
      -13  1    1    0    0    0 -2.7380010324e+01 +3.1538206216e+01 +4.6496401817e+01 6.2499999701e+01 1.0566000000e-01 0.0000e+00 -1.0000e+00
       13  1    1    0    0    0 +2.7380010455e+01 -3.1538206367e+01 -4.6496402039e+01 6.2500000000e+01 1.0566000000e-01 0.0000e+00 -1.0000e+00
       22  1    1    0    0    0 -1.3168388168e-07 +1.5030445285e-07 +2.2190615924e-07 2.9862085786e-07 0.0000000000e+00 0.0000e+00 1.0000e+00
</event>
<event>
 4      1 +2.4041262e-06 9.11880000e+01 7.81860800e-03 1.13011600e-01
       25 -1    0    0    0    0 +0.0000000000e+00 +0.0000000000e+00 +9.9999998245e-15 1.2500000000e+02 1.2500000000e+02 0.0000e+00 0.0000e+00
      -13  1    1    0    0    0 +3.0641041737e+01 +1.4015105150e+01 -5.2638047165e+01 6.2498574259e+01 1.0566000000e-01 0.0000e+00 1.0000e+00
       13  1    1    0    0    0 -3.0641720109e+01 -1.4015474958e+01 +5.2639246023e+01 6.2499999484e+01 1.0566000000e-01 0.0000e+00 1.0000e+00
       22  1    1    0    0    0 +6.7837173043e-04 +3.6980825366e-04 -1.1988585081e-03 1.4262566640e-03 0.0000000000e+00 0.0000e+00 1.0000e+00
</event>
<event>
 4      1 +2.4041262e-06 9.11880000e+01 7.81860800e-03 1.13011600e-01
       25 -1    0    0    0    0 +0.0000000000e+00 +0.0000000000e+00 +9.9999998245e-15 1.2500000000e+02 1.2500000000e+02 0.0000e+00 0.0000e+00
      -13  1    1    0    0    0 -1.2220362076e+00 -1.3911458744e+01 -6.0919756105e+01 6.2499999239e+01 1.0566000000e-01 0.0000e+00 -1.0000e+00
       13  1    1    0    0    0 +1.2220336175e+00 +1.3911456905e+01 +6.0919754478e+01 6.2499997193e+01 1.0566000000e-01 0.0000e+00 -1.0000e+00
       22  1    1    0    0    0 +2.5900995672e-06 +1.8386736709e-06 +1.6271801798e-06 3.5689006674e-06 0.0000000000e+00 0.0000e+00 -1.0000e+00
</event>
<event>
 4      1 +2.4041262e-06 9.11880000e+01 7.81860800e-03 1.13011600e-01
       25 -1    0    0    0    0 +0.0000000000e+00 +0.0000000000e+00 +9.9999998245e-15 1.2500000000e+02 1.2500000000e+02 0.0000e+00 0.0000e+00
      -13  1    1    0    0    0 -8.7583998541e+00 +1.1251850245e+01 -3.2688846286e+01 3.5663504280e+01 1.0566000000e-01 0.0000e+00 1.0000e+00
       13  1    1    0    0    0 -9.1668989597e-01 +3.4988932932e+01 +7.4882281266e+00 3.5793162372e+01 1.0566000000e-01 0.0000e+00 -1.0000e+00
       22  1    1    0    0    0 +9.6750897501e+00 -4.6240783177e+01 +2.5200618160e+01 5.3543333349e+01 0.0000000000e+00 0.0000e+00 1.0000e+00
</event>
<event>
 5      1 +2.4041262e-06 9.11880000e+01 7.81860800e-03 1.13011600e-01
       25 -1    0    0    0    0 +0.0000000000e+00 +0.0000000000e+00 +9.9999998245e-15 1.2500000000e+02 1.2500000000e+02 0.0000e+00 0.0000e+00
       23  2    1    0    0    0 +2.5105149930e+01 -6.7942638109e+00 -8.7179783910e+00 9.7569474650e+01 9.3634228050e+01 0.0000e+00 0.0000e+00
      -11  1    2    2    0    0 +2.3579647085e+01 +1.1738473915e+01 +3.8598923959e+01 4.6729738471e+01 5.1100000000e-04 0.0000e+00 1.0000e+00
       11  1    2    2    0    0 +1.5255028446e+00 -1.8532737726e+01 -4.7316902350e+01 5.0839736179e+01 5.1100000000e-04 0.0000e+00 -1.0000e+00
       22  1    1    0    0    0 -2.5105149930e+01 +6.7942638109e+00 +8.7179783910e+00 2.7430525350e+01 0.0000000000e+00 0.0000e+00 -1.0000e+00
</event>
<event>
 4      1 +2.4041262e-06 9.11880000e+01 7.81860800e-03 1.13011600e-01
       25 -1    0    0    0    0 +0.0000000000e+00 +0.0000000000e+00 +9.9999998245e-15 1.2500000000e+02 1.2500000000e+02 0.0000e+00 0.0000e+00
      -13  1    1    0    0    0 +5.8980927823e+01 +1.4647819523e+01 +1.4592131228e+01 6.2499999371e+01 1.0566000000e-01 0.0000e+00 -1.0000e+00
       13  1    1    0    0    0 -5.8859468423e+01 -1.4617218227e+01 -1.4561737510e+01 6.2371110741e+01 1.0566000000e-01 0.0000e+00 -1.0000e+00
       22  1    1    0    0    0 -1.2145939954e-01 -3.0601295038e-02 -3.0393718764e-02 1.2888988764e-01 0.0000000000e+00 0.0000e+00 1.0000e+00
</event>
<event>
 4      1 +2.4041262e-06 9.11880000e+01 7.81860800e-03 1.13011600e-01
       25 -1    0    0    0    0 +0.0000000000e+00 +0.0000000000e+00 +9.9999998245e-15 1.2500000000e+02 1.2500000000e+02 0.0000e+00 0.0000e+00
      -13  1    1    0    0    0 +5.1074548920e+01 +3.5101592177e+01 -8.0722672585e+00 6.2497231806e+01 1.0566000000e-01 0.0000e+00 -1.0000e+00
       13  1    1    0    0    0 -5.1076825079e+01 -3.5103118999e+01 +8.0726569053e+00 6.2499999817e+01 1.0566000000e-01 0.0000e+00 -1.0000e+00
       22  1    1    0    0    0 +2.2761584551e-03 +1.5268223769e-03 -3.8964680294e-04 2.7683765124e-03 0.0000000000e+00 0.0000e+00 1.0000e+00
</event>
<event>
 4      1 +2.4041262e-06 9.11880000e+01 7.81860800e-03 1.13011600e-01
       25 -1    0    0    0    0 +0.0000000000e+00 +0.0000000000e+00 +9.9999998245e-15 1.2500000000e+02 1.2500000000e+02 0.0000e+00 0.0000e+00
      -13  1    1    0    0    0 -5.3259662707e+01 -7.0173181789e+00 +3.1943769499e+01 6.2499999999e+01 1.0566000000e-01 0.0000e+00 -1.0000e+00
       13  1    1    0    0    0 +5.3259662707e+01 +7.0173181789e+00 -3.1943769499e+01 6.2500000000e+01 1.0566000000e-01 0.0000e+00 -1.0000e+00
       22  1    1    0    0    0 -8.6857298174e-10 +5.1575448797e-11 +6.1421068111e-10 1.0650510844e-09 0.0000000000e+00 0.0000e+00 1.0000e+00
</event>
<event>
 4      1 +2.4041262e-06 9.11880000e+01 7.81860800e-03 1.13011600e-01
       25 -1    0    0    0    0 +0.0000000000e+00 +0.0000000000e+00 +9.9999998245e-15 1.2500000000e+02 1.2500000000e+02 0.0000e+00 0.0000e+00
      -13  1    1    0    0    0 -5.8201876643e+01 -1.4724646237e+01 +1.7377141694e+01 6.2499998952e+01 1.0566000000e-01 0.0000e+00 1.0000e+00
       13  1    1    0    0    0 +5.8201507942e+01 +1.4724541397e+01 -1.7376989171e+01 6.2499588501e+01 1.0566000000e-01 0.0000e+00 1.0000e+00
       22  1    1    0    0    0 +3.6870084032e-04 +1.0484020701e-04 -1.5252313227e-04 4.1254706948e-04 0.0000000000e+00 0.0000e+00 1.0000e+00
</event>
<event>
 4      1 +2.4041262e-06 9.11880000e+01 7.81860800e-03 1.13011600e-01
       25 -1    0    0    0    0 +0.0000000000e+00 +0.0000000000e+00 +9.9999998245e-15 1.2500000000e+02 1.2500000000e+02 0.0000e+00 0.0000e+00
      -13  1    1    0    0    0 -5.3320931574e+01 +3.2533208746e+01 +2.1692807276e+00 6.2499986865e+01 1.0566000000e-01 0.0000e+00 1.0000e+00
       13  1    1    0    0    0 +5.3320942842e+01 -3.2533215480e+01 -2.1692812029e+00 6.2500000000e+01 1.0566000000e-01 0.0000e+00 1.0000e+00
       22  1    1    0    0    0 -1.1267610588e-05 +6.7338353326e-06 +4.7527538595e-07 1.3135047519e-05 0.0000000000e+00 0.0000e+00 1.0000e+00
</event>
<event>
 4      1 +2.4041262e-06 9.11880000e+01 7.81860800e-03 1.13011600e-01
       25 -1    0    0    0    0 +0.0000000000e+00 +0.0000000000e+00 +9.9999998245e-15 1.2500000000e+02 1.2500000000e+02 0.0000e+00 0.0000e+00
      -13  1    1    0    0    0 -4.3609343458e+01 -3.2224692526e+00 -4.4655119404e+01 6.2499999983e+01 1.0566000000e-01 0.0000e+00 1.0000e+00
       13  1    1    0    0    0 +4.3609343470e+01 +3.2224692534e+00 +4.4655119416e+01 6.2500000000e+01 1.0566000000e-01 0.0000e+00 1.0000e+00
       22  1    1    0    0    0 -1.1857223939e-08 -8.8510534203e-10 -1.1924300774e-08 1.6839421604e-08 0.0000000000e+00 0.0000e+00 -1.0000e+00
</event>
<event>
 4      1 +2.4041262e-06 9.11880000e+01 7.81860800e-03 1.13011600e-01
       25 -1    0    0    0    0 +0.0000000000e+00 +0.0000000000e+00 +9.9999998245e-15 1.2500000000e+02 1.2500000000e+02 0.0000e+00 0.0000e+00
      -13  1    1    0    0    0 +2.3614894988e+00 -4.0155287503e+01 -4.7835291168e+01 6.2499999938e+01 1.0566000000e-01 0.0000e+00 -1.0000e+00
       13  1    1    0    0    0 -2.3614886980e+00 +4.0155284257e+01 +4.7835288526e+01 6.2499995800e+01 1.0566000000e-01 0.0000e+00 -1.0000e+00
       22  1    1    0    0    0 -8.0084136360e-07 +3.2462845124e-06 +2.6422424856e-06 4.2615907098e-06 0.0000000000e+00 0.0000e+00 -1.0000e+00
</event>
<event>
 4      1 +2.4041262e-06 9.11880000e+01 7.81860800e-03 1.13011600e-01
       25 -1    0    0    0    0 +0.0000000000e+00 +0.0000000000e+00 +9.9999998245e-15 1.2500000000e+02 1.2500000000e+02 0.0000e+00 0.0000e+00
      -13  1    1    0    0    0 -4.6663323983e+01 -3.8043366627e+01 +1.6739649603e+01 6.2489923846e+01 1.0566000000e-01 0.0000e+00 -1.0000e+00
       13  1    1    0    0    0 +4.4360120240e+01 +3.5708066588e+01 -1.5765658480e+01 5.9088522054e+01 1.0566000000e-01 0.0000e+00 -1.0000e+00
       22  1    1    0    0    0 +2.3032037431e+00 +2.3353000385e+00 -9.7399112222e-01 3.4215540999e+00 0.0000000000e+00 0.0000e+00 -1.0000e+00
</event>
<event>
 5      1 +2.4041262e-06 9.11880000e+01 7.81860800e-03 1.13011600e-01
       25 -1    0    0    0    0 +0.0000000000e+00 +0.0000000000e+00 +9.9999998245e-15 1.2500000000e+02 1.2500000000e+02 0.0000e+00 0.0000e+00
       23  2    1    0    0    0 +1.1965090022e+01 +2.1566022468e+01 +1.4405933857e+01 9.6438003665e+01 9.2111350637e+01 0.0000e+00 0.0000e+00
      -11  1    2    2    0    0 -3.1122037535e+01 -2.5887858139e+00 -1.9231940370e+01 3.6676294292e+01 5.1100000000e-04 0.0000e+00 1.0000e+00
       11  1    2    2    0    0 +4.3087127558e+01 +2.4154808282e+01 +3.3637874228e+01 5.9761709373e+01 5.1100000000e-04 0.0000e+00 -1.0000e+00
       22  1    1    0    0    0 -1.1965090022e+01 -2.1566022468e+01 -1.4405933857e+01 2.8561996335e+01 0.0000000000e+00 0.0000e+00 -1.0000e+00
</event>
<event>
 5      1 +2.4041262e-06 9.11880000e+01 7.81860800e-03 1.13011600e-01
       25 -1    0    0    0    0 +0.0000000000e+00 +0.0000000000e+00 +9.9999998245e-15 1.2500000000e+02 1.2500000000e+02 0.0000e+00 0.0000e+00
       23  2    1    0    0    0 -2.0209502187e+00 -1.9795686954e+01 +2.2125328521e+01 9.5242923129e+01 9.0475028501e+01 0.0000e+00 0.0000e+00
      -13  1    2    2    0    0 +1.1446536325e+01 +2.4301265463e+01 -1.9445441386e+01 3.3161891558e+01 1.0566000000e-01 0.0000e+00 1.0000e+00
       13  1    2    2    0    0 -1.3467486544e+01 -4.4096952417e+01 +4.1570769907e+01 6.2081031571e+01 1.0566000000e-01 0.0000e+00 -1.0000e+00
       22  1    1    0    0    0 +2.0209502187e+00 +1.9795686954e+01 -2.2125328521e+01 2.9757076871e+01 0.0000000000e+00 0.0000e+00 -1.0000e+00
</event>
<event>
 4      1 +2.4041262e-06 9.11880000e+01 7.81860800e-03 1.13011600e-01
       25 -1    0    0    0    0 +0.0000000000e+00 +0.0000000000e+00 +9.9999998245e-15 1.2500000000e+02 1.2500000000e+02 0.0000e+00 0.0000e+00
      -11  1    1    0    0    0 -4.1669752227e+00 -2.4947252716e-01 -4.6342164449e+00 6.2371372735e+00 5.1100000000e-04 0.0000e+00 1.0000e+00
       11  1    1    0    0    0 -3.1904891218e+01 -2.3569936790e+00 -4.6310461104e+01 5.6286200003e+01 5.1100000000e-04 0.0000e+00 -1.0000e+00
       22  1    1    0    0    0 +3.6071866441e+01 +2.6064662062e+00 +5.0944677549e+01 6.2476662724e+01 0.0000000000e+00 0.0000e+00 -1.0000e+00
</event>
<event>
 5      1 +2.4041262e-06 9.11880000e+01 7.81860800e-03 1.13011600e-01
       25 -1    0    0    0    0 +0.0000000000e+00 +0.0000000000e+00 +9.9999998245e-15 1.2500000000e+02 1.2500000000e+02 0.0000e+00 0.0000e+00
       23  2    1    0    0    0 +2.2327826344e+01 -1.3684046335e+01 +1.6967146503e+01 9.3796330122e+01 8.8453844069e+01 0.0000e+00 0.0000e+00
      -11  1    2    2    0    0 -3.2046676585e+01 -1.9510885016e+01 +5.4781207814e+00 3.7916670763e+01 5.1100000000e-04 0.0000e+00 1.0000e+00
       11  1    2    2    0    0 +5.4374502929e+01 +5.8268386806e+00 +1.1489025722e+01 5.5879659359e+01 5.1100000000e-04 0.0000e+00 -1.0000e+00
       22  1    1    0    0    0 -2.2327826344e+01 +1.3684046335e+01 -1.6967146503e+01 3.1203669878e+01 0.0000000000e+00 0.0000e+00 -1.0000e+00
</event>
<event>
 4      1 +2.4041262e-06 9.11880000e+01 7.81860800e-03 1.13011600e-01
       25 -1    0    0    0    0 +0.0000000000e+00 +0.0000000000e+00 +9.9999998245e-15 1.2500000000e+02 1.2500000000e+02 0.0000e+00 0.0000e+00
      -11  1    1    0    0    0 -4.1062591641e+01 -1.2209742666e+01 -2.9308152076e+01 5.1905510561e+01 5.1100000000e-04 0.0000e+00 1.0000e+00
       11  1    1    0    0    0 -8.3800099456e+00 -2.4898920506e+00 -5.9849046194e+00 1.0594489732e+01 5.1100000000e-04 0.0000e+00 -1.0000e+00
       22  1    1    0    0    0 +4.9442601587e+01 +1.4699634717e+01 +3.5293056695e+01 6.2499999707e+01 0.0000000000e+00 0.0000e+00 1.0000e+00
</event>
<event>
 4      1 +2.4041262e-06 9.11880000e+01 7.81860800e-03 1.13011600e-01
       25 -1    0    0    0    0 +0.0000000000e+00 +0.0000000000e+00 +9.9999998245e-15 1.2500000000e+02 1.2500000000e+02 0.0000e+00 0.0000e+00
      -11  1    1    0    0    0 +2.7728292875e+00 +7.2644962067e+00 -7.3305165798e-01 7.8101762073e+00 5.1100000000e-04 0.0000e+00 -1.0000e+00
       11  1    1    0    0    0 +8.4058270268e+00 +5.3911074221e+01 -4.6994735744e+00 5.4764467530e+01 5.1100000000e-04 0.0000e+00 1.0000e+00
       22  1    1    0    0    0 -1.1178656314e+01 -6.1175570428e+01 +5.4325252324e+00 6.2425356263e+01 0.0000000000e+00 0.0000e+00 1.0000e+00
</event>
<event>
 5      1 +2.4041262e-06 9.11880000e+01 7.81860800e-03 1.13011600e-01
       25 -1    0    0    0    0 +0.0000000000e+00 +0.0000000000e+00 +9.9999998245e-15 1.2500000000e+02 1.2500000000e+02 0.0000e+00 0.0000e+00
       23  2    1    0    0    0 +2.8057904410e+01 +8.2942014987e+00 -5.5294562838e+00 9.5223924618e+01 9.0448776412e+01 0.0000e+00 0.0000e+00
      -11  1    2    2    0    0 -3.2207148617e+01 -2.6550201371e+00 -9.9486281631e+00 3.3813085582e+01 5.1100000000e-04 0.0000e+00 1.0000e+00
       11  1    2    2    0    0 +6.0265053027e+01 +1.0949221636e+01 +4.4191718793e+00 6.1410839036e+01 5.1100000000e-04 0.0000e+00 -1.0000e+00
       22  1    1    0    0    0 -2.8057904410e+01 -8.2942014987e+00 +5.5294562838e+00 2.9776075382e+01 0.0000000000e+00 0.0000e+00 -1.0000e+00
</event>
<event>
 4      1 +2.4041262e-06 9.11880000e+01 7.81860800e-03 1.13011600e-01
       25 -1    0    0    0    0 +0.0000000000e+00 +0.0000000000e+00 +9.9999998245e-15 1.2500000000e+02 1.2500000000e+02 0.0000e+00 0.0000e+00
      -13  1    1    0    0    0 +3.6446165868e+01 -4.5121754833e+01 -1.4993463223e+01 5.9909188521e+01 1.0566000000e-01 0.0000e+00 1.0000e+00
       13  1    1    0    0    0 -3.8039830546e+01 +4.7044178795e+01 +1.5685036666e+01 6.2499720045e+01 1.0566000000e-01 0.0000e+00 1.0000e+00
       22  1    1    0    0    0 +1.5936646776e+00 -1.9224239616e+00 -6.9157344368e-01 2.5910914343e+00 0.0000000000e+00 0.0000e+00 -1.0000e+00
</event>
<event>
 4      1 +2.4041262e-06 9.11880000e+01 7.81860800e-03 1.13011600e-01
       25 -1    0    0    0    0 +0.0000000000e+00 +0.0000000000e+00 +9.9999998245e-15 1.2500000000e+02 1.2500000000e+02 0.0000e+00 0.0000e+00
      -13  1    1    0    0    0 -4.1990331477e+01 -4.5946922465e+01 +5.6507711336e+00 6.2500000000e+01 1.0566000000e-01 0.0000e+00 -1.0000e+00
       13  1    1    0    0    0 +4.1990331475e+01 +4.5946922463e+01 -5.6507711332e+00 6.2499999998e+01 1.0566000000e-01 0.0000e+00 -1.0000e+00
       22  1    1    0    0    0 +1.6550617410e-09 +1.8338493910e-09 -3.4919194719e-10 2.4948282449e-09 0.0000000000e+00 0.0000e+00 1.0000e+00
</event>
<event>
 4      1 +2.4041262e-06 9.11880000e+01 7.81860800e-03 1.13011600e-01
       25 -1    0    0    0    0 +0.0000000000e+00 +0.0000000000e+00 +9.9999998245e-15 1.2500000000e+02 1.2500000000e+02 0.0000e+00 0.0000e+00
      -13  1    1    0    0    0 +5.5682263236e+01 +6.6201305089e+00 +2.7602504759e+01 6.2500000000e+01 1.0566000000e-01 0.0000e+00 -1.0000e+00
       13  1    1    0    0    0 -5.5682263236e+01 -6.6201305090e+00 -2.7602504759e+01 6.2500000000e+01 1.0566000000e-01 0.0000e+00 -1.0000e+00
       22  1    1    0    0    0 +2.7651632472e-11 +6.2422500183e-11 +6.3251027608e-12 6.8565211530e-11 0.0000000000e+00 0.0000e+00 1.0000e+00
</event>
<event>
 4      1 +2.4041262e-06 9.11880000e+01 7.81860800e-03 1.13011600e-01
       25 -1    0    0    0    0 +0.0000000000e+00 +0.0000000000e+00 +9.9999998245e-15 1.2500000000e+02 1.2500000000e+02 0.0000e+00 0.0000e+00
      -13  1    1    0    0    0 +3.0290623854e+01 -5.4466195897e+01 -4.6917154100e+00 6.2498893962e+01 1.0566000000e-01 0.0000e+00 -1.0000e+00
       13  1    1    0    0    0 -3.0283410491e+01 +5.4442738184e+01 +4.6804738854e+00 6.2474112173e+01 1.0566000000e-01 0.0000e+00 -1.0000e+00
       22  1    1    0    0    0 -7.2133624288e-03 +2.3457712434e-02 +1.1241524564e-02 2.6993864945e-02 0.0000000000e+00 0.0000e+00 1.0000e+00
</event>
<event>
 4      1 +2.4041262e-06 9.11880000e+01 7.81860800e-03 1.13011600e-01
       25 -1    0    0    0    0 +0.0000000000e+00 +0.0000000000e+00 +9.9999998245e-15 1.2500000000e+02 1.2500000000e+02 0.0000e+00 0.0000e+00
      -13  1    1    0    0    0 +3.4831878211e+01 -3.1281446315e+01 +4.1405919144e+01 6.2499999420e+01 1.0566000000e-01 0.0000e+00 -1.0000e+00
       13  1    1    0    0    0 -3.4787288457e+01 +3.1241858540e+01 -4.1353483753e+01 6.2420597127e+01 1.0566000000e-01 0.0000e+00 -1.0000e+00
       22  1    1    0    0    0 -4.4589753294e-02 +3.9587775850e-02 -5.2435391184e-02 7.9403452974e-02 0.0000000000e+00 0.0000e+00 1.0000e+00
</event>
<event>
 5      1 +2.4041262e-06 9.11880000e+01 7.81860800e-03 1.13011600e-01
       25 -1    0    0    0    0 +0.0000000000e+00 +0.0000000000e+00 +9.9999998245e-15 1.2500000000e+02 1.2500000000e+02 0.0000e+00 0.0000e+00
       23  2    1    0    0    0 +4.0897734084e+00 +2.7515976473e+01 +6.7572300261e+00 9.6372821211e+01 9.2022852068e+01 0.0000e+00 0.0000e+00
      -13  1    2    2    0    0 +3.3006968193e+01 +2.6439384991e+01 -2.8321963273e+01 5.0898386965e+01 1.0566000000e-01 0.0000e+00 1.0000e+00
       13  1    2    2    0    0 -2.8917194785e+01 +1.0765914821e+00 +3.5079193299e+01 4.5474434246e+01 1.0566000000e-01 0.0000e+00 -1.0000e+00
       22  1    1    0    0    0 -4.0897734084e+00 -2.7515976473e+01 -6.7572300261e+00 2.8627178789e+01 0.0000000000e+00 0.0000e+00 -1.0000e+00
</event>
<event>
 4      1 +2.4041262e-06 9.11880000e+01 7.81860800e-03 1.13011600e-01
       25 -1    0    0    0    0 +0.0000000000e+00 +0.0000000000e+00 +9.9999998245e-15 1.2500000000e+02 1.2500000000e+02 0.0000e+00 0.0000e+00
      -13  1    1    0    0    0 -1.7163978086e+01 -3.2284240743e+01 +5.0521627016e+01 6.2364415370e+01 1.0566000000e-01 0.0000e+00 -1.0000e+00
       13  1    1    0    0    0 +1.7318189951e+01 +3.2368083345e+01 -5.0533042469e+01 6.2459683539e+01 1.0566000000e-01 0.0000e+00 -1.0000e+00
       22  1    1    0    0    0 -1.5421186458e-01 -8.3842602165e-02 +1.1415452954e-02 1.7590109062e-01 0.0000000000e+00 0.0000e+00 1.0000e+00
</event>
<event>
 4      1 +2.4041262e-06 9.11880000e+01 7.81860800e-03 1.13011600e-01
       25 -1    0    0    0    0 +0.0000000000e+00 +0.0000000000e+00 +9.9999998245e-15 1.2500000000e+02 1.2500000000e+02 0.0000e+00 0.0000e+00
      -13  1    1    0    0    0 -4.5920850629e+01 -1.9434572403e+01 -3.7680370925e+01 6.2499989153e+01 1.0566000000e-01 0.0000e+00 1.0000e+00
       13  1    1    0    0    0 +4.5920601316e+01 +1.9434460668e+01 +3.7680300326e+01 6.2499728666e+01 1.0566000000e-01 0.0000e+00 1.0000e+00
       22  1    1    0    0    0 +2.4931347020e-04 +1.1173512776e-04 +7.0598727244e-05 2.8218101547e-04 0.0000000000e+00 0.0000e+00 -1.0000e+00
</event>
<event>
 4      1 +2.4041262e-06 9.11880000e+01 7.81860800e-03 1.13011600e-01
       25 -1    0    0    0    0 +0.0000000000e+00 +0.0000000000e+00 +9.9999998245e-15 1.2500000000e+02 1.2500000000e+02 0.0000e+00 0.0000e+00
      -13  1    1    0    0    0 +1.0221399157e+01 -1.4513716065e+01 -3.5842735533e+01 3.9997972565e+01 1.0566000000e-01 0.0000e+00 -1.0000e+00
       13  1    1    0    0    0 +1.4194534318e+01 -4.7423107225e+00 -1.7641933823e+01 2.3134893744e+01 1.0566000000e-01 0.0000e+00 1.0000e+00
       22  1    1    0    0    0 -2.4415933475e+01 +1.9256026787e+01 +5.3484669356e+01 6.1867133692e+01 0.0000000000e+00 0.0000e+00 -1.0000e+00
</event>
<event>
 5      1 +2.4041262e-06 9.11880000e+01 7.81860800e-03 1.13011600e-01
       25 -1    0    0    0    0 +0.0000000000e+00 +0.0000000000e+00 +9.9999998245e-15 1.2500000000e+02 1.2500000000e+02 0.0000e+00 0.0000e+00
       23  2    1    0    0    0 -1.9571522624e+01 -2.0913653449e+00 +1.8766061526e+01 9.7804717835e+01 9.3947748556e+01 0.0000e+00 0.0000e+00
      -11  1    2    2    0    0 +6.2875159451e+00 -4.3666894775e+00 +5.3721688636e+01 5.4264359057e+01 5.1100000000e-04 0.0000e+00 1.0000e+00
       11  1    2    2    0    0 -2.5859038569e+01 +2.2753241327e+00 -3.4955627110e+01 4.3540358778e+01 5.1100000000e-04 0.0000e+00 -1.0000e+00
       22  1    1    0    0    0 +1.9571522624e+01 +2.0913653449e+00 -1.8766061526e+01 2.7195282165e+01 0.0000000000e+00 0.0000e+00 -1.0000e+00
</event>
<event>
 4      1 +2.4041262e-06 9.11880000e+01 7.81860800e-03 1.13011600e-01
       25 -1    0    0    0    0 +0.0000000000e+00 +0.0000000000e+00 +9.9999998245e-15 1.2500000000e+02 1.2500000000e+02 0.0000e+00 0.0000e+00
      -13  1    1    0    0    0 +1.9195328748e+01 -5.7957390530e+01 -1.3368464980e+01 6.2499974262e+01 1.0566000000e-01 0.0000e+00 -1.0000e+00
       13  1    1    0    0    0 -1.9185438268e+01 +5.7932416240e+01 +1.3363278362e+01 6.2472668148e+01 1.0566000000e-01 0.0000e+00 -1.0000e+00
       22  1    1    0    0    0 -9.8904797410e-03 +2.4974289758e-02 +5.1866177512e-03 2.7357590211e-02 0.0000000000e+00 0.0000e+00 1.0000e+00
</event>
<event>
 4      1 +2.4041262e-06 9.11880000e+01 7.81860800e-03 1.13011600e-01
       25 -1    0    0    0    0 +0.0000000000e+00 +0.0000000000e+00 +9.9999998245e-15 1.2500000000e+02 1.2500000000e+02 0.0000e+00 0.0000e+00
      -13  1    1    0    0    0 +5.2411235172e+01 +3.3488864961e+01 +6.1479412560e+00 6.2499999954e+01 1.0566000000e-01 0.0000e+00 -1.0000e+00
       13  1    1    0    0    0 -5.2410085112e+01 -3.3488142461e+01 -6.1477952813e+00 6.2498634048e+01 1.0566000000e-01 0.0000e+00 -1.0000e+00
       22  1    1    0    0    0 -1.1500596500e-03 -7.2249922784e-04 -1.4597475602e-04 1.3659981560e-03 0.0000000000e+00 0.0000e+00 -1.0000e+00
</event>
<event>
 4      1 +2.4041262e-06 9.11880000e+01 7.81860800e-03 1.13011600e-01
       25 -1    0    0    0    0 +0.0000000000e+00 +0.0000000000e+00 +9.9999998245e-15 1.2500000000e+02 1.2500000000e+02 0.0000e+00 0.0000e+00
      -13  1    1    0    0    0 -4.3699060094e+01 -3.4331587062e+01 -2.8600228352e+01 6.2499999593e+01 1.0566000000e-01 0.0000e+00 -1.0000e+00
       13  1    1    0    0    0 +4.3638224337e+01 +3.4284197964e+01 +2.8560391318e+01 6.2413203488e+01 1.0566000000e-01 0.0000e+00 -1.0000e+00
       22  1    1    0    0    0 +6.0835756819e-02 +4.7389097529e-02 +3.9837034539e-02 8.6796919261e-02 0.0000000000e+00 0.0000e+00 1.0000e+00
</event>
<event>
 4      1 +2.4041262e-06 9.11880000e+01 7.81860800e-03 1.13011600e-01
       25 -1    0    0    0    0 +0.0000000000e+00 +0.0000000000e+00 +9.9999998245e-15 1.2500000000e+02 1.2500000000e+02 0.0000e+00 0.0000e+00
      -13  1    1    0    0    0 -5.8458235055e+01 +1.3315544794e+01 +1.7651341502e+01 6.2499999998e+01 1.0566000000e-01 0.0000e+00 1.0000e+00
       13  1    1    0    0    0 +5.8458229455e+01 -1.3315543564e+01 -1.7651339591e+01 6.2499993958e+01 1.0566000000e-01 0.0000e+00 1.0000e+00
       22  1    1    0    0    0 +5.6005122401e-06 -1.2297642172e-06 -1.9107548300e-06 6.0439259924e-06 0.0000000000e+00 0.0000e+00 -1.0000e+00
</event>
<event>
 5      1 +2.4041262e-06 9.11880000e+01 7.81860800e-03 1.13011600e-01
       25 -1    0    0    0    0 +0.0000000000e+00 +0.0000000000e+00 +9.9999998245e-15 1.2500000000e+02 1.2500000000e+02 0.0000e+00 0.0000e+00
       23  2    1    0    0    0 +2.0310395363e+01 +1.3383971951e+01 +1.8596775394e+01 9.4381657131e+01 8.9277176719e+01 0.0000e+00 0.0000e+00
      -13  1    2    2    0    0 +4.8494067774e+01 -1.6582859360e+01 +7.7136080746e+00 5.1828339231e+01 1.0566000000e-01 0.0000e+00 1.0000e+00
       13  1    2    2    0    0 -2.8183672412e+01 +2.9966831311e+01 +1.0883167319e+01 4.2553317901e+01 1.0566000000e-01 0.0000e+00 -1.0000e+00
       22  1    1    0    0    0 -2.0310395363e+01 -1.3383971951e+01 -1.8596775394e+01 3.0618342869e+01 0.0000000000e+00 0.0000e+00 1.0000e+00
</event>
<event>
 4      1 +2.4041262e-06 9.11880000e+01 7.81860800e-03 1.13011600e-01
       25 -1    0    0    0    0 +0.0000000000e+00 +0.0000000000e+00 +9.9999998245e-15 1.2500000000e+02 1.2500000000e+02 0.0000e+00 0.0000e+00
      -13  1    1    0    0    0 -5.5767238085e+01 +3.3939576599e+00 -1.2456819401e+01 5.7242355872e+01 1.0566000000e-01 0.0000e+00 1.0000e+00
       13  1    1    0    0    0 +6.0878775311e+01 -3.6177586791e+00 +1.3669548438e+01 6.2499449435e+01 1.0566000000e-01 0.0000e+00 1.0000e+00
       22  1    1    0    0    0 -5.1115372260e+00 +2.2380101920e-01 -1.2127290363e+00 5.2581946926e+00 0.0000000000e+00 0.0000e+00 -1.0000e+00
</event>
<event>
 4      1 +2.4041262e-06 9.11880000e+01 7.81860800e-03 1.13011600e-01
       25 -1    0    0    0    0 +0.0000000000e+00 +0.0000000000e+00 +9.9999998245e-15 1.2500000000e+02 1.2500000000e+02 0.0000e+00 0.0000e+00
      -13  1    1    0    0    0 -3.7199893450e+01 +4.3127173995e+01 -2.5737145673e+01 6.2499576326e+01 1.0566000000e-01 0.0000e+00 1.0000e+00
       13  1    1    0    0    0 +3.7199857195e+01 -4.3127415820e+01 +2.5735995841e+01 6.2499248128e+01 1.0566000000e-01 0.0000e+00 1.0000e+00
       22  1    1    0    0    0 +3.6254896677e-05 +2.4182533028e-04 +1.1498320912e-03 1.1755457225e-03 0.0000000000e+00 0.0000e+00 1.0000e+00
</event>
<event>
 4      1 +2.4041262e-06 9.11880000e+01 7.81860800e-03 1.13011600e-01
       25 -1    0    0    0    0 +0.0000000000e+00 +0.0000000000e+00 +9.9999998245e-15 1.2500000000e+02 1.2500000000e+02 0.0000e+00 0.0000e+00
      -13  1    1    0    0    0 +6.0415476560e+01 -7.0176796426e+00 +1.4386146128e+01 6.2500000000e+01 1.0566000000e-01 0.0000e+00 -1.0000e+00
       13  1    1    0    0    0 -6.0415476432e+01 +7.0176796275e+00 -1.4386146098e+01 6.2499999868e+01 1.0566000000e-01 0.0000e+00 -1.0000e+00
       22  1    1    0    0    0 -1.2769866753e-07 +1.5055418248e-08 -2.9809295390e-08 1.3199321725e-07 0.0000000000e+00 0.0000e+00 1.0000e+00
</event>
<event>
 4      1 +2.4041262e-06 9.11880000e+01 7.81860800e-03 1.13011600e-01
       25 -1    0    0    0    0 +0.0000000000e+00 +0.0000000000e+00 +9.9999998245e-15 1.2500000000e+02 1.2500000000e+02 0.0000e+00 0.0000e+00
      -13  1    1    0    0    0 -2.2877805898e+01 +5.4243606384e+01 +2.0987333569e+01 6.2499937365e+01 1.0566000000e-01 0.0000e+00 -1.0000e+00
       13  1    1    0    0    0 +2.2877828566e+01 -5.4243660755e+01 -2.0987354858e+01 6.2499999999e+01 1.0566000000e-01 0.0000e+00 -1.0000e+00
       22  1    1    0    0    0 -2.2668301596e-05 +5.4370052941e-05 +2.1289211484e-05 6.2635334114e-05 0.0000000000e+00 0.0000e+00 -1.0000e+00
</event>
<event>
 5      1 +2.4041262e-06 9.11880000e+01 7.81860800e-03 1.13011600e-01
       25 -1    0    0    0    0 +0.0000000000e+00 +0.0000000000e+00 +9.9999998245e-15 1.2500000000e+02 1.2500000000e+02 0.0000e+00 0.0000e+00
       23  2    1    0    0    0 -1.0237377842e+01 +2.7453941883e+01 +5.2481680667e+00 9.5233137585e+01 9.0461507815e+01 0.0000e+00 0.0000e+00
      -11  1    2    2    0    0 -2.2193631068e+01 -8.8453295079e+00 +3.8010037420e+01 4.4894989242e+01 5.1100000000e-04 0.0000e+00 1.0000e+00
       11  1    2    2    0    0 +1.1956253226e+01 +3.6299271391e+01 -3.2761869354e+01 5.0338148342e+01 5.1100000000e-04 0.0000e+00 -1.0000e+00
       22  1    1    0    0    0 +1.0237377842e+01 -2.7453941883e+01 -5.2481680667e+00 2.9766862415e+01 0.0000000000e+00 0.0000e+00 -1.0000e+00
</event>
<event>
 4      1 +2.4041262e-06 9.11880000e+01 7.81860800e-03 1.13011600e-01
       25 -1    0    0    0    0 +0.0000000000e+00 +0.0000000000e+00 +9.9999998245e-15 1.2500000000e+02 1.2500000000e+02 0.0000e+00 0.0000e+00
      -13  1    1    0    0    0 -5.9239587252e+01 -1.9794356531e+01 +2.2568978084e+00 6.2500000000e+01 1.0566000000e-01 0.0000e+00 1.0000e+00
       13  1    1    0    0    0 +5.9239587247e+01 +1.9794356530e+01 -2.2568978086e+00 6.2499999996e+01 1.0566000000e-01 0.0000e+00 1.0000e+00
       22  1    1    0    0    0 +4.4102960131e-09 +8.1593281915e-10 +1.9512339193e-10 4.4893797374e-09 0.0000000000e+00 0.0000e+00 1.0000e+00
</event>
<event>
 4      1 +2.4041262e-06 9.11880000e+01 7.81860800e-03 1.13011600e-01
       25 -1    0    0    0    0 +0.0000000000e+00 +0.0000000000e+00 +9.9999998245e-15 1.2500000000e+02 1.2500000000e+02 0.0000e+00 0.0000e+00
      -13  1    1    0    0    0 -4.9997298202e+01 -2.7872420364e+01 +2.5090659299e+01 6.2499231936e+01 1.0566000000e-01 0.0000e+00 -1.0000e+00
       13  1    1    0    0    0 +4.8905498330e+01 +2.7328406629e+01 -2.4586923233e+01 6.1181022661e+01 1.0566000000e-01 0.0000e+00 -1.0000e+00
       22  1    1    0    0    0 +1.0917998719e+00 +5.4401373558e-01 -5.0373606650e-01 1.3197454032e+00 0.0000000000e+00 0.0000e+00 1.0000e+00
</event>
<event>
 4      1 +2.4041262e-06 9.11880000e+01 7.81860800e-03 1.13011600e-01
       25 -1    0    0    0    0 +0.0000000000e+00 +0.0000000000e+00 +9.9999998245e-15 1.2500000000e+02 1.2500000000e+02 0.0000e+00 0.0000e+00
      -13  1    1    0    0    0 +2.5243557037e+01 +5.5785762764e+01 +9.2356757446e+00 6.1924125908e+01 1.0566000000e-01 0.0000e+00 1.0000e+00
       13  1    1    0    0    0 -2.5478412128e+01 -5.6304846091e+01 -9.3195158340e+00 6.2499997738e+01 1.0566000000e-01 0.0000e+00 1.0000e+00
       22  1    1    0    0    0 +2.3485509095e-01 +5.1908332695e-01 +8.3840089334e-02 5.7587635361e-01 0.0000000000e+00 0.0000e+00 -1.0000e+00
</event>
<event>
 4      1 +2.4041262e-06 9.11880000e+01 7.81860800e-03 1.13011600e-01
       25 -1    0    0    0    0 +0.0000000000e+00 +0.0000000000e+00 +9.9999998245e-15 1.2500000000e+02 1.2500000000e+02 0.0000e+00 0.0000e+00
      -13  1    1    0    0    0 +2.0922878990e+01 -3.5506616395e+01 +4.6986192365e+01 6.2499600879e+01 1.0566000000e-01 0.0000e+00 1.0000e+00
       13  1    1    0    0    0 -1.8871907711e+01 +3.1847750649e+01 -4.2160988153e+01 5.6106935472e+01 1.0566000000e-01 0.0000e+00 1.0000e+00
       22  1    1    0    0    0 -2.0509712794e+00 +3.6588657456e+00 -4.8252042123e+00 6.3934636484e+00 0.0000000000e+00 0.0000e+00 -1.0000e+00
</event>
<event>
 4      1 +2.4041262e-06 9.11880000e+01 7.81860800e-03 1.13011600e-01
       25 -1    0    0    0    0 +0.0000000000e+00 +0.0000000000e+00 +9.9999998245e-15 1.2500000000e+02 1.2500000000e+02 0.0000e+00 0.0000e+00
      -13  1    1    0    0    0 -3.0514629995e+01 -1.0937840636e+01 +5.3436502827e+01 6.2499999999e+01 1.0566000000e-01 0.0000e+00 -1.0000e+00
       13  1    1    0    0    0 +3.0514530820e+01 +1.0937805762e+01 -5.3436330254e+01 6.2499797929e+01 1.0566000000e-01 0.0000e+00 -1.0000e+00
       22  1    1    0    0    0 +9.9174714808e-05 +3.4873686477e-05 -1.7257241938e-04 2.0207186344e-04 0.0000000000e+00 0.0000e+00 -1.0000e+00
</event>
<event>
 4      1 +2.4041262e-06 9.11880000e+01 7.81860800e-03 1.13011600e-01
       25 -1    0    0    0    0 +0.0000000000e+00 +0.0000000000e+00 +9.9999998245e-15 1.2500000000e+02 1.2500000000e+02 0.0000e+00 0.0000e+00
      -11  1    1    0    0    0 +3.0053766890e-01 -5.0017630785e-01 +6.7972307626e-01 8.9583645320e-01 5.1100000000e-04 0.0000e+00 1.0000e+00
       11  1    1    0    0    0 +2.0886418652e+01 -3.4370474869e+01 +4.6663704763e+01 6.1604166817e+01 5.1100000000e-04 0.0000e+00 -1.0000e+00
       22  1    1    0    0    0 -2.1186956321e+01 +3.4870651177e+01 -4.7343427839e+01 6.2499996729e+01 0.0000000000e+00 0.0000e+00 -1.0000e+00
</event>
<event>
 4      1 +2.4041262e-06 9.11880000e+01 7.81860800e-03 1.13011600e-01
       25 -1    0    0    0    0 +0.0000000000e+00 +0.0000000000e+00 +9.9999998245e-15 1.2500000000e+02 1.2500000000e+02 0.0000e+00 0.0000e+00
      -13  1    1    0    0    0 -3.9379975450e+01 +7.9358198596e+00 -4.7879840566e+01 6.2499999999e+01 1.0566000000e-01 0.0000e+00 1.0000e+00
       13  1    1    0    0    0 +3.9379975349e+01 -7.9358198502e+00 +4.7879840414e+01 6.2499999818e+01 1.0566000000e-01 0.0000e+00 1.0000e+00
       22  1    1    0    0    0 +1.0087897907e-07 -9.4803882015e-09 +1.5186882967e-07 1.8256666619e-07 0.0000000000e+00 0.0000e+00 1.0000e+00
</event>
<event>
 5      1 +2.4041262e-06 9.11880000e+01 7.81860800e-03 1.13011600e-01
       25 -1    0    0    0    0 +0.0000000000e+00 +0.0000000000e+00 +9.9999998245e-15 1.2500000000e+02 1.2500000000e+02 0.0000e+00 0.0000e+00
       23  2    1    0    0    0 -1.3843758064e+01 +1.9764733022e+01 -1.3403578211e+01 9.7396554243e+01 9.3403097169e+01 0.0000e+00 0.0000e+00
      -13  1    2    2    0    0 +6.3637222538e-01 +3.5218495611e+01 +3.1814416868e+01 4.7464888996e+01 1.0566000000e-01 0.0000e+00 1.0000e+00
       13  1    2    2    0    0 -1.4480130289e+01 -1.5453762589e+01 -4.5217995079e+01 4.9931665247e+01 1.0566000000e-01 0.0000e+00 -1.0000e+00
       22  1    1    0    0    0 +1.3843758064e+01 -1.9764733022e+01 +1.3403578211e+01 2.7603445757e+01 0.0000000000e+00 0.0000e+00 -1.0000e+00
</event>
<event>
 4      1 +2.4041262e-06 9.11880000e+01 7.81860800e-03 1.13011600e-01
       25 -1    0    0    0    0 +0.0000000000e+00 +0.0000000000e+00 +9.9999998245e-15 1.2500000000e+02 1.2500000000e+02 0.0000e+00 0.0000e+00
      -13  1    1    0    0    0 +1.2630478059e+01 -4.8391291233e+01 -3.6996140805e+01 6.2209096133e+01 1.0566000000e-01 0.0000e+00 1.0000e+00
       13  1    1    0    0    0 -1.3240469388e+01 +3.8706239716e+01 +3.1562490468e+01 5.1668994485e+01 1.0566000000e-01 0.0000e+00 1.0000e+00
       22  1    1    0    0    0 +6.0999132925e-01 +9.6850515173e+00 +5.4336503371e+00 1.1121909382e+01 0.0000000000e+00 0.0000e+00 1.0000e+00
</event>
<event>
 4      1 +2.4041262e-06 9.11880000e+01 7.81860800e-03 1.13011600e-01
       25 -1    0    0    0    0 +0.0000000000e+00 +0.0000000000e+00 +9.9999998245e-15 1.2500000000e+02 1.2500000000e+02 0.0000e+00 0.0000e+00
      -13  1    1    0    0    0 -3.0678656083e+01 +3.6904859974e+01 -4.0038608846e+01 6.2499999930e+01 1.0566000000e-01 0.0000e+00 -1.0000e+00
       13  1    1    0    0    0 +3.0678656167e+01 -3.6904859933e+01 +4.0038608884e+01 6.2499999970e+01 1.0566000000e-01 0.0000e+00 -1.0000e+00
       22  1    1    0    0    0 -8.3506359958e-08 -4.1742266795e-08 -3.7269299563e-08 1.0052228449e-07 0.0000000000e+00 0.0000e+00 -1.0000e+00
</event>
<event>
 5      1 +2.4041262e-06 9.11880000e+01 7.81860800e-03 1.13011600e-01
       25 -1    0    0    0    0 +0.0000000000e+00 +0.0000000000e+00 +9.9999998245e-15 1.2500000000e+02 1.2500000000e+02 0.0000e+00 0.0000e+00
       23  2    1    0    0    0 -2.2571167091e+01 -3.6342571057e+00 -1.7953926491e+01 9.5930963466e+01 9.1420680738e+01 0.0000e+00 0.0000e+00
      -13  1    2    2    0    0 +6.0255340077e+00 -4.1491572093e+01 +6.7073408346e+00 4.2460065943e+01 1.0566000000e-01 0.0000e+00 1.0000e+00
       13  1    2    2    0    0 -2.8596701099e+01 +3.7857314987e+01 -2.4661267326e+01 5.3470897523e+01 1.0566000000e-01 0.0000e+00 -1.0000e+00
       22  1    1    0    0    0 +2.2571167091e+01 +3.6342571057e+00 +1.7953926491e+01 2.9069036534e+01 0.0000000000e+00 0.0000e+00 -1.0000e+00
</event>
<event>
 4      1 +2.4041262e-06 9.11880000e+01 7.81860800e-03 1.13011600e-01
       25 -1    0    0    0    0 +0.0000000000e+00 +0.0000000000e+00 +9.9999998245e-15 1.2500000000e+02 1.2500000000e+02 0.0000e+00 0.0000e+00
      -13  1    1    0    0    0 +3.5104406095e+01 +3.4152602622e+01 +2.4911456737e+01 5.4948261428e+01 1.0566000000e-01 0.0000e+00 1.0000e+00
       13  1    1    0    0    0 -3.9918909642e+01 -3.8905575863e+01 -2.8267384959e+01 6.2499755173e+01 1.0566000000e-01 0.0000e+00 1.0000e+00
       22  1    1    0    0    0 +4.8145035467e+00 +4.7529732412e+00 +3.3559282220e+00 7.5519833993e+00 0.0000000000e+00 0.0000e+00 -1.0000e+00
</event>
<event>
 4      1 +2.4041262e-06 9.11880000e+01 7.81860800e-03 1.13011600e-01
       25 -1    0    0    0    0 +0.0000000000e+00 +0.0000000000e+00 +9.9999998245e-15 1.2500000000e+02 1.2500000000e+02 0.0000e+00 0.0000e+00
      -13  1    1    0    0    0 +3.8495297862e+01 -4.9019259952e+01 -4.6178963188e+00 6.2498895464e+01 1.0566000000e-01 0.0000e+00 1.0000e+00
       13  1    1    0    0    0 -3.8496035265e+01 +4.9020087698e+01 +4.6178306471e+00 6.2499994023e+01 1.0566000000e-01 0.0000e+00 1.0000e+00
       22  1    1    0    0    0 +7.3740248558e-04 -8.2774551926e-04 +6.5671691304e-05 1.1105124229e-03 0.0000000000e+00 0.0000e+00 -1.0000e+00
</event>
<event>
 5      1 +2.4041262e-06 9.11880000e+01 7.81860800e-03 1.13011600e-01
       25 -1    0    0    0    0 +0.0000000000e+00 +0.0000000000e+00 +9.9999998245e-15 1.2500000000e+02 1.2500000000e+02 0.0000e+00 0.0000e+00
       23  2    1    0    0    0 -8.9222013205e+00 +1.9090960517e+01 -1.8092740467e+01 9.7225592581e+01 9.3174020763e+01 0.0000e+00 0.0000e+00
      -11  1    2    2    0    0 +6.3630251029e+00 -3.6481409493e+01 -7.6125652928e-01 3.7039989725e+01 5.1100000000e-04 0.0000e+00 1.0000e+00
       11  1    2    2    0    0 -1.5285226423e+01 +5.5572370010e+01 -1.7331483938e+01 6.0185602856e+01 5.1100000000e-04 0.0000e+00 -1.0000e+00
       22  1    1    0    0    0 +8.9222013205e+00 -1.9090960517e+01 +1.8092740467e+01 2.7774407419e+01 0.0000000000e+00 0.0000e+00 -1.0000e+00
</event>
<event>
 4      1 +2.4041262e-06 9.11880000e+01 7.81860800e-03 1.13011600e-01
       25 -1    0    0    0    0 +0.0000000000e+00 +0.0000000000e+00 +9.9999998245e-15 1.2500000000e+02 1.2500000000e+02 0.0000e+00 0.0000e+00
      -13  1    1    0    0    0 -5.7945008462e+01 -2.2112396710e+01 -7.7237773680e+00 6.2499999958e+01 1.0566000000e-01 0.0000e+00 -1.0000e+00
       13  1    1    0    0    0 +5.7945008502e+01 +2.2112396722e+01 +7.7237773694e+00 6.2500000000e+01 1.0566000000e-01 0.0000e+00 -1.0000e+00
       22  1    1    0    0    0 -3.9934358158e-08 -1.2020278213e-08 -1.4106979423e-09 4.1728049541e-08 0.0000000000e+00 0.0000e+00 1.0000e+00
</event>
<event>
 4      1 +2.4041262e-06 9.11880000e+01 7.81860800e-03 1.13011600e-01
       25 -1    0    0    0    0 +0.0000000000e+00 +0.0000000000e+00 +9.9999998245e-15 1.2500000000e+02 1.2500000000e+02 0.0000e+00 0.0000e+00
      -13  1    1    0    0    0 -5.8971886564e+01 +1.8343069985e+01 +2.0540087773e+00 6.1793055738e+01 1.0566000000e-01 0.0000e+00 1.0000e+00
       13  1    1    0    0    0 +5.9608834334e+01 -1.8369314020e+01 -2.5060576786e+00 6.2425446072e+01 1.0566000000e-01 0.0000e+00 1.0000e+00
       22  1    1    0    0    0 -6.3694777033e-01 +2.6244034214e-02 +4.5204890129e-01 7.8149818977e-01 0.0000000000e+00 0.0000e+00 -1.0000e+00
</event>
<event>
 4      1 +2.4041262e-06 9.11880000e+01 7.81860800e-03 1.13011600e-01
       25 -1    0    0    0    0 +0.0000000000e+00 +0.0000000000e+00 +9.9999998245e-15 1.2500000000e+02 1.2500000000e+02 0.0000e+00 0.0000e+00
      -13  1    1    0    0    0 -4.3641441965e+01 -1.7650850709e+01 +4.1110936206e+01 6.2499985819e+01 1.0566000000e-01 0.0000e+00 -1.0000e+00
       13  1    1    0    0    0 +4.3641451377e+01 +1.7650853065e+01 -4.1110946651e+01 6.2499999926e+01 1.0566000000e-01 0.0000e+00 -1.0000e+00
       22  1    1    0    0    0 -9.4117012912e-06 -2.3560046060e-06 +1.0444596955e-05 1.4255542236e-05 0.0000000000e+00 0.0000e+00 1.0000e+00
</event>
<event>
 4      1 +2.4041262e-06 9.11880000e+01 7.81860800e-03 1.13011600e-01
       25 -1    0    0    0    0 +0.0000000000e+00 +0.0000000000e+00 +9.9999998245e-15 1.2500000000e+02 1.2500000000e+02 0.0000e+00 0.0000e+00
      -13  1    1    0    0    0 +2.9350664867e+01 -2.9442469538e+01 -4.6591544608e+01 6.2442803698e+01 1.0566000000e-01 0.0000e+00 -1.0000e+00
       13  1    1    0    0    0 -2.9383195093e+01 +2.9460332872e+01 +4.6635734182e+01 6.2499489866e+01 1.0566000000e-01 0.0000e+00 -1.0000e+00
       22  1    1    0    0    0 +3.2530225849e-02 -1.7863333583e-02 -4.4189574540e-02 5.7706436197e-02 0.0000000000e+00 0.0000e+00 -1.0000e+00
</event>
<event>
 5      1 +2.4041262e-06 9.11880000e+01 7.81860800e-03 1.13011600e-01
       25 -1    0    0    0    0 +0.0000000000e+00 +0.0000000000e+00 +9.9999998245e-15 1.2500000000e+02 1.2500000000e+02 0.0000e+00 0.0000e+00
       23  2    1    0    0    0 -1.2114377993e+01 +3.5747140483e+01 +7.2573124667e+00 8.6564537324e+01 7.7563743663e+01 0.0000e+00 0.0000e+00
      -13  1    2    2    0    0 -1.6335066488e+01 +5.8314974230e+01 +1.4901348115e+01 6.2366112243e+01 1.0566000000e-01 0.0000e+00 -1.0000e+00
       13  1    2    2    0    0 +4.2206884949e+00 -2.2567833746e+01 -7.6440356486e+00 2.4198425081e+01 1.0566000000e-01 0.0000e+00 -1.0000e+00
       22  1    1    0    0    0 +1.2114377993e+01 -3.5747140483e+01 -7.2573124667e+00 3.8435462676e+01 0.0000000000e+00 0.0000e+00 -1.0000e+00
</event>
<event>
 4      1 +2.4041262e-06 9.11880000e+01 7.81860800e-03 1.13011600e-01
       25 -1    0    0    0    0 +0.0000000000e+00 +0.0000000000e+00 +9.9999998245e-15 1.2500000000e+02 1.2500000000e+02 0.0000e+00 0.0000e+00
      -13  1    1    0    0    0 +8.1773520916e+00 -9.4229577326e-01 +1.9838428658e+00 8.4678099356e+00 1.0566000000e-01 0.0000e+00 -1.0000e+00
       13  1    1    0    0    0 +5.2887975555e+01 -3.0787717127e+00 +1.0666624840e+01 5.4040770193e+01 1.0566000000e-01 0.0000e+00 1.0000e+00
       22  1    1    0    0    0 -6.1065327647e+01 +4.0210674859e+00 -1.2650467706e+01 6.2491419871e+01 0.0000000000e+00 0.0000e+00 1.0000e+00
</event>
<event>
 5      1 +2.4041262e-06 9.11880000e+01 7.81860800e-03 1.13011600e-01
       25 -1    0    0    0    0 +0.0000000000e+00 +0.0000000000e+00 +9.9999998245e-15 1.2500000000e+02 1.2500000000e+02 0.0000e+00 0.0000e+00
       23  2    1    0    0    0 -2.5242397621e+01 +7.0521905637e-01 -1.2655973741e+01 9.6753767633e+01 9.2538867014e+01 0.0000e+00 0.0000e+00
      -11  1    2    2    0    0 +1.5207989373e+01 -1.2686441651e+01 +3.0332968834e+01 3.6225926366e+01 5.1100000000e-04 0.0000e+00 -1.0000e+00
       11  1    2    2    0    0 -4.0450386994e+01 +1.3391660708e+01 -4.2988942575e+01 6.0527841267e+01 5.1100000000e-04 0.0000e+00 1.0000e+00
       22  1    1    0    0    0 +2.5242397621e+01 -7.0521905637e-01 +1.2655973741e+01 2.8246232367e+01 0.0000000000e+00 0.0000e+00 1.0000e+00
</event>
<event>
 4      1 +2.4041262e-06 9.11880000e+01 7.81860800e-03 1.13011600e-01
       25 -1    0    0    0    0 +0.0000000000e+00 +0.0000000000e+00 +9.9999998245e-15 1.2500000000e+02 1.2500000000e+02 0.0000e+00 0.0000e+00
      -11  1    1    0    0    0 -1.7126332774e+01 -8.6544100128e+00 -4.8106433932e+00 1.9782628164e+01 5.1100000000e-04 0.0000e+00 1.0000e+00
       11  1    1    0    0    0 -3.7275857577e+01 -1.7735825411e+01 -1.0997305407e+01 4.2719899199e+01 5.1100000000e-04 0.0000e+00 -1.0000e+00
       22  1    1    0    0    0 +5.4402190351e+01 +2.6390235424e+01 +1.5807948800e+01 6.2497472637e+01 0.0000000000e+00 0.0000e+00 -1.0000e+00
</event>
<event>
 4      1 +2.4041262e-06 9.11880000e+01 7.81860800e-03 1.13011600e-01
       25 -1    0    0    0    0 +0.0000000000e+00 +0.0000000000e+00 +9.9999998245e-15 1.2500000000e+02 1.2500000000e+02 0.0000e+00 0.0000e+00
      -13  1    1    0    0    0 -3.9668931973e+01 +8.3559556413e+00 -4.1126785261e+01 5.7748331478e+01 1.0566000000e-01 0.0000e+00 -1.0000e+00
       13  1    1    0    0    0 +4.0464139134e+01 -8.9912780652e+00 +4.6204471492e+01 6.2072973080e+01 1.0566000000e-01 0.0000e+00 -1.0000e+00
       22  1    1    0    0    0 -7.9520716102e-01 +6.3532242390e-01 -5.0776862317e+00 5.1786954418e+00 0.0000000000e+00 0.0000e+00 -1.0000e+00
</event>
<event>
 5      1 +2.4041262e-06 9.11880000e+01 7.81860800e-03 1.13011600e-01
       25 -1    0    0    0    0 +0.0000000000e+00 +0.0000000000e+00 +9.9999998245e-15 1.2500000000e+02 1.2500000000e+02 0.0000e+00 0.0000e+00
       23  2    1    0    0    0 -2.8656371490e+01 +3.2429535824e-01 +3.5499573023e+00 9.6122759978e+01 9.1682550109e+01 0.0000e+00 0.0000e+00
      -13  1    2    2    0    0 -4.3284650389e+01 -3.6380263137e+01 +1.7834302271e+00 5.6570984546e+01 1.0566000000e-01 0.0000e+00 1.0000e+00
       13  1    2    2    0    0 +1.4628278899e+01 +3.6704558495e+01 +1.7665270752e+00 3.9551775431e+01 1.0566000000e-01 0.0000e+00 -1.0000e+00
       22  1    1    0    0    0 +2.8656371490e+01 -3.2429535824e-01 -3.5499573023e+00 2.8877240022e+01 0.0000000000e+00 0.0000e+00 -1.0000e+00
</event>
<event>
 4      1 +2.4041262e-06 9.11880000e+01 7.81860800e-03 1.13011600e-01
       25 -1    0    0    0    0 +0.0000000000e+00 +0.0000000000e+00 +9.9999998245e-15 1.2500000000e+02 1.2500000000e+02 0.0000e+00 0.0000e+00
      -11  1    1    0    0    0 -4.5421477290e+00 -1.2746489264e+01 -5.7355702165e+00 1.4696967732e+01 5.1100000000e-04 0.0000e+00 1.0000e+00
       11  1    1    0    0    0 -1.7045063485e+01 -3.7513423483e+01 +2.9487916012e+01 5.0668810145e+01 5.1100000000e-04 0.0000e+00 -1.0000e+00
       22  1    1    0    0    0 +2.1587211214e+01 +5.0259912747e+01 -2.3752345795e+01 5.9634222122e+01 0.0000000000e+00 0.0000e+00 -1.0000e+00
</event>
<event>
 5      1 +2.4041262e-06 9.11880000e+01 7.81860800e-03 1.13011600e-01
       25 -1    0    0    0    0 +0.0000000000e+00 +0.0000000000e+00 +9.9999998245e-15 1.2500000000e+02 1.2500000000e+02 0.0000e+00 0.0000e+00
       23  2    1    0    0    0 +2.4559045465e+01 -1.6085364215e+01 -1.9653450332e+00 9.5576399996e+01 9.0934591873e+01 0.0000e+00 0.0000e+00
      -13  1    2    2    0    0 +5.7855281878e+01 -2.1168563171e+01 -4.6867760848e+00 6.1784453886e+01 1.0566000000e-01 0.0000e+00 1.0000e+00
       13  1    2    2    0    0 -3.3296236413e+01 +5.0831989569e+00 +2.7214310516e+00 3.3791946110e+01 1.0566000000e-01 0.0000e+00 -1.0000e+00
       22  1    1    0    0    0 -2.4559045465e+01 +1.6085364215e+01 +1.9653450332e+00 2.9423600004e+01 0.0000000000e+00 0.0000e+00 1.0000e+00
</event>
<event>
 4      1 +2.4041262e-06 9.11880000e+01 7.81860800e-03 1.13011600e-01
       25 -1    0    0    0    0 +0.0000000000e+00 +0.0000000000e+00 +9.9999998245e-15 1.2500000000e+02 1.2500000000e+02 0.0000e+00 0.0000e+00
      -13  1    1    0    0    0 +2.6303415382e+01 +4.7856569726e+01 -3.0399307460e+01 6.2499999878e+01 1.0566000000e-01 0.0000e+00 1.0000e+00
       13  1    1    0    0    0 -2.6303415433e+01 -4.7856569819e+01 +3.0399307520e+01 6.2500000000e+01 1.0566000000e-01 0.0000e+00 1.0000e+00
       22  1    1    0    0    0 +5.1491865005e-08 +9.2779986109e-08 -5.9799042439e-08 1.2180091732e-07 0.0000000000e+00 0.0000e+00 -1.0000e+00
</event>
<event>
 5      1 +2.4041262e-06 9.11880000e+01 7.81860800e-03 1.13011600e-01
       25 -1    0    0    0    0 +0.0000000000e+00 +0.0000000000e+00 +9.9999998245e-15 1.2500000000e+02 1.2500000000e+02 0.0000e+00 0.0000e+00
       23  2    1    0    0    0 +2.6582145303e+01 +4.3800567029e+00 -1.2561267438e+01 9.5274913200e+01 9.0519215087e+01 0.0000e+00 0.0000e+00
      -13  1    2    2    0    0 +2.2267047985e+01 -1.7241928354e+01 +3.3765739479e+01 4.3968646169e+01 1.0566000000e-01 0.0000e+00 -1.0000e+00
       13  1    2    2    0    0 +4.3150973184e+00 +2.1621985057e+01 -4.6327006917e+01 5.1306267031e+01 1.0566000000e-01 0.0000e+00 1.0000e+00
       22  1    1    0    0    0 -2.6582145303e+01 -4.3800567029e+00 +1.2561267438e+01 2.9725086800e+01 0.0000000000e+00 0.0000e+00 1.0000e+00
</event>
<event>
 4      1 +2.4041262e-06 9.11880000e+01 7.81860800e-03 1.13011600e-01
       25 -1    0    0    0    0 +0.0000000000e+00 +0.0000000000e+00 +9.9999998245e-15 1.2500000000e+02 1.2500000000e+02 0.0000e+00 0.0000e+00
      -13  1    1    0    0    0 +5.0128739293e+01 +3.4474039700e+01 -1.4277828825e+01 6.2491739264e+01 1.0566000000e-01 0.0000e+00 1.0000e+00
       13  1    1    0    0    0 -5.0128159179e+01 -3.4485047412e+01 +1.4273104440e+01 6.2496267985e+01 1.0566000000e-01 0.0000e+00 1.0000e+00
       22  1    1    0    0    0 -5.8011390756e-04 +1.1007711962e-02 +4.7243849574e-03 1.1992750644e-02 0.0000000000e+00 0.0000e+00 1.0000e+00
</event>
<event>
 4      1 +2.4041262e-06 9.11880000e+01 7.81860800e-03 1.13011600e-01
       25 -1    0    0    0    0 +0.0000000000e+00 +0.0000000000e+00 +9.9999998245e-15 1.2500000000e+02 1.2500000000e+02 0.0000e+00 0.0000e+00
      -13  1    1    0    0    0 +1.2187019145e+01 -1.0685927709e+01 -6.0361607483e+01 6.2499978469e+01 1.0566000000e-01 0.0000e+00 1.0000e+00
       13  1    1    0    0    0 -1.2173472046e+01 +1.0676870151e+01 +6.0304433636e+01 6.2440570610e+01 1.0566000000e-01 0.0000e+00 1.0000e+00
       22  1    1    0    0    0 -1.3547098770e-02 +9.0575580967e-03 +5.7173847305e-02 5.9450921434e-02 0.0000000000e+00 0.0000e+00 1.0000e+00
</event>
<event>
 4      1 +2.4041262e-06 9.11880000e+01 7.81860800e-03 1.13011600e-01
       25 -1    0    0    0    0 +0.0000000000e+00 +0.0000000000e+00 +9.9999998245e-15 1.2500000000e+02 1.2500000000e+02 0.0000e+00 0.0000e+00
      -11  1    1    0    0    0 -2.0541469238e+00 +1.8832674829e+01 +5.9152061094e+00 1.9846380637e+01 5.1100000000e-04 0.0000e+00 1.0000e+00
       11  1    1    0    0    0 -4.4189636895e+00 +4.0471499098e+01 +1.2722491302e+01 4.2653619595e+01 5.1100000000e-04 0.0000e+00 -1.0000e+00
       22  1    1    0    0    0 +6.4731106133e+00 -5.9304173928e+01 -1.8637697411e+01 6.2499999768e+01 0.0000000000e+00 0.0000e+00 -1.0000e+00
</event>
<event>
 4      1 +2.4041262e-06 9.11880000e+01 7.81860800e-03 1.13011600e-01
       25 -1    0    0    0    0 +0.0000000000e+00 +0.0000000000e+00 +9.9999998245e-15 1.2500000000e+02 1.2500000000e+02 0.0000e+00 0.0000e+00
      -13  1    1    0    0    0 -2.2913609616e+01 +4.4437149518e+01 +3.7493983542e+01 6.2494029546e+01 1.0566000000e-01 0.0000e+00 -1.0000e+00
       13  1    1    0    0    0 +2.2702732071e+01 -4.4140587039e+01 -3.7099368883e+01 6.1969184303e+01 1.0566000000e-01 0.0000e+00 -1.0000e+00
       22  1    1    0    0    0 +2.1087754527e-01 -2.9656247922e-01 -3.9461465955e-01 5.3678615175e-01 0.0000000000e+00 0.0000e+00 1.0000e+00
</event>
<event>
 4      1 +2.4041262e-06 9.11880000e+01 7.81860800e-03 1.13011600e-01
       25 -1    0    0    0    0 +0.0000000000e+00 +0.0000000000e+00 +9.9999998245e-15 1.2500000000e+02 1.2500000000e+02 0.0000e+00 0.0000e+00
      -13  1    1    0    0    0 -1.2023399547e+01 +2.7424073099e+01 +5.4859793226e+01 6.2499999991e+01 1.0566000000e-01 0.0000e+00 1.0000e+00
       13  1    1    0    0    0 +1.2023307250e+01 -2.7423869444e+01 -5.4859377403e+01 6.2499527883e+01 1.0566000000e-01 0.0000e+00 1.0000e+00
       22  1    1    0    0    0 +9.2296171058e-05 -2.0365506664e-04 -4.1582344452e-04 4.7212615515e-04 0.0000000000e+00 0.0000e+00 1.0000e+00
</event>
<event>
 4      1 +2.4041262e-06 9.11880000e+01 7.81860800e-03 1.13011600e-01
       25 -1    0    0    0    0 +0.0000000000e+00 +0.0000000000e+00 +9.9999998245e-15 1.2500000000e+02 1.2500000000e+02 0.0000e+00 0.0000e+00
      -13  1    1    0    0    0 -3.9771545957e+01 -1.0093494528e+01 -3.8287064987e+01 5.6120985460e+01 1.0566000000e-01 0.0000e+00 1.0000e+00
       13  1    1    0    0    0 +4.5287337139e+01 +1.0293773022e+01 +4.1677557255e+01 6.2401399110e+01 1.0566000000e-01 0.0000e+00 1.0000e+00
       22  1    1    0    0    0 -5.5157911823e+00 -2.0027849405e-01 -3.3904922674e+00 6.4776154299e+00 0.0000000000e+00 0.0000e+00 -1.0000e+00
</event>
<event>
 4      1 +2.4041262e-06 9.11880000e+01 7.81860800e-03 1.13011600e-01
       25 -1    0    0    0    0 +0.0000000000e+00 +0.0000000000e+00 +9.9999998245e-15 1.2500000000e+02 1.2500000000e+02 0.0000e+00 0.0000e+00
      -13  1    1    0    0    0 +2.0331535976e+01 -2.5990445435e+01 +1.7618985923e+01 3.7407411539e+01 1.0566000000e-01 0.0000e+00 1.0000e+00
       13  1    1    0    0    0 +1.1834452856e+01 -1.6178201398e+01 +1.5259185536e+01 2.5192109521e+01 1.0566000000e-01 0.0000e+00 -1.0000e+00
       22  1    1    0    0    0 -3.2165988832e+01 +4.2168646834e+01 -3.2878171459e+01 6.2400478939e+01 0.0000000000e+00 0.0000e+00 1.0000e+00
</event>
<event>
 4      1 +2.4041262e-06 9.11880000e+01 7.81860800e-03 1.13011600e-01
       25 -1    0    0    0    0 +0.0000000000e+00 +0.0000000000e+00 +9.9999998245e-15 1.2500000000e+02 1.2500000000e+02 0.0000e+00 0.0000e+00
      -13  1    1    0    0    0 -2.8300909654e+01 -5.4581353380e+01 +1.0787108856e+01 6.2421458694e+01 1.0566000000e-01 0.0000e+00 -1.0000e+00
       13  1    1    0    0    0 +2.8333188192e+01 +5.4652346797e+01 -1.0797167157e+01 6.2499908369e+01 1.0566000000e-01 0.0000e+00 -1.0000e+00
       22  1    1    0    0    0 -3.2278538216e-02 -7.0993416856e-02 +1.0058301438e-02 7.8632936446e-02 0.0000000000e+00 0.0000e+00 1.0000e+00
</event>
<event>
 4      1 +2.4041262e-06 9.11880000e+01 7.81860800e-03 1.13011600e-01
       25 -1    0    0    0    0 +0.0000000000e+00 +0.0000000000e+00 +9.9999998245e-15 1.2500000000e+02 1.2500000000e+02 0.0000e+00 0.0000e+00
      -13  1    1    0    0    0 +1.3907158412e+01 -1.5785292031e+00 +4.9635047416e+01 5.1570824170e+01 1.0566000000e-01 0.0000e+00 1.0000e+00
       13  1    1    0    0    0 +3.6323588894e+00 -4.2534191577e-01 +1.0309352696e+01 1.0939326483e+01 1.0566000000e-01 0.0000e+00 -1.0000e+00
       22  1    1    0    0    0 -1.7539517301e+01 +2.0038711189e+00 -5.9944400112e+01 6.2489849347e+01 0.0000000000e+00 0.0000e+00 1.0000e+00
</event>
<event>
 4      1 +2.4041262e-06 9.11880000e+01 7.81860800e-03 1.13011600e-01
       25 -1    0    0    0    0 +0.0000000000e+00 +0.0000000000e+00 +9.9999998245e-15 1.2500000000e+02 1.2500000000e+02 0.0000e+00 0.0000e+00
      -13  1    1    0    0    0 -1.4324568283e+01 +1.9975572163e+01 -5.7463221010e+01 6.2499997381e+01 1.0566000000e-01 0.0000e+00 -1.0000e+00
       13  1    1    0    0    0 +1.4324575280e+01 -1.9975545218e+01 +5.7463183683e+01 6.2499956054e+01 1.0566000000e-01 0.0000e+00 -1.0000e+00
       22  1    1    0    0    0 -6.9977411408e-06 -2.6944764616e-05 +3.7326868233e-05 4.6564834515e-05 0.0000000000e+00 0.0000e+00 1.0000e+00
</event>
<event>
 5      1 +2.4041262e-06 9.11880000e+01 7.81860800e-03 1.13011600e-01
       25 -1    0    0    0    0 +0.0000000000e+00 +0.0000000000e+00 +9.9999998245e-15 1.2500000000e+02 1.2500000000e+02 0.0000e+00 0.0000e+00
       23  2    1    0    0    0 +4.0043907968e-01 -1.9761456524e+01 +2.0806297941e+01 9.6301959136e+01 9.1926545589e+01 0.0000e+00 0.0000e+00
      -13  1    2    2    0    0 -2.9105921839e+00 -3.0115145007e+01 -3.1029467418e+01 4.3338580018e+01 1.0566000000e-01 0.0000e+00 1.0000e+00
       13  1    2    2    0    0 +3.3110312636e+00 +1.0353688483e+01 +5.1835765359e+01 5.2963379118e+01 1.0566000000e-01 0.0000e+00 -1.0000e+00
       22  1    1    0    0    0 -4.0043907968e-01 +1.9761456524e+01 -2.0806297941e+01 2.8698040864e+01 0.0000000000e+00 0.0000e+00 1.0000e+00
</event>
<event>
 4      1 +2.4041262e-06 9.11880000e+01 7.81860800e-03 1.13011600e-01
       25 -1    0    0    0    0 +0.0000000000e+00 +0.0000000000e+00 +9.9999998245e-15 1.2500000000e+02 1.2500000000e+02 0.0000e+00 0.0000e+00
      -13  1    1    0    0    0 +2.4976043865e+01 -3.1830476963e+01 -4.7636716973e+01 6.2499999991e+01 1.0566000000e-01 0.0000e+00 -1.0000e+00
       13  1    1    0    0    0 -2.4976042607e+01 +3.1830475603e+01 +4.7636714312e+01 6.2499996767e+01 1.0566000000e-01 0.0000e+00 -1.0000e+00
       22  1    1    0    0    0 -1.2573420277e-06 +1.3599460918e-06 +2.6609410801e-06 3.2420625810e-06 0.0000000000e+00 0.0000e+00 1.0000e+00
</event>
<event>
 4      1 +2.4041262e-06 9.11880000e+01 7.81860800e-03 1.13011600e-01
       25 -1    0    0    0    0 +0.0000000000e+00 +0.0000000000e+00 +9.9999998245e-15 1.2500000000e+02 1.2500000000e+02 0.0000e+00 0.0000e+00
      -11  1    1    0    0    0 -2.3875663184e+00 -4.4833632048e-01 -1.8422881606e+00 3.0488529497e+00 5.1100000000e-04 0.0000e+00 -1.0000e+00
       11  1    1    0    0    0 -4.6546205056e+01 -8.7136574278e+00 -3.5943871377e+01 5.9451147346e+01 5.1100000000e-04 0.0000e+00 1.0000e+00
       22  1    1    0    0    0 +4.8933771375e+01 +9.1619937482e+00 +3.7786159538e+01 6.2499999704e+01 0.0000000000e+00 0.0000e+00 1.0000e+00
</event>
<event>
 4      1 +2.4041262e-06 9.11880000e+01 7.81860800e-03 1.13011600e-01
       25 -1    0    0    0    0 +0.0000000000e+00 +0.0000000000e+00 +9.9999998245e-15 1.2500000000e+02 1.2500000000e+02 0.0000e+00 0.0000e+00
      -13  1    1    0    0    0 -2.8074756241e+01 +4.1382827848e+01 +2.5184385565e+01 5.5991024451e+01 1.0566000000e-01 0.0000e+00 1.0000e+00
       13  1    1    0    0    0 +3.4390747994e+01 -4.5051407128e+01 -2.4241457166e+01 6.1644239320e+01 1.0566000000e-01 0.0000e+00 1.0000e+00
       22  1    1    0    0    0 -6.3159917526e+00 +3.6685792802e+00 -9.4292839929e-01 7.3647362289e+00 0.0000000000e+00 0.0000e+00 -1.0000e+00
</event>
<event>
 5      1 +2.4041262e-06 9.11880000e+01 7.81860800e-03 1.13011600e-01
       25 -1    0    0    0    0 +0.0000000000e+00 +0.0000000000e+00 +9.9999998245e-15 1.2500000000e+02 1.2500000000e+02 0.0000e+00 0.0000e+00
       23  2    1    0    0    0 -9.7417451054e+00 +2.5482362234e+01 -1.2181109324e+01 9.5123055593e+01 9.0309268064e+01 0.0000e+00 0.0000e+00
      -11  1    2    2    0    0 +7.2815704388e+00 -7.2997112108e+00 -4.4722124220e+01 4.5895266061e+01 5.1100000000e-04 0.0000e+00 -1.0000e+00
       11  1    2    2    0    0 -1.7023315544e+01 +3.2782073445e+01 +3.2541014896e+01 4.9227789532e+01 5.1100000000e-04 0.0000e+00 1.0000e+00
       22  1    1    0    0    0 +9.7417451054e+00 -2.5482362234e+01 +1.2181109324e+01 2.9876944407e+01 0.0000000000e+00 0.0000e+00 1.0000e+00
</event>
<event>
 4      1 +2.4041262e-06 9.11880000e+01 7.81860800e-03 1.13011600e-01
       25 -1    0    0    0    0 +0.0000000000e+00 +0.0000000000e+00 +9.9999998245e-15 1.2500000000e+02 1.2500000000e+02 0.0000e+00 0.0000e+00
      -13  1    1    0    0    0 +4.4459785724e+01 -1.8431876330e+01 -3.9872582455e+01 6.2499924858e+01 1.0566000000e-01 0.0000e+00 1.0000e+00
       13  1    1    0    0    0 -4.4459839151e+01 +1.8431898422e+01 +3.9872630453e+01 6.2500000000e+01 1.0566000000e-01 0.0000e+00 1.0000e+00
       22  1    1    0    0    0 +5.3427121621e-05 -2.2091875362e-05 -4.7997593069e-05 7.5141714261e-05 0.0000000000e+00 0.0000e+00 -1.0000e+00
</event>
<event>
 4      1 +2.4041262e-06 9.11880000e+01 7.81860800e-03 1.13011600e-01
       25 -1    0    0    0    0 +0.0000000000e+00 +0.0000000000e+00 +9.9999998245e-15 1.2500000000e+02 1.2500000000e+02 0.0000e+00 0.0000e+00
      -13  1    1    0    0    0 +4.6726572001e+01 +3.5633071827e+01 -2.0615875178e+01 6.2274503709e+01 1.0566000000e-01 0.0000e+00 1.0000e+00
       13  1    1    0    0    0 -4.7011807336e+01 -3.5451870317e+01 +2.0359802764e+01 6.2301507771e+01 1.0566000000e-01 0.0000e+00 1.0000e+00
       22  1    1    0    0    0 +2.8523533513e-01 -1.8120151058e-01 +2.5607241406e-01 4.2398851999e-01 0.0000000000e+00 0.0000e+00 1.0000e+00
</event>
<event>
 4      1 +2.4041262e-06 9.11880000e+01 7.81860800e-03 1.13011600e-01
       25 -1    0    0    0    0 +0.0000000000e+00 +0.0000000000e+00 +9.9999998245e-15 1.2500000000e+02 1.2500000000e+02 0.0000e+00 0.0000e+00
      -13  1    1    0    0    0 -4.7389017989e+01 -3.3069228161e+01 +5.2365040796e+00 5.8023486763e+01 1.0566000000e-01 0.0000e+00 1.0000e+00
       13  1    1    0    0    0 -3.9332508289e+00 -1.8932925744e+00 +1.2427060471e+00 4.5398789863e+00 1.0566000000e-01 0.0000e+00 -1.0000e+00
       22  1    1    0    0    0 +5.1322268818e+01 +3.4962520735e+01 -6.4792101267e+00 6.2436634251e+01 0.0000000000e+00 0.0000e+00 1.0000e+00
</event>
<event>
 5      1 +2.4041262e-06 9.11880000e+01 7.81860800e-03 1.13011600e-01
       25 -1    0    0    0    0 +0.0000000000e+00 +0.0000000000e+00 +9.9999998245e-15 1.2500000000e+02 1.2500000000e+02 0.0000e+00 0.0000e+00
       23  2    1    0    0    0 -8.4725503098e+00 +1.8413412221e+01 +2.3581667588e+01 9.3904455229e+01 8.8606511088e+01 0.0000e+00 0.0000e+00
      -11  1    2    2    0    0 -2.4796360612e+01 +1.3594602267e+01 +5.2911341030e+01 5.9994022371e+01 5.1100000000e-04 0.0000e+00 1.0000e+00
       11  1    2    2    0    0 +1.6323810303e+01 +4.8188099545e+00 -2.9329673441e+01 3.3910432858e+01 5.1100000000e-04 0.0000e+00 -1.0000e+00
       22  1    1    0    0    0 +8.4725503098e+00 -1.8413412221e+01 -2.3581667588e+01 3.1095544771e+01 0.0000000000e+00 0.0000e+00 1.0000e+00
</event>
<event>
 4      1 +2.4041262e-06 9.11880000e+01 7.81860800e-03 1.13011600e-01
       25 -1    0    0    0    0 +0.0000000000e+00 +0.0000000000e+00 +9.9999998245e-15 1.2500000000e+02 1.2500000000e+02 0.0000e+00 0.0000e+00
      -13  1    1    0    0    0 -1.7929771059e+01 +9.1818074759e+00 -5.9164289301e+01 6.2499652570e+01 1.0566000000e-01 0.0000e+00 -1.0000e+00
       13  1    1    0    0    0 +1.7923515640e+01 -9.1837111580e+00 +5.9150545113e+01 6.2485127148e+01 1.0566000000e-01 0.0000e+00 -1.0000e+00
       22  1    1    0    0    0 +6.2554188419e-03 +1.9036821156e-03 +1.3744188535e-02 1.5220282158e-02 0.0000000000e+00 0.0000e+00 1.0000e+00
</event>
<event>
 4      1 +2.4041262e-06 9.11880000e+01 7.81860800e-03 1.13011600e-01
       25 -1    0    0    0    0 +0.0000000000e+00 +0.0000000000e+00 +9.9999998245e-15 1.2500000000e+02 1.2500000000e+02 0.0000e+00 0.0000e+00
      -13  1    1    0    0    0 -2.7813171446e+01 -1.9018813842e+01 -5.2639619055e+01 6.2499827552e+01 1.0566000000e-01 0.0000e+00 1.0000e+00
       13  1    1    0    0    0 +2.7394280804e+01 +1.8727898889e+01 +5.1795472656e+01 6.1513925003e+01 1.0566000000e-01 0.0000e+00 1.0000e+00
       22  1    1    0    0    0 +4.1889064224e-01 +2.9091495326e-01 +8.4414639874e-01 9.8624744496e-01 0.0000000000e+00 0.0000e+00 1.0000e+00
</event>
<event>
 5      1 +2.4041262e-06 9.11880000e+01 7.81860800e-03 1.13011600e-01
       25 -1    0    0    0    0 +0.0000000000e+00 +0.0000000000e+00 +9.9999998245e-15 1.2500000000e+02 1.2500000000e+02 0.0000e+00 0.0000e+00
       23  2    1    0    0    0 -8.8210500290e+00 +2.0614566642e+01 +2.1611739550e+01 9.3857768740e+01 8.8540624489e+01 0.0000e+00 0.0000e+00
      -11  1    2    2    0    0 -3.5378013091e+01 +2.3311787076e+01 +4.2463788574e+01 5.9985136219e+01 5.1100000000e-04 0.0000e+00 1.0000e+00
       11  1    2    2    0    0 +2.6556963062e+01 -2.6972204339e+00 -2.0852049023e+01 3.3872632520e+01 5.1100000000e-04 0.0000e+00 -1.0000e+00
       22  1    1    0    0    0 +8.8210500290e+00 -2.0614566642e+01 -2.1611739550e+01 3.1142231260e+01 0.0000000000e+00 0.0000e+00 1.0000e+00
</event>
<event>
 4      1 +2.4041262e-06 9.11880000e+01 7.81860800e-03 1.13011600e-01
       25 -1    0    0    0    0 +0.0000000000e+00 +0.0000000000e+00 +9.9999998245e-15 1.2500000000e+02 1.2500000000e+02 0.0000e+00 0.0000e+00
      -13  1    1    0    0    0 -3.1093680445e+01 -2.5328458969e+01 +4.7936322623e+01 6.2499999904e+01 1.0566000000e-01 0.0000e+00 -1.0000e+00
       13  1    1    0    0    0 +3.1093545721e+01 +2.5328358070e+01 -4.7936132618e+01 6.2499746259e+01 1.0566000000e-01 0.0000e+00 -1.0000e+00
       22  1    1    0    0    0 +1.3472393022e-04 +1.0089896341e-04 -1.9000534318e-04 2.5383689374e-04 0.0000000000e+00 0.0000e+00 1.0000e+00
</event>
<event>
 4      1 +2.4041262e-06 9.11880000e+01 7.81860800e-03 1.13011600e-01
       25 -1    0    0    0    0 +0.0000000000e+00 +0.0000000000e+00 +9.9999998245e-15 1.2500000000e+02 1.2500000000e+02 0.0000e+00 0.0000e+00
      -13  1    1    0    0    0 +5.9749944046e+01 +2.8192423178e+00 +1.8117245656e+01 6.2499997560e+01 1.0566000000e-01 0.0000e+00 1.0000e+00
       13  1    1    0    0    0 -5.9749945761e+01 -2.8192419907e+00 -1.8117247677e+01 6.2499999770e+01 1.0566000000e-01 0.0000e+00 1.0000e+00
       22  1    1    0    0    0 +1.7141115728e-06 -3.2710766790e-07 +2.0213290304e-06 2.6703836727e-06 0.0000000000e+00 0.0000e+00 1.0000e+00
</event>
<event>
 4      1 +2.4041262e-06 9.11880000e+01 7.81860800e-03 1.13011600e-01
       25 -1    0    0    0    0 +0.0000000000e+00 +0.0000000000e+00 +9.9999998245e-15 1.2500000000e+02 1.2500000000e+02 0.0000e+00 0.0000e+00
      -13  1    1    0    0    0 -5.2492991385e+01 +4.4246409766e+00 -3.3632532519e+01 6.2500000000e+01 1.0566000000e-01 0.0000e+00 1.0000e+00
       13  1    1    0    0    0 +5.2492986796e+01 -4.4246405433e+00 +3.3632529542e+01 6.2499994512e+01 1.0566000000e-01 0.0000e+00 1.0000e+00
       22  1    1    0    0    0 +4.5892778725e-06 -4.3334059675e-07 +2.9774329032e-06 5.4876554335e-06 0.0000000000e+00 0.0000e+00 -1.0000e+00
</event>
<event>
 4      1 +2.4041262e-06 9.11880000e+01 7.81860800e-03 1.13011600e-01
       25 -1    0    0    0    0 +0.0000000000e+00 +0.0000000000e+00 +9.9999998245e-15 1.2500000000e+02 1.2500000000e+02 0.0000e+00 0.0000e+00
      -13  1    1    0    0    0 -5.1161900339e+01 +3.5446902757e+01 +5.6758387000e+00 6.2499994163e+01 1.0566000000e-01 0.0000e+00 -1.0000e+00
       13  1    1    0    0    0 +5.1161905461e+01 -3.5446905628e+01 -5.6758384359e+00 6.2499999960e+01 1.0566000000e-01 0.0000e+00 -1.0000e+00
       22  1    1    0    0    0 -5.1213304647e-06 +2.8705595822e-06 -2.6409849560e-07 5.8768942528e-06 0.0000000000e+00 0.0000e+00 -1.0000e+00
</event>
<event>
 4      1 +2.4041262e-06 9.11880000e+01 7.81860800e-03 1.13011600e-01
       25 -1    0    0    0    0 +0.0000000000e+00 +0.0000000000e+00 +9.9999998245e-15 1.2500000000e+02 1.2500000000e+02 0.0000e+00 0.0000e+00
      -13  1    1    0    0    0 +3.3921243473e+01 -2.5895572613e+01 +4.4740062429e+01 6.1829732248e+01 1.0566000000e-01 0.0000e+00 -1.0000e+00
       13  1    1    0    0    0 -3.4322835952e+01 +2.6128011667e+01 -4.5225527668e+01 6.2498716614e+01 1.0566000000e-01 0.0000e+00 -1.0000e+00
       22  1    1    0    0    0 +4.0159247871e-01 -2.3243905390e-01 +4.8546523943e-01 6.7155113836e-01 0.0000000000e+00 0.0000e+00 -1.0000e+00
</event>
<event>
 4      1 +2.4041262e-06 9.11880000e+01 7.81860800e-03 1.13011600e-01
       25 -1    0    0    0    0 +0.0000000000e+00 +0.0000000000e+00 +9.9999998245e-15 1.2500000000e+02 1.2500000000e+02 0.0000e+00 0.0000e+00
      -13  1    1    0    0    0 +2.4383668596e+01 -1.8539887349e+01 -5.4478877692e+01 6.2499999965e+01 1.0566000000e-01 0.0000e+00 -1.0000e+00
       13  1    1    0    0    0 -2.4383658177e+01 +1.8539880559e+01 +5.4478858738e+01 6.2499977365e+01 1.0566000000e-01 0.0000e+00 -1.0000e+00
       22  1    1    0    0    0 -1.0419431778e-05 +6.7898788320e-06 +1.8953662373e-05 2.2669546323e-05 0.0000000000e+00 0.0000e+00 -1.0000e+00
</event>
<event>
 4      1 +2.4041262e-06 9.11880000e+01 7.81860800e-03 1.13011600e-01
       25 -1    0    0    0    0 +0.0000000000e+00 +0.0000000000e+00 +9.9999998245e-15 1.2500000000e+02 1.2500000000e+02 0.0000e+00 0.0000e+00
      -11  1    1    0    0    0 +3.3444839278e+01 -2.1501570675e+01 -2.9086864383e+01 4.9263784830e+01 5.1100000000e-04 0.0000e+00 -1.0000e+00
       11  1    1    0    0    0 -1.1767118216e+01 -1.2713568427e+01 -9.5312463499e+00 1.9772317783e+01 5.1100000000e-04 0.0000e+00 1.0000e+00
       22  1    1    0    0    0 -2.1677721062e+01 +3.4215139102e+01 +3.8618110733e+01 5.5963897387e+01 0.0000000000e+00 0.0000e+00 -1.0000e+00
</event>
<event>
 4      1 +2.4041262e-06 9.11880000e+01 7.81860800e-03 1.13011600e-01
       25 -1    0    0    0    0 +0.0000000000e+00 +0.0000000000e+00 +9.9999998245e-15 1.2500000000e+02 1.2500000000e+02 0.0000e+00 0.0000e+00
      -13  1    1    0    0    0 -5.9477182901e+00 -3.7466161815e+01 +4.9670415762e+01 6.2500000000e+01 1.0566000000e-01 0.0000e+00 -1.0000e+00
       13  1    1    0    0    0 +5.9477123467e+00 +3.7466123802e+01 -4.9670365779e+01 6.2499936924e+01 1.0566000000e-01 0.0000e+00 -1.0000e+00
       22  1    1    0    0    0 +5.9433921550e-06 +3.8012882886e-05 -4.9983262585e-05 6.3076380002e-05 0.0000000000e+00 0.0000e+00 -1.0000e+00
</event>
<event>
 4      1 +2.4041262e-06 9.11880000e+01 7.81860800e-03 1.13011600e-01
       25 -1    0    0    0    0 +0.0000000000e+00 +0.0000000000e+00 +9.9999998245e-15 1.2500000000e+02 1.2500000000e+02 0.0000e+00 0.0000e+00
      -11  1    1    0    0    0 -4.8860508584e+00 -1.3203228949e+01 +4.4282445036e+01 4.6466479168e+01 5.1100000000e-04 0.0000e+00 -1.0000e+00
       11  1    1    0    0    0 -1.6831963653e+00 -4.5545996287e+00 +1.5280584609e+01 1.6033520949e+01 5.1100000000e-04 0.0000e+00 1.0000e+00
       22  1    1    0    0    0 +6.5692472237e+00 +1.7757828578e+01 -5.9563029645e+01 6.2499999883e+01 0.0000000000e+00 0.0000e+00 -1.0000e+00
</event>
<event>
 4      1 +2.4041262e-06 9.11880000e+01 7.81860800e-03 1.13011600e-01
       25 -1    0    0    0    0 +0.0000000000e+00 +0.0000000000e+00 +9.9999998245e-15 1.2500000000e+02 1.2500000000e+02 0.0000e+00 0.0000e+00
      -13  1    1    0    0    0 +5.3528518970e+01 +2.6454611153e+01 -1.8468623163e+01 6.2499999999e+01 1.0566000000e-01 0.0000e+00 -1.0000e+00
       13  1    1    0    0    0 -5.3528514810e+01 -2.6454608989e+01 +1.8468621661e+01 6.2499995077e+01 1.0566000000e-01 0.0000e+00 -1.0000e+00
       22  1    1    0    0    0 -4.1598728884e-06 -2.1640876108e-06 +1.5017255655e-06 4.9237178340e-06 0.0000000000e+00 0.0000e+00 -1.0000e+00
</event>
<event>
 4      1 +2.4041262e-06 9.11880000e+01 7.81860800e-03 1.13011600e-01
       25 -1    0    0    0    0 +0.0000000000e+00 +0.0000000000e+00 +9.9999998245e-15 1.2500000000e+02 1.2500000000e+02 0.0000e+00 0.0000e+00
      -11  1    1    0    0    0 -3.7189904742e+00 +1.2410892416e+00 +5.4275606623e+00 6.6954915918e+00 5.1100000000e-04 0.0000e+00 -1.0000e+00
       11  1    1    0    0    0 -3.1183860442e+01 +9.9875290837e+00 +4.5188140989e+01 5.5804587406e+01 5.1100000000e-04 0.0000e+00 1.0000e+00
       22  1    1    0    0    0 +3.4902850916e+01 -1.1228618325e+01 -5.0615701652e+01 6.2499921002e+01 0.0000000000e+00 0.0000e+00 1.0000e+00
</event>
<event>
 4      1 +2.4041262e-06 9.11880000e+01 7.81860800e-03 1.13011600e-01
       25 -1    0    0    0    0 +0.0000000000e+00 +0.0000000000e+00 +9.9999998245e-15 1.2500000000e+02 1.2500000000e+02 0.0000e+00 0.0000e+00
      -13  1    1    0    0    0 -3.4198117608e+01 +3.6402696103e+01 +3.7570677470e+01 6.2499876009e+01 1.0566000000e-01 0.0000e+00 1.0000e+00
       13  1    1    0    0    0 +3.4198225295e+01 -3.6402312897e+01 -3.7570700036e+01 6.2499725302e+01 1.0566000000e-01 0.0000e+00 1.0000e+00
       22  1    1    0    0    0 -1.0768697330e-04 -3.8320658005e-04 +2.2566533635e-05 3.9868912157e-04 0.0000000000e+00 0.0000e+00 1.0000e+00
</event>
<event>
 4      1 +2.4041262e-06 9.11880000e+01 7.81860800e-03 1.13011600e-01
       25 -1    0    0    0    0 +0.0000000000e+00 +0.0000000000e+00 +9.9999998245e-15 1.2500000000e+02 1.2500000000e+02 0.0000e+00 0.0000e+00
      -13  1    1    0    0    0 +1.9269098095e+01 +5.9391282326e+01 -1.8170990092e+00 6.2465475029e+01 1.0566000000e-01 0.0000e+00 1.0000e+00
       13  1    1    0    0    0 -1.9278153555e+01 -5.9424634072e+01 +1.8157692002e+00 6.2499940167e+01 1.0566000000e-01 0.0000e+00 1.0000e+00
       22  1    1    0    0    0 +9.0554594648e-03 +3.3351746071e-02 +1.3298090153e-03 3.4584804527e-02 0.0000000000e+00 0.0000e+00 -1.0000e+00
</event>
<event>
 4      1 +2.4041262e-06 9.11880000e+01 7.81860800e-03 1.13011600e-01
       25 -1    0    0    0    0 +0.0000000000e+00 +0.0000000000e+00 +9.9999998245e-15 1.2500000000e+02 1.2500000000e+02 0.0000e+00 0.0000e+00
      -11  1    1    0    0    0 -1.6892206996e+00 -1.7754942501e+00 +7.5864332481e+00 7.9724410373e+00 5.1100000000e-04 0.0000e+00 1.0000e+00
       11  1    1    0    0    0 -1.2036181412e+01 -1.3773394121e+01 +5.1370030309e+01 5.4529405487e+01 5.1100000000e-04 0.0000e+00 -1.0000e+00
       22  1    1    0    0    0 +1.3725402111e+01 +1.5548888371e+01 -5.8956463557e+01 6.2498153475e+01 0.0000000000e+00 0.0000e+00 -1.0000e+00
</event>
<event>
 5      1 +2.4041262e-06 9.11880000e+01 7.81860800e-03 1.13011600e-01
       25 -1    0    0    0    0 +0.0000000000e+00 +0.0000000000e+00 +9.9999998245e-15 1.2500000000e+02 1.2500000000e+02 0.0000e+00 0.0000e+00
       23  2    1    0    0    0 -8.1342806987e+00 +2.3286476535e+01 +1.5452253147e+01 9.5893323116e+01 9.1369200385e+01 0.0000e+00 0.0000e+00
      -13  1    2    2    0    0 -4.0974332959e+01 +1.3482126892e+01 -1.9146090803e+01 4.7193724838e+01 1.0566000000e-01 0.0000e+00 1.0000e+00
       13  1    2    2    0    0 +3.2840052261e+01 +9.8043496435e+00 +3.4598343949e+01 4.8699598278e+01 1.0566000000e-01 0.0000e+00 -1.0000e+00
       22  1    1    0    0    0 +8.1342806987e+00 -2.3286476535e+01 -1.5452253147e+01 2.9106676884e+01 0.0000000000e+00 0.0000e+00 1.0000e+00
</event>
<event>
 4      1 +2.4041262e-06 9.11880000e+01 7.81860800e-03 1.13011600e-01
       25 -1    0    0    0    0 +0.0000000000e+00 +0.0000000000e+00 +9.9999998245e-15 1.2500000000e+02 1.2500000000e+02 0.0000e+00 0.0000e+00
      -13  1    1    0    0    0 -3.5472444480e+00 +7.3297950491e+00 -1.0528154281e+01 1.3310222959e+01 1.0566000000e-01 0.0000e+00 -1.0000e+00
       13  1    1    0    0    0 -4.2005842170e+01 +2.5740754470e+01 -1.2569498037e+01 5.0843688518e+01 1.0566000000e-01 0.0000e+00 1.0000e+00
       22  1    1    0    0    0 +4.5553086618e+01 -3.3070549519e+01 +2.3097652318e+01 6.0846088523e+01 0.0000000000e+00 0.0000e+00 1.0000e+00
</event>
<event>
 4      1 +2.4041262e-06 9.11880000e+01 7.81860800e-03 1.13011600e-01
       25 -1    0    0    0    0 +0.0000000000e+00 +0.0000000000e+00 +9.9999998245e-15 1.2500000000e+02 1.2500000000e+02 0.0000e+00 0.0000e+00
      -11  1    1    0    0    0 -1.6413149418e+00 +3.4675691140e+01 +1.3350967395e+01 3.7193356953e+01 5.1100000000e-04 0.0000e+00 1.0000e+00
       11  1    1    0    0    0 -2.0704514275e+00 +2.3392848851e+01 +9.4464677178e+00 2.5312998619e+01 5.1100000000e-04 0.0000e+00 -1.0000e+00
       22  1    1    0    0    0 +3.7117663693e+00 -5.8068539991e+01 -2.2797435113e+01 6.2493644428e+01 0.0000000000e+00 0.0000e+00 1.0000e+00
</event>
<event>
 4      1 +2.4041262e-06 9.11880000e+01 7.81860800e-03 1.13011600e-01
       25 -1    0    0    0    0 +0.0000000000e+00 +0.0000000000e+00 +9.9999998245e-15 1.2500000000e+02 1.2500000000e+02 0.0000e+00 0.0000e+00
      -13  1    1    0    0    0 -4.6653216044e+00 +1.0070460585e+01 -5.9688009239e+01 6.0711193474e+01 1.0566000000e-01 0.0000e+00 1.0000e+00
       13  1    1    0    0    0 +4.2844176192e+00 -1.0420401054e+01 +6.1438692445e+01 6.2463309918e+01 1.0566000000e-01 0.0000e+00 1.0000e+00
       22  1    1    0    0    0 +3.8090398520e-01 +3.4994046834e-01 -1.7506832067e+00 1.8254966085e+00 0.0000000000e+00 0.0000e+00 -1.0000e+00
</event>
<event>
 4      1 +2.4041262e-06 9.11880000e+01 7.81860800e-03 1.13011600e-01
       25 -1    0    0    0    0 +0.0000000000e+00 +0.0000000000e+00 +9.9999998245e-15 1.2500000000e+02 1.2500000000e+02 0.0000e+00 0.0000e+00
      -13  1    1    0    0    0 +4.9247281530e+01 +3.8275171601e+01 -3.7771930921e+00 6.2486493348e+01 1.0566000000e-01 0.0000e+00 -1.0000e+00
       13  1    1    0    0    0 -4.9070393454e+01 -3.8153971305e+01 +3.8728266271e+00 6.2278720203e+01 1.0566000000e-01 0.0000e+00 -1.0000e+00
       22  1    1    0    0    0 -1.7688807674e-01 -1.2120029661e-01 -9.5633535030e-02 2.3478644896e-01 0.0000000000e+00 0.0000e+00 1.0000e+00
</event>
<event>
 4      1 +2.4041262e-06 9.11880000e+01 7.81860800e-03 1.13011600e-01
       25 -1    0    0    0    0 +0.0000000000e+00 +0.0000000000e+00 +9.9999998245e-15 1.2500000000e+02 1.2500000000e+02 0.0000e+00 0.0000e+00
      -11  1    1    0    0    0 +8.7170939591e+00 +3.0805528760e+00 -3.6701619865e+00 9.9472419485e+00 5.1100000000e-04 0.0000e+00 1.0000e+00
       11  1    1    0    0    0 +4.5812211842e+01 +1.6659686912e+01 -1.9634399058e+01 5.2552959464e+01 5.1100000000e-04 0.0000e+00 -1.0000e+00
       22  1    1    0    0    0 -5.4529305801e+01 -1.9740239788e+01 +2.3304561044e+01 6.2499798587e+01 0.0000000000e+00 0.0000e+00 -1.0000e+00
</event>
<event>
 4      1 +2.4041262e-06 9.11880000e+01 7.81860800e-03 1.13011600e-01
       25 -1    0    0    0    0 +0.0000000000e+00 +0.0000000000e+00 +9.9999998245e-15 1.2500000000e+02 1.2500000000e+02 0.0000e+00 0.0000e+00
      -11  1    1    0    0    0 +1.0870056134e+01 +2.6983269498e+00 -3.1013053682e+01 3.2973452771e+01 5.1100000000e-04 0.0000e+00 1.0000e+00
       11  1    1    0    0    0 +9.7903969605e+00 +2.3982234482e+00 -2.7752741558e+01 2.9526564524e+01 5.1100000000e-04 0.0000e+00 -1.0000e+00
       22  1    1    0    0    0 -2.0660453094e+01 -5.0965503981e+00 +5.8765795240e+01 6.2499982705e+01 0.0000000000e+00 0.0000e+00 1.0000e+00
</event>
<event>
 4      1 +2.4041262e-06 9.11880000e+01 7.81860800e-03 1.13011600e-01
       25 -1    0    0    0    0 +0.0000000000e+00 +0.0000000000e+00 +9.9999998245e-15 1.2500000000e+02 1.2500000000e+02 0.0000e+00 0.0000e+00
      -13  1    1    0    0    0 +6.4114907330e+00 -9.6087340722e+00 -3.1870537369e+00 1.1983466087e+01 1.0566000000e-01 0.0000e+00 1.0000e+00
       13  1    1    0    0    0 +2.7770163144e+01 -2.6104230043e+01 -3.4064451228e+01 5.1117617204e+01 1.0566000000e-01 0.0000e+00 -1.0000e+00
       22  1    1    0    0    0 -3.4181653877e+01 +3.5712964115e+01 +3.7251504965e+01 6.1898916709e+01 0.0000000000e+00 0.0000e+00 -1.0000e+00
</event>
<event>
 4      1 +2.4041262e-06 9.11880000e+01 7.81860800e-03 1.13011600e-01
       25 -1    0    0    0    0 +0.0000000000e+00 +0.0000000000e+00 +9.9999998245e-15 1.2500000000e+02 1.2500000000e+02 0.0000e+00 0.0000e+00
      -13  1    1    0    0    0 -1.8379577357e-01 +3.5650833013e+01 -5.1334304090e+01 6.2499900926e+01 1.0566000000e-01 0.0000e+00 1.0000e+00
       13  1    1    0    0    0 +1.8379566050e-01 -3.5650889720e+01 +5.1334385330e+01 6.2499999999e+01 1.0566000000e-01 0.0000e+00 1.0000e+00
       22  1    1    0    0    0 +1.1306675540e-07 +5.6707393634e-05 -8.1240187116e-05 9.9074261438e-05 0.0000000000e+00 0.0000e+00 1.0000e+00
</event>
<event>
 5      1 +2.4041262e-06 9.11880000e+01 7.81860800e-03 1.13011600e-01
       25 -1    0    0    0    0 +0.0000000000e+00 +0.0000000000e+00 +9.9999998245e-15 1.2500000000e+02 1.2500000000e+02 0.0000e+00 0.0000e+00
       23  2    1    0    0    0 -8.4474962220e+00 +2.7492884934e+01 -3.4743865961e+00 9.6029492986e+01 9.1555301575e+01 0.0000e+00 0.0000e+00
      -13  1    2    2    0    0 -2.2406128378e+00 +5.8326273396e+01 -1.8420170143e+01 6.1206930541e+01 1.0566000000e-01 0.0000e+00 1.0000e+00
       13  1    2    2    0    0 -6.2068833842e+00 -3.0833388462e+01 +1.4945783547e+01 3.4822562445e+01 1.0566000000e-01 0.0000e+00 -1.0000e+00
       22  1    1    0    0    0 +8.4474962220e+00 -2.7492884934e+01 +3.4743865961e+00 2.8970507014e+01 0.0000000000e+00 0.0000e+00 1.0000e+00
</event>
<event>
 4      1 +2.4041262e-06 9.11880000e+01 7.81860800e-03 1.13011600e-01
       25 -1    0    0    0    0 +0.0000000000e+00 +0.0000000000e+00 +9.9999998245e-15 1.2500000000e+02 1.2500000000e+02 0.0000e+00 0.0000e+00
      -13  1    1    0    0    0 -3.4796438275e+01 -1.6410573122e+01 -4.9246633575e+01 6.2492728451e+01 1.0566000000e-01 0.0000e+00 -1.0000e+00
       13  1    1    0    0    0 +3.4800177552e+01 +1.6412242370e+01 +4.9252652323e+01 6.2499991857e+01 1.0566000000e-01 0.0000e+00 -1.0000e+00
       22  1    1    0    0    0 -3.7392778052e-03 -1.6692480058e-03 -6.0187479318e-03 7.2796918943e-03 0.0000000000e+00 0.0000e+00 -1.0000e+00
</event>
<event>
 4      1 +2.4041262e-06 9.11880000e+01 7.81860800e-03 1.13011600e-01
       25 -1    0    0    0    0 +0.0000000000e+00 +0.0000000000e+00 +9.9999998245e-15 1.2500000000e+02 1.2500000000e+02 0.0000e+00 0.0000e+00
      -13  1    1    0    0    0 +2.9731717105e+01 +2.9167468718e+01 +4.6599597687e+01 6.2499999216e+01 1.0566000000e-01 0.0000e+00 -1.0000e+00
       13  1    1    0    0    0 -2.9731717534e+01 -2.9167468970e+01 -4.6599598299e+01 6.2499999995e+01 1.0566000000e-01 0.0000e+00 -1.0000e+00
       22  1    1    0    0    0 +4.2888504615e-07 +2.5230583782e-07 +6.1257871332e-07 7.8921055405e-07 0.0000000000e+00 0.0000e+00 1.0000e+00
</event>
<event>
 4      1 +2.4041262e-06 9.11880000e+01 7.81860800e-03 1.13011600e-01
       25 -1    0    0    0    0 +0.0000000000e+00 +0.0000000000e+00 +9.9999998245e-15 1.2500000000e+02 1.2500000000e+02 0.0000e+00 0.0000e+00
      -13  1    1    0    0    0 -3.3078650383e+01 +1.5119112409e+01 +5.0827686389e+01 6.2499996312e+01 1.0566000000e-01 0.0000e+00 1.0000e+00
       13  1    1    0    0    0 +3.3078652333e+01 -1.5119113330e+01 -5.0827689382e+01 6.2500000000e+01 1.0566000000e-01 0.0000e+00 1.0000e+00
       22  1    1    0    0    0 -1.9495588235e-06 +9.2084534737e-07 +2.9926127547e-06 3.6884233569e-06 0.0000000000e+00 0.0000e+00 -1.0000e+00
</event>
<event>
 4      1 +2.4041262e-06 9.11880000e+01 7.81860800e-03 1.13011600e-01
       25 -1    0    0    0    0 +0.0000000000e+00 +0.0000000000e+00 +9.9999998245e-15 1.2500000000e+02 1.2500000000e+02 0.0000e+00 0.0000e+00
      -13  1    1    0    0    0 +2.8003602673e+01 +2.7553454659e+01 -4.8609095956e+01 6.2500000000e+01 1.0566000000e-01 0.0000e+00 -1.0000e+00
       13  1    1    0    0    0 -2.8003601516e+01 -2.7553453522e+01 +4.8609093927e+01 6.2499997403e+01 1.0566000000e-01 0.0000e+00 -1.0000e+00
       22  1    1    0    0    0 -1.1570037724e-06 -1.1368652665e-06 +2.0284476331e-06 2.5972524259e-06 0.0000000000e+00 0.0000e+00 -1.0000e+00
</event>
<event>
 4      1 +2.4041262e-06 9.11880000e+01 7.81860800e-03 1.13011600e-01
       25 -1    0    0    0    0 +0.0000000000e+00 +0.0000000000e+00 +9.9999998245e-15 1.2500000000e+02 1.2500000000e+02 0.0000e+00 0.0000e+00
      -13  1    1    0    0    0 +2.0355504895e+01 -3.8619137733e+00 -5.8965904256e+01 6.2499999890e+01 1.0566000000e-01 0.0000e+00 -1.0000e+00
       13  1    1    0    0    0 -2.0355504931e+01 +3.8619137799e+00 +5.8965904360e+01 6.2500000000e+01 1.0566000000e-01 0.0000e+00 -1.0000e+00
       22  1    1    0    0    0 +3.5233133837e-08 -6.6263366315e-09 -1.0372809575e-07 1.0974880366e-07 0.0000000000e+00 0.0000e+00 1.0000e+00
</event>
<event>
 4      1 +2.4041262e-06 9.11880000e+01 7.81860800e-03 1.13011600e-01
       25 -1    0    0    0    0 +0.0000000000e+00 +0.0000000000e+00 +9.9999998245e-15 1.2500000000e+02 1.2500000000e+02 0.0000e+00 0.0000e+00
      -13  1    1    0    0    0 +1.3319811069e-01 -5.5293691775e+01 +2.9134537270e+01 6.2499940143e+01 1.0566000000e-01 0.0000e+00 -1.0000e+00
       13  1    1    0    0    0 -1.3190688198e-01 +5.5265066303e+01 -2.9116552416e+01 6.2466228808e+01 1.0566000000e-01 0.0000e+00 -1.0000e+00
       22  1    1    0    0    0 -1.2912287033e-03 +2.8625472390e-02 -1.7984853940e-02 3.3831049531e-02 0.0000000000e+00 0.0000e+00 -1.0000e+00
</event>
<event>
 5      1 +2.4041262e-06 9.11880000e+01 7.81860800e-03 1.13011600e-01
       25 -1    0    0    0    0 +0.0000000000e+00 +0.0000000000e+00 +9.9999998245e-15 1.2500000000e+02 1.2500000000e+02 0.0000e+00 0.0000e+00
       23  2    1    0    0    0 +1.5094815852e+00 -2.0766386589e+01 -2.7213434210e+01 9.0734969019e+01 8.4016321359e+01 0.0000e+00 0.0000e+00
      -11  1    2    2    0    0 +4.3980461835e+00 -3.6511773978e+01 +1.9308140127e+01 4.1536209802e+01 5.1100000000e-04 0.0000e+00 -1.0000e+00
       11  1    2    2    0    0 -2.8885645983e+00 +1.5745387389e+01 -4.6521574337e+01 4.9198759217e+01 5.1100000000e-04 0.0000e+00 1.0000e+00
       22  1    1    0    0    0 -1.5094815852e+00 +2.0766386589e+01 +2.7213434210e+01 3.4265030981e+01 0.0000000000e+00 0.0000e+00 1.0000e+00
</event>
<event>
 4      1 +2.4041262e-06 9.11880000e+01 7.81860800e-03 1.13011600e-01
       25 -1    0    0    0    0 +0.0000000000e+00 +0.0000000000e+00 +9.9999998245e-15 1.2500000000e+02 1.2500000000e+02 0.0000e+00 0.0000e+00
      -13  1    1    0    0    0 +3.1662328717e+01 -5.3764934199e+01 +3.6102261082e+00 6.2499728846e+01 1.0566000000e-01 0.0000e+00 1.0000e+00
       13  1    1    0    0    0 -3.1662466274e+01 +5.3765167389e+01 -3.6102411321e+00 6.2499999999e+01 1.0566000000e-01 0.0000e+00 1.0000e+00
       22  1    1    0    0    0 +1.3755621267e-04 -2.3319011086e-04 +1.5023833564e-05 2.7115503871e-04 0.0000000000e+00 0.0000e+00 -1.0000e+00
</event>
<event>
 4      1 +2.4041262e-06 9.11880000e+01 7.81860800e-03 1.13011600e-01
       25 -1    0    0    0    0 +0.0000000000e+00 +0.0000000000e+00 +9.9999998245e-15 1.2500000000e+02 1.2500000000e+02 0.0000e+00 0.0000e+00
      -13  1    1    0    0    0 -1.7053003397e+01 -1.1856964311e+01 +3.3297972832e+01 3.9244855539e+01 1.0566000000e-01 0.0000e+00 -1.0000e+00
       13  1    1    0    0    0 +2.7151780981e+01 +1.8778326956e+01 -5.3069577939e+01 6.2499888323e+01 1.0566000000e-01 0.0000e+00 -1.0000e+00
       22  1    1    0    0    0 -1.0098777584e+01 -6.9213626446e+00 +1.9771605107e+01 2.3255256139e+01 0.0000000000e+00 0.0000e+00 1.0000e+00
</event>
<event>
 4      1 +2.4041262e-06 9.11880000e+01 7.81860800e-03 1.13011600e-01
       25 -1    0    0    0    0 +0.0000000000e+00 +0.0000000000e+00 +9.9999998245e-15 1.2500000000e+02 1.2500000000e+02 0.0000e+00 0.0000e+00
      -13  1    1    0    0    0 -3.3189424561e+01 +3.9928085092e+01 -2.0321056170e+01 5.5756133023e+01 1.0566000000e-01 0.0000e+00 -1.0000e+00
       13  1    1    0    0    0 +3.3769749098e+01 -4.6767399885e+01 +2.2683227833e+01 6.1984882311e+01 1.0566000000e-01 0.0000e+00 -1.0000e+00
       22  1    1    0    0    0 -5.8032453786e-01 +6.8393147933e+00 -2.3621716624e+00 7.2589846655e+00 0.0000000000e+00 0.0000e+00 -1.0000e+00
</event>
<event>
 4      1 +2.4041262e-06 9.11880000e+01 7.81860800e-03 1.13011600e-01
       25 -1    0    0    0    0 +0.0000000000e+00 +0.0000000000e+00 +9.9999998245e-15 1.2500000000e+02 1.2500000000e+02 0.0000e+00 0.0000e+00
      -13  1    1    0    0    0 +4.2139011215e+01 +2.6258158598e+01 -3.7805849973e+01 6.2405773894e+01 1.0566000000e-01 0.0000e+00 -1.0000e+00
       13  1    1    0    0    0 -4.2204155285e+01 -2.6301226518e+01 +3.7858725404e+01 6.2499915943e+01 1.0566000000e-01 0.0000e+00 -1.0000e+00
       22  1    1    0    0    0 +6.5144070254e-02 +4.3067919858e-02 -5.2875430941e-02 9.4310162800e-02 0.0000000000e+00 0.0000e+00 -1.0000e+00
</event>
<event>
 5      1 +2.4041262e-06 9.11880000e+01 7.81860800e-03 1.13011600e-01
       25 -1    0    0    0    0 +0.0000000000e+00 +0.0000000000e+00 +9.9999998245e-15 1.2500000000e+02 1.2500000000e+02 0.0000e+00 0.0000e+00
       23  2    1    0    0    0 +2.1676940507e+01 +7.3267913776e+00 +1.5998968568e+01 9.7079781217e+01 9.2978198005e+01 0.0000e+00 0.0000e+00
      -13  1    2    2    0    0 +2.6828313676e+01 +4.6716353601e+01 +1.9283192603e+01 5.7219129576e+01 1.0566000000e-01 0.0000e+00 1.0000e+00
       13  1    2    2    0    0 -5.1513731687e+00 -3.9389562224e+01 -3.2842240349e+00 3.9860651641e+01 1.0566000000e-01 0.0000e+00 -1.0000e+00
       22  1    1    0    0    0 -2.1676940507e+01 -7.3267913776e+00 -1.5998968568e+01 2.7920218783e+01 0.0000000000e+00 0.0000e+00 1.0000e+00
</event>
<event>
 4      1 +2.4041262e-06 9.11880000e+01 7.81860800e-03 1.13011600e-01
       25 -1    0    0    0    0 +0.0000000000e+00 +0.0000000000e+00 +9.9999998245e-15 1.2500000000e+02 1.2500000000e+02 0.0000e+00 0.0000e+00
      -13  1    1    0    0    0 +3.1907314619e+01 +5.3705643394e+01 -1.9662043649e+00 6.2499999858e+01 1.0566000000e-01 0.0000e+00 1.0000e+00
       13  1    1    0    0    0 -3.1905925885e+01 -5.3703264985e+01 +1.9660843616e+00 6.2497243366e+01 1.0566000000e-01 0.0000e+00 1.0000e+00
       22  1    1    0    0    0 -1.3887343244e-03 -2.3784090740e-03 +1.2000321382e-04 2.7567759282e-03 0.0000000000e+00 0.0000e+00 -1.0000e+00
</event>
<event>
 4      1 +2.4041262e-06 9.11880000e+01 7.81860800e-03 1.13011600e-01
       25 -1    0    0    0    0 +0.0000000000e+00 +0.0000000000e+00 +9.9999998245e-15 1.2500000000e+02 1.2500000000e+02 0.0000e+00 0.0000e+00
      -13  1    1    0    0    0 +1.8897897480e+01 +5.8463246680e+01 +1.1452383787e+01 6.2500000000e+01 1.0566000000e-01 0.0000e+00 -1.0000e+00
       13  1    1    0    0    0 -1.8897897477e+01 -5.8463246671e+01 -1.1452383785e+01 6.2499999991e+01 1.0566000000e-01 0.0000e+00 -1.0000e+00
       22  1    1    0    0    0 -2.5924005981e-09 -8.8841497434e-09 -2.0771383723e-09 9.4848912141e-09 0.0000000000e+00 0.0000e+00 -1.0000e+00
</event>
<event>
 4      1 +2.4041262e-06 9.11880000e+01 7.81860800e-03 1.13011600e-01
       25 -1    0    0    0    0 +0.0000000000e+00 +0.0000000000e+00 +9.9999998245e-15 1.2500000000e+02 1.2500000000e+02 0.0000e+00 0.0000e+00
      -13  1    1    0    0    0 +3.3389047151e+01 -1.7082167744e+01 +4.9976166508e+01 6.2484056425e+01 1.0566000000e-01 0.0000e+00 1.0000e+00
       13  1    1    0    0    0 -3.3397610756e+01 +1.7086548323e+01 -4.9988881657e+01 6.2499999929e+01 1.0566000000e-01 0.0000e+00 1.0000e+00
       22  1    1    0    0    0 +8.5636049587e-03 -4.3805785482e-03 +1.2715149552e-02 1.5943645331e-02 0.0000000000e+00 0.0000e+00 -1.0000e+00
</event>
<event>
 4      1 +2.4041262e-06 9.11880000e+01 7.81860800e-03 1.13011600e-01
       25 -1    0    0    0    0 +0.0000000000e+00 +0.0000000000e+00 +9.9999998245e-15 1.2500000000e+02 1.2500000000e+02 0.0000e+00 0.0000e+00
      -11  1    1    0    0    0 +2.7272351560e+00 +2.1281563077e+00 +2.5059675152e+00 4.2716196360e+00 5.1100000000e-04 0.0000e+00 -1.0000e+00
       11  1    1    0    0    0 +3.7173400221e+01 +2.9004950121e+01 +3.4167169459e+01 5.8228380405e+01 5.1100000000e-04 0.0000e+00 1.0000e+00
       22  1    1    0    0    0 -3.9900635377e+01 -3.1133106429e+01 -3.6673136974e+01 6.2499999959e+01 0.0000000000e+00 0.0000e+00 1.0000e+00
</event>
<event>
 4      1 +2.4041262e-06 9.11880000e+01 7.81860800e-03 1.13011600e-01
       25 -1    0    0    0    0 +0.0000000000e+00 +0.0000000000e+00 +9.9999998245e-15 1.2500000000e+02 1.2500000000e+02 0.0000e+00 0.0000e+00
      -13  1    1    0    0    0 -4.9291277887e+01 +1.3921100836e+01 -3.5816339953e+01 6.2499987967e+01 1.0566000000e-01 0.0000e+00 1.0000e+00
       13  1    1    0    0    0 +4.9291289148e+01 -1.3921108674e+01 +3.5816339445e+01 6.2499998303e+01 1.0566000000e-01 0.0000e+00 1.0000e+00
       22  1    1    0    0    0 -1.1261203761e-05 +7.8383638009e-06 +5.0783428341e-07 1.3729987359e-05 0.0000000000e+00 0.0000e+00 -1.0000e+00
</event>
<event>
 4      1 +2.4041262e-06 9.11880000e+01 7.81860800e-03 1.13011600e-01
       25 -1    0    0    0    0 +0.0000000000e+00 +0.0000000000e+00 +9.9999998245e-15 1.2500000000e+02 1.2500000000e+02 0.0000e+00 0.0000e+00
      -13  1    1    0    0    0 +3.4470709483e+01 -4.7457581410e+01 -2.1582097906e+01 6.2499999677e+01 1.0566000000e-01 0.0000e+00 -1.0000e+00
       13  1    1    0    0    0 -3.4470709662e+01 +4.7457581658e+01 +2.1582098012e+01 6.2500000000e+01 1.0566000000e-01 0.0000e+00 -1.0000e+00
       22  1    1    0    0    0 +1.7876395461e-07 -2.4722518449e-07 -1.0635950954e-07 3.2309315775e-07 0.0000000000e+00 0.0000e+00 -1.0000e+00
</event>
<event>
 5      1 +2.4041262e-06 9.11880000e+01 7.81860800e-03 1.13011600e-01
       25 -1    0    0    0    0 +0.0000000000e+00 +0.0000000000e+00 +9.9999998245e-15 1.2500000000e+02 1.2500000000e+02 0.0000e+00 0.0000e+00
       23  2    1    0    0    0 +2.6782934598e+00 -2.5360451179e+01 +9.8256079789e+00 9.7671108474e+01 9.3769809206e+01 0.0000e+00 0.0000e+00
      -13  1    2    2    0    0 +3.6372981737e+01 +1.9029025487e+01 -1.8075904666e-01 4.1050474410e+01 1.0566000000e-01 0.0000e+00 1.0000e+00
       13  1    2    2    0    0 -3.3694688277e+01 -4.4389476666e+01 +1.0006367026e+01 5.6620634064e+01 1.0566000000e-01 0.0000e+00 -1.0000e+00
       22  1    1    0    0    0 -2.6782934598e+00 +2.5360451179e+01 -9.8256079789e+00 2.7328891526e+01 0.0000000000e+00 0.0000e+00 -1.0000e+00
</event>
<event>
 4      1 +2.4041262e-06 9.11880000e+01 7.81860800e-03 1.13011600e-01
       25 -1    0    0    0    0 +0.0000000000e+00 +0.0000000000e+00 +9.9999998245e-15 1.2500000000e+02 1.2500000000e+02 0.0000e+00 0.0000e+00
      -13  1    1    0    0    0 +5.7114829003e+01 -2.1341108334e+01 +1.3736529366e+01 6.2500000000e+01 1.0566000000e-01 0.0000e+00 -1.0000e+00
       13  1    1    0    0    0 -5.7114828987e+01 +2.1341108329e+01 -1.3736529362e+01 6.2499999983e+01 1.0566000000e-01 0.0000e+00 -1.0000e+00
       22  1    1    0    0    0 -1.5338424763e-08 +5.4485307270e-09 -3.8237861946e-09 1.6720499458e-08 0.0000000000e+00 0.0000e+00 1.0000e+00
</event>
<event>
 4      1 +2.4041262e-06 9.11880000e+01 7.81860800e-03 1.13011600e-01
       25 -1    0    0    0    0 +0.0000000000e+00 +0.0000000000e+00 +9.9999998245e-15 1.2500000000e+02 1.2500000000e+02 0.0000e+00 0.0000e+00
      -13  1    1    0    0    0 +1.3282034686e+01 -3.2621882712e+00 -6.0985117186e+01 6.2500000000e+01 1.0566000000e-01 0.0000e+00 -1.0000e+00
       13  1    1    0    0    0 -1.3282034686e+01 +3.2621882710e+00 +6.0985117184e+01 6.2499999997e+01 1.0566000000e-01 0.0000e+00 -1.0000e+00
       22  1    1    0    0    0 -6.1752139337e-10 +1.3008952348e-10 +2.4992858086e-09 2.5777287500e-09 0.0000000000e+00 0.0000e+00 1.0000e+00
</event>
<event>
 4      1 +2.4041262e-06 9.11880000e+01 7.81860800e-03 1.13011600e-01
       25 -1    0    0    0    0 +0.0000000000e+00 +0.0000000000e+00 +9.9999998245e-15 1.2500000000e+02 1.2500000000e+02 0.0000e+00 0.0000e+00
      -13  1    1    0    0    0 -4.2857276062e+01 -2.0480729080e+01 -4.0620591572e+01 6.2499999990e+01 1.0566000000e-01 0.0000e+00 1.0000e+00
       13  1    1    0    0    0 +4.2857276062e+01 +2.0480729081e+01 +4.0620591583e+01 6.2499999998e+01 1.0566000000e-01 0.0000e+00 1.0000e+00
       22  1    1    0    0    0 +2.9618559491e-10 -8.9940374927e-10 -1.1689922357e-08 1.1728211191e-08 0.0000000000e+00 0.0000e+00 -1.0000e+00
</event>
<event>
 5      1 +2.4041262e-06 9.11880000e+01 7.81860800e-03 1.13011600e-01
       25 -1    0    0    0    0 +0.0000000000e+00 +0.0000000000e+00 +9.9999998245e-15 1.2500000000e+02 1.2500000000e+02 0.0000e+00 0.0000e+00
       23  2    1    0    0    0 -2.4882317593e+01 -1.7836357729e+01 +3.3357763203e+00 9.4204013419e+01 8.9028104297e+01 0.0000e+00 0.0000e+00
      -13  1    2    2    0    0 -2.2652413614e+01 +3.4754349057e+01 +4.6304401361e-01 4.1487614956e+01 1.0566000000e-01 0.0000e+00 1.0000e+00
       13  1    2    2    0    0 -2.2299039791e+00 -5.2590706786e+01 +2.8727323066e+00 5.2716398463e+01 1.0566000000e-01 0.0000e+00 -1.0000e+00
       22  1    1    0    0    0 +2.4882317593e+01 +1.7836357729e+01 -3.3357763203e+00 3.0795986581e+01 0.0000000000e+00 0.0000e+00 1.0000e+00
</event>
<event>
 5      1 +2.4041262e-06 9.11880000e+01 7.81860800e-03 1.13011600e-01
       25 -1    0    0    0    0 +0.0000000000e+00 +0.0000000000e+00 +9.9999998245e-15 1.2500000000e+02 1.2500000000e+02 0.0000e+00 0.0000e+00
       23  2    1    0    0    0 -6.9272149790e+00 -2.4093320040e+01 -1.4355002435e+01 9.6111585838e+01 9.1667314019e+01 0.0000e+00 0.0000e+00
      -11  1    2    2    0    0 -3.3638391304e+01 +3.3991851971e+00 +2.4328502112e+01 4.1652993227e+01 5.1100000000e-04 0.0000e+00 1.0000e+00
       11  1    2    2    0    0 +2.6711176325e+01 -2.7492505237e+01 -3.8683504546e+01 5.4458592611e+01 5.1100000000e-04 0.0000e+00 -1.0000e+00
       22  1    1    0    0    0 +6.9272149790e+00 +2.4093320040e+01 +1.4355002435e+01 2.8888414162e+01 0.0000000000e+00 0.0000e+00 -1.0000e+00
</event>
<event>
 4      1 +2.4041262e-06 9.11880000e+01 7.81860800e-03 1.13011600e-01
       25 -1    0    0    0    0 +0.0000000000e+00 +0.0000000000e+00 +9.9999998245e-15 1.2500000000e+02 1.2500000000e+02 0.0000e+00 0.0000e+00
      -13  1    1    0    0    0 +1.5818342066e+01 -4.2310883426e+01 -3.8703545412e+01 5.9484505491e+01 1.0566000000e-01 0.0000e+00 -1.0000e+00
       13  1    1    0    0    0 -1.6630896027e+01 +4.4454209085e+01 +4.0662930665e+01 6.2499988019e+01 1.0566000000e-01 0.0000e+00 -1.0000e+00
       22  1    1    0    0    0 +8.1255396092e-01 -2.1433256591e+00 -1.9593852533e+00 3.0155064900e+00 0.0000000000e+00 0.0000e+00 1.0000e+00
</event>
<event>
 4      1 +2.4041262e-06 9.11880000e+01 7.81860800e-03 1.13011600e-01
       25 -1    0    0    0    0 +0.0000000000e+00 +0.0000000000e+00 +9.9999998245e-15 1.2500000000e+02 1.2500000000e+02 0.0000e+00 0.0000e+00
      -11  1    1    0    0    0 -5.1850637305e+00 +1.7206692893e+00 +4.2538687390e+00 6.9239431109e+00 5.1100000000e-04 0.0000e+00 -1.0000e+00
       11  1    1    0    0    0 -2.2741629771e+01 -1.0028824130e+00 +5.1172672938e+01 5.6007409810e+01 5.1100000000e-04 0.0000e+00 1.0000e+00
       22  1    1    0    0    0 +2.7926693502e+01 -7.1778687633e-01 -5.5426541677e+01 6.2068647079e+01 0.0000000000e+00 0.0000e+00 1.0000e+00
</event>
<event>
 4      1 +2.4041262e-06 9.11880000e+01 7.81860800e-03 1.13011600e-01
       25 -1    0    0    0    0 +0.0000000000e+00 +0.0000000000e+00 +9.9999998245e-15 1.2500000000e+02 1.2500000000e+02 0.0000e+00 0.0000e+00
      -13  1    1    0    0    0 -1.7290060863e+01 -4.0206278366e+01 -4.4617797013e+01 6.2499999992e+01 1.0566000000e-01 0.0000e+00 1.0000e+00
       13  1    1    0    0    0 +1.7289270637e+01 +4.0204423499e+01 +4.4615735017e+01 6.2497116119e+01 1.0566000000e-01 0.0000e+00 1.0000e+00
       22  1    1    0    0    0 +7.9022578912e-04 +1.8548669621e-03 +2.0619963535e-03 2.8838892500e-03 0.0000000000e+00 0.0000e+00 1.0000e+00
</event>
<event>
 4      1 +2.4041262e-06 9.11880000e+01 7.81860800e-03 1.13011600e-01
       25 -1    0    0    0    0 +0.0000000000e+00 +0.0000000000e+00 +9.9999998245e-15 1.2500000000e+02 1.2500000000e+02 0.0000e+00 0.0000e+00
      -13  1    1    0    0    0 -2.7872598542e+01 -1.9569955109e+01 +9.2029810420e+00 3.5278476675e+01 1.0566000000e-01 0.0000e+00 1.0000e+00
       13  1    1    0    0    0 +4.8354348579e+01 +3.5993096264e+01 -1.6454772223e+01 6.2485331864e+01 1.0566000000e-01 0.0000e+00 1.0000e+00
       22  1    1    0    0    0 -2.0481750037e+01 -1.6423141155e+01 +7.2517911805e+00 2.7236191461e+01 0.0000000000e+00 0.0000e+00 -1.0000e+00
</event>
<event>
 5      1 +2.4041262e-06 9.11880000e+01 7.81860800e-03 1.13011600e-01
       25 -1    0    0    0    0 +0.0000000000e+00 +0.0000000000e+00 +9.9999998245e-15 1.2500000000e+02 1.2500000000e+02 0.0000e+00 0.0000e+00
       23  2    1    0    0    0 -9.2487306640e+00 +2.6828534462e+01 +5.9509350014e-01 9.6615789309e+01 9.2352300065e+01 0.0000e+00 0.0000e+00
      -11  1    2    2    0    0 +1.3079013773e+01 +2.7440903113e+01 -4.0024787193e+01 5.0259798598e+01 5.1100000000e-04 0.0000e+00 1.0000e+00
       11  1    2    2    0    0 -2.2327744437e+01 -6.1236865085e-01 +4.0619880693e+01 4.6355990711e+01 5.1100000000e-04 0.0000e+00 -1.0000e+00
       22  1    1    0    0    0 +9.2487306640e+00 -2.6828534462e+01 -5.9509350014e-01 2.8384210691e+01 0.0000000000e+00 0.0000e+00 1.0000e+00
</event>
<event>
 4      1 +2.4041262e-06 9.11880000e+01 7.81860800e-03 1.13011600e-01
       25 -1    0    0    0    0 +0.0000000000e+00 +0.0000000000e+00 +9.9999998245e-15 1.2500000000e+02 1.2500000000e+02 0.0000e+00 0.0000e+00
      -13  1    1    0    0    0 -5.2844188625e+00 +2.0429304828e+01 -1.1448761500e+01 2.4007642166e+01 1.0566000000e-01 0.0000e+00 1.0000e+00
       13  1    1    0    0    0 -1.1116761003e+00 +3.5075813949e+01 -1.6200943678e+01 3.8652687979e+01 1.0566000000e-01 0.0000e+00 -1.0000e+00
       22  1    1    0    0    0 +6.3960949628e+00 -5.5505118777e+01 +2.7649705178e+01 6.2339669855e+01 0.0000000000e+00 0.0000e+00 -1.0000e+00
</event>
<event>
 4      1 +2.4041262e-06 9.11880000e+01 7.81860800e-03 1.13011600e-01
       25 -1    0    0    0    0 +0.0000000000e+00 +0.0000000000e+00 +9.9999998245e-15 1.2500000000e+02 1.2500000000e+02 0.0000e+00 0.0000e+00
      -13  1    1    0    0    0 +1.2051023783e+01 -4.7657873302e+01 -3.8597134271e+01 6.2499999999e+01 1.0566000000e-01 0.0000e+00 1.0000e+00
       13  1    1    0    0    0 -1.2051023786e+01 +4.7657873297e+01 +3.8597134265e+01 6.2499999992e+01 1.0566000000e-01 0.0000e+00 1.0000e+00
       22  1    1    0    0    0 +2.8696092970e-09 +5.5270786845e-09 +6.2472094808e-09 8.8210477042e-09 0.0000000000e+00 0.0000e+00 -1.0000e+00
</event>
<event>
 4      1 +2.4041262e-06 9.11880000e+01 7.81860800e-03 1.13011600e-01
       25 -1    0    0    0    0 +0.0000000000e+00 +0.0000000000e+00 +9.9999998245e-15 1.2500000000e+02 1.2500000000e+02 0.0000e+00 0.0000e+00
      -13  1    1    0    0    0 +3.1211847972e+01 -3.5254309125e+01 +4.1099769739e+01 6.2499984019e+01 1.0566000000e-01 0.0000e+00 1.0000e+00
       13  1    1    0    0    0 -3.1209760365e+01 +3.5251569401e+01 -4.1096098862e+01 6.2494982142e+01 1.0566000000e-01 0.0000e+00 1.0000e+00
       22  1    1    0    0    0 -2.0876071123e-03 +2.7397241648e-03 -3.6708773526e-03 5.0338387432e-03 0.0000000000e+00 0.0000e+00 1.0000e+00
</event>
<event>
 4      1 +2.4041262e-06 9.11880000e+01 7.81860800e-03 1.13011600e-01
       25 -1    0    0    0    0 +0.0000000000e+00 +0.0000000000e+00 +9.9999998245e-15 1.2500000000e+02 1.2500000000e+02 0.0000e+00 0.0000e+00
      -13  1    1    0    0    0 +3.6187367206e+01 -5.9080387870e+00 +5.0614309915e+01 6.2499999999e+01 1.0566000000e-01 0.0000e+00 1.0000e+00
       13  1    1    0    0    0 -3.6187367207e+01 +5.9080387875e+00 -5.0614309915e+01 6.2500000000e+01 1.0566000000e-01 0.0000e+00 1.0000e+00
       22  1    1    0    0    0 +1.4458501083e-09 -5.5925966799e-10 +5.2625660865e-11 1.5511361552e-09 0.0000000000e+00 0.0000e+00 1.0000e+00
</event>
<event>
 4      1 +2.4041262e-06 9.11880000e+01 7.81860800e-03 1.13011600e-01
       25 -1    0    0    0    0 +0.0000000000e+00 +0.0000000000e+00 +9.9999998245e-15 1.2500000000e+02 1.2500000000e+02 0.0000e+00 0.0000e+00
      -13  1    1    0    0    0 +4.4285550306e+01 +3.9618951087e+01 +5.3895182957e+00 5.9665143280e+01 1.0566000000e-01 0.0000e+00 1.0000e+00
       13  1    1    0    0    0 -4.5966314453e+01 -4.1924223721e+01 -5.6513771858e+00 6.2469927382e+01 1.0566000000e-01 0.0000e+00 1.0000e+00
       22  1    1    0    0    0 +1.6807641469e+00 +2.3052726334e+00 +2.6185889015e-01 2.8649293377e+00 0.0000000000e+00 0.0000e+00 -1.0000e+00
</event>
<event>
 4      1 +2.4041262e-06 9.11880000e+01 7.81860800e-03 1.13011600e-01
       25 -1    0    0    0    0 +0.0000000000e+00 +0.0000000000e+00 +9.9999998245e-15 1.2500000000e+02 1.2500000000e+02 0.0000e+00 0.0000e+00
      -13  1    1    0    0    0 -4.8419540711e+01 +8.1978469577e+00 +3.8659826486e+01 6.2499999723e+01 1.0566000000e-01 0.0000e+00 1.0000e+00
       13  1    1    0    0    0 +4.8419540926e+01 -8.1978469948e+00 -3.8659826657e+01 6.2500000000e+01 1.0566000000e-01 0.0000e+00 1.0000e+00
       22  1    1    0    0    0 -2.1461400292e-07 +3.7109175334e-08 +1.7131275101e-07 2.7709983725e-07 0.0000000000e+00 0.0000e+00 1.0000e+00
</event>
<event>
 4      1 +2.4041262e-06 9.11880000e+01 7.81860800e-03 1.13011600e-01
       25 -1    0    0    0    0 +0.0000000000e+00 +0.0000000000e+00 +9.9999998245e-15 1.2500000000e+02 1.2500000000e+02 0.0000e+00 0.0000e+00
      -13  1    1    0    0    0 +2.0758129167e+01 -2.7538934091e+01 -5.2095624391e+01 6.2476059912e+01 1.0566000000e-01 0.0000e+00 1.0000e+00
       13  1    1    0    0    0 -2.0765991499e+01 +2.7550594009e+01 +5.2115018649e+01 6.2499983728e+01 1.0566000000e-01 0.0000e+00 1.0000e+00
       22  1    1    0    0    0 +7.8623319982e-03 -1.1659918017e-02 -1.9394258198e-02 2.3956360401e-02 0.0000000000e+00 0.0000e+00 -1.0000e+00
</event>
<event>
 4      1 +2.4041262e-06 9.11880000e+01 7.81860800e-03 1.13011600e-01
       25 -1    0    0    0    0 +0.0000000000e+00 +0.0000000000e+00 +9.9999998245e-15 1.2500000000e+02 1.2500000000e+02 0.0000e+00 0.0000e+00
      -13  1    1    0    0    0 +4.2504622369e+01 -4.4852358697e+01 -9.3734174420e+00 6.2499992976e+01 1.0566000000e-01 0.0000e+00 -1.0000e+00
       13  1    1    0    0    0 -4.2495541770e+01 +4.4842224331e+01 +9.3718493534e+00 6.2486309521e+01 1.0566000000e-01 0.0000e+00 -1.0000e+00
       22  1    1    0    0    0 -9.0805996618e-03 +1.0134366346e-02 +1.5680885525e-03 1.3697502443e-02 0.0000000000e+00 0.0000e+00 1.0000e+00
</event>
<event>
 4      1 +2.4041262e-06 9.11880000e+01 7.81860800e-03 1.13011600e-01
       25 -1    0    0    0    0 +0.0000000000e+00 +0.0000000000e+00 +9.9999998245e-15 1.2500000000e+02 1.2500000000e+02 0.0000e+00 0.0000e+00
      -11  1    1    0    0    0 +2.0305996611e+01 +4.3489552517e+01 +9.7601624540e+00 4.8978928611e+01 5.1100000000e-04 0.0000e+00 -1.0000e+00
       11  1    1    0    0    0 +6.6138586149e+00 +1.1620445767e+01 +2.1482683629e+00 1.3542265055e+01 5.1100000000e-04 0.0000e+00 1.0000e+00
       22  1    1    0    0    0 -2.6919855226e+01 -5.5109998285e+01 -1.1908430817e+01 6.2478806333e+01 0.0000000000e+00 0.0000e+00 -1.0000e+00
</event>
<event>
 5      1 +2.4041262e-06 9.11880000e+01 7.81860800e-03 1.13011600e-01
       25 -1    0    0    0    0 +0.0000000000e+00 +0.0000000000e+00 +9.9999998245e-15 1.2500000000e+02 1.2500000000e+02 0.0000e+00 0.0000e+00
       23  2    1    0    0    0 -1.8451741230e+01 -1.6690860399e+01 +1.1930905995e+01 9.7406557062e+01 9.3416482836e+01 0.0000e+00 0.0000e+00
      -11  1    2    2    0    0 -3.2895485530e+01 -5.0166775160e+01 +1.0627751949e+01 6.0924276032e+01 5.1100000000e-04 0.0000e+00 1.0000e+00
       11  1    2    2    0    0 +1.4443744300e+01 +3.3475914761e+01 +1.3031540462e+00 3.6482281031e+01 5.1100000000e-04 0.0000e+00 -1.0000e+00
       22  1    1    0    0    0 +1.8451741230e+01 +1.6690860399e+01 -1.1930905995e+01 2.7593442938e+01 0.0000000000e+00 0.0000e+00 1.0000e+00
</event>
<event>
 4      1 +2.4041262e-06 9.11880000e+01 7.81860800e-03 1.13011600e-01
       25 -1    0    0    0    0 +0.0000000000e+00 +0.0000000000e+00 +9.9999998245e-15 1.2500000000e+02 1.2500000000e+02 0.0000e+00 0.0000e+00
      -13  1    1    0    0    0 -7.5854750715e+00 -2.0639142717e+00 +6.2003541451e+01 6.2499995926e+01 1.0566000000e-01 0.0000e+00 -1.0000e+00
       13  1    1    0    0    0 +7.5854965676e+00 +2.0638921233e+00 -6.2003459509e+01 6.2499916512e+01 1.0566000000e-01 0.0000e+00 -1.0000e+00
       22  1    1    0    0    0 -2.1496040841e-05 +2.2148427872e-05 -8.1942299812e-05 8.7562395624e-05 0.0000000000e+00 0.0000e+00 1.0000e+00
</event>
<event>
 4      1 +2.4041262e-06 9.11880000e+01 7.81860800e-03 1.13011600e-01
       25 -1    0    0    0    0 +0.0000000000e+00 +0.0000000000e+00 +9.9999998245e-15 1.2500000000e+02 1.2500000000e+02 0.0000e+00 0.0000e+00
      -13  1    1    0    0    0 -1.8882889765e+01 +5.9507959632e+01 +2.9111334824e+00 6.2499973181e+01 1.0566000000e-01 0.0000e+00 1.0000e+00
       13  1    1    0    0    0 +1.8882897941e+01 -5.9507985146e+01 -2.9111346781e+00 6.2500000000e+01 1.0566000000e-01 0.0000e+00 1.0000e+00
       22  1    1    0    0    0 -8.1761903308e-06 +2.5513923109e-05 +1.1956388652e-06 2.6818648606e-05 0.0000000000e+00 0.0000e+00 -1.0000e+00
</event>
<event>
 4      1 +2.4041262e-06 9.11880000e+01 7.81860800e-03 1.13011600e-01
       25 -1    0    0    0    0 +0.0000000000e+00 +0.0000000000e+00 +9.9999998245e-15 1.2500000000e+02 1.2500000000e+02 0.0000e+00 0.0000e+00
      -11  1    1    0    0    0 -1.4264794122e+00 -6.1454457625e+00 +1.3271947391e+01 1.4695099011e+01 5.1100000000e-04 0.0000e+00 -1.0000e+00
       11  1    1    0    0    0 -4.6122495152e+00 -1.9995437301e+01 +4.3176594308e+01 4.7804901995e+01 5.1100000000e-04 0.0000e+00 1.0000e+00
       22  1    1    0    0    0 +6.0387289274e+00 +2.6140883063e+01 -5.6448541699e+01 6.2499998994e+01 0.0000000000e+00 0.0000e+00 1.0000e+00
</event>
<event>
 4      1 +2.4041262e-06 9.11880000e+01 7.81860800e-03 1.13011600e-01
       25 -1    0    0    0    0 +0.0000000000e+00 +0.0000000000e+00 +9.9999998245e-15 1.2500000000e+02 1.2500000000e+02 0.0000e+00 0.0000e+00
      -13  1    1    0    0    0 -2.5613710703e+01 -6.2748014582e+00 -5.0214900204e+00 2.6845145471e+01 1.0566000000e-01 0.0000e+00 -1.0000e+00
       13  1    1    0    0    0 +5.9718819990e+01 +1.4325210816e+01 +1.1603723187e+01 6.2499653453e+01 1.0566000000e-01 0.0000e+00 -1.0000e+00
       22  1    1    0    0    0 -3.4105109287e+01 -8.0504093576e+00 -6.5822331668e+00 3.5655201076e+01 0.0000000000e+00 0.0000e+00 -1.0000e+00
</event>
<event>
 5      1 +2.4041262e-06 9.11880000e+01 7.81860800e-03 1.13011600e-01
       25 -1    0    0    0    0 +0.0000000000e+00 +0.0000000000e+00 +9.9999998245e-15 1.2500000000e+02 1.2500000000e+02 0.0000e+00 0.0000e+00
       23  2    1    0    0    0 -3.4525602007e+00 -3.9878505364e+00 -2.8647868592e+01 9.5870573320e+01 9.1338071635e+01 0.0000e+00 0.0000e+00
      -13  1    2    2    0    0 -3.3250555199e+00 -3.2083069334e+01 +2.1236465836e+01 3.8618363214e+01 1.0566000000e-01 0.0000e+00 -1.0000e+00
       13  1    2    2    0    0 -1.2750468072e-01 +2.8095218798e+01 -4.9884334428e+01 5.7252210106e+01 1.0566000000e-01 0.0000e+00 1.0000e+00
       22  1    1    0    0    0 +3.4525602007e+00 +3.9878505364e+00 +2.8647868592e+01 2.9129426680e+01 0.0000000000e+00 0.0000e+00 1.0000e+00
</event>
<event>
 4      1 +2.4041262e-06 9.11880000e+01 7.81860800e-03 1.13011600e-01
       25 -1    0    0    0    0 +0.0000000000e+00 +0.0000000000e+00 +9.9999998245e-15 1.2500000000e+02 1.2500000000e+02 0.0000e+00 0.0000e+00
      -13  1    1    0    0    0 -4.1004781705e+01 -4.5510652097e+01 +1.2394646384e+01 6.2500000000e+01 1.0566000000e-01 0.0000e+00 -1.0000e+00
       13  1    1    0    0    0 +4.1004687206e+01 +4.5510546959e+01 -1.2394618118e+01 6.2499855838e+01 1.0566000000e-01 0.0000e+00 -1.0000e+00
       22  1    1    0    0    0 +9.4498946370e-05 +1.0513743136e-04 -2.8265845248e-05 1.4416271483e-04 0.0000000000e+00 0.0000e+00 -1.0000e+00
</event>
<event>
 4      1 +2.4041262e-06 9.11880000e+01 7.81860800e-03 1.13011600e-01
       25 -1    0    0    0    0 +0.0000000000e+00 +0.0000000000e+00 +9.9999998245e-15 1.2500000000e+02 1.2500000000e+02 0.0000e+00 0.0000e+00
      -13  1    1    0    0    0 -5.6342170417e+01 -2.6634578643e+01 +4.7315230980e+00 6.2499915373e+01 1.0566000000e-01 0.0000e+00 1.0000e+00
       13  1    1    0    0    0 +5.6338639205e+01 +2.6633081508e+01 -4.7323651066e+00 6.2496157814e+01 1.0566000000e-01 0.0000e+00 1.0000e+00
       22  1    1    0    0    0 +3.5312122853e-03 +1.4971357843e-03 +8.4200863122e-04 3.9268122308e-03 0.0000000000e+00 0.0000e+00 1.0000e+00
</event>
<event>
 4      1 +2.4041262e-06 9.11880000e+01 7.81860800e-03 1.13011600e-01
       25 -1    0    0    0    0 +0.0000000000e+00 +0.0000000000e+00 +9.9999998245e-15 1.2500000000e+02 1.2500000000e+02 0.0000e+00 0.0000e+00
      -13  1    1    0    0    0 -1.1274283188e+01 -6.0944036814e+01 +7.1980565619e+00 6.2394777561e+01 1.0566000000e-01 0.0000e+00 1.0000e+00
       13  1    1    0    0    0 +1.1535911912e+01 +6.0790211648e+01 -7.0774458507e+00 6.2278635981e+01 1.0566000000e-01 0.0000e+00 1.0000e+00
       22  1    1    0    0    0 -2.6162872411e-01 +1.5382516594e-01 -1.2061071125e-01 3.2658645811e-01 0.0000000000e+00 0.0000e+00 1.0000e+00
</event>
<event>
 4      1 +2.4041262e-06 9.11880000e+01 7.81860800e-03 1.13011600e-01
       25 -1    0    0    0    0 +0.0000000000e+00 +0.0000000000e+00 +9.9999998245e-15 1.2500000000e+02 1.2500000000e+02 0.0000e+00 0.0000e+00
      -13  1    1    0    0    0 +2.2279226259e+01 -1.6736410723e+01 -5.5217193386e+01 6.1849987680e+01 1.0566000000e-01 0.0000e+00 -1.0000e+00
       13  1    1    0    0    0 -2.2602944067e+01 +1.6859802130e+01 +5.5772310694e+01 6.2495662349e+01 1.0566000000e-01 0.0000e+00 -1.0000e+00
       22  1    1    0    0    0 +3.2371780792e-01 -1.2339140738e-01 -5.5511730741e-01 6.5434997025e-01 0.0000000000e+00 0.0000e+00 1.0000e+00
</event>
<event>
 4      1 +2.4041262e-06 9.11880000e+01 7.81860800e-03 1.13011600e-01
       25 -1    0    0    0    0 +0.0000000000e+00 +0.0000000000e+00 +9.9999998245e-15 1.2500000000e+02 1.2500000000e+02 0.0000e+00 0.0000e+00
      -13  1    1    0    0    0 -4.5119514956e+01 -1.9705897522e+01 -3.3237677419e+01 5.9404102479e+01 1.0566000000e-01 0.0000e+00 -1.0000e+00
       13  1    1    0    0    0 -5.5151362956e-01 +5.1430837400e+00 -2.5556866878e+00 5.7704571849e+00 1.0566000000e-01 0.0000e+00 1.0000e+00
       22  1    1    0    0    0 +4.5671028586e+01 +1.4562813782e+01 +3.5793364107e+01 5.9825440336e+01 0.0000000000e+00 0.0000e+00 -1.0000e+00
</event>
<event>
 4      1 +2.4041262e-06 9.11880000e+01 7.81860800e-03 1.13011600e-01
       25 -1    0    0    0    0 +0.0000000000e+00 +0.0000000000e+00 +9.9999998245e-15 1.2500000000e+02 1.2500000000e+02 0.0000e+00 0.0000e+00
      -13  1    1    0    0    0 -2.1234758917e+01 -4.4432061122e+01 +3.8484484938e+01 6.2499518292e+01 1.0566000000e-01 0.0000e+00 -1.0000e+00
       13  1    1    0    0    0 +2.0734679018e+01 +4.3279434874e+01 -3.7540159685e+01 6.0928738295e+01 1.0566000000e-01 0.0000e+00 -1.0000e+00
       22  1    1    0    0    0 +5.0007989881e-01 +1.1526262474e+00 -9.4432525302e-01 1.5717434125e+00 0.0000000000e+00 0.0000e+00 -1.0000e+00
</event>
<event>
 4      1 +2.4041262e-06 9.11880000e+01 7.81860800e-03 1.13011600e-01
       25 -1    0    0    0    0 +0.0000000000e+00 +0.0000000000e+00 +9.9999998245e-15 1.2500000000e+02 1.2500000000e+02 0.0000e+00 0.0000e+00
      -13  1    1    0    0    0 +5.5851113045e+01 +1.4854219432e+01 +2.0396040918e+01 6.1286248967e+01 1.0566000000e-01 0.0000e+00 1.0000e+00
       13  1    1    0    0    0 -5.6959700770e+01 -1.5139527848e+01 -2.0799609703e+01 6.2499981945e+01 1.0566000000e-01 0.0000e+00 1.0000e+00
       22  1    1    0    0    0 +1.1085877251e+00 +2.8530841635e-01 +4.0356878506e-01 1.2137690888e+00 0.0000000000e+00 0.0000e+00 -1.0000e+00
</event>
<event>
 4      1 +2.4041262e-06 9.11880000e+01 7.81860800e-03 1.13011600e-01
       25 -1    0    0    0    0 +0.0000000000e+00 +0.0000000000e+00 +9.9999998245e-15 1.2500000000e+02 1.2500000000e+02 0.0000e+00 0.0000e+00
      -13  1    1    0    0    0 +5.5150796518e+01 +8.4498010014e+00 -2.8164327480e+01 6.2500000000e+01 1.0566000000e-01 0.0000e+00 -1.0000e+00
       13  1    1    0    0    0 -5.5150796500e+01 -8.4498009984e+00 +2.8164327470e+01 6.2499999979e+01 1.0566000000e-01 0.0000e+00 -1.0000e+00
       22  1    1    0    0    0 -1.7945084143e-08 -3.0179084406e-09 +1.0013550576e-08 2.0770291558e-08 0.0000000000e+00 0.0000e+00 1.0000e+00
</event>
<event>
 4      1 +2.4041262e-06 9.11880000e+01 7.81860800e-03 1.13011600e-01
       25 -1    0    0    0    0 +0.0000000000e+00 +0.0000000000e+00 +9.9999998245e-15 1.2500000000e+02 1.2500000000e+02 0.0000e+00 0.0000e+00
      -11  1    1    0    0    0 -1.8629779474e+00 -2.3874848368e+01 +1.7544026462e+01 2.9686224688e+01 5.1100000000e-04 0.0000e+00 -1.0000e+00
       11  1    1    0    0    0 -2.0765645856e+00 -2.6401384324e+01 +1.9375211135e+01 3.2813777921e+01 5.1100000000e-04 0.0000e+00 1.0000e+00
       22  1    1    0    0    0 +3.9395425330e+00 +5.0276232692e+01 -3.6919237597e+01 6.2499997391e+01 0.0000000000e+00 0.0000e+00 -1.0000e+00
</event>
<event>
 4      1 +2.4041262e-06 9.11880000e+01 7.81860800e-03 1.13011600e-01
       25 -1    0    0    0    0 +0.0000000000e+00 +0.0000000000e+00 +9.9999998245e-15 1.2500000000e+02 1.2500000000e+02 0.0000e+00 0.0000e+00
      -13  1    1    0    0    0 +2.5327845389e+01 -8.7870361855e+00 -5.6438157511e+01 6.2481905734e+01 1.0566000000e-01 0.0000e+00 -1.0000e+00
       13  1    1    0    0    0 -2.5335315263e+01 +8.7896545840e+00 +5.6454429031e+01 6.2499999587e+01 1.0566000000e-01 0.0000e+00 -1.0000e+00
       22  1    1    0    0    0 +7.4698743023e-03 -2.6183984919e-03 -1.6271520027e-02 1.8094678686e-02 0.0000000000e+00 0.0000e+00 1.0000e+00
</event>
<event>
 4      1 +2.4041262e-06 9.11880000e+01 7.81860800e-03 1.13011600e-01
       25 -1    0    0    0    0 +0.0000000000e+00 +0.0000000000e+00 +9.9999998245e-15 1.2500000000e+02 1.2500000000e+02 0.0000e+00 0.0000e+00
      -13  1    1    0    0    0 +3.8604842180e+01 -1.5253513915e+00 +3.6101954907e+01 5.2877432320e+01 1.0566000000e-01 0.0000e+00 1.0000e+00
       13  1    1    0    0    0 -3.4021951590e+01 -6.3493689307e+00 -4.6712650464e+01 5.8136826136e+01 1.0566000000e-01 0.0000e+00 1.0000e+00
       22  1    1    0    0    0 -4.5828905901e+00 +7.8747203223e+00 +1.0610695557e+01 1.3985741544e+01 0.0000000000e+00 0.0000e+00 1.0000e+00
</event>
<event>
 5      1 +2.4041262e-06 9.11880000e+01 7.81860800e-03 1.13011600e-01
       25 -1    0    0    0    0 +0.0000000000e+00 +0.0000000000e+00 +9.9999998245e-15 1.2500000000e+02 1.2500000000e+02 0.0000e+00 0.0000e+00
       23  2    1    0    0    0 +2.3591814533e+01 -1.6445761865e+01 -2.3902365734e+00 9.6142591468e+01 9.1709584380e+01 0.0000e+00 0.0000e+00
      -11  1    2    2    0    0 +4.9672013804e+01 -3.5299219233e+01 +9.8189330155e+00 6.1723215079e+01 5.1100000000e-04 0.0000e+00 -1.0000e+00
       11  1    2    2    0    0 -2.6080199271e+01 +1.8853457369e+01 -1.2209169589e+01 3.4419376390e+01 5.1100000000e-04 0.0000e+00 1.0000e+00
       22  1    1    0    0    0 -2.3591814533e+01 +1.6445761865e+01 +2.3902365734e+00 2.8857408532e+01 0.0000000000e+00 0.0000e+00 -1.0000e+00
</event>
<event>
 4      1 +2.4041262e-06 9.11880000e+01 7.81860800e-03 1.13011600e-01
       25 -1    0    0    0    0 +0.0000000000e+00 +0.0000000000e+00 +9.9999998245e-15 1.2500000000e+02 1.2500000000e+02 0.0000e+00 0.0000e+00
      -13  1    1    0    0    0 +4.0800595806e+01 +2.4207073336e+01 -4.0688526978e+01 6.2499907274e+01 1.0566000000e-01 0.0000e+00 1.0000e+00
       13  1    1    0    0    0 -4.0800655547e+01 -2.4207110456e+01 +4.0688587412e+01 6.2499999994e+01 1.0566000000e-01 0.0000e+00 1.0000e+00
       22  1    1    0    0    0 +5.9740677458e-05 +3.7119732279e-05 -6.0434115401e-05 9.2731361318e-05 0.0000000000e+00 0.0000e+00 -1.0000e+00
</event>
<event>
 4      1 +2.4041262e-06 9.11880000e+01 7.81860800e-03 1.13011600e-01
       25 -1    0    0    0    0 +0.0000000000e+00 +0.0000000000e+00 +9.9999998245e-15 1.2500000000e+02 1.2500000000e+02 0.0000e+00 0.0000e+00
      -13  1    1    0    0    0 -2.8454773353e+01 +4.3978621652e+01 +1.5142415798e+01 5.4526114929e+01 1.0566000000e-01 0.0000e+00 -1.0000e+00
       13  1    1    0    0    0 +3.2634932899e+01 -5.0400841434e+01 -1.7347984691e+01 6.2499979196e+01 1.0566000000e-01 0.0000e+00 -1.0000e+00
       22  1    1    0    0    0 -4.1801595462e+00 +6.4222197825e+00 +2.2055688934e+00 7.9739058754e+00 0.0000000000e+00 0.0000e+00 -1.0000e+00
</event>
<event>
 4      1 +2.4041262e-06 9.11880000e+01 7.81860800e-03 1.13011600e-01
       25 -1    0    0    0    0 +0.0000000000e+00 +0.0000000000e+00 +9.9999998245e-15 1.2500000000e+02 1.2500000000e+02 0.0000e+00 0.0000e+00
      -13  1    1    0    0    0 +4.5486495310e+00 -4.2359243469e+00 -6.3120097263e+00 8.8592267410e+00 1.0566000000e-01 0.0000e+00 -1.0000e+00
       13  1    1    0    0    0 +3.2132912912e+01 -2.6074459972e+01 -3.4170572663e+01 5.3666011173e+01 1.0566000000e-01 0.0000e+00 1.0000e+00
       22  1    1    0    0    0 -3.6681562443e+01 +3.0310384318e+01 +4.0482582390e+01 6.2474762086e+01 0.0000000000e+00 0.0000e+00 1.0000e+00
</event>
<event>
 4      1 +2.4041262e-06 9.11880000e+01 7.81860800e-03 1.13011600e-01
       25 -1    0    0    0    0 +0.0000000000e+00 +0.0000000000e+00 +9.9999998245e-15 1.2500000000e+02 1.2500000000e+02 0.0000e+00 0.0000e+00
      -13  1    1    0    0    0 -3.7246771374e+01 +1.2442285884e+01 -4.8622077085e+01 6.2500000000e+01 1.0566000000e-01 0.0000e+00 -1.0000e+00
       13  1    1    0    0    0 +3.7246599227e+01 -1.2442228034e+01 +4.8621851849e+01 6.2499710669e+01 1.0566000000e-01 0.0000e+00 -1.0000e+00
       22  1    1    0    0    0 +1.7214679361e-04 -5.7850571018e-05 +2.2523602834e-04 2.8933108299e-04 0.0000000000e+00 0.0000e+00 -1.0000e+00
</event>
<event>
 4      1 +2.4041262e-06 9.11880000e+01 7.81860800e-03 1.13011600e-01
       25 -1    0    0    0    0 +0.0000000000e+00 +0.0000000000e+00 +9.9999998245e-15 1.2500000000e+02 1.2500000000e+02 0.0000e+00 0.0000e+00
      -13  1    1    0    0    0 +1.9967574826e+01 -5.6318861623e+01 +1.8322678357e+01 6.2499999401e+01 1.0566000000e-01 0.0000e+00 -1.0000e+00
       13  1    1    0    0    0 -1.9967574412e+01 +5.6318861005e+01 -1.8322675840e+01 6.2499997974e+01 1.0566000000e-01 0.0000e+00 -1.0000e+00
       22  1    1    0    0    0 -4.1385693099e-07 +6.1801417534e-07 -2.5173351507e-06 2.6249181590e-06 0.0000000000e+00 0.0000e+00 -1.0000e+00
</event>
<event>
 4      1 +2.4041262e-06 9.11880000e+01 7.81860800e-03 1.13011600e-01
       25 -1    0    0    0    0 +0.0000000000e+00 +0.0000000000e+00 +9.9999998245e-15 1.2500000000e+02 1.2500000000e+02 0.0000e+00 0.0000e+00
      -13  1    1    0    0    0 -9.7220863402e+00 +1.7687786347e+00 -6.1713784822e+01 6.2499999534e+01 1.0566000000e-01 0.0000e+00 -1.0000e+00
       13  1    1    0    0    0 +9.7218054754e+00 -1.7687793025e+00 +6.1712188985e+01 6.2498380101e+01 1.0566000000e-01 0.0000e+00 -1.0000e+00
       22  1    1    0    0    0 +2.8086482961e-04 +6.6781975054e-07 +1.5958373948e-03 1.6203649246e-03 0.0000000000e+00 0.0000e+00 1.0000e+00
</event>
<event>
 4      1 +2.4041262e-06 9.11880000e+01 7.81860800e-03 1.13011600e-01
       25 -1    0    0    0    0 +0.0000000000e+00 +0.0000000000e+00 +9.9999998245e-15 1.2500000000e+02 1.2500000000e+02 0.0000e+00 0.0000e+00
      -13  1    1    0    0    0 -1.5349550176e+01 -5.6490155014e+01 -2.1897253430e+01 6.2499977407e+01 1.0566000000e-01 0.0000e+00 1.0000e+00
       13  1    1    0    0    0 +1.5349555815e+01 +5.6490175420e+01 +2.1897261320e+01 6.2500000000e+01 1.0566000000e-01 0.0000e+00 1.0000e+00
       22  1    1    0    0    0 -5.6386453154e-06 -2.0406050169e-05 -7.8900492574e-06 2.2593230884e-05 0.0000000000e+00 0.0000e+00 -1.0000e+00
</event>
<event>
 4      1 +2.4041262e-06 9.11880000e+01 7.81860800e-03 1.13011600e-01
       25 -1    0    0    0    0 +0.0000000000e+00 +0.0000000000e+00 +9.9999998245e-15 1.2500000000e+02 1.2500000000e+02 0.0000e+00 0.0000e+00
      -13  1    1    0    0    0 -6.1042983370e+01 -9.6386504575e+00 -8.9074929963e+00 6.2438001224e+01 1.0566000000e-01 0.0000e+00 -1.0000e+00
       13  1    1    0    0    0 +6.1104858994e+01 +9.6456401093e+00 +8.9085242845e+00 6.2499721078e+01 1.0566000000e-01 0.0000e+00 -1.0000e+00
       22  1    1    0    0    0 -6.1875624743e-02 -6.9896517834e-03 -1.0312881589e-03 6.2277698453e-02 0.0000000000e+00 0.0000e+00 -1.0000e+00
</event>
<event>
 5      1 +2.4041262e-06 9.11880000e+01 7.81860800e-03 1.13011600e-01
       25 -1    0    0    0    0 +0.0000000000e+00 +0.0000000000e+00 +9.9999998245e-15 1.2500000000e+02 1.2500000000e+02 0.0000e+00 0.0000e+00
       23  2    1    0    0    0 -1.8793698375e+00 +1.2503020550e+01 -2.4830374451e+01 9.7135954184e+01 9.3053686365e+01 0.0000e+00 0.0000e+00
      -11  1    2    2    0    0 -3.7650614863e+01 +5.8863320222e+00 -4.2169178541e+01 5.6837112200e+01 5.1100000000e-04 0.0000e+00 -1.0000e+00
       11  1    2    2    0    0 +3.5771245025e+01 +6.6166885280e+00 +1.7338804090e+01 4.0298841984e+01 5.1100000000e-04 0.0000e+00 1.0000e+00
       22  1    1    0    0    0 +1.8793698375e+00 -1.2503020550e+01 +2.4830374451e+01 2.7864045816e+01 0.0000000000e+00 0.0000e+00 -1.0000e+00
</event>
<event>
 4      1 +2.4041262e-06 9.11880000e+01 7.81860800e-03 1.13011600e-01
       25 -1    0    0    0    0 +0.0000000000e+00 +0.0000000000e+00 +9.9999998245e-15 1.2500000000e+02 1.2500000000e+02 0.0000e+00 0.0000e+00
      -11  1    1    0    0    0 +2.2272862559e+01 +3.7681542747e+01 -3.0452834107e+01 5.3323111084e+01 5.1100000000e-04 0.0000e+00 -1.0000e+00
       11  1    1    0    0    0 -2.0976925304e+01 +5.4257186819e+00 +8.3966415643e+00 2.3237327907e+01 5.1100000000e-04 0.0000e+00 1.0000e+00
       22  1    1    0    0    0 -1.2959372544e+00 -4.3107261429e+01 +2.2056192542e+01 4.8439561009e+01 0.0000000000e+00 0.0000e+00 -1.0000e+00
</event>
<event>
 4      1 +2.4041262e-06 9.11880000e+01 7.81860800e-03 1.13011600e-01
       25 -1    0    0    0    0 +0.0000000000e+00 +0.0000000000e+00 +9.9999998245e-15 1.2500000000e+02 1.2500000000e+02 0.0000e+00 0.0000e+00
      -13  1    1    0    0    0 +1.3945697790e+00 +2.8541492228e+00 +3.2447999002e+00 4.5421231911e+00 1.0566000000e-01 0.0000e+00 1.0000e+00
       13  1    1    0    0    0 +1.5484162279e+01 +4.5870434916e+01 +3.1968780947e+01 5.8016120175e+01 1.0566000000e-01 0.0000e+00 -1.0000e+00
       22  1    1    0    0    0 -1.6878732058e+01 -4.8724584139e+01 -3.5213580848e+01 6.2441756634e+01 0.0000000000e+00 0.0000e+00 -1.0000e+00
</event>
<event>
 4      1 +2.4041262e-06 9.11880000e+01 7.81860800e-03 1.13011600e-01
       25 -1    0    0    0    0 +0.0000000000e+00 +0.0000000000e+00 +9.9999998245e-15 1.2500000000e+02 1.2500000000e+02 0.0000e+00 0.0000e+00
      -13  1    1    0    0    0 -3.8819817350e+01 +2.0915606858e+01 -4.4292188956e+01 6.2499999967e+01 1.0566000000e-01 0.0000e+00 -1.0000e+00
       13  1    1    0    0    0 +3.8819817372e+01 -2.0915606872e+01 +4.4292188977e+01 6.2500000000e+01 1.0566000000e-01 0.0000e+00 -1.0000e+00
       22  1    1    0    0    0 -2.1731355919e-08 +1.3530488115e-08 -2.0942553690e-08 3.3074408442e-08 0.0000000000e+00 0.0000e+00 1.0000e+00
</event>
<event>
 4      1 +2.4041262e-06 9.11880000e+01 7.81860800e-03 1.13011600e-01
       25 -1    0    0    0    0 +0.0000000000e+00 +0.0000000000e+00 +9.9999998245e-15 1.2500000000e+02 1.2500000000e+02 0.0000e+00 0.0000e+00
      -13  1    1    0    0    0 -4.6250583812e+01 -2.1697295343e+01 -3.6004849624e+01 6.2499995909e+01 1.0566000000e-01 0.0000e+00 1.0000e+00
       13  1    1    0    0    0 +4.6250014451e+01 +2.1696904898e+01 +3.6004318830e+01 6.2499133253e+01 1.0566000000e-01 0.0000e+00 1.0000e+00
       22  1    1    0    0    0 +5.6936045856e-04 +3.9044427969e-04 +5.3079398000e-04 8.7083885795e-04 0.0000000000e+00 0.0000e+00 1.0000e+00
</event>
<event>
 4      1 +2.4041262e-06 9.11880000e+01 7.81860800e-03 1.13011600e-01
       25 -1    0    0    0    0 +0.0000000000e+00 +0.0000000000e+00 +9.9999998245e-15 1.2500000000e+02 1.2500000000e+02 0.0000e+00 0.0000e+00
      -13  1    1    0    0    0 +4.9176159152e+00 -6.2250455562e+01 -2.6332827144e+00 6.2499980046e+01 1.0566000000e-01 0.0000e+00 1.0000e+00
       13  1    1    0    0    0 -4.9176175371e+00 +6.2250475429e+01 +2.6332836187e+00 6.2500000000e+01 1.0566000000e-01 0.0000e+00 1.0000e+00
       22  1    1    0    0    0 +1.6219712384e-06 -1.9867149329e-05 -9.0435403781e-07 1.9953753266e-05 0.0000000000e+00 0.0000e+00 1.0000e+00
</event>
<event>
 4      1 +2.4041262e-06 9.11880000e+01 7.81860800e-03 1.13011600e-01
       25 -1    0    0    0    0 +0.0000000000e+00 +0.0000000000e+00 +9.9999998245e-15 1.2500000000e+02 1.2500000000e+02 0.0000e+00 0.0000e+00
      -11  1    1    0    0    0 +4.0050369756e-01 -9.8257498530e-01 -1.3909309562e-01 1.0701420298e+00 5.1100000000e-04 0.0000e+00 -1.0000e+00
       11  1    1    0    0    0 +2.3068413735e+01 -5.6369017655e+01 -8.0006036293e+00 6.1429858557e+01 5.1100000000e-04 0.0000e+00 1.0000e+00
       22  1    1    0    0    0 -2.3468917433e+01 +5.7351592641e+01 +8.1396967249e+00 6.2499999413e+01 0.0000000000e+00 0.0000e+00 1.0000e+00
</event>
<event>
 5      1 +2.4041262e-06 9.11880000e+01 7.81860800e-03 1.13011600e-01
       25 -1    0    0    0    0 +0.0000000000e+00 +0.0000000000e+00 +9.9999998245e-15 1.2500000000e+02 1.2500000000e+02 0.0000e+00 0.0000e+00
       23  2    1    0    0    0 -2.5243626066e+01 +1.8812336118e+01 +1.0419211252e+00 9.3500313544e+01 8.8034529510e+01 0.0000e+00 0.0000e+00
      -11  1    2    2    0    0 +1.5757144957e+01 -8.8777867009e+00 -3.0045404402e+01 3.5068918430e+01 5.1100000000e-04 0.0000e+00 -1.0000e+00
       11  1    2    2    0    0 -4.1000771024e+01 +2.7690122819e+01 +3.1087325527e+01 5.8431395114e+01 5.1100000000e-04 0.0000e+00 1.0000e+00
       22  1    1    0    0    0 +2.5243626066e+01 -1.8812336118e+01 -1.0419211252e+00 3.1499686456e+01 0.0000000000e+00 0.0000e+00 1.0000e+00
</event>
<event>
 5      1 +2.4041262e-06 9.11880000e+01 7.81860800e-03 1.13011600e-01
       25 -1    0    0    0    0 +0.0000000000e+00 +0.0000000000e+00 +9.9999998245e-15 1.2500000000e+02 1.2500000000e+02 0.0000e+00 0.0000e+00
       23  2    1    0    0    0 -1.0404595632e+01 -2.6520763908e+01 -3.5169784809e+00 9.6295023669e+01 9.1917114387e+01 0.0000e+00 0.0000e+00
      -11  1    2    2    0    0 -1.2394365619e+01 +2.4580353572e+01 +2.5476382326e+01 3.7508134284e+01 5.1100000000e-04 0.0000e+00 1.0000e+00
       11  1    2    2    0    0 +1.9897699869e+00 -5.1101117481e+01 -2.8993360807e+01 5.8786889384e+01 5.1100000000e-04 0.0000e+00 -1.0000e+00
       22  1    1    0    0    0 +1.0404595632e+01 +2.6520763908e+01 +3.5169784809e+00 2.8704976331e+01 0.0000000000e+00 0.0000e+00 -1.0000e+00
</event>
<event>
 5      1 +2.4041262e-06 9.11880000e+01 7.81860800e-03 1.13011600e-01
       25 -1    0    0    0    0 +0.0000000000e+00 +0.0000000000e+00 +9.9999998245e-15 1.2500000000e+02 1.2500000000e+02 0.0000e+00 0.0000e+00
       23  2    1    0    0    0 -1.1786295981e+01 -7.0241296458e+00 -2.3871512352e+01 9.7466306601e+01 9.3496399130e+01 0.0000e+00 0.0000e+00
      -13  1    2    2    0    0 +3.3199144115e+01 +1.7193716671e+01 -2.7250469156e+01 4.6264525245e+01 1.0566000000e-01 0.0000e+00 1.0000e+00
       13  1    2    2    0    0 -4.4985440096e+01 -2.4217846316e+01 +3.3789568042e+00 5.1201781356e+01 1.0566000000e-01 0.0000e+00 -1.0000e+00
       22  1    1    0    0    0 +1.1786295981e+01 +7.0241296458e+00 +2.3871512352e+01 2.7533693399e+01 0.0000000000e+00 0.0000e+00 1.0000e+00
</event>
<event>
 4      1 +2.4041262e-06 9.11880000e+01 7.81860800e-03 1.13011600e-01
       25 -1    0    0    0    0 +0.0000000000e+00 +0.0000000000e+00 +9.9999998245e-15 1.2500000000e+02 1.2500000000e+02 0.0000e+00 0.0000e+00
      -13  1    1    0    0    0 +4.6415328226e+01 -2.9731220821e+01 -2.9460323277e+01 6.2499999980e+01 1.0566000000e-01 0.0000e+00 -1.0000e+00
       13  1    1    0    0    0 -4.6415328241e+01 +2.9731220831e+01 +2.9460323287e+01 6.2500000000e+01 1.0566000000e-01 0.0000e+00 -1.0000e+00
       22  1    1    0    0    0 +1.4562653168e-08 -9.1092362019e-09 -9.5238674240e-09 1.9640598315e-08 0.0000000000e+00 0.0000e+00 -1.0000e+00
</event>
<event>
 4      1 +2.4041262e-06 9.11880000e+01 7.81860800e-03 1.13011600e-01
       25 -1    0    0    0    0 +0.0000000000e+00 +0.0000000000e+00 +9.9999998245e-15 1.2500000000e+02 1.2500000000e+02 0.0000e+00 0.0000e+00
      -11  1    1    0    0    0 -3.4962073448e+01 +4.6835986920e+01 +5.8542288184e+00 5.8738643548e+01 5.1100000000e-04 0.0000e+00 -1.0000e+00
       11  1    1    0    0    0 +7.8923544122e+00 -1.2371416458e+01 +1.1983454645e+01 1.8945827742e+01 5.1100000000e-04 0.0000e+00 1.0000e+00
       22  1    1    0    0    0 +2.7069719035e+01 -3.4464570461e+01 -1.7837683464e+01 4.7315528710e+01 0.0000000000e+00 0.0000e+00 -1.0000e+00
</event>
<event>
 4      1 +2.4041262e-06 9.11880000e+01 7.81860800e-03 1.13011600e-01
       25 -1    0    0    0    0 +0.0000000000e+00 +0.0000000000e+00 +9.9999998245e-15 1.2500000000e+02 1.2500000000e+02 0.0000e+00 0.0000e+00
      -13  1    1    0    0    0 -3.0464575043e+01 -4.0267442941e+01 +3.6833158185e+01 6.2499999996e+01 1.0566000000e-01 0.0000e+00 -1.0000e+00
       13  1    1    0    0    0 +3.0464575023e+01 +4.0267442932e+01 -3.6833158188e+01 6.2499999982e+01 1.0566000000e-01 0.0000e+00 -1.0000e+00
       22  1    1    0    0    0 +2.0415972345e-08 +8.9970732507e-09 +3.2909418293e-09 2.2551930116e-08 0.0000000000e+00 0.0000e+00 1.0000e+00
</event>
<event>
 4      1 +2.4041262e-06 9.11880000e+01 7.81860800e-03 1.13011600e-01
       25 -1    0    0    0    0 +0.0000000000e+00 +0.0000000000e+00 +9.9999998245e-15 1.2500000000e+02 1.2500000000e+02 0.0000e+00 0.0000e+00
      -13  1    1    0    0    0 -3.6115712251e+01 -3.3007852923e+01 +3.8889234918e+01 6.2499974260e+01 1.0566000000e-01 0.0000e+00 1.0000e+00
       13  1    1    0    0    0 +3.6115725060e+01 +3.3007859657e+01 -3.8889257260e+01 6.2499999120e+01 1.0566000000e-01 0.0000e+00 1.0000e+00
       22  1    1    0    0    0 -1.2808620319e-05 -6.7345410783e-06 +2.2342392077e-05 2.6619490637e-05 0.0000000000e+00 0.0000e+00 -1.0000e+00
</event>
<event>
 4      1 +2.4041262e-06 9.11880000e+01 7.81860800e-03 1.13011600e-01
       25 -1    0    0    0    0 +0.0000000000e+00 +0.0000000000e+00 +9.9999998245e-15 1.2500000000e+02 1.2500000000e+02 0.0000e+00 0.0000e+00
      -13  1    1    0    0    0 +3.5432064807e+01 +1.1784812322e+01 -5.0110145571e+01 6.2492806555e+01 1.0566000000e-01 0.0000e+00 1.0000e+00
       13  1    1    0    0    0 -3.5435576726e+01 -1.1784020728e+01 +5.0116587406e+01 6.2499813917e+01 1.0566000000e-01 0.0000e+00 1.0000e+00
       22  1    1    0    0    0 +3.5119184295e-03 -7.9159406323e-04 -6.4418347639e-03 7.3795275825e-03 0.0000000000e+00 0.0000e+00 1.0000e+00
</event>
<event>
 4      1 +2.4041262e-06 9.11880000e+01 7.81860800e-03 1.13011600e-01
       25 -1    0    0    0    0 +0.0000000000e+00 +0.0000000000e+00 +9.9999998245e-15 1.2500000000e+02 1.2500000000e+02 0.0000e+00 0.0000e+00
      -11  1    1    0    0    0 +4.4847871852e+00 +6.3699042441e+00 +2.2761043315e+00 8.1160117894e+00 5.1100000000e-04 0.0000e+00 1.0000e+00
       11  1    1    0    0    0 +2.9985104034e+01 +4.2736766427e+01 +1.5234204870e+01 5.4383992744e+01 5.1100000000e-04 0.0000e+00 -1.0000e+00
       22  1    1    0    0    0 -3.4469891219e+01 -4.9106670671e+01 -1.7510309201e+01 6.2499995467e+01 0.0000000000e+00 0.0000e+00 -1.0000e+00
</event>
<event>
 4      1 +2.4041262e-06 9.11880000e+01 7.81860800e-03 1.13011600e-01
       25 -1    0    0    0    0 +0.0000000000e+00 +0.0000000000e+00 +9.9999998245e-15 1.2500000000e+02 1.2500000000e+02 0.0000e+00 0.0000e+00
      -11  1    1    0    0    0 -3.3361727553e+00 +1.5090212278e+00 -8.8050061597e+00 9.5360016492e+00 5.1100000000e-04 0.0000e+00 1.0000e+00
       11  1    1    0    0    0 -1.8527918999e+01 +8.3776653748e+00 -4.8905174201e+01 5.2963998371e+01 5.1100000000e-04 0.0000e+00 -1.0000e+00
       22  1    1    0    0    0 +2.1864091754e+01 -9.8866866026e+00 +5.7710180361e+01 6.2499999980e+01 0.0000000000e+00 0.0000e+00 -1.0000e+00
</event>
<event>
 4      1 +2.4041262e-06 9.11880000e+01 7.81860800e-03 1.13011600e-01
       25 -1    0    0    0    0 +0.0000000000e+00 +0.0000000000e+00 +9.9999998245e-15 1.2500000000e+02 1.2500000000e+02 0.0000e+00 0.0000e+00
      -11  1    1    0    0    0 -2.6519552343e+01 -2.1282149356e+01 -4.6758928920e+01 5.7815343739e+01 5.1100000000e-04 0.0000e+00 1.0000e+00
       11  1    1    0    0    0 -2.1026337804e+00 -1.6965476157e+00 -3.8273616181e+00 4.6848735141e+00 5.1100000000e-04 0.0000e+00 -1.0000e+00
       22  1    1    0    0    0 +2.8622186123e+01 +2.2978696972e+01 +5.0586290538e+01 6.2499782747e+01 0.0000000000e+00 0.0000e+00 1.0000e+00
</event>
<event>
 4      1 +2.4041262e-06 9.11880000e+01 7.81860800e-03 1.13011600e-01
       25 -1    0    0    0    0 +0.0000000000e+00 +0.0000000000e+00 +9.9999998245e-15 1.2500000000e+02 1.2500000000e+02 0.0000e+00 0.0000e+00
      -13  1    1    0    0    0 +2.4541234102e+01 +9.5494532365e+00 -5.6681342669e+01 6.2499999993e+01 1.0566000000e-01 0.0000e+00 -1.0000e+00
       13  1    1    0    0    0 -2.4541209191e+01 -9.5494445567e+00 +5.6681288072e+01 6.2499939372e+01 1.0566000000e-01 0.0000e+00 -1.0000e+00
       22  1    1    0    0    0 -2.4910694277e-05 -8.6798485342e-06 +5.4596194095e-05 6.0635194975e-05 0.0000000000e+00 0.0000e+00 1.0000e+00
</event>
<event>
 5      1 +2.4041262e-06 9.11880000e+01 7.81860800e-03 1.13011600e-01
       25 -1    0    0    0    0 +0.0000000000e+00 +0.0000000000e+00 +9.9999998245e-15 1.2500000000e+02 1.2500000000e+02 0.0000e+00 0.0000e+00
       23  2    1    0    0    0 +2.2316232177e+01 -1.6137560329e+01 -2.9034887910e+00 9.7307666781e+01 9.3284064530e+01 0.0000e+00 0.0000e+00
      -13  1    2    2    0    0 +5.7764620688e+01 -1.8094890080e+01 -9.2717513279e+00 6.1238492691e+01 1.0566000000e-01 0.0000e+00 1.0000e+00
       13  1    2    2    0    0 -3.5448388511e+01 +1.9573297518e+00 +6.3682625369e+00 3.6069174090e+01 1.0566000000e-01 0.0000e+00 -1.0000e+00
       22  1    1    0    0    0 -2.2316232177e+01 +1.6137560329e+01 +2.9034887910e+00 2.7692333219e+01 0.0000000000e+00 0.0000e+00 1.0000e+00
</event>
<event>
 4      1 +2.4041262e-06 9.11880000e+01 7.81860800e-03 1.13011600e-01
       25 -1    0    0    0    0 +0.0000000000e+00 +0.0000000000e+00 +9.9999998245e-15 1.2500000000e+02 1.2500000000e+02 0.0000e+00 0.0000e+00
      -13  1    1    0    0    0 -4.5421316364e+01 -2.8224386759e+01 -2.7833203806e+01 6.0286071246e+01 1.0566000000e-01 0.0000e+00 1.0000e+00
       13  1    1    0    0    0 -8.8048154312e-03 +4.5628555810e+00 -2.4793676265e+00 5.1940500999e+00 1.0566000000e-01 0.0000e+00 -1.0000e+00
       22  1    1    0    0    0 +4.5430121180e+01 +2.3661531178e+01 +3.0312571432e+01 5.9519878654e+01 0.0000000000e+00 0.0000e+00 1.0000e+00
</event>
<event>
 5      1 +2.4041262e-06 9.11880000e+01 7.81860800e-03 1.13011600e-01
       25 -1    0    0    0    0 +0.0000000000e+00 +0.0000000000e+00 +9.9999998245e-15 1.2500000000e+02 1.2500000000e+02 0.0000e+00 0.0000e+00
       23  2    1    0    0    0 +6.7206017692e-01 +2.8670236407e+01 +9.5340106184e+00 9.4778625462e+01 8.9831266079e+01 0.0000e+00 0.0000e+00
      -13  1    2    2    0    0 -3.2337378820e+01 +2.1194385980e+01 +3.5211507654e+01 5.2295023677e+01 1.0566000000e-01 0.0000e+00 -1.0000e+00
       13  1    2    2    0    0 +3.3009438997e+01 +7.4758504270e+00 -2.5677497036e+01 4.2483601785e+01 1.0566000000e-01 0.0000e+00 1.0000e+00
       22  1    1    0    0    0 -6.7206017692e-01 -2.8670236407e+01 -9.5340106184e+00 3.0221374538e+01 0.0000000000e+00 0.0000e+00 -1.0000e+00
</event>
<event>
 4      1 +2.4041262e-06 9.11880000e+01 7.81860800e-03 1.13011600e-01
       25 -1    0    0    0    0 +0.0000000000e+00 +0.0000000000e+00 +9.9999998245e-15 1.2500000000e+02 1.2500000000e+02 0.0000e+00 0.0000e+00
      -13  1    1    0    0    0 -4.9094799192e+00 +6.2086896243e+01 +5.2300240601e+00 6.2499999951e+01 1.0566000000e-01 0.0000e+00 -1.0000e+00
       13  1    1    0    0    0 +4.9094799273e+00 -6.2086896292e+01 -5.2300240595e+00 6.2500000000e+01 1.0566000000e-01 0.0000e+00 -1.0000e+00
       22  1    1    0    0    0 -8.0703603531e-09 +4.8564516960e-08 -5.7899387738e-10 4.9233913695e-08 0.0000000000e+00 0.0000e+00 1.0000e+00
</event>
<event>
 4      1 +2.4041262e-06 9.11880000e+01 7.81860800e-03 1.13011600e-01
       25 -1    0    0    0    0 +0.0000000000e+00 +0.0000000000e+00 +9.9999998245e-15 1.2500000000e+02 1.2500000000e+02 0.0000e+00 0.0000e+00
      -13  1    1    0    0    0 +9.8593834764e+00 +2.0559525977e+01 +2.7048162113e+01 3.5376769053e+01 1.0566000000e-01 0.0000e+00 -1.0000e+00
       13  1    1    0    0    0 -1.8117353092e+01 -3.6844800381e+01 -4.7113325202e+01 6.2493634666e+01 1.0566000000e-01 0.0000e+00 -1.0000e+00
       22  1    1    0    0    0 +8.2579696160e+00 +1.6285274404e+01 +2.0065163089e+01 2.7129596281e+01 0.0000000000e+00 0.0000e+00 -1.0000e+00
</event>
<event>
 4      1 +2.4041262e-06 9.11880000e+01 7.81860800e-03 1.13011600e-01
       25 -1    0    0    0    0 +0.0000000000e+00 +0.0000000000e+00 +9.9999998245e-15 1.2500000000e+02 1.2500000000e+02 0.0000e+00 0.0000e+00
      -11  1    1    0    0    0 -1.2837547024e-02 -3.0002822877e+01 +4.4884339928e+01 5.3988642476e+01 5.1100000000e-04 0.0000e+00 -1.0000e+00
       11  1    1    0    0    0 -3.3775897938e-03 -4.7307965066e+00 +7.0755042942e+00 8.5113576046e+00 5.1100000000e-04 0.0000e+00 1.0000e+00
       22  1    1    0    0    0 +1.6215136818e-02 +3.4733619383e+01 -5.1959844222e+01 6.2499999920e+01 0.0000000000e+00 0.0000e+00 -1.0000e+00
</event>
<event>
 4      1 +2.4041262e-06 9.11880000e+01 7.81860800e-03 1.13011600e-01
       25 -1    0    0    0    0 +0.0000000000e+00 +0.0000000000e+00 +9.9999998245e-15 1.2500000000e+02 1.2500000000e+02 0.0000e+00 0.0000e+00
      -13  1    1    0    0    0 +1.2340252005e+01 +2.3955693683e+01 +5.6392213616e+01 6.2500000000e+01 1.0566000000e-01 0.0000e+00 1.0000e+00
       13  1    1    0    0    0 -1.2340252003e+01 -2.3955693683e+01 -5.6392213614e+01 6.2499999998e+01 1.0566000000e-01 0.0000e+00 1.0000e+00
       22  1    1    0    0    0 -1.4556918876e-09 +4.3863454985e-11 -1.9528822755e-09 2.4361264451e-09 0.0000000000e+00 0.0000e+00 -1.0000e+00
</event>
<event>
 4      1 +2.4041262e-06 9.11880000e+01 7.81860800e-03 1.13011600e-01
       25 -1    0    0    0    0 +0.0000000000e+00 +0.0000000000e+00 +9.9999998245e-15 1.2500000000e+02 1.2500000000e+02 0.0000e+00 0.0000e+00
      -13  1    1    0    0    0 +3.3310752244e+01 -4.4972183014e+00 -5.2684787863e+01 6.2494233523e+01 1.0566000000e-01 0.0000e+00 1.0000e+00
       13  1    1    0    0    0 -3.3254747270e+01 +4.4821953707e+00 +5.2660641498e+01 6.2442954914e+01 1.0566000000e-01 0.0000e+00 1.0000e+00
       22  1    1    0    0    0 -5.6004973274e-02 +1.5022930695e-02 +2.4146364314e-02 6.2811562531e-02 0.0000000000e+00 0.0000e+00 -1.0000e+00
</event>
<event>
 4      1 +2.4041262e-06 9.11880000e+01 7.81860800e-03 1.13011600e-01
       25 -1    0    0    0    0 +0.0000000000e+00 +0.0000000000e+00 +9.9999998245e-15 1.2500000000e+02 1.2500000000e+02 0.0000e+00 0.0000e+00
      -13  1    1    0    0    0 -2.7212714493e+01 -3.8078651701e+01 -3.4545049844e+01 5.8171188557e+01 1.0566000000e-01 0.0000e+00 -1.0000e+00
       13  1    1    0    0    0 +1.5399027147e+01 +3.2616216561e+01 +3.8952620992e+01 5.3087338095e+01 1.0566000000e-01 0.0000e+00 -1.0000e+00
       22  1    1    0    0    0 +1.1813687346e+01 +5.4624351397e+00 -4.4075711476e+00 1.3741473348e+01 0.0000000000e+00 0.0000e+00 1.0000e+00
</event>
<event>
 4      1 +2.4041262e-06 9.11880000e+01 7.81860800e-03 1.13011600e-01
       25 -1    0    0    0    0 +0.0000000000e+00 +0.0000000000e+00 +9.9999998245e-15 1.2500000000e+02 1.2500000000e+02 0.0000e+00 0.0000e+00
      -13  1    1    0    0    0 -6.5935776818e+00 -6.1072788119e+01 -1.1527268669e+01 6.2499998418e+01 1.0566000000e-01 0.0000e+00 1.0000e+00
       13  1    1    0    0    0 +6.5935778468e+00 +6.1072789634e+01 +1.1527269105e+01 6.2499999997e+01 1.0566000000e-01 0.0000e+00 1.0000e+00
       22  1    1    0    0    0 -1.6508604045e-07 -1.5153773805e-06 -4.3593107798e-07 1.5854519579e-06 0.0000000000e+00 0.0000e+00 1.0000e+00
</event>
<event>
 4      1 +2.4041262e-06 9.11880000e+01 7.81860800e-03 1.13011600e-01
       25 -1    0    0    0    0 +0.0000000000e+00 +0.0000000000e+00 +9.9999998245e-15 1.2500000000e+02 1.2500000000e+02 0.0000e+00 0.0000e+00
      -13  1    1    0    0    0 -4.3882143285e+01 +1.2877522841e+01 +4.2600067371e+01 6.2499999983e+01 1.0566000000e-01 0.0000e+00 -1.0000e+00
       13  1    1    0    0    0 +4.3882143298e+01 -1.2877522845e+01 -4.2600067381e+01 6.2500000000e+01 1.0566000000e-01 0.0000e+00 -1.0000e+00
       22  1    1    0    0    0 -1.3195383781e-08 +3.4484995665e-09 +1.0027692141e-08 1.6928228261e-08 0.0000000000e+00 0.0000e+00 1.0000e+00
</event>
<event>
 4      1 +2.4041262e-06 9.11880000e+01 7.81860800e-03 1.13011600e-01
       25 -1    0    0    0    0 +0.0000000000e+00 +0.0000000000e+00 +9.9999998245e-15 1.2500000000e+02 1.2500000000e+02 0.0000e+00 0.0000e+00
      -13  1    1    0    0    0 -3.7181184303e+01 -4.8343086437e+01 -1.3404510833e+01 6.2443466809e+01 1.0566000000e-01 0.0000e+00 1.0000e+00
       13  1    1    0    0    0 +3.7203922533e+01 +4.8381464425e+01 +1.3331693845e+01 6.2471138749e+01 1.0566000000e-01 0.0000e+00 1.0000e+00
       22  1    1    0    0    0 -2.2738229332e-02 -3.8377988169e-02 +7.2816987556e-02 8.5394442007e-02 0.0000000000e+00 0.0000e+00 -1.0000e+00
</event>
<event>
 4      1 +2.4041262e-06 9.11880000e+01 7.81860800e-03 1.13011600e-01
       25 -1    0    0    0    0 +0.0000000000e+00 +0.0000000000e+00 +9.9999998245e-15 1.2500000000e+02 1.2500000000e+02 0.0000e+00 0.0000e+00
      -13  1    1    0    0    0 +4.8144667773e+01 -5.1865126631e+00 -3.9514932322e+01 6.2499999912e+01 1.0566000000e-01 0.0000e+00 -1.0000e+00
       13  1    1    0    0    0 -4.8144667840e+01 +5.1865126709e+00 +3.9514932378e+01 6.2500000000e+01 1.0566000000e-01 0.0000e+00 -1.0000e+00
       22  1    1    0    0    0 +6.7585676102e-08 -7.8292170968e-09 -5.5473949453e-08 8.7786555476e-08 0.0000000000e+00 0.0000e+00 1.0000e+00
</event>
<event>
 4      1 +2.4041262e-06 9.11880000e+01 7.81860800e-03 1.13011600e-01
       25 -1    0    0    0    0 +0.0000000000e+00 +0.0000000000e+00 +9.9999998245e-15 1.2500000000e+02 1.2500000000e+02 0.0000e+00 0.0000e+00
      -11  1    1    0    0    0 +1.1051590658e+01 +2.6558570219e+00 -7.0529310206e+00 1.3376661348e+01 5.1100000000e-04 0.0000e+00 1.0000e+00
       11  1    1    0    0    0 +4.0550731519e+01 +9.6959551823e+00 -2.5975567440e+01 4.9123349618e+01 5.1100000000e-04 0.0000e+00 -1.0000e+00
       22  1    1    0    0    0 -5.1602322176e+01 -1.2351812204e+01 +3.3028498460e+01 6.2499989034e+01 0.0000000000e+00 0.0000e+00 -1.0000e+00
</event>
<event>
 4      1 +2.4041262e-06 9.11880000e+01 7.81860800e-03 1.13011600e-01
       25 -1    0    0    0    0 +0.0000000000e+00 +0.0000000000e+00 +9.9999998245e-15 1.2500000000e+02 1.2500000000e+02 0.0000e+00 0.0000e+00
      -13  1    1    0    0    0 -2.9625446923e+01 -3.5729743118e+01 +4.1856387625e+01 6.2499999982e+01 1.0566000000e-01 0.0000e+00 1.0000e+00
       13  1    1    0    0    0 +2.9625446894e+01 +3.5729743145e+01 -4.1856387616e+01 6.2499999977e+01 1.0566000000e-01 0.0000e+00 1.0000e+00
       22  1    1    0    0    0 +2.9677777965e-08 -2.6665224340e-08 -9.0726894485e-09 4.0915991836e-08 0.0000000000e+00 0.0000e+00 -1.0000e+00
</event>
<event>
 5      1 +2.4041262e-06 9.11880000e+01 7.81860800e-03 1.13011600e-01
       25 -1    0    0    0    0 +0.0000000000e+00 +0.0000000000e+00 +9.9999998245e-15 1.2500000000e+02 1.2500000000e+02 0.0000e+00 0.0000e+00
       23  2    1    0    0    0 +1.0720266122e+01 -3.1632609477e+01 -6.7890554451e+00 9.0917198444e+01 8.4287007368e+01 0.0000e+00 0.0000e+00
      -11  1    2    2    0    0 +4.9271800223e+00 -4.9687411100e+01 -3.2049487153e+01 5.9331994336e+01 5.1100000000e-04 0.0000e+00 -1.0000e+00
       11  1    2    2    0    0 +5.7930860993e+00 +1.8054801623e+01 +2.5260431708e+01 3.1585204108e+01 5.1100000000e-04 0.0000e+00 1.0000e+00
       22  1    1    0    0    0 -1.0720266122e+01 +3.1632609477e+01 +6.7890554451e+00 3.4082801556e+01 0.0000000000e+00 0.0000e+00 -1.0000e+00
</event>
<event>
 4      1 +2.4041262e-06 9.11880000e+01 7.81860800e-03 1.13011600e-01
       25 -1    0    0    0    0 +0.0000000000e+00 +0.0000000000e+00 +9.9999998245e-15 1.2500000000e+02 1.2500000000e+02 0.0000e+00 0.0000e+00
      -13  1    1    0    0    0 -3.7459554068e+01 +3.8145410198e+01 -3.2372029985e+01 6.2499999997e+01 1.0566000000e-01 0.0000e+00 1.0000e+00
       13  1    1    0    0    0 +3.7459553686e+01 -3.8145409921e+01 +3.2372029740e+01 6.2499999471e+01 1.0566000000e-01 0.0000e+00 1.0000e+00
       22  1    1    0    0    0 +3.8222224125e-07 -2.7699118517e-07 +2.4560177793e-07 5.3210731219e-07 0.0000000000e+00 0.0000e+00 1.0000e+00
</event>
<event>
 4      1 +2.4041262e-06 9.11880000e+01 7.81860800e-03 1.13011600e-01
       25 -1    0    0    0    0 +0.0000000000e+00 +0.0000000000e+00 +9.9999998245e-15 1.2500000000e+02 1.2500000000e+02 0.0000e+00 0.0000e+00
      -13  1    1    0    0    0 -1.4629614873e+01 -3.0405144722e+00 -2.4444353437e+00 1.5141228080e+01 1.0566000000e-01 0.0000e+00 -1.0000e+00
       13  1    1    0    0    0 -4.5774516742e+01 -9.4490240657e+00 -7.6338205858e+00 4.7359020467e+01 1.0566000000e-01 0.0000e+00 -1.0000e+00
       22  1    1    0    0    0 +6.0404131616e+01 +1.2489538538e+01 +1.0078255929e+01 6.2499751453e+01 0.0000000000e+00 0.0000e+00 -1.0000e+00
</event>
<event>
 4      1 +2.4041262e-06 9.11880000e+01 7.81860800e-03 1.13011600e-01
       25 -1    0    0    0    0 +0.0000000000e+00 +0.0000000000e+00 +9.9999998245e-15 1.2500000000e+02 1.2500000000e+02 0.0000e+00 0.0000e+00
      -13  1    1    0    0    0 -1.4215273418e+01 +2.7129149122e+01 -5.3081466143e+01 6.1283912590e+01 1.0566000000e-01 0.0000e+00 1.0000e+00
       13  1    1    0    0    0 +1.4501041919e+01 -2.7666269183e+01 +5.4134422271e+01 6.2499996047e+01 1.0566000000e-01 0.0000e+00 1.0000e+00
       22  1    1    0    0    0 -2.8576850129e-01 +5.3712006144e-01 -1.0529561280e+00 1.2160913635e+00 0.0000000000e+00 0.0000e+00 -1.0000e+00
</event>
<event>
 4      1 +2.4041262e-06 9.11880000e+01 7.81860800e-03 1.13011600e-01
       25 -1    0    0    0    0 +0.0000000000e+00 +0.0000000000e+00 +9.9999998245e-15 1.2500000000e+02 1.2500000000e+02 0.0000e+00 0.0000e+00
      -13  1    1    0    0    0 +1.0941158015e+01 -1.4471083022e+01 +5.9809009801e+01 6.2500000000e+01 1.0566000000e-01 0.0000e+00 1.0000e+00
       13  1    1    0    0    0 -1.0941158015e+01 +1.4471083021e+01 -5.9809009801e+01 6.2499999999e+01 1.0566000000e-01 0.0000e+00 1.0000e+00
       22  1    1    0    0    0 +1.3581752852e-10 +8.2861783710e-10 -1.8304739326e-10 8.5939529275e-10 0.0000000000e+00 0.0000e+00 -1.0000e+00
</event>
<event>
 4      1 +2.4041262e-06 9.11880000e+01 7.81860800e-03 1.13011600e-01
       25 -1    0    0    0    0 +0.0000000000e+00 +0.0000000000e+00 +9.9999998245e-15 1.2500000000e+02 1.2500000000e+02 0.0000e+00 0.0000e+00
      -13  1    1    0    0    0 -7.3812665276e+00 +3.2960699750e+01 -5.2583775399e+01 6.2497643338e+01 1.0566000000e-01 0.0000e+00 1.0000e+00
       13  1    1    0    0    0 +7.3815219756e+00 -3.2961945606e+01 +5.2585759516e+01 6.2499999942e+01 1.0566000000e-01 0.0000e+00 1.0000e+00
       22  1    1    0    0    0 -2.5544801571e-04 +1.2458569666e-03 -1.9841163894e-03 2.3567204154e-03 0.0000000000e+00 0.0000e+00 -1.0000e+00
</event>
<event>
 4      1 +2.4041262e-06 9.11880000e+01 7.81860800e-03 1.13011600e-01
       25 -1    0    0    0    0 +0.0000000000e+00 +0.0000000000e+00 +9.9999998245e-15 1.2500000000e+02 1.2500000000e+02 0.0000e+00 0.0000e+00
      -11  1    1    0    0    0 -3.4284543721e+01 +2.9120684879e+01 +4.3336479483e+01 6.2461945857e+01 5.1100000000e-04 0.0000e+00 -1.0000e+00
       11  1    1    0    0    0 +2.2901131583e+00 -1.2209445684e+00 -3.1688652794e+00 4.0959774580e+00 5.1100000000e-04 0.0000e+00 1.0000e+00
       22  1    1    0    0    0 +3.1994430563e+01 -2.7899740310e+01 -4.0167614204e+01 5.8442076685e+01 0.0000000000e+00 0.0000e+00 -1.0000e+00
</event>
<event>
 4      1 +2.4041262e-06 9.11880000e+01 7.81860800e-03 1.13011600e-01
       25 -1    0    0    0    0 +0.0000000000e+00 +0.0000000000e+00 +9.9999998245e-15 1.2500000000e+02 1.2500000000e+02 0.0000e+00 0.0000e+00
      -11  1    1    0    0    0 -1.6058471960e+01 +5.8535741719e+00 -4.2716186867e+00 1.7617763160e+01 5.1100000000e-04 0.0000e+00 -1.0000e+00
       11  1    1    0    0    0 -4.0911029185e+01 +1.4910330502e+01 -1.0880483468e+01 4.4882236858e+01 5.1100000000e-04 0.0000e+00 1.0000e+00
       22  1    1    0    0    0 +5.6969501145e+01 -2.0763904674e+01 +1.5152102155e+01 6.2499999982e+01 0.0000000000e+00 0.0000e+00 1.0000e+00
</event>
<event>
 4      1 +2.4041262e-06 9.11880000e+01 7.81860800e-03 1.13011600e-01
       25 -1    0    0    0    0 +0.0000000000e+00 +0.0000000000e+00 +9.9999998245e-15 1.2500000000e+02 1.2500000000e+02 0.0000e+00 0.0000e+00
      -11  1    1    0    0    0 -4.5587317097e+00 -3.5127232856e+00 +5.4708608551e+00 7.9405024047e+00 5.1100000000e-04 0.0000e+00 1.0000e+00
       11  1    1    0    0    0 -3.5148034320e+01 -2.3108449257e+01 +3.4768612871e+01 5.4573264377e+01 5.1100000000e-04 0.0000e+00 -1.0000e+00
       22  1    1    0    0    0 +3.9706766029e+01 +2.6621172542e+01 -4.0239473726e+01 6.2486233218e+01 0.0000000000e+00 0.0000e+00 -1.0000e+00
</event>
<event>
 4      1 +2.4041262e-06 9.11880000e+01 7.81860800e-03 1.13011600e-01
       25 -1    0    0    0    0 +0.0000000000e+00 +0.0000000000e+00 +9.9999998245e-15 1.2500000000e+02 1.2500000000e+02 0.0000e+00 0.0000e+00
      -13  1    1    0    0    0 -2.5162602407e+01 -5.6964431605e+01 -5.3042832129e+00 6.2499996900e+01 1.0566000000e-01 0.0000e+00 1.0000e+00
       13  1    1    0    0    0 +2.5104500590e+01 +5.6829632767e+01 +5.2916376259e+00 6.2352671980e+01 1.0566000000e-01 0.0000e+00 1.0000e+00
       22  1    1    0    0    0 +5.8101817934e-02 +1.3479883874e-01 +1.2645587061e-02 1.4733112042e-01 0.0000000000e+00 0.0000e+00 -1.0000e+00
</event>
<event>
 4      1 +2.4041262e-06 9.11880000e+01 7.81860800e-03 1.13011600e-01
       25 -1    0    0    0    0 +0.0000000000e+00 +0.0000000000e+00 +9.9999998245e-15 1.2500000000e+02 1.2500000000e+02 0.0000e+00 0.0000e+00
      -11  1    1    0    0    0 -5.3757124182e+00 +1.8879463229e+01 -2.7299967763e+01 3.3624703061e+01 5.1100000000e-04 0.0000e+00 -1.0000e+00
       11  1    1    0    0    0 -4.6120176240e+00 +1.6215862652e+01 -2.3442650732e+01 2.8875297085e+01 5.1100000000e-04 0.0000e+00 1.0000e+00
       22  1    1    0    0    0 +9.9877300423e+00 -3.5095325882e+01 +5.0742618495e+01 6.2499999855e+01 0.0000000000e+00 0.0000e+00 1.0000e+00
</event>
<event>
 4      1 +2.4041262e-06 9.11880000e+01 7.81860800e-03 1.13011600e-01
       25 -1    0    0    0    0 +0.0000000000e+00 +0.0000000000e+00 +9.9999998245e-15 1.2500000000e+02 1.2500000000e+02 0.0000e+00 0.0000e+00
      -13  1    1    0    0    0 -3.6115235022e+01 +3.2939605829e+01 +3.8911224205e+01 6.2477374833e+01 1.0566000000e-01 0.0000e+00 -1.0000e+00
       13  1    1    0    0    0 +3.6128143924e+01 -3.2951343127e+01 -3.8925631763e+01 6.2499998156e+01 1.0566000000e-01 0.0000e+00 -1.0000e+00
       22  1    1    0    0    0 -1.2908902442e-02 +1.1737298016e-02 +1.4407557700e-02 2.2627011421e-02 0.0000000000e+00 0.0000e+00 1.0000e+00
</event>
<event>
 4      1 +2.4041262e-06 9.11880000e+01 7.81860800e-03 1.13011600e-01
       25 -1    0    0    0    0 +0.0000000000e+00 +0.0000000000e+00 +9.9999998245e-15 1.2500000000e+02 1.2500000000e+02 0.0000e+00 0.0000e+00
      -13  1    1    0    0    0 -1.6340498294e+01 -4.9724104019e+01 -3.4157582335e+01 6.2500000000e+01 1.0566000000e-01 0.0000e+00 -1.0000e+00
       13  1    1    0    0    0 +1.6340496630e+01 +4.9724098812e+01 +3.4157578808e+01 6.2499993494e+01 1.0566000000e-01 0.0000e+00 -1.0000e+00
       22  1    1    0    0    0 +1.6642862446e-06 +5.2069830525e-06 +3.5271551285e-06 6.5056394392e-06 0.0000000000e+00 0.0000e+00 -1.0000e+00
</event>
<event>
 4      1 +2.4041262e-06 9.11880000e+01 7.81860800e-03 1.13011600e-01
       25 -1    0    0    0    0 +0.0000000000e+00 +0.0000000000e+00 +9.9999998245e-15 1.2500000000e+02 1.2500000000e+02 0.0000e+00 0.0000e+00
      -11  1    1    0    0    0 +4.9853854926e+00 -2.7579313482e+00 -1.4575615234e+01 1.5649562727e+01 5.1100000000e-04 0.0000e+00 -1.0000e+00
       11  1    1    0    0    0 +1.4921568370e+01 -8.2536522711e+00 -4.3636996886e+01 4.6850437308e+01 5.1100000000e-04 0.0000e+00 1.0000e+00
       22  1    1    0    0    0 -1.9906953862e+01 +1.1011583619e+01 +5.8212612120e+01 6.2499999966e+01 0.0000000000e+00 0.0000e+00 1.0000e+00
</event>
<event>
 4      1 +2.4041262e-06 9.11880000e+01 7.81860800e-03 1.13011600e-01
       25 -1    0    0    0    0 +0.0000000000e+00 +0.0000000000e+00 +9.9999998245e-15 1.2500000000e+02 1.2500000000e+02 0.0000e+00 0.0000e+00
      -13  1    1    0    0    0 +4.6992935870e+01 -3.9941370969e+00 +4.1000579481e+01 6.2492782260e+01 1.0566000000e-01 0.0000e+00 1.0000e+00
       13  1    1    0    0    0 -4.4012579654e+01 +3.4445420589e+00 -3.8171540484e+01 5.8361371684e+01 1.0566000000e-01 0.0000e+00 1.0000e+00
       22  1    1    0    0    0 -2.9803562156e+00 +5.4959503800e-01 -2.8290389968e+00 4.1458460563e+00 0.0000000000e+00 0.0000e+00 -1.0000e+00
</event>
<event>
 4      1 +2.4041262e-06 9.11880000e+01 7.81860800e-03 1.13011600e-01
       25 -1    0    0    0    0 +0.0000000000e+00 +0.0000000000e+00 +9.9999998245e-15 1.2500000000e+02 1.2500000000e+02 0.0000e+00 0.0000e+00
      -13  1    1    0    0    0 +3.6874289015e+01 -2.1280350863e+01 +4.5756663695e+01 6.2499999678e+01 1.0566000000e-01 0.0000e+00 1.0000e+00
       13  1    1    0    0    0 -3.6874289225e+01 +2.1280350923e+01 -4.5756663934e+01 6.2499999998e+01 1.0566000000e-01 0.0000e+00 1.0000e+00
       22  1    1    0    0    0 +2.1025148643e-07 -6.0223004786e-08 +2.3924624387e-07 3.2414697756e-07 0.0000000000e+00 0.0000e+00 -1.0000e+00
</event>
<event>
 5      1 +2.4041262e-06 9.11880000e+01 7.81860800e-03 1.13011600e-01
       25 -1    0    0    0    0 +0.0000000000e+00 +0.0000000000e+00 +9.9999998245e-15 1.2500000000e+02 1.2500000000e+02 0.0000e+00 0.0000e+00
       23  2    1    0    0    0 -1.0219966373e+01 -1.2531671584e+01 -2.4596475397e+01 9.5564016794e+01 9.0917568151e+01 0.0000e+00 0.0000e+00
      -13  1    2    2    0    0 -7.9871979510e+00 -2.3166849647e+01 +3.0659556989e+01 3.9249431238e+01 1.0566000000e-01 0.0000e+00 1.0000e+00
       13  1    2    2    0    0 -2.2327684224e+00 +1.0635178063e+01 -5.5256032386e+01 5.6314585556e+01 1.0566000000e-01 0.0000e+00 -1.0000e+00
       22  1    1    0    0    0 +1.0219966373e+01 +1.2531671584e+01 +2.4596475397e+01 2.9435983206e+01 0.0000000000e+00 0.0000e+00 -1.0000e+00
</event>
<event>
 5      1 +2.4041262e-06 9.11880000e+01 7.81860800e-03 1.13011600e-01
       25 -1    0    0    0    0 +0.0000000000e+00 +0.0000000000e+00 +9.9999998245e-15 1.2500000000e+02 1.2500000000e+02 0.0000e+00 0.0000e+00
       23  2    1    0    0    0 -1.4933016218e+01 -2.5284314044e+01 +2.0101020261e+00 9.5566481349e+01 9.0920956535e+01 0.0000e+00 0.0000e+00
      -13  1    2    2    0    0 +8.6803690254e+00 +3.0151130084e+01 +1.3617204850e+01 3.4203492273e+01 1.0566000000e-01 0.0000e+00 1.0000e+00
       13  1    2    2    0    0 -2.3613385244e+01 -5.5435444127e+01 -1.1607102824e+01 6.1362989075e+01 1.0566000000e-01 0.0000e+00 -1.0000e+00
       22  1    1    0    0    0 +1.4933016218e+01 +2.5284314044e+01 -2.0101020261e+00 2.9433518651e+01 0.0000000000e+00 0.0000e+00 -1.0000e+00
</event>
<event>
 5      1 +2.4041262e-06 9.11880000e+01 7.81860800e-03 1.13011600e-01
       25 -1    0    0    0    0 +0.0000000000e+00 +0.0000000000e+00 +9.9999998245e-15 1.2500000000e+02 1.2500000000e+02 0.0000e+00 0.0000e+00
       23  2    1    0    0    0 -1.1595308637e+01 -1.5855364659e+01 -2.0833412289e+01 9.6366543373e+01 9.2014324119e+01 0.0000e+00 0.0000e+00
      -11  1    2    2    0    0 +9.4873372475e+00 -4.8851465336e+01 -2.7174058004e+01 5.6700129296e+01 5.1100000000e-04 0.0000e+00 1.0000e+00
       11  1    2    2    0    0 -2.1082645884e+01 +3.2996100677e+01 +6.3406457150e+00 3.9666414077e+01 5.1100000000e-04 0.0000e+00 -1.0000e+00
       22  1    1    0    0    0 +1.1595308637e+01 +1.5855364659e+01 +2.0833412289e+01 2.8633456627e+01 0.0000000000e+00 0.0000e+00 1.0000e+00
</event>
<event>
 4      1 +2.4041262e-06 9.11880000e+01 7.81860800e-03 1.13011600e-01
       25 -1    0    0    0    0 +0.0000000000e+00 +0.0000000000e+00 +9.9999998245e-15 1.2500000000e+02 1.2500000000e+02 0.0000e+00 0.0000e+00
      -13  1    1    0    0    0 +6.6375521872e+00 -3.1897724032e+01 -5.3335879729e+01 6.2499993024e+01 1.0566000000e-01 0.0000e+00 1.0000e+00
       13  1    1    0    0    0 -6.6373771449e+00 +3.1896922003e+01 +5.3334897198e+01 6.2498726641e+01 1.0566000000e-01 0.0000e+00 1.0000e+00
       22  1    1    0    0    0 -1.7504236601e-04 +8.0202893489e-04 +9.8253103951e-04 1.2803349116e-03 0.0000000000e+00 0.0000e+00 1.0000e+00
</event>
<event>
 5      1 +2.4041262e-06 9.11880000e+01 7.81860800e-03 1.13011600e-01
       25 -1    0    0    0    0 +0.0000000000e+00 +0.0000000000e+00 +9.9999998245e-15 1.2500000000e+02 1.2500000000e+02 0.0000e+00 0.0000e+00
       23  2    1    0    0    0 +1.9837748144e+01 -2.0373353470e+01 -5.7567704007e+00 9.5987068599e+01 9.1497361436e+01 0.0000e+00 0.0000e+00
      -13  1    2    2    0    0 +2.9224937336e+01 +3.0353016458e+01 +7.3223383078e+00 4.2767164656e+01 1.0566000000e-01 0.0000e+00 -1.0000e+00
       13  1    2    2    0    0 -9.3871891925e+00 -5.0726369928e+01 -1.3079108709e+01 5.3219903943e+01 1.0566000000e-01 0.0000e+00 1.0000e+00
       22  1    1    0    0    0 -1.9837748144e+01 +2.0373353470e+01 +5.7567704007e+00 2.9012931401e+01 0.0000000000e+00 0.0000e+00 1.0000e+00
</event>
<event>
 4      1 +2.4041262e-06 9.11880000e+01 7.81860800e-03 1.13011600e-01
       25 -1    0    0    0    0 +0.0000000000e+00 +0.0000000000e+00 +9.9999998245e-15 1.2500000000e+02 1.2500000000e+02 0.0000e+00 0.0000e+00
      -13  1    1    0    0    0 +2.8733744479e+00 -5.0896085595e+01 +3.6160351577e+01 6.2499999998e+01 1.0566000000e-01 0.0000e+00 -1.0000e+00
       13  1    1    0    0    0 -2.8733744482e+00 +5.0896085596e+01 -3.6160351578e+01 6.2500000000e+01 1.0566000000e-01 0.0000e+00 -1.0000e+00
       22  1    1    0    0    0 +3.1941776268e-10 -1.1914177052e-09 +1.0110366375e-09 1.5948977829e-09 0.0000000000e+00 0.0000e+00 -1.0000e+00
</event>
<event>
 4      1 +2.4041262e-06 9.11880000e+01 7.81860800e-03 1.13011600e-01
       25 -1    0    0    0    0 +0.0000000000e+00 +0.0000000000e+00 +9.9999998245e-15 1.2500000000e+02 1.2500000000e+02 0.0000e+00 0.0000e+00
      -13  1    1    0    0    0 +5.3813215317e+00 +3.8549853369e+01 -4.8899784315e+01 6.2499999091e+01 1.0566000000e-01 0.0000e+00 -1.0000e+00
       13  1    1    0    0    0 -5.3813214401e+00 -3.8549853961e+01 +4.8899785010e+01 6.2499999992e+01 1.0566000000e-01 0.0000e+00 -1.0000e+00
       22  1    1    0    0    0 -9.1639033290e-08 +5.9213919657e-07 -6.9516867850e-07 9.1776142439e-07 0.0000000000e+00 0.0000e+00 1.0000e+00
</event>
<event>
 4      1 +2.4041262e-06 9.11880000e+01 7.81860800e-03 1.13011600e-01
       25 -1    0    0    0    0 +0.0000000000e+00 +0.0000000000e+00 +9.9999998245e-15 1.2500000000e+02 1.2500000000e+02 0.0000e+00 0.0000e+00
      -11  1    1    0    0    0 -1.0900403568e+01 +6.1826198533e+00 -4.8748754406e+01 5.0333732651e+01 5.1100000000e-04 0.0000e+00 -1.0000e+00
       11  1    1    0    0    0 -2.5720002843e+00 +1.4887049893e+00 -1.1797809907e+01 1.2166336625e+01 5.1100000000e-04 0.0000e+00 1.0000e+00
       22  1    1    0    0    0 +1.3472403852e+01 -7.6713248426e+00 +6.0546564313e+01 6.2499930724e+01 0.0000000000e+00 0.0000e+00 -1.0000e+00
</event>
<event>
 5      1 +2.4041262e-06 9.11880000e+01 7.81860800e-03 1.13011600e-01
       25 -1    0    0    0    0 +0.0000000000e+00 +0.0000000000e+00 +9.9999998245e-15 1.2500000000e+02 1.2500000000e+02 0.0000e+00 0.0000e+00
       23  2    1    0    0    0 +1.1570448625e+01 -1.5717419387e+01 +2.4500124377e+01 9.3676388330e+01 8.8284183649e+01 0.0000e+00 0.0000e+00
      -13  1    2    2    0    0 -2.4647547605e+01 -2.2770290811e+01 -1.7438226760e+01 3.7816539545e+01 1.0566000000e-01 0.0000e+00 -1.0000e+00
       13  1    2    2    0    0 +3.6217996230e+01 +7.0528714247e+00 +4.1938351137e+01 5.5859848786e+01 1.0566000000e-01 0.0000e+00 1.0000e+00
       22  1    1    0    0    0 -1.1570448625e+01 +1.5717419387e+01 -2.4500124377e+01 3.1323611670e+01 0.0000000000e+00 0.0000e+00 1.0000e+00
</event>
<event>
 4      1 +2.4041262e-06 9.11880000e+01 7.81860800e-03 1.13011600e-01
       25 -1    0    0    0    0 +0.0000000000e+00 +0.0000000000e+00 +9.9999998245e-15 1.2500000000e+02 1.2500000000e+02 0.0000e+00 0.0000e+00
      -13  1    1    0    0    0 -4.0630142971e+01 +8.6108599362e+00 +4.6704211901e+01 6.2500000000e+01 1.0566000000e-01 0.0000e+00 -1.0000e+00
       13  1    1    0    0    0 +4.0630142971e+01 -8.6108599361e+00 -4.6704211900e+01 6.2499999999e+01 1.0566000000e-01 0.0000e+00 -1.0000e+00
       22  1    1    0    0    0 +5.3665325991e-10 -8.3973519989e-11 -4.4193332871e-10 7.0025234056e-10 0.0000000000e+00 0.0000e+00 -1.0000e+00
</event>
<event>
 4      1 +2.4041262e-06 9.11880000e+01 7.81860800e-03 1.13011600e-01
       25 -1    0    0    0    0 +0.0000000000e+00 +0.0000000000e+00 +9.9999998245e-15 1.2500000000e+02 1.2500000000e+02 0.0000e+00 0.0000e+00
      -13  1    1    0    0    0 -2.1823803419e+00 -3.1084288707e+00 +1.5152774200e+00 4.0905187563e+00 1.0566000000e-01 0.0000e+00 -1.0000e+00
       13  1    1    0    0    0 -3.5538846877e+01 -4.3122975687e+01 +1.7044360315e+01 5.8421931259e+01 1.0566000000e-01 0.0000e+00 1.0000e+00
       22  1    1    0    0    0 +3.7721227219e+01 +4.6231404557e+01 -1.8559637735e+01 6.2487549985e+01 0.0000000000e+00 0.0000e+00 1.0000e+00
</event>
<event>
 4      1 +2.4041262e-06 9.11880000e+01 7.81860800e-03 1.13011600e-01
       25 -1    0    0    0    0 +0.0000000000e+00 +0.0000000000e+00 +9.9999998245e-15 1.2500000000e+02 1.2500000000e+02 0.0000e+00 0.0000e+00
      -13  1    1    0    0    0 -2.6337719404e+01 +1.0936549627e+01 +5.5614343966e+01 6.2499999999e+01 1.0566000000e-01 0.0000e+00 -1.0000e+00
       13  1    1    0    0    0 +2.6337719349e+01 -1.0936549618e+01 -5.5614343832e+01 6.2499999856e+01 1.0566000000e-01 0.0000e+00 -1.0000e+00
       22  1    1    0    0    0 +5.4916559927e-08 -8.9208881898e-09 -1.3370707814e-07 1.4482055636e-07 0.0000000000e+00 0.0000e+00 1.0000e+00
</event>
<event>
 5      1 +2.4041262e-06 9.11880000e+01 7.81860800e-03 1.13011600e-01
       25 -1    0    0    0    0 +0.0000000000e+00 +0.0000000000e+00 +9.9999998245e-15 1.2500000000e+02 1.2500000000e+02 0.0000e+00 0.0000e+00
       23  2    1    0    0    0 +3.4506394065e+00 +9.4310843615e+00 -2.5777094904e+01 9.7335747141e+01 9.3321684433e+01 0.0000e+00 0.0000e+00
      -13  1    2    2    0    0 -3.8756837584e+01 +1.8115113030e+01 -3.2495397957e+01 5.3723475614e+01 1.0566000000e-01 0.0000e+00 -1.0000e+00
       13  1    2    2    0    0 +4.2207476990e+01 -8.6840286689e+00 +6.7183030536e+00 4.3612271527e+01 1.0566000000e-01 0.0000e+00 1.0000e+00
       22  1    1    0    0    0 -3.4506394065e+00 -9.4310843615e+00 +2.5777094904e+01 2.7664252859e+01 0.0000000000e+00 0.0000e+00 -1.0000e+00
</event>
<event>
 4      1 +2.4041262e-06 9.11880000e+01 7.81860800e-03 1.13011600e-01
       25 -1    0    0    0    0 +0.0000000000e+00 +0.0000000000e+00 +9.9999998245e-15 1.2500000000e+02 1.2500000000e+02 0.0000e+00 0.0000e+00
      -11  1    1    0    0    0 -1.0452054260e+01 +2.7932350909e+01 -3.6634750133e+01 4.7239460022e+01 5.1100000000e-04 0.0000e+00 1.0000e+00
       11  1    1    0    0    0 -3.3773653507e+00 +9.0230982607e+00 -1.1834744684e+01 1.5260539995e+01 5.1100000000e-04 0.0000e+00 -1.0000e+00
       22  1    1    0    0    0 +1.3829419611e+01 -3.6955449170e+01 +4.8469494817e+01 6.2499999984e+01 0.0000000000e+00 0.0000e+00 1.0000e+00
</event>
<event>
 4      1 +2.4041262e-06 9.11880000e+01 7.81860800e-03 1.13011600e-01
       25 -1    0    0    0    0 +0.0000000000e+00 +0.0000000000e+00 +9.9999998245e-15 1.2500000000e+02 1.2500000000e+02 0.0000e+00 0.0000e+00
      -13  1    1    0    0    0 +4.9294284025e+01 -1.0091748589e+01 +3.6746948319e+01 6.2306654555e+01 1.0566000000e-01 0.0000e+00 1.0000e+00
       13  1    1    0    0    0 -4.7678782706e+01 +1.0538114443e+01 -3.6574653161e+01 6.1008479691e+01 1.0566000000e-01 0.0000e+00 1.0000e+00
       22  1    1    0    0    0 -1.6155013180e+00 -4.4636585400e-01 -1.7229515848e-01 1.6848657531e+00 0.0000000000e+00 0.0000e+00 1.0000e+00
</event>
<event>
 4      1 +2.4041262e-06 9.11880000e+01 7.81860800e-03 1.13011600e-01
       25 -1    0    0    0    0 +0.0000000000e+00 +0.0000000000e+00 +9.9999998245e-15 1.2500000000e+02 1.2500000000e+02 0.0000e+00 0.0000e+00
      -13  1    1    0    0    0 -1.2086935951e+01 -5.1662947979e+01 +3.3028967944e+01 6.2498624801e+01 1.0566000000e-01 0.0000e+00 -1.0000e+00
       13  1    1    0    0    0 +1.2087268069e+01 +5.1664074974e+01 -3.3029684217e+01 6.2499999166e+01 1.0566000000e-01 0.0000e+00 -1.0000e+00
       22  1    1    0    0    0 -3.3211867708e-04 -1.1269948032e-03 +7.1627312314e-04 1.3760331715e-03 0.0000000000e+00 0.0000e+00 1.0000e+00
</event>
<event>
 4      1 +2.4041262e-06 9.11880000e+01 7.81860800e-03 1.13011600e-01
       25 -1    0    0    0    0 +0.0000000000e+00 +0.0000000000e+00 +9.9999998245e-15 1.2500000000e+02 1.2500000000e+02 0.0000e+00 0.0000e+00
      -13  1    1    0    0    0 -3.8679295147e+01 -3.1742457830e+01 -3.7450743009e+01 6.2499926545e+01 1.0566000000e-01 0.0000e+00 1.0000e+00
       13  1    1    0    0    0 +3.8678668248e+01 +3.1742515259e+01 +3.7450205209e+01 6.2499245489e+01 1.0566000000e-01 0.0000e+00 1.0000e+00
       22  1    1    0    0    0 +6.2689894845e-04 -5.7429091701e-05 +5.3779979176e-04 8.2796679170e-04 0.0000000000e+00 0.0000e+00 1.0000e+00
</event>
<event>
 4      1 +2.4041262e-06 9.11880000e+01 7.81860800e-03 1.13011600e-01
       25 -1    0    0    0    0 +0.0000000000e+00 +0.0000000000e+00 +9.9999998245e-15 1.2500000000e+02 1.2500000000e+02 0.0000e+00 0.0000e+00
      -11  1    1    0    0    0 +1.8180897143e+00 -3.3033342923e+01 -2.0713954268e+01 3.9033000097e+01 5.1100000000e-04 0.0000e+00 -1.0000e+00
       11  1    1    0    0    0 +1.0928484021e+00 -1.9860430373e+01 -1.2452673305e+01 2.3466999913e+01 5.1100000000e-04 0.0000e+00 -1.0000e+00
       22  1    1    0    0    0 -2.9109381163e+00 +5.2893773296e+01 +3.3166627573e+01 6.2499999990e+01 0.0000000000e+00 0.0000e+00 -1.0000e+00
</event>
<event>
 5      1 +2.4041262e-06 9.11880000e+01 7.81860800e-03 1.13011600e-01
       25 -1    0    0    0    0 +0.0000000000e+00 +0.0000000000e+00 +9.9999998245e-15 1.2500000000e+02 1.2500000000e+02 0.0000e+00 0.0000e+00
       23  2    1    0    0    0 -2.1404057349e+01 +8.6533780083e+00 +1.9186678870e+01 9.4980951580e+01 9.0112362609e+01 0.0000e+00 0.0000e+00
      -13  1    2    2    0    0 -1.4807461031e+01 +4.8524853514e+01 +2.0065338729e+01 5.4557779400e+01 1.0566000000e-01 0.0000e+00 1.0000e+00
       13  1    2    2    0    0 -6.5965963184e+00 -3.9871475505e+01 -8.7865985860e-01 4.0423172181e+01 1.0566000000e-01 0.0000e+00 -1.0000e+00
       22  1    1    0    0    0 +2.1404057349e+01 -8.6533780083e+00 -1.9186678870e+01 3.0019048420e+01 0.0000000000e+00 0.0000e+00 1.0000e+00
</event>
<event>
 4      1 +2.4041262e-06 9.11880000e+01 7.81860800e-03 1.13011600e-01
       25 -1    0    0    0    0 +0.0000000000e+00 +0.0000000000e+00 +9.9999998245e-15 1.2500000000e+02 1.2500000000e+02 0.0000e+00 0.0000e+00
      -11  1    1    0    0    0 -1.5727996412e+01 +2.0844513412e+01 +3.6621221452e+01 4.4977521846e+01 5.1100000000e-04 0.0000e+00 -1.0000e+00
       11  1    1    0    0    0 -6.1178634093e+00 +8.1235518855e+00 +1.4269440432e+01 1.7522479232e+01 5.1100000000e-04 0.0000e+00 1.0000e+00
       22  1    1    0    0    0 +2.1845859821e+01 -2.8968065297e+01 -5.0890661883e+01 6.2499998923e+01 0.0000000000e+00 0.0000e+00 -1.0000e+00
</event>
<event>
 5      1 +2.4041262e-06 9.11880000e+01 7.81860800e-03 1.13011600e-01
       25 -1    0    0    0    0 +0.0000000000e+00 +0.0000000000e+00 +9.9999998245e-15 1.2500000000e+02 1.2500000000e+02 0.0000e+00 0.0000e+00
       23  2    1    0    0    0 +1.8384818393e+01 -1.8683983528e+01 +1.3264838630e+01 9.5622308946e+01 9.0997677094e+01 0.0000e+00 0.0000e+00
      -11  1    2    2    0    0 -5.2036599220e+00 -4.6339155977e+01 -1.5638389972e+01 4.9182869928e+01 5.1100000000e-04 0.0000e+00 -1.0000e+00
       11  1    2    2    0    0 +2.3588478315e+01 +2.7655172449e+01 +2.8903228602e+01 4.6439439017e+01 5.1100000000e-04 0.0000e+00 1.0000e+00
       22  1    1    0    0    0 -1.8384818393e+01 +1.8683983528e+01 -1.3264838630e+01 2.9377691054e+01 0.0000000000e+00 0.0000e+00 1.0000e+00
</event>
<event>
 4      1 +2.4041262e-06 9.11880000e+01 7.81860800e-03 1.13011600e-01
       25 -1    0    0    0    0 +0.0000000000e+00 +0.0000000000e+00 +9.9999998245e-15 1.2500000000e+02 1.2500000000e+02 0.0000e+00 0.0000e+00
      -13  1    1    0    0    0 -5.5509446226e+01 -2.4314490600e+01 +1.5288447739e+01 6.2499926974e+01 1.0566000000e-01 0.0000e+00 1.0000e+00
       13  1    1    0    0    0 +5.5509511015e+01 +2.4314519362e+01 -1.5288465288e+01 6.2499999999e+01 1.0566000000e-01 0.0000e+00 1.0000e+00
       22  1    1    0    0    0 -6.4789402705e-05 -2.8762115270e-05 +1.7548804969e-05 7.3026615241e-05 0.0000000000e+00 0.0000e+00 1.0000e+00
</event>
<event>
 4      1 +2.4041262e-06 9.11880000e+01 7.81860800e-03 1.13011600e-01
       25 -1    0    0    0    0 +0.0000000000e+00 +0.0000000000e+00 +9.9999998245e-15 1.2500000000e+02 1.2500000000e+02 0.0000e+00 0.0000e+00
      -13  1    1    0    0    0 +2.6296682403e+01 -5.0854964504e+01 -7.4936438728e+00 5.7740010241e+01 1.0566000000e-01 0.0000e+00 -1.0000e+00
       13  1    1    0    0    0 -9.0709439973e+00 -2.9757064954e+00 +4.7758817498e+00 1.0675067432e+01 1.0566000000e-01 0.0000e+00 1.0000e+00
       22  1    1    0    0    0 -1.7225738405e+01 +5.3830670999e+01 +2.7177621230e+00 5.6584922327e+01 0.0000000000e+00 0.0000e+00 -1.0000e+00
</event>
<event>
 4      1 +2.4041262e-06 9.11880000e+01 7.81860800e-03 1.13011600e-01
       25 -1    0    0    0    0 +0.0000000000e+00 +0.0000000000e+00 +9.9999998245e-15 1.2500000000e+02 1.2500000000e+02 0.0000e+00 0.0000e+00
      -13  1    1    0    0    0 -6.1750444838e+01 -4.5022366577e+00 -8.5350263426e+00 6.2499963290e+01 1.0566000000e-01 0.0000e+00 1.0000e+00
       13  1    1    0    0    0 +6.1749162735e+01 +4.5018589762e+00 +8.5344882095e+00 6.2498595870e+01 1.0566000000e-01 0.0000e+00 1.0000e+00
       22  1    1    0    0    0 +1.2821028677e-03 +3.7768152781e-04 +5.3813305106e-04 1.4408394360e-03 0.0000000000e+00 0.0000e+00 -1.0000e+00
</event>
<event>
 5      1 +2.4041262e-06 9.11880000e+01 7.81860800e-03 1.13011600e-01
       25 -1    0    0    0    0 +0.0000000000e+00 +0.0000000000e+00 +9.9999998245e-15 1.2500000000e+02 1.2500000000e+02 0.0000e+00 0.0000e+00
       23  2    1    0    0    0 +2.4360955810e+01 -3.3055638071e+00 +1.8241724178e+01 9.4387201679e+01 8.9284939490e+01 0.0000e+00 0.0000e+00
      -13  1    2    2    0    0 -1.0287943181e+01 -1.2095685268e+01 -3.0237667330e+01 3.4153697700e+01 1.0566000000e-01 0.0000e+00 -1.0000e+00
       13  1    2    2    0    0 +3.4648898991e+01 +8.7901214612e+00 +4.8479391507e+01 6.0233503979e+01 1.0566000000e-01 0.0000e+00 1.0000e+00
       22  1    1    0    0    0 -2.4360955810e+01 +3.3055638071e+00 -1.8241724178e+01 3.0612798321e+01 0.0000000000e+00 0.0000e+00 1.0000e+00
</event>
<event>
 5      1 +2.4041262e-06 9.11880000e+01 7.81860800e-03 1.13011600e-01
       25 -1    0    0    0    0 +0.0000000000e+00 +0.0000000000e+00 +9.9999998245e-15 1.2500000000e+02 1.2500000000e+02 0.0000e+00 0.0000e+00
       23  2    1    0    0    0 +6.1163870857e+00 +6.2449958148e+00 +2.7315563614e+01 9.6319864379e+01 9.1950889581e+01 0.0000e+00 0.0000e+00
      -11  1    2    2    0    0 -3.3576858894e+01 -9.9928047730e+00 +3.8445862909e+01 5.2012940462e+01 5.1100000000e-04 0.0000e+00 1.0000e+00
       11  1    2    2    0    0 +3.9693245979e+01 +1.6237800588e+01 -1.1130299295e+01 4.4306923917e+01 5.1100000000e-04 0.0000e+00 -1.0000e+00
       22  1    1    0    0    0 -6.1163870857e+00 -6.2449958148e+00 -2.7315563614e+01 2.8680135621e+01 0.0000000000e+00 0.0000e+00 1.0000e+00
</event>
<event>
 4      1 +2.4041262e-06 9.11880000e+01 7.81860800e-03 1.13011600e-01
       25 -1    0    0    0    0 +0.0000000000e+00 +0.0000000000e+00 +9.9999998245e-15 1.2500000000e+02 1.2500000000e+02 0.0000e+00 0.0000e+00
      -13  1    1    0    0    0 +1.2311939256e+01 +3.8491203398e+01 -3.2906236510e+01 5.2115143217e+01 1.0566000000e-01 0.0000e+00 -1.0000e+00
       13  1    1    0    0    0 +4.5470484255e+00 -3.3450296415e+01 -1.9757085664e+00 3.3815862668e+01 1.0566000000e-01 0.0000e+00 1.0000e+00
       22  1    1    0    0    0 -1.6858987681e+01 -5.0409069837e+00 +3.4881945076e+01 3.9068994115e+01 0.0000000000e+00 0.0000e+00 -1.0000e+00
</event>
<event>
 4      1 +2.4041262e-06 9.11880000e+01 7.81860800e-03 1.13011600e-01
       25 -1    0    0    0    0 +0.0000000000e+00 +0.0000000000e+00 +9.9999998245e-15 1.2500000000e+02 1.2500000000e+02 0.0000e+00 0.0000e+00
      -13  1    1    0    0    0 -5.5845125164e+00 -4.3124471297e+01 +4.1374132915e+01 6.0022802694e+01 1.0566000000e-01 0.0000e+00 1.0000e+00
       13  1    1    0    0    0 +1.8126873932e+00 +4.2172907423e+01 -4.3441130492e+01 6.0572130048e+01 1.0566000000e-01 0.0000e+00 1.0000e+00
       22  1    1    0    0    0 +3.7718251231e+00 +9.5156387400e-01 +2.0669975771e+00 4.4050672582e+00 0.0000000000e+00 0.0000e+00 -1.0000e+00
</event>
<event>
 4      1 +2.4041262e-06 9.11880000e+01 7.81860800e-03 1.13011600e-01
       25 -1    0    0    0    0 +0.0000000000e+00 +0.0000000000e+00 +9.9999998245e-15 1.2500000000e+02 1.2500000000e+02 0.0000e+00 0.0000e+00
      -13  1    1    0    0    0 +4.3262168938e+01 -4.4682255837e+01 -6.1734163873e+00 6.2499931855e+01 1.0566000000e-01 0.0000e+00 -1.0000e+00
       13  1    1    0    0    0 -4.3183769069e+01 +4.4596147412e+01 +6.1662346569e+00 6.2383394337e+01 1.0566000000e-01 0.0000e+00 -1.0000e+00
       22  1    1    0    0    0 -7.8399868875e-02 +8.6108424918e-02 +7.1817303901e-03 1.1667380826e-01 0.0000000000e+00 0.0000e+00 -1.0000e+00
</event>
<event>
 4      1 +2.4041262e-06 9.11880000e+01 7.81860800e-03 1.13011600e-01
       25 -1    0    0    0    0 +0.0000000000e+00 +0.0000000000e+00 +9.9999998245e-15 1.2500000000e+02 1.2500000000e+02 0.0000e+00 0.0000e+00
      -13  1    1    0    0    0 +3.3243038508e+00 -3.1933912696e+01 +3.4314211183e+01 4.6992574193e+01 1.0566000000e-01 0.0000e+00 1.0000e+00
       13  1    1    0    0    0 -4.4586335586e+00 +4.2419017998e+01 -4.5683421219e+01 6.2499909116e+01 1.0566000000e-01 0.0000e+00 1.0000e+00
       22  1    1    0    0    0 +1.1343297079e+00 -1.0485105302e+01 +1.1369210036e+01 1.5507516691e+01 0.0000000000e+00 0.0000e+00 1.0000e+00
</event>
<event>
 4      1 +2.4041262e-06 9.11880000e+01 7.81860800e-03 1.13011600e-01
       25 -1    0    0    0    0 +0.0000000000e+00 +0.0000000000e+00 +9.9999998245e-15 1.2500000000e+02 1.2500000000e+02 0.0000e+00 0.0000e+00
      -13  1    1    0    0    0 -7.3137104647e+00 +4.2999306468e-01 +4.1963007012e+01 4.2597891688e+01 1.0566000000e-01 0.0000e+00 -1.0000e+00
       13  1    1    0    0    0 +2.3698275919e+01 -1.6960754291e+01 +5.3913392324e+00 2.9637023643e+01 1.0566000000e-01 0.0000e+00 1.0000e+00
       22  1    1    0    0    0 -1.6384565455e+01 +1.6530761227e+01 -4.7354346244e+01 5.2765084668e+01 0.0000000000e+00 0.0000e+00 -1.0000e+00
</event>
<event>
 4      1 +2.4041262e-06 9.11880000e+01 7.81860800e-03 1.13011600e-01
       25 -1    0    0    0    0 +0.0000000000e+00 +0.0000000000e+00 +9.9999998245e-15 1.2500000000e+02 1.2500000000e+02 0.0000e+00 0.0000e+00
      -11  1    1    0    0    0 -3.4403141757e+01 +3.4598932604e+01 +3.6592328329e+01 6.0989021905e+01 5.1100000000e-04 0.0000e+00 -1.0000e+00
       11  1    1    0    0    0 -8.5307182292e-01 +8.5373646090e-01 +9.0910196877e-01 1.5109811814e+00 5.1100000000e-04 0.0000e+00 1.0000e+00
       22  1    1    0    0    0 +3.5256213580e+01 -3.5452669065e+01 -3.7501430298e+01 6.2499996914e+01 0.0000000000e+00 0.0000e+00 -1.0000e+00
</event>
<event>
 4      1 +2.4041262e-06 9.11880000e+01 7.81860800e-03 1.13011600e-01
       25 -1    0    0    0    0 +0.0000000000e+00 +0.0000000000e+00 +9.9999998245e-15 1.2500000000e+02 1.2500000000e+02 0.0000e+00 0.0000e+00
      -13  1    1    0    0    0 +4.1009921965e+01 +4.5015101301e+01 -1.4073584283e+01 6.2499999866e+01 1.0566000000e-01 0.0000e+00 1.0000e+00
       13  1    1    0    0    0 -4.1009883778e+01 -4.5015053110e+01 +1.4073565942e+01 6.2499935971e+01 1.0566000000e-01 0.0000e+00 1.0000e+00
       22  1    1    0    0    0 -3.8186741198e-05 -4.8190151622e-05 +1.8340950502e-05 6.4163138811e-05 0.0000000000e+00 0.0000e+00 -1.0000e+00
</event>
<event>
 4      1 +2.4041262e-06 9.11880000e+01 7.81860800e-03 1.13011600e-01
       25 -1    0    0    0    0 +0.0000000000e+00 +0.0000000000e+00 +9.9999998245e-15 1.2500000000e+02 1.2500000000e+02 0.0000e+00 0.0000e+00
      -13  1    1    0    0    0 +5.4405113000e+01 -2.1458171180e+01 +2.2042445533e+01 6.2500000000e+01 1.0566000000e-01 0.0000e+00 -1.0000e+00
       13  1    1    0    0    0 -5.4405112598e+01 +2.1458171020e+01 -2.2042445371e+01 6.2499999538e+01 1.0566000000e-01 0.0000e+00 -1.0000e+00
       22  1    1    0    0    0 -4.0239891456e-07 +1.5967633854e-07 -1.6169996907e-07 4.6213450372e-07 0.0000000000e+00 0.0000e+00 -1.0000e+00
</event>
<event>
 4      1 +2.4041262e-06 9.11880000e+01 7.81860800e-03 1.13011600e-01
       25 -1    0    0    0    0 +0.0000000000e+00 +0.0000000000e+00 +9.9999998245e-15 1.2500000000e+02 1.2500000000e+02 0.0000e+00 0.0000e+00
      -13  1    1    0    0    0 -3.4055875546e+01 +3.3778713330e+01 -3.9984029591e+01 6.2446280273e+01 1.0566000000e-01 0.0000e+00 1.0000e+00
       13  1    1    0    0    0 +3.4061214864e+01 -3.3831367604e+01 +4.0010419571e+01 6.2494580807e+01 1.0566000000e-01 0.0000e+00 1.0000e+00
       22  1    1    0    0    0 -5.3393171547e-03 +5.2654273639e-02 -2.6389979999e-02 5.9138920217e-02 0.0000000000e+00 0.0000e+00 1.0000e+00
</event>
<event>
 4      1 +2.4041262e-06 9.11880000e+01 7.81860800e-03 1.13011600e-01
       25 -1    0    0    0    0 +0.0000000000e+00 +0.0000000000e+00 +9.9999998245e-15 1.2500000000e+02 1.2500000000e+02 0.0000e+00 0.0000e+00
      -13  1    1    0    0    0 +3.3155690601e+01 +5.1446422544e+00 +5.2730094164e+01 6.2499929262e+01 1.0566000000e-01 0.0000e+00 1.0000e+00
       13  1    1    0    0    0 -3.3155703218e+01 -5.1446451900e+00 -5.2730166514e+01 6.2499997237e+01 1.0566000000e-01 0.0000e+00 1.0000e+00
       22  1    1    0    0    0 +1.2616657110e-05 +2.9356574786e-06 +7.2350599673e-05 7.3501070703e-05 0.0000000000e+00 0.0000e+00 1.0000e+00
</event>
<event>
 4      1 +2.4041262e-06 9.11880000e+01 7.81860800e-03 1.13011600e-01
       25 -1    0    0    0    0 +0.0000000000e+00 +0.0000000000e+00 +9.9999998245e-15 1.2500000000e+02 1.2500000000e+02 0.0000e+00 0.0000e+00
      -13  1    1    0    0    0 +4.5208235574e+01 -1.3496951607e+01 -4.0991178374e+01 6.2499921079e+01 1.0566000000e-01 0.0000e+00 1.0000e+00
       13  1    1    0    0    0 -4.3714352010e+01 +1.3032062692e+01 +3.9654451802e+01 6.0442252948e+01 1.0566000000e-01 0.0000e+00 1.0000e+00
       22  1    1    0    0    0 -1.4938835640e+00 +4.6488891544e-01 +1.3367265715e+00 2.0578259725e+00 0.0000000000e+00 0.0000e+00 1.0000e+00
</event>
<event>
 4      1 +2.4041262e-06 9.11880000e+01 7.81860800e-03 1.13011600e-01
       25 -1    0    0    0    0 +0.0000000000e+00 +0.0000000000e+00 +9.9999998245e-15 1.2500000000e+02 1.2500000000e+02 0.0000e+00 0.0000e+00
      -13  1    1    0    0    0 +3.0572304763e+01 +5.1436220165e+01 -1.8052374443e+01 6.2499999603e+01 1.0566000000e-01 0.0000e+00 1.0000e+00
       13  1    1    0    0    0 -3.0572304960e+01 -5.1436220490e+01 +1.8052374556e+01 6.2500000000e+01 1.0566000000e-01 0.0000e+00 1.0000e+00
       22  1    1    0    0    0 +1.9658884648e-07 +3.2532695468e-07 -1.1319679647e-07 3.9660851823e-07 0.0000000000e+00 0.0000e+00 -1.0000e+00
</event>
<event>
 5      1 +2.4041262e-06 9.11880000e+01 7.81860800e-03 1.13011600e-01
       25 -1    0    0    0    0 +0.0000000000e+00 +0.0000000000e+00 +9.9999998245e-15 1.2500000000e+02 1.2500000000e+02 0.0000e+00 0.0000e+00
       23  2    1    0    0    0 +4.3068181455e+00 +2.8222696416e+01 -7.8478632559e+00 9.5391585095e+01 9.0680186776e+01 0.0000e+00 0.0000e+00
      -13  1    2    2    0    0 +4.5074004405e+01 +2.9607479942e+01 -4.2078457634e-01 5.3930111861e+01 1.0566000000e-01 0.0000e+00 1.0000e+00
       13  1    2    2    0    0 -4.0767186260e+01 -1.3847835261e+00 -7.4270786795e+00 4.1461473234e+01 1.0566000000e-01 0.0000e+00 -1.0000e+00
       22  1    1    0    0    0 -4.3068181455e+00 -2.8222696416e+01 +7.8478632559e+00 2.9608414905e+01 0.0000000000e+00 0.0000e+00 1.0000e+00
</event>
<event>
 5      1 +2.4041262e-06 9.11880000e+01 7.81860800e-03 1.13011600e-01
       25 -1    0    0    0    0 +0.0000000000e+00 +0.0000000000e+00 +9.9999998245e-15 1.2500000000e+02 1.2500000000e+02 0.0000e+00 0.0000e+00
       23  2    1    0    0    0 +3.1508481433e+00 +2.6049435911e+01 -1.3916191569e+01 9.5298798962e+01 9.0552193460e+01 0.0000e+00 0.0000e+00
      -11  1    2    2    0    0 -3.6861651027e+01 +1.1828600440e+01 +1.7491751584e+01 4.2481272092e+01 5.1100000000e-04 0.0000e+00 -1.0000e+00
       11  1    2    2    0    0 +4.0012499170e+01 +1.4220835471e+01 -3.1407943153e+01 5.2817526870e+01 5.1100000000e-04 0.0000e+00 1.0000e+00
       22  1    1    0    0    0 -3.1508481433e+00 -2.6049435911e+01 +1.3916191569e+01 2.9701201038e+01 0.0000000000e+00 0.0000e+00 1.0000e+00
</event>
<event>
 4      1 +2.4041262e-06 9.11880000e+01 7.81860800e-03 1.13011600e-01
       25 -1    0    0    0    0 +0.0000000000e+00 +0.0000000000e+00 +9.9999998245e-15 1.2500000000e+02 1.2500000000e+02 0.0000e+00 0.0000e+00
      -11  1    1    0    0    0 +3.8347253873e+01 -4.3526788130e+01 -1.3501609486e+01 5.9559941433e+01 5.1100000000e-04 0.0000e+00 1.0000e+00
       11  1    1    0    0    0 -4.1241678599e+00 -3.7071550012e+00 +2.4989176225e+00 6.0824623537e+00 5.1100000000e-04 0.0000e+00 -1.0000e+00
       22  1    1    0    0    0 -3.4223086013e+01 +4.7233943131e+01 +1.1002691863e+01 5.9357596213e+01 0.0000000000e+00 0.0000e+00 1.0000e+00
</event>
<event>
 4      1 +2.4041262e-06 9.11880000e+01 7.81860800e-03 1.13011600e-01
       25 -1    0    0    0    0 +0.0000000000e+00 +0.0000000000e+00 +9.9999998245e-15 1.2500000000e+02 1.2500000000e+02 0.0000e+00 0.0000e+00
      -13  1    1    0    0    0 -4.8216141821e+01 +1.9070123155e+01 +3.4866721139e+01 6.2483320465e+01 1.0566000000e-01 0.0000e+00 -1.0000e+00
       13  1    1    0    0    0 +4.8229011022e+01 -1.9075149887e+01 -3.4876065959e+01 6.2499999906e+01 1.0566000000e-01 0.0000e+00 -1.0000e+00
       22  1    1    0    0    0 -1.2869201244e-02 +5.0267320245e-03 +9.3448199823e-03 1.6679629372e-02 0.0000000000e+00 0.0000e+00 -1.0000e+00
</event>
<event>
 5      1 +2.4041262e-06 9.11880000e+01 7.81860800e-03 1.13011600e-01
       25 -1    0    0    0    0 +0.0000000000e+00 +0.0000000000e+00 +9.9999998245e-15 1.2500000000e+02 1.2500000000e+02 0.0000e+00 0.0000e+00
       23  2    1    0    0    0 +2.0359876447e+01 +1.2834557455e+01 +1.7498281072e+01 9.5243651526e+01 9.0476034847e+01 0.0000e+00 0.0000e+00
      -11  1    2    2    0    0 -1.8141707569e+01 +1.2254654539e+01 +4.3556587780e+01 4.8749096922e+01 5.1100000000e-04 0.0000e+00 1.0000e+00
       11  1    2    2    0    0 +3.8501584016e+01 +5.7990291598e-01 -2.6058306708e+01 4.6494554605e+01 5.1100000000e-04 0.0000e+00 -1.0000e+00
       22  1    1    0    0    0 -2.0359876447e+01 -1.2834557455e+01 -1.7498281072e+01 2.9756348474e+01 0.0000000000e+00 0.0000e+00 -1.0000e+00
</event>
<event>
 4      1 +2.4041262e-06 9.11880000e+01 7.81860800e-03 1.13011600e-01
       25 -1    0    0    0    0 +0.0000000000e+00 +0.0000000000e+00 +9.9999998245e-15 1.2500000000e+02 1.2500000000e+02 0.0000e+00 0.0000e+00
      -11  1    1    0    0    0 +1.9885785506e+00 +1.3234915312e+01 +3.4065653263e+00 1.3810217796e+01 5.1100000000e-04 0.0000e+00 1.0000e+00
       11  1    1    0    0    0 +7.0027548543e+00 +4.6664060751e+01 +1.2005072321e+01 4.8689782326e+01 5.1100000000e-04 0.0000e+00 -1.0000e+00
       22  1    1    0    0    0 -8.9913334048e+00 -5.9898976063e+01 -1.5411637647e+01 6.2499999878e+01 0.0000000000e+00 0.0000e+00 -1.0000e+00
</event>
<event>
 4      1 +2.4041262e-06 9.11880000e+01 7.81860800e-03 1.13011600e-01
       25 -1    0    0    0    0 +0.0000000000e+00 +0.0000000000e+00 +9.9999998245e-15 1.2500000000e+02 1.2500000000e+02 0.0000e+00 0.0000e+00
      -13  1    1    0    0    0 +2.8771758835e+01 -1.1756945282e+01 +5.4223601119e+01 6.2499999609e+01 1.0566000000e-01 0.0000e+00 1.0000e+00
       13  1    1    0    0    0 -2.8771749164e+01 +1.1756946748e+01 -5.4223579839e+01 6.2499976971e+01 1.0566000000e-01 0.0000e+00 1.0000e+00
       22  1    1    0    0    0 -9.6711378501e-06 -1.4657898752e-06 -2.1279739412e-05 2.3420221108e-05 0.0000000000e+00 0.0000e+00 1.0000e+00
</event>
<event>
 4      1 +2.4041262e-06 9.11880000e+01 7.81860800e-03 1.13011600e-01
       25 -1    0    0    0    0 +0.0000000000e+00 +0.0000000000e+00 +9.9999998245e-15 1.2500000000e+02 1.2500000000e+02 0.0000e+00 0.0000e+00
      -13  1    1    0    0    0 +1.2604475660e+01 -7.5189144477e+00 -6.0752211666e+01 6.2499994140e+01 1.0566000000e-01 0.0000e+00 -1.0000e+00
       13  1    1    0    0    0 -1.2604476842e+01 +7.5189150961e+00 +6.0752217369e+01 6.2500000000e+01 1.0566000000e-01 0.0000e+00 -1.0000e+00
       22  1    1    0    0    0 +1.1824592659e-06 -6.4847642739e-07 -5.7030495862e-06 5.8603332819e-06 0.0000000000e+00 0.0000e+00 1.0000e+00
</event>
<event>
 4      1 +2.4041262e-06 9.11880000e+01 7.81860800e-03 1.13011600e-01
       25 -1    0    0    0    0 +0.0000000000e+00 +0.0000000000e+00 +9.9999998245e-15 1.2500000000e+02 1.2500000000e+02 0.0000e+00 0.0000e+00
      -13  1    1    0    0    0 -5.2948896071e+01 +3.1687797610e+01 -9.6376751037e+00 6.2454768097e+01 1.0566000000e-01 0.0000e+00 -1.0000e+00
       13  1    1    0    0    0 +5.2953152136e+01 -3.1738501098e+01 +9.6636107473e+00 6.2488121350e+01 1.0566000000e-01 0.0000e+00 -1.0000e+00
       22  1    1    0    0    0 -4.2560648029e-03 +5.0703487654e-02 -2.5935643626e-02 5.7110553825e-02 0.0000000000e+00 0.0000e+00 1.0000e+00
</event>
<event>
 5      1 +2.4041262e-06 9.11880000e+01 7.81860800e-03 1.13011600e-01
       25 -1    0    0    0    0 +0.0000000000e+00 +0.0000000000e+00 +9.9999998245e-15 1.2500000000e+02 1.2500000000e+02 0.0000e+00 0.0000e+00
       23  2    1    0    0    0 +9.4120228349e-01 -8.8351301490e+00 +2.8713001942e+01 9.4943688400e+01 9.0060657892e+01 0.0000e+00 0.0000e+00
      -11  1    2    2    0    0 -3.0567416619e+01 -4.1261097244e+00 +4.8473109368e+01 5.7454626205e+01 5.1100000000e-04 0.0000e+00 1.0000e+00
       11  1    2    2    0    0 +3.1508618903e+01 -4.7090204246e+00 -1.9760107426e+01 3.7489062195e+01 5.1100000000e-04 0.0000e+00 -1.0000e+00
       22  1    1    0    0    0 -9.4120228349e-01 +8.8351301490e+00 -2.8713001942e+01 3.0056311600e+01 0.0000000000e+00 0.0000e+00 1.0000e+00
</event>
<event>
 4      1 +2.4041262e-06 9.11880000e+01 7.81860800e-03 1.13011600e-01
       25 -1    0    0    0    0 +0.0000000000e+00 +0.0000000000e+00 +9.9999998245e-15 1.2500000000e+02 1.2500000000e+02 0.0000e+00 0.0000e+00
      -13  1    1    0    0    0 -1.1119309445e+01 -2.9713262603e+01 -4.1044918592e+01 5.1876907418e+01 1.0566000000e-01 0.0000e+00 1.0000e+00
       13  1    1    0    0    0 -2.9436639211e+00 -6.8787139056e+00 -7.5886290186e+00 1.0657406659e+01 1.0566000000e-01 0.0000e+00 -1.0000e+00
       22  1    1    0    0    0 +1.4062973366e+01 +3.6591976508e+01 +4.8633547610e+01 6.2465685923e+01 0.0000000000e+00 0.0000e+00 -1.0000e+00
</event>
<event>
 4      1 +2.4041262e-06 9.11880000e+01 7.81860800e-03 1.13011600e-01
       25 -1    0    0    0    0 +0.0000000000e+00 +0.0000000000e+00 +9.9999998245e-15 1.2500000000e+02 1.2500000000e+02 0.0000e+00 0.0000e+00
      -13  1    1    0    0    0 +4.7760541218e+01 -4.0276058408e+01 -1.7340611155e+00 6.2499986482e+01 1.0566000000e-01 0.0000e+00 -1.0000e+00
       13  1    1    0    0    0 -4.7760551578e+01 +4.0276067083e+01 +1.7340614712e+00 6.2500000000e+01 1.0566000000e-01 0.0000e+00 -1.0000e+00
       22  1    1    0    0    0 +1.0360641078e-05 -8.6751776593e-06 -3.5567844536e-07 1.3517695740e-05 0.0000000000e+00 0.0000e+00 1.0000e+00
</event>
<event>
 4      1 +2.4041262e-06 9.11880000e+01 7.81860800e-03 1.13011600e-01
       25 -1    0    0    0    0 +0.0000000000e+00 +0.0000000000e+00 +9.9999998245e-15 1.2500000000e+02 1.2500000000e+02 0.0000e+00 0.0000e+00
      -13  1    1    0    0    0 +2.7095052173e+01 +4.9444690497e+01 +2.6963499254e+01 6.2497685771e+01 1.0566000000e-01 0.0000e+00 -1.0000e+00
       13  1    1    0    0    0 -2.5501041334e+01 -4.6488204861e+01 -2.5157214700e+01 5.8688609762e+01 1.0566000000e-01 0.0000e+00 -1.0000e+00
       22  1    1    0    0    0 -1.5940108390e+00 -2.9564856362e+00 -1.8062845547e+00 3.8137044674e+00 0.0000000000e+00 0.0000e+00 1.0000e+00
</event>
<event>
 4      1 +2.4041262e-06 9.11880000e+01 7.81860800e-03 1.13011600e-01
       25 -1    0    0    0    0 +0.0000000000e+00 +0.0000000000e+00 +9.9999998245e-15 1.2500000000e+02 1.2500000000e+02 0.0000e+00 0.0000e+00
      -11  1    1    0    0    0 -2.2888684289e+00 +5.4270068575e+01 -3.0650682364e+01 6.2369412307e+01 5.1100000000e-04 0.0000e+00 1.0000e+00
       11  1    1    0    0    0 +3.8348155913e-02 +1.0555548224e-01 -7.3863341679e-02 1.3441947500e-01 5.1100000000e-04 0.0000e+00 -1.0000e+00
       22  1    1    0    0    0 +2.2505202730e+00 -5.4375624058e+01 +3.0724545706e+01 6.2496168218e+01 0.0000000000e+00 0.0000e+00 1.0000e+00
</event>
<event>
 4      1 +2.4041262e-06 9.11880000e+01 7.81860800e-03 1.13011600e-01
       25 -1    0    0    0    0 +0.0000000000e+00 +0.0000000000e+00 +9.9999998245e-15 1.2500000000e+02 1.2500000000e+02 0.0000e+00 0.0000e+00
      -13  1    1    0    0    0 +9.0441179354e+00 -3.0564478686e+01 -5.3761095682e+01 6.2499999996e+01 1.0566000000e-01 0.0000e+00 1.0000e+00
       13  1    1    0    0    0 -9.0440733238e+00 +3.0564326485e+01 +5.3760832121e+01 6.2499692400e+01 1.0566000000e-01 0.0000e+00 1.0000e+00
       22  1    1    0    0    0 -4.4611559776e-05 +1.5220119184e-04 +2.6356100306e-04 3.0760331013e-04 0.0000000000e+00 0.0000e+00 1.0000e+00
</event>
<event>
 5      1 +2.4041262e-06 9.11880000e+01 7.81860800e-03 1.13011600e-01
       25 -1    0    0    0    0 +0.0000000000e+00 +0.0000000000e+00 +9.9999998245e-15 1.2500000000e+02 1.2500000000e+02 0.0000e+00 0.0000e+00
       23  2    1    0    0    0 +2.7878575132e+01 +2.4068925857e+00 -1.0137161038e+01 9.5238109649e+01 9.0468377969e+01 0.0000e+00 0.0000e+00
      -11  1    2    2    0    0 -1.3695684696e+01 +1.4577737825e+01 -3.8551469166e+01 4.3431532260e+01 5.1100000000e-04 0.0000e+00 1.0000e+00
       11  1    2    2    0    0 +4.1574259829e+01 -1.2170845239e+01 +2.8414308127e+01 5.1806577389e+01 5.1100000000e-04 0.0000e+00 -1.0000e+00
       22  1    1    0    0    0 -2.7878575132e+01 -2.4068925857e+00 +1.0137161038e+01 2.9761890351e+01 0.0000000000e+00 0.0000e+00 -1.0000e+00
</event>
<event>
 4      1 +2.4041262e-06 9.11880000e+01 7.81860800e-03 1.13011600e-01
       25 -1    0    0    0    0 +0.0000000000e+00 +0.0000000000e+00 +9.9999998245e-15 1.2500000000e+02 1.2500000000e+02 0.0000e+00 0.0000e+00
      -13  1    1    0    0    0 +1.8111862648e+01 +3.2042183113e+01 +5.0512352463e+01 6.2499999861e+01 1.0566000000e-01 0.0000e+00 -1.0000e+00
       13  1    1    0    0    0 -1.8111862690e+01 -3.2042183170e+01 -5.0512352583e+01 6.2500000000e+01 1.0566000000e-01 0.0000e+00 -1.0000e+00
       22  1    1    0    0    0 +4.1963020065e-08 +5.6949378663e-08 +1.1995976408e-07 1.3926403621e-07 0.0000000000e+00 0.0000e+00 1.0000e+00
</event>
<event>
 4      1 +2.4041262e-06 9.11880000e+01 7.81860800e-03 1.13011600e-01
       25 -1    0    0    0    0 +0.0000000000e+00 +0.0000000000e+00 +9.9999998245e-15 1.2500000000e+02 1.2500000000e+02 0.0000e+00 0.0000e+00
      -13  1    1    0    0    0 -5.4090631716e+01 -3.7612103095e+00 -3.1085297057e+01 6.2499999997e+01 1.0566000000e-01 0.0000e+00 1.0000e+00
       13  1    1    0    0    0 +5.4090631720e+01 +3.7612103095e+00 +3.1085297057e+01 6.2500000000e+01 1.0566000000e-01 0.0000e+00 1.0000e+00
       22  1    1    0    0    0 -3.6515642174e-09 -6.5154846314e-11 -2.0082636231e-10 3.6576628625e-09 0.0000000000e+00 0.0000e+00 1.0000e+00
</event>
<event>
 4      1 +2.4041262e-06 9.11880000e+01 7.81860800e-03 1.13011600e-01
       25 -1    0    0    0    0 +0.0000000000e+00 +0.0000000000e+00 +9.9999998245e-15 1.2500000000e+02 1.2500000000e+02 0.0000e+00 0.0000e+00
      -13  1    1    0    0    0 -1.0939442681e+01 +4.2937677714e+01 +2.1547202805e+01 4.9270769087e+01 1.0566000000e-01 0.0000e+00 -1.0000e+00
       13  1    1    0    0    0 -2.0884517064e+00 +1.2904138135e+01 +2.9058575554e+00 1.3391548966e+01 1.0566000000e-01 0.0000e+00 1.0000e+00
       22  1    1    0    0    0 +1.3027894387e+01 -5.5841815850e+01 -2.4453060360e+01 6.2337681947e+01 0.0000000000e+00 0.0000e+00 1.0000e+00
</event>
<event>
 4      1 +2.4041262e-06 9.11880000e+01 7.81860800e-03 1.13011600e-01
       25 -1    0    0    0    0 +0.0000000000e+00 +0.0000000000e+00 +9.9999998245e-15 1.2500000000e+02 1.2500000000e+02 0.0000e+00 0.0000e+00
      -13  1    1    0    0    0 +1.4859755997e+01 +4.6709264457e+01 -3.8776897956e+01 6.2499813708e+01 1.0566000000e-01 0.0000e+00 1.0000e+00
       13  1    1    0    0    0 -1.4859860277e+01 -4.6709352971e+01 +3.8777037246e+01 6.2499991072e+01 1.0566000000e-01 0.0000e+00 1.0000e+00
       22  1    1    0    0    0 +1.0427961544e-04 +8.8514169203e-05 -1.3928971900e-04 1.9521942057e-04 0.0000000000e+00 0.0000e+00 -1.0000e+00
</event>
<event>
 4      1 +2.4041262e-06 9.11880000e+01 7.81860800e-03 1.13011600e-01
       25 -1    0    0    0    0 +0.0000000000e+00 +0.0000000000e+00 +9.9999998245e-15 1.2500000000e+02 1.2500000000e+02 0.0000e+00 0.0000e+00
      -13  1    1    0    0    0 -1.4607198133e+01 -2.6728021709e+01 +5.4575341506e+01 6.2499891570e+01 1.0566000000e-01 0.0000e+00 -1.0000e+00
       13  1    1    0    0    0 +1.4606243819e+01 +2.6721454339e+01 -5.4564674654e+01 6.2487545676e+01 1.0566000000e-01 0.0000e+00 -1.0000e+00
       22  1    1    0    0    0 +9.5431341800e-04 +6.5673697813e-03 -1.0666851904e-02 1.2562754057e-02 0.0000000000e+00 0.0000e+00 -1.0000e+00
</event>
<event>
 4      1 +2.4041262e-06 9.11880000e+01 7.81860800e-03 1.13011600e-01
       25 -1    0    0    0    0 +0.0000000000e+00 +0.0000000000e+00 +9.9999998245e-15 1.2500000000e+02 1.2500000000e+02 0.0000e+00 0.0000e+00
      -11  1    1    0    0    0 -2.4522961344e+01 -4.6686116244e+00 +5.5776374075e+00 2.5578928962e+01 5.1100000000e-04 0.0000e+00 -1.0000e+00
       11  1    1    0    0    0 -3.5395749028e+01 -6.7441891378e+00 +8.0512332345e+00 3.6921071128e+01 5.1100000000e-04 0.0000e+00 -1.0000e+00
       22  1    1    0    0    0 +5.9918710371e+01 +1.1412800762e+01 -1.3628870642e+01 6.2499999910e+01 0.0000000000e+00 0.0000e+00 -1.0000e+00
</event>
<event>
 5      1 +2.4041262e-06 9.11880000e+01 7.81860800e-03 1.13011600e-01
       25 -1    0    0    0    0 +0.0000000000e+00 +0.0000000000e+00 +9.9999998245e-15 1.2500000000e+02 1.2500000000e+02 0.0000e+00 0.0000e+00
       23  2    1    0    0    0 +3.0745371705e+00 -1.2148989610e+01 +2.5061377510e+01 9.6979947001e+01 9.2843883753e+01 0.0000e+00 0.0000e+00
      -11  1    2    2    0    0 -3.1605809432e+01 -4.0215988535e+00 -2.1440786849e+01 3.8403226273e+01 5.1100000000e-04 0.0000e+00 1.0000e+00
       11  1    2    2    0    0 +3.4680346602e+01 -8.1273907566e+00 +4.6502164359e+01 5.8576720729e+01 5.1100000000e-04 0.0000e+00 -1.0000e+00
       22  1    1    0    0    0 -3.0745371705e+00 +1.2148989610e+01 -2.5061377510e+01 2.8020052999e+01 0.0000000000e+00 0.0000e+00 1.0000e+00
</event>
<event>
 4      1 +2.4041262e-06 9.11880000e+01 7.81860800e-03 1.13011600e-01
       25 -1    0    0    0    0 +0.0000000000e+00 +0.0000000000e+00 +9.9999998245e-15 1.2500000000e+02 1.2500000000e+02 0.0000e+00 0.0000e+00
      -13  1    1    0    0    0 +2.2294552867e+01 -5.2445713058e+01 +2.1925218961e+01 6.1060022078e+01 1.0566000000e-01 0.0000e+00 1.0000e+00
       13  1    1    0    0    0 -2.3933881458e+01 +5.3066022157e+01 -2.1869999223e+01 6.2186344315e+01 1.0566000000e-01 0.0000e+00 1.0000e+00
       22  1    1    0    0    0 +1.6393285904e+00 -6.2030909974e-01 -5.5219738359e-02 1.7536336065e+00 0.0000000000e+00 0.0000e+00 -1.0000e+00
</event>
<event>
 5      1 +2.4041262e-06 9.11880000e+01 7.81860800e-03 1.13011600e-01
       25 -1    0    0    0    0 +0.0000000000e+00 +0.0000000000e+00 +9.9999998245e-15 1.2500000000e+02 1.2500000000e+02 0.0000e+00 0.0000e+00
       23  2    1    0    0    0 -2.2984157339e+00 -2.8931441125e+01 -6.4904326507e+00 9.5260519230e+01 9.0499335951e+01 0.0000e+00 0.0000e+00
      -13  1    2    2    0    0 -1.7519779725e+01 -9.5378126043e+00 -4.5177573593e+01 4.9385593756e+01 1.0566000000e-01 0.0000e+00 -1.0000e+00
       13  1    2    2    0    0 +1.5221363991e+01 -1.9393628521e+01 +3.8687140942e+01 4.5874925474e+01 1.0566000000e-01 0.0000e+00 1.0000e+00
       22  1    1    0    0    0 +2.2984157339e+00 +2.8931441125e+01 +6.4904326507e+00 2.9739480770e+01 0.0000000000e+00 0.0000e+00 1.0000e+00
</event>
<event>
 4      1 +2.4041262e-06 9.11880000e+01 7.81860800e-03 1.13011600e-01
       25 -1    0    0    0    0 +0.0000000000e+00 +0.0000000000e+00 +9.9999998245e-15 1.2500000000e+02 1.2500000000e+02 0.0000e+00 0.0000e+00
      -13  1    1    0    0    0 -2.3046339686e+01 -4.4987400439e+01 +3.6759191558e+01 6.2499994394e+01 1.0566000000e-01 0.0000e+00 -1.0000e+00
       13  1    1    0    0    0 +2.3046345583e+01 +4.4987403980e+01 -3.6759190831e+01 6.2499998689e+01 1.0566000000e-01 0.0000e+00 -1.0000e+00
       22  1    1    0    0    0 -5.8971282387e-06 -3.5406726612e-06 -7.2704904082e-07 6.9167249958e-06 0.0000000000e+00 0.0000e+00 -1.0000e+00
</event>
<event>
 4      1 +2.4041262e-06 9.11880000e+01 7.81860800e-03 1.13011600e-01
       25 -1    0    0    0    0 +0.0000000000e+00 +0.0000000000e+00 +9.9999998245e-15 1.2500000000e+02 1.2500000000e+02 0.0000e+00 0.0000e+00
      -13  1    1    0    0    0 -3.2405279102e+01 -4.2290493231e+01 -3.2420729030e+01 6.2367481642e+01 1.0566000000e-01 0.0000e+00 1.0000e+00
       13  1    1    0    0    0 +3.2497175957e+01 +4.2362670507e+01 +3.2486557569e+01 6.2498399055e+01 1.0566000000e-01 0.0000e+00 1.0000e+00
       22  1    1    0    0    0 -9.1896854915e-02 -7.2177275839e-02 -6.5828538429e-02 1.3411930347e-01 0.0000000000e+00 0.0000e+00 1.0000e+00
</event>
<event>
 4      1 +2.4041262e-06 9.11880000e+01 7.81860800e-03 1.13011600e-01
       25 -1    0    0    0    0 +0.0000000000e+00 +0.0000000000e+00 +9.9999998245e-15 1.2500000000e+02 1.2500000000e+02 0.0000e+00 0.0000e+00
      -11  1    1    0    0    0 +7.5685140130e+00 +1.5335395212e+01 -1.2978770146e+01 2.1468703394e+01 5.1100000000e-04 0.0000e+00 -1.0000e+00
       11  1    1    0    0    0 +1.4466486228e+01 +2.9308689876e+01 -2.4805015132e+01 4.1031296616e+01 5.1100000000e-04 0.0000e+00 1.0000e+00
       22  1    1    0    0    0 -2.2035000241e+01 -4.4644085088e+01 +3.7783785277e+01 6.2499999990e+01 0.0000000000e+00 0.0000e+00 -1.0000e+00
</event>
<event>
 4      1 +2.4041262e-06 9.11880000e+01 7.81860800e-03 1.13011600e-01
       25 -1    0    0    0    0 +0.0000000000e+00 +0.0000000000e+00 +9.9999998245e-15 1.2500000000e+02 1.2500000000e+02 0.0000e+00 0.0000e+00
      -13  1    1    0    0    0 -3.4795627943e+01 +4.6225318779e+01 +2.3637289257e+01 6.2499987421e+01 1.0566000000e-01 0.0000e+00 -1.0000e+00
       13  1    1    0    0    0 +3.4795637704e+01 -4.6225314031e+01 -2.3637254557e+01 6.2499976220e+01 1.0566000000e-01 0.0000e+00 -1.0000e+00
       22  1    1    0    0    0 -9.7607595340e-06 -4.7477001921e-06 -3.4700810021e-05 3.6358758229e-05 0.0000000000e+00 0.0000e+00 -1.0000e+00
</event>
<event>
 5      1 +2.4041262e-06 9.11880000e+01 7.81860800e-03 1.13011600e-01
       25 -1    0    0    0    0 +0.0000000000e+00 +0.0000000000e+00 +9.9999998245e-15 1.2500000000e+02 1.2500000000e+02 0.0000e+00 0.0000e+00
       23  2    1    0    0    0 +2.1589498153e+01 -3.4235223745e+01 +1.4900712427e+01 8.1870100786e+01 6.9588254731e+01 0.0000e+00 0.0000e+00
      -11  1    2    2    0    0 +3.9237848838e+01 -1.6339086240e+01 +3.0476381955e+01 5.2300902267e+01 5.1100000000e-04 0.0000e+00 -1.0000e+00
       11  1    2    2    0    0 -1.7648350686e+01 -1.7896137505e+01 -1.5575669528e+01 2.9569198519e+01 5.1100000000e-04 0.0000e+00 1.0000e+00
       22  1    1    0    0    0 -2.1589498153e+01 +3.4235223745e+01 -1.4900712427e+01 4.3129899214e+01 0.0000000000e+00 0.0000e+00 -1.0000e+00
</event>
<event>
 5      1 +2.4041262e-06 9.11880000e+01 7.81860800e-03 1.13011600e-01
       25 -1    0    0    0    0 +0.0000000000e+00 +0.0000000000e+00 +9.9999998245e-15 1.2500000000e+02 1.2500000000e+02 0.0000e+00 0.0000e+00
       23  2    1    0    0    0 +8.4696318261e+00 +1.9034485443e+01 +2.0016659443e+01 9.6108600681e+01 9.1663243289e+01 0.0000e+00 0.0000e+00
      -13  1    2    2    0    0 -3.7357585924e+01 -2.2915168483e+00 -8.0626716511e+00 3.8286526530e+01 1.0566000000e-01 0.0000e+00 -1.0000e+00
       13  1    2    2    0    0 +4.5827217750e+01 +2.1326002291e+01 +2.8079331094e+01 5.7822074151e+01 1.0566000000e-01 0.0000e+00 1.0000e+00
       22  1    1    0    0    0 -8.4696318261e+00 -1.9034485443e+01 -2.0016659443e+01 2.8891399319e+01 0.0000000000e+00 0.0000e+00 1.0000e+00
</event>
<event>
 4      1 +2.4041262e-06 9.11880000e+01 7.81860800e-03 1.13011600e-01
       25 -1    0    0    0    0 +0.0000000000e+00 +0.0000000000e+00 +9.9999998245e-15 1.2500000000e+02 1.2500000000e+02 0.0000e+00 0.0000e+00
      -13  1    1    0    0    0 -6.0536989205e+01 -1.1597523914e+01 +1.0344525010e+01 6.2499999877e+01 1.0566000000e-01 0.0000e+00 1.0000e+00
       13  1    1    0    0    0 +6.0536989324e+01 +1.1597523936e+01 -1.0344525029e+01 6.2500000000e+01 1.0566000000e-01 0.0000e+00 1.0000e+00
       22  1    1    0    0    0 -1.1920629104e-07 -2.2128647139e-08 +1.8798419723e-08 1.2269147253e-07 0.0000000000e+00 0.0000e+00 -1.0000e+00
</event>
<event>
 4      1 +2.4041262e-06 9.11880000e+01 7.81860800e-03 1.13011600e-01
       25 -1    0    0    0    0 +0.0000000000e+00 +0.0000000000e+00 +9.9999998245e-15 1.2500000000e+02 1.2500000000e+02 0.0000e+00 0.0000e+00
      -13  1    1    0    0    0 -3.9476206232e+00 +6.7244298167e+00 -6.2011586163e+01 6.2499997180e+01 1.0566000000e-01 0.0000e+00 -1.0000e+00
       13  1    1    0    0    0 +3.9475892530e+00 -6.7244306531e+00 +6.2011519432e+01 6.2499929079e+01 1.0566000000e-01 0.0000e+00 -1.0000e+00
       22  1    1    0    0    0 +3.1370172665e-05 +8.3642552962e-07 +6.6730862137e-05 7.3741408328e-05 0.0000000000e+00 0.0000e+00 -1.0000e+00
</event>
<event>
 4      1 +2.4041262e-06 9.11880000e+01 7.81860800e-03 1.13011600e-01
       25 -1    0    0    0    0 +0.0000000000e+00 +0.0000000000e+00 +9.9999998245e-15 1.2500000000e+02 1.2500000000e+02 0.0000e+00 0.0000e+00
      -13  1    1    0    0    0 -1.5734528565e+01 +6.0236594867e+01 +5.4547396031e+00 6.2496304679e+01 1.0566000000e-01 0.0000e+00 -1.0000e+00
       13  1    1    0    0    0 +1.5691988429e+01 -6.0111312164e+01 -5.3985626837e+00 6.2359955052e+01 1.0566000000e-01 0.0000e+00 -1.0000e+00
       22  1    1    0    0    0 +4.2540135606e-02 -1.2528270275e-01 -5.6176919400e-02 1.4374026930e-01 0.0000000000e+00 0.0000e+00 -1.0000e+00
</event>
<event>
 4      1 +2.4041262e-06 9.11880000e+01 7.81860800e-03 1.13011600e-01
       25 -1    0    0    0    0 +0.0000000000e+00 +0.0000000000e+00 +9.9999998245e-15 1.2500000000e+02 1.2500000000e+02 0.0000e+00 0.0000e+00
      -13  1    1    0    0    0 -6.1798731830e+01 +6.1410698474e+00 +7.0315594226e+00 6.2499999893e+01 1.0566000000e-01 0.0000e+00 -1.0000e+00
       13  1    1    0    0    0 +6.1798247380e+01 -6.1410075945e+00 -7.0315078021e+00 6.2499508955e+01 1.0566000000e-01 0.0000e+00 -1.0000e+00
       22  1    1    0    0    0 +4.8444921994e-04 -6.2252892594e-05 -5.1620574037e-05 4.9115288150e-04 0.0000000000e+00 0.0000e+00 -1.0000e+00
</event>
<event>
 4      1 +2.4041262e-06 9.11880000e+01 7.81860800e-03 1.13011600e-01
       25 -1    0    0    0    0 +0.0000000000e+00 +0.0000000000e+00 +9.9999998245e-15 1.2500000000e+02 1.2500000000e+02 0.0000e+00 0.0000e+00
      -11  1    1    0    0    0 -8.2353482321e+00 -1.0618595910e+01 +4.5975344089e+01 4.7898933224e+01 5.1100000000e-04 0.0000e+00 -1.0000e+00
       11  1    1    0    0    0 -2.4576569040e+00 -3.1939893218e+00 +1.4033938068e+01 1.4601132258e+01 5.1100000000e-04 0.0000e+00 1.0000e+00
       22  1    1    0    0    0 +1.0693005136e+01 +1.3812585232e+01 -6.0009282158e+01 6.2499934518e+01 0.0000000000e+00 0.0000e+00 -1.0000e+00
</event>
<event>
 4      1 +2.4041262e-06 9.11880000e+01 7.81860800e-03 1.13011600e-01
       25 -1    0    0    0    0 +0.0000000000e+00 +0.0000000000e+00 +9.9999998245e-15 1.2500000000e+02 1.2500000000e+02 0.0000e+00 0.0000e+00
      -13  1    1    0    0    0 +3.8043537092e+01 +4.9557814441e+01 -1.7178909625e+00 6.2500000000e+01 1.0566000000e-01 0.0000e+00 1.0000e+00
       13  1    1    0    0    0 -3.8043537091e+01 -4.9557814441e+01 +1.7178909627e+00 6.2500000000e+01 1.0566000000e-01 0.0000e+00 1.0000e+00
       22  1    1    0    0    0 -4.0258008773e-10 -2.5860911078e-10 -2.0409308684e-10 5.2019552797e-10 0.0000000000e+00 0.0000e+00 -1.0000e+00
</event>
<event>
 4      1 +2.4041262e-06 9.11880000e+01 7.81860800e-03 1.13011600e-01
       25 -1    0    0    0    0 +0.0000000000e+00 +0.0000000000e+00 +9.9999998245e-15 1.2500000000e+02 1.2500000000e+02 0.0000e+00 0.0000e+00
      -13  1    1    0    0    0 +4.3035572335e+01 +1.3555059775e+01 -4.3247958127e+01 6.2499577421e+01 1.0566000000e-01 0.0000e+00 1.0000e+00
       13  1    1    0    0    0 -4.3035900819e+01 -1.3554944783e+01 +4.3248240760e+01 6.2499974242e+01 1.0566000000e-01 0.0000e+00 1.0000e+00
       22  1    1    0    0    0 +3.2848423145e-04 -1.1499140578e-04 -2.8263269550e-04 4.4833709894e-04 0.0000000000e+00 0.0000e+00 1.0000e+00
</event>
<event>
 4      1 +2.4041262e-06 9.11880000e+01 7.81860800e-03 1.13011600e-01
       25 -1    0    0    0    0 +0.0000000000e+00 +0.0000000000e+00 +9.9999998245e-15 1.2500000000e+02 1.2500000000e+02 0.0000e+00 0.0000e+00
      -13  1    1    0    0    0 +4.9244450556e+01 +2.2789498801e+01 -3.0398615271e+01 6.2196978549e+01 1.0566000000e-01 0.0000e+00 -1.0000e+00
       13  1    1    0    0    0 -4.8935712024e+01 -2.3209920384e+01 +2.9280382824e+01 6.1569118054e+01 1.0566000000e-01 0.0000e+00 -1.0000e+00
       22  1    1    0    0    0 -3.0873853156e-01 +4.2042158242e-01 +1.1182324475e+00 1.2339033975e+00 0.0000000000e+00 0.0000e+00 1.0000e+00
</event>
<event>
 4      1 +2.4041262e-06 9.11880000e+01 7.81860800e-03 1.13011600e-01
       25 -1    0    0    0    0 +0.0000000000e+00 +0.0000000000e+00 +9.9999998245e-15 1.2500000000e+02 1.2500000000e+02 0.0000e+00 0.0000e+00
      -13  1    1    0    0    0 -6.1122876862e+01 +4.4988861053e+00 -1.2247150863e+01 6.2499999363e+01 1.0566000000e-01 0.0000e+00 1.0000e+00
       13  1    1    0    0    0 +6.1114970825e+01 -4.4983035667e+00 +1.2245712211e+01 6.2491943684e+01 1.0566000000e-01 0.0000e+00 1.0000e+00
       22  1    1    0    0    0 +7.9060370228e-03 -5.8253865008e-04 +1.4386516074e-03 8.0569529683e-03 0.0000000000e+00 0.0000e+00 1.0000e+00
</event>
<event>
 4      1 +2.4041262e-06 9.11880000e+01 7.81860800e-03 1.13011600e-01
       25 -1    0    0    0    0 +0.0000000000e+00 +0.0000000000e+00 +9.9999998245e-15 1.2500000000e+02 1.2500000000e+02 0.0000e+00 0.0000e+00
      -11  1    1    0    0    0 -3.4779219535e+01 +3.7115984920e+01 +2.4374235401e-01 5.0865016059e+01 5.1100000000e-04 0.0000e+00 1.0000e+00
       11  1    1    0    0    0 -7.9284072439e+00 +8.5149951884e+00 +9.6391047799e-02 1.1635036570e+01 5.1100000000e-04 0.0000e+00 -1.0000e+00
       22  1    1    0    0    0 +4.2707626779e+01 -4.5630980108e+01 -3.4013340181e-01 6.2499947372e+01 0.0000000000e+00 0.0000e+00 1.0000e+00
</event>
<event>
 4      1 +2.4041262e-06 9.11880000e+01 7.81860800e-03 1.13011600e-01
       25 -1    0    0    0    0 +0.0000000000e+00 +0.0000000000e+00 +9.9999998245e-15 1.2500000000e+02 1.2500000000e+02 0.0000e+00 0.0000e+00
      -13  1    1    0    0    0 -5.3011250093e+01 +2.5506975837e+01 -2.1105454520e+01 6.2499998618e+01 1.0566000000e-01 0.0000e+00 1.0000e+00
       13  1    1    0    0    0 +5.2990481816e+01 -2.5497229719e+01 +2.1096916395e+01 6.2475522662e+01 1.0566000000e-01 0.0000e+00 1.0000e+00
       22  1    1    0    0    0 +2.0768276811e-02 -9.7461183176e-03 +8.5381242232e-03 2.4478719517e-02 0.0000000000e+00 0.0000e+00 -1.0000e+00
</event>
<event>
 4      1 +2.4041262e-06 9.11880000e+01 7.81860800e-03 1.13011600e-01
       25 -1    0    0    0    0 +0.0000000000e+00 +0.0000000000e+00 +9.9999998245e-15 1.2500000000e+02 1.2500000000e+02 0.0000e+00 0.0000e+00
      -13  1    1    0    0    0 +5.9973600286e+01 +1.4290276806e+01 +1.0256417110e+01 6.2499999987e+01 1.0566000000e-01 0.0000e+00 1.0000e+00
       13  1    1    0    0    0 -5.9973600293e+01 -1.4290276817e+01 -1.0256417098e+01 6.2499999995e+01 1.0566000000e-01 0.0000e+00 1.0000e+00
       22  1    1    0    0    0 +7.4784396726e-09 +1.1002814052e-08 -1.1954168806e-08 1.7885500519e-08 0.0000000000e+00 0.0000e+00 -1.0000e+00
</event>
<event>
 4      1 +2.4041262e-06 9.11880000e+01 7.81860800e-03 1.13011600e-01
       25 -1    0    0    0    0 +0.0000000000e+00 +0.0000000000e+00 +9.9999998245e-15 1.2500000000e+02 1.2500000000e+02 0.0000e+00 0.0000e+00
      -13  1    1    0    0    0 +4.6490534851e+01 +4.9863633273e+00 -4.1472945207e+01 6.2499999985e+01 1.0566000000e-01 0.0000e+00 1.0000e+00
       13  1    1    0    0    0 -4.6490530892e+01 -4.9863627226e+00 +4.1472940907e+01 6.2499994139e+01 1.0566000000e-01 0.0000e+00 1.0000e+00
       22  1    1    0    0    0 -3.9585341538e-06 -6.0469691604e-07 +4.2997338354e-06 5.8756584365e-06 0.0000000000e+00 0.0000e+00 -1.0000e+00
</event>
<event>
 4      1 +2.4041262e-06 9.11880000e+01 7.81860800e-03 1.13011600e-01
       25 -1    0    0    0    0 +0.0000000000e+00 +0.0000000000e+00 +9.9999998245e-15 1.2500000000e+02 1.2500000000e+02 0.0000e+00 0.0000e+00
      -13  1    1    0    0    0 -1.8973961364e-01 +5.7694732580e+01 +2.3895899875e+01 6.2447925214e+01 1.0566000000e-01 0.0000e+00 1.0000e+00
       13  1    1    0    0    0 -1.1721596584e+00 -3.6201826217e+01 -1.3711383820e+01 3.8729309186e+01 1.0566000000e-01 0.0000e+00 1.0000e+00
       22  1    1    0    0    0 +1.3618992720e+00 -2.1492906363e+01 -1.0184516055e+01 2.3822765600e+01 0.0000000000e+00 0.0000e+00 1.0000e+00
</event>
<event>
 4      1 +2.4041262e-06 9.11880000e+01 7.81860800e-03 1.13011600e-01
       25 -1    0    0    0    0 +0.0000000000e+00 +0.0000000000e+00 +9.9999998245e-15 1.2500000000e+02 1.2500000000e+02 0.0000e+00 0.0000e+00
      -11  1    1    0    0    0 -2.5157221086e+01 -4.2864391839e+00 +2.6171038346e+01 3.6553831291e+01 5.1100000000e-04 0.0000e+00 -1.0000e+00
       11  1    1    0    0    0 -1.4258732906e+01 -1.5113096649e+01 +1.7005239218e+01 2.6849493767e+01 5.1100000000e-04 0.0000e+00 1.0000e+00
       22  1    1    0    0    0 +3.9415953992e+01 +1.9399535833e+01 -4.3176277564e+01 6.1596674942e+01 0.0000000000e+00 0.0000e+00 -1.0000e+00
</event>
<event>
 4      1 +2.4041262e-06 9.11880000e+01 7.81860800e-03 1.13011600e-01
       25 -1    0    0    0    0 +0.0000000000e+00 +0.0000000000e+00 +9.9999998245e-15 1.2500000000e+02 1.2500000000e+02 0.0000e+00 0.0000e+00
      -13  1    1    0    0    0 +4.1729388722e+01 -4.4970348133e+00 -4.6310618574e+01 6.2499998095e+01 1.0566000000e-01 0.0000e+00 -1.0000e+00
       13  1    1    0    0    0 -4.1729384101e+01 +4.4970408859e+00 +4.6310616678e+01 6.2499994042e+01 1.0566000000e-01 0.0000e+00 -1.0000e+00
       22  1    1    0    0    0 -4.6203156130e-06 -6.0726092990e-06 +1.8959254427e-06 7.8624699265e-06 0.0000000000e+00 0.0000e+00 1.0000e+00
</event>
<event>
 4      1 +2.4041262e-06 9.11880000e+01 7.81860800e-03 1.13011600e-01
       25 -1    0    0    0    0 +0.0000000000e+00 +0.0000000000e+00 +9.9999998245e-15 1.2500000000e+02 1.2500000000e+02 0.0000e+00 0.0000e+00
      -13  1    1    0    0    0 -2.0982508700e+01 +1.2400985497e+01 -5.7551617904e+01 6.2500000000e+01 1.0566000000e-01 0.0000e+00 -1.0000e+00
       13  1    1    0    0    0 +2.0982507204e+01 -1.2400984602e+01 +5.7551613751e+01 6.2499995496e+01 1.0566000000e-01 0.0000e+00 -1.0000e+00
       22  1    1    0    0    0 +1.4952427096e-06 -8.9593704708e-07 +4.1526933939e-06 4.5037002983e-06 0.0000000000e+00 0.0000e+00 1.0000e+00
</event>
<event>
 4      1 +2.4041262e-06 9.11880000e+01 7.81860800e-03 1.13011600e-01
       25 -1    0    0    0    0 +0.0000000000e+00 +0.0000000000e+00 +9.9999998245e-15 1.2500000000e+02 1.2500000000e+02 0.0000e+00 0.0000e+00
      -13  1    1    0    0    0 -5.7545015955e+01 -2.2408158916e+01 +9.3565570473e+00 6.2458872637e+01 1.0566000000e-01 0.0000e+00 -1.0000e+00
       13  1    1    0    0    0 +5.7583187229e+01 +2.2422433684e+01 -9.3621228900e+00 6.2499995942e+01 1.0566000000e-01 0.0000e+00 -1.0000e+00
       22  1    1    0    0    0 -3.8171273725e-02 -1.4274767596e-02 +5.5658426355e-03 4.1131420253e-02 0.0000000000e+00 0.0000e+00 -1.0000e+00
</event>
<event>
 4      1 +2.4041262e-06 9.11880000e+01 7.81860800e-03 1.13011600e-01
       25 -1    0    0    0    0 +0.0000000000e+00 +0.0000000000e+00 +9.9999998245e-15 1.2500000000e+02 1.2500000000e+02 0.0000e+00 0.0000e+00
      -11  1    1    0    0    0 +8.2925772247e+00 +5.4968536907e-01 +1.0399721281e+01 1.3312520198e+01 5.1100000000e-04 0.0000e+00 -1.0000e+00
       11  1    1    0    0    0 +3.0682878941e+01 +1.8973326035e+00 +3.8397544473e+01 4.9187501999e+01 5.1100000000e-04 0.0000e+00 1.0000e+00
       22  1    1    0    0    0 -3.8975456166e+01 -2.4470179726e+00 -4.8797265754e+01 6.2499977803e+01 0.0000000000e+00 0.0000e+00 1.0000e+00
</event>
<event>
 4      1 +2.4041262e-06 9.11880000e+01 7.81860800e-03 1.13011600e-01
       25 -1    0    0    0    0 +0.0000000000e+00 +0.0000000000e+00 +9.9999998245e-15 1.2500000000e+02 1.2500000000e+02 0.0000e+00 0.0000e+00
      -13  1    1    0    0    0 +3.7315172965e+01 -9.4080547638e-01 -5.0129149076e+01 6.2499999996e+01 1.0566000000e-01 0.0000e+00 -1.0000e+00
       13  1    1    0    0    0 -3.7315139754e+01 +9.4080427572e-01 +5.0129103030e+01 6.2499943217e+01 1.0566000000e-01 0.0000e+00 -1.0000e+00
       22  1    1    0    0    0 -3.3211373885e-05 +1.2006519615e-06 +4.6046492162e-05 5.6786586100e-05 0.0000000000e+00 0.0000e+00 1.0000e+00
</event>
<event>
 5      1 +2.4041262e-06 9.11880000e+01 7.81860800e-03 1.13011600e-01
       25 -1    0    0    0    0 +0.0000000000e+00 +0.0000000000e+00 +9.9999998245e-15 1.2500000000e+02 1.2500000000e+02 0.0000e+00 0.0000e+00
       23  2    1    0    0    0 +6.9420843934e+00 -3.2780722848e+00 +2.7669925327e+01 9.6284793903e+01 9.1903201662e+01 0.0000e+00 0.0000e+00
      -13  1    2    2    0    0 +2.7302007581e+01 +2.5127089886e+01 -1.5952830891e+01 4.0389036155e+01 1.0566000000e-01 0.0000e+00 1.0000e+00
       13  1    2    2    0    0 -2.0359923187e+01 -2.8405162170e+01 +4.3622756218e+01 5.5895757748e+01 1.0566000000e-01 0.0000e+00 -1.0000e+00
       22  1    1    0    0    0 -6.9420843934e+00 +3.2780722848e+00 -2.7669925327e+01 2.8715206097e+01 0.0000000000e+00 0.0000e+00 -1.0000e+00
</event>
<event>
 4      1 +2.4041262e-06 9.11880000e+01 7.81860800e-03 1.13011600e-01
       25 -1    0    0    0    0 +0.0000000000e+00 +0.0000000000e+00 +9.9999998245e-15 1.2500000000e+02 1.2500000000e+02 0.0000e+00 0.0000e+00
      -13  1    1    0    0    0 -5.0389021401e+01 -3.5324075043e+01 -1.0761808969e+01 6.2471365054e+01 1.0566000000e-01 0.0000e+00 -1.0000e+00
       13  1    1    0    0    0 +5.0412186479e+01 +3.5340253794e+01 +1.0766459843e+01 6.2499999243e+01 1.0566000000e-01 0.0000e+00 -1.0000e+00
       22  1    1    0    0    0 -2.3165078062e-02 -1.6178751208e-02 -4.6508737185e-03 2.8635702516e-02 0.0000000000e+00 0.0000e+00 1.0000e+00
</event>
<event>
 4      1 +2.4041262e-06 9.11880000e+01 7.81860800e-03 1.13011600e-01
       25 -1    0    0    0    0 +0.0000000000e+00 +0.0000000000e+00 +9.9999998245e-15 1.2500000000e+02 1.2500000000e+02 0.0000e+00 0.0000e+00
      -13  1    1    0    0    0 -2.0437840953e+01 -2.7117859153e+01 -5.2470515060e+01 6.2499997941e+01 1.0566000000e-01 0.0000e+00 1.0000e+00
       13  1    1    0    0    0 +2.0437841648e+01 +2.7117860099e+01 +5.2470516753e+01 6.2499999999e+01 1.0566000000e-01 0.0000e+00 1.0000e+00
       22  1    1    0    0    0 -6.9488713100e-07 -9.4661845983e-07 -1.6923825537e-06 2.0598818756e-06 0.0000000000e+00 0.0000e+00 1.0000e+00
</event>
<event>
 5      1 +2.4041262e-06 9.11880000e+01 7.81860800e-03 1.13011600e-01
       25 -1    0    0    0    0 +0.0000000000e+00 +0.0000000000e+00 +9.9999998245e-15 1.2500000000e+02 1.2500000000e+02 0.0000e+00 0.0000e+00
       23  2    1    0    0    0 +2.7317633267e+01 -5.7539777003e+00 +1.7913401086e+01 9.1829964046e+01 8.5629965617e+01 0.0000e+00 0.0000e+00
      -11  1    2    2    0    0 -5.4609041524e+00 +9.1630609798e+00 +4.5330083069e+01 4.6568225132e+01 5.1100000000e-04 0.0000e+00 -1.0000e+00
       11  1    2    2    0    0 +3.2778537420e+01 -1.4917038680e+01 -2.7416681982e+01 4.5261738914e+01 5.1100000000e-04 0.0000e+00 1.0000e+00
       22  1    1    0    0    0 -2.7317633267e+01 +5.7539777003e+00 -1.7913401086e+01 3.3170035954e+01 0.0000000000e+00 0.0000e+00 -1.0000e+00
</event>
<event>
 4      1 +2.4041262e-06 9.11880000e+01 7.81860800e-03 1.13011600e-01
       25 -1    0    0    0    0 +0.0000000000e+00 +0.0000000000e+00 +9.9999998245e-15 1.2500000000e+02 1.2500000000e+02 0.0000e+00 0.0000e+00
      -13  1    1    0    0    0 +2.7307568306e+01 +4.2111273195e+01 -3.7225245270e+01 6.2488340243e+01 1.0566000000e-01 0.0000e+00 1.0000e+00
       13  1    1    0    0    0 -2.7307481464e+01 -4.2102418449e+01 +3.7242263291e+01 6.2492475725e+01 1.0566000000e-01 0.0000e+00 1.0000e+00
       22  1    1    0    0    0 -8.6842438332e-05 -8.8547458200e-03 -1.7018020721e-02 1.9184032277e-02 0.0000000000e+00 0.0000e+00 1.0000e+00
</event>
<event>
 4      1 +2.4041262e-06 9.11880000e+01 7.81860800e-03 1.13011600e-01
       25 -1    0    0    0    0 +0.0000000000e+00 +0.0000000000e+00 +9.9999998245e-15 1.2500000000e+02 1.2500000000e+02 0.0000e+00 0.0000e+00
      -13  1    1    0    0    0 +1.0402340498e+01 -2.8242938665e+01 +5.4775601902e+01 6.2500000000e+01 1.0566000000e-01 0.0000e+00 -1.0000e+00
       13  1    1    0    0    0 -1.0402340475e+01 +2.8242938572e+01 -5.4775601715e+01 6.2499999791e+01 1.0566000000e-01 0.0000e+00 -1.0000e+00
       22  1    1    0    0    0 -2.2290842641e-08 +9.2375796069e-08 -1.8670527782e-07 2.0949708860e-07 0.0000000000e+00 0.0000e+00 -1.0000e+00
</event>
<event>
 4      1 +2.4041262e-06 9.11880000e+01 7.81860800e-03 1.13011600e-01
       25 -1    0    0    0    0 +0.0000000000e+00 +0.0000000000e+00 +9.9999998245e-15 1.2500000000e+02 1.2500000000e+02 0.0000e+00 0.0000e+00
      -13  1    1    0    0    0 +5.3526156859e+01 -3.1447973505e+01 -7.2259484021e+00 6.2500000000e+01 1.0566000000e-01 0.0000e+00 -1.0000e+00
       13  1    1    0    0    0 -5.3526155793e+01 +3.1447972872e+01 +7.2259482387e+00 6.2499998750e+01 1.0566000000e-01 0.0000e+00 -1.0000e+00
       22  1    1    0    0    0 -1.0658571628e-06 +6.3243279439e-07 +1.6344455357e-07 1.2500947376e-06 0.0000000000e+00 0.0000e+00 -1.0000e+00
</event>
<event>
 4      1 +2.4041262e-06 9.11880000e+01 7.81860800e-03 1.13011600e-01
       25 -1    0    0    0    0 +0.0000000000e+00 +0.0000000000e+00 +9.9999998245e-15 1.2500000000e+02 1.2500000000e+02 0.0000e+00 0.0000e+00
      -13  1    1    0    0    0 -4.6748227999e+01 -1.8364019291e+00 +4.0336780031e+01 6.1772454868e+01 1.0566000000e-01 0.0000e+00 1.0000e+00
       13  1    1    0    0    0 +3.2990601424e+01 -3.9733485687e+00 -3.1960651481e+01 4.6104898745e+01 1.0566000000e-01 0.0000e+00 1.0000e+00
       22  1    1    0    0    0 +1.3757626575e+01 +5.8097504977e+00 -8.3761285505e+00 1.7122646387e+01 0.0000000000e+00 0.0000e+00 1.0000e+00
</event>
<event>
 4      1 +2.4041262e-06 9.11880000e+01 7.81860800e-03 1.13011600e-01
       25 -1    0    0    0    0 +0.0000000000e+00 +0.0000000000e+00 +9.9999998245e-15 1.2500000000e+02 1.2500000000e+02 0.0000e+00 0.0000e+00
      -13  1    1    0    0    0 -4.8765270044e+00 +5.5718498419e+01 +2.7889500492e+01 6.2499335864e+01 1.0566000000e-01 0.0000e+00 -1.0000e+00
       13  1    1    0    0    0 +4.8765754996e+00 -5.5719090854e+01 -2.7889796723e+01 6.2499999995e+01 1.0566000000e-01 0.0000e+00 -1.0000e+00
       22  1    1    0    0    0 -4.8495148701e-05 +5.9243456605e-04 +2.9623103323e-04 6.6414103890e-04 0.0000000000e+00 0.0000e+00 -1.0000e+00
</event>
<event>
 4      1 +2.4041262e-06 9.11880000e+01 7.81860800e-03 1.13011600e-01
       25 -1    0    0    0    0 +0.0000000000e+00 +0.0000000000e+00 +9.9999998245e-15 1.2500000000e+02 1.2500000000e+02 0.0000e+00 0.0000e+00
      -13  1    1    0    0    0 -4.0362812426e+01 -4.5478289777e+01 -1.4450168436e+01 6.2499999998e+01 1.0566000000e-01 0.0000e+00 -1.0000e+00
       13  1    1    0    0    0 +4.0362812426e+01 +4.5478289778e+01 +1.4450168436e+01 6.2500000000e+01 1.0566000000e-01 0.0000e+00 -1.0000e+00
       22  1    1    0    0    0 -8.9598003106e-10 -1.1447212893e-09 -7.0942914323e-10 1.6175465235e-09 0.0000000000e+00 0.0000e+00 -1.0000e+00
</event>
<event>
 4      1 +2.4041262e-06 9.11880000e+01 7.81860800e-03 1.13011600e-01
       25 -1    0    0    0    0 +0.0000000000e+00 +0.0000000000e+00 +9.9999998245e-15 1.2500000000e+02 1.2500000000e+02 0.0000e+00 0.0000e+00
      -11  1    1    0    0    0 -5.0238156761e+01 +4.0695568354e+00 +3.3279988865e+01 6.0398603848e+01 5.1100000000e-04 0.0000e+00 1.0000e+00
       11  1    1    0    0    0 -1.7455383076e+00 +1.4036447525e-01 +1.1615806071e+00 2.1013985670e+00 5.1100000000e-04 0.0000e+00 -1.0000e+00
       22  1    1    0    0    0 +5.1983695069e+01 -4.2099213107e+00 -3.4441569472e+01 6.2499997585e+01 0.0000000000e+00 0.0000e+00 1.0000e+00
</event>
<event>
 4      1 +2.4041262e-06 9.11880000e+01 7.81860800e-03 1.13011600e-01
       25 -1    0    0    0    0 +0.0000000000e+00 +0.0000000000e+00 +9.9999998245e-15 1.2500000000e+02 1.2500000000e+02 0.0000e+00 0.0000e+00
      -13  1    1    0    0    0 -3.3619182931e+01 +5.2685934480e+01 -3.1093477041e-01 6.2499319975e+01 1.0566000000e-01 0.0000e+00 1.0000e+00
       13  1    1    0    0    0 +2.5952147911e+01 -4.0434315768e+01 +3.5507935038e-01 4.8047737909e+01 1.0566000000e-01 0.0000e+00 1.0000e+00
       22  1    1    0    0    0 +7.6670350200e+00 -1.2251618712e+01 -4.4144579971e-02 1.4452942116e+01 0.0000000000e+00 0.0000e+00 -1.0000e+00
</event>
<event>
 4      1 +2.4041262e-06 9.11880000e+01 7.81860800e-03 1.13011600e-01
       25 -1    0    0    0    0 +0.0000000000e+00 +0.0000000000e+00 +9.9999998245e-15 1.2500000000e+02 1.2500000000e+02 0.0000e+00 0.0000e+00
      -13  1    1    0    0    0 -5.6627622370e+01 +1.0660791187e+01 -2.4205337470e+01 6.2499996881e+01 1.0566000000e-01 0.0000e+00 1.0000e+00
       13  1    1    0    0    0 +5.6627625191e+01 -1.0660791784e+01 +2.4205338661e+01 6.2500000000e+01 1.0566000000e-01 0.0000e+00 1.0000e+00
       22  1    1    0    0    0 -2.8210763632e-06 +5.9641695339e-07 -1.1904832252e-06 3.1195248578e-06 0.0000000000e+00 0.0000e+00 1.0000e+00
</event>
<event>
 4      1 +2.4041262e-06 9.11880000e+01 7.81860800e-03 1.13011600e-01
       25 -1    0    0    0    0 +0.0000000000e+00 +0.0000000000e+00 +9.9999998245e-15 1.2500000000e+02 1.2500000000e+02 0.0000e+00 0.0000e+00
      -13  1    1    0    0    0 -4.1536886963e+01 -4.5642461777e+01 +9.8839027658e+00 6.2499999949e+01 1.0566000000e-01 0.0000e+00 1.0000e+00
       13  1    1    0    0    0 +4.1532268264e+01 +4.5637417802e+01 -9.8827781243e+00 6.2493069042e+01 1.0566000000e-01 0.0000e+00 1.0000e+00
       22  1    1    0    0    0 +4.6186992188e-03 +5.0439748676e-03 -1.1246414561e-03 6.9310088258e-03 0.0000000000e+00 0.0000e+00 1.0000e+00
</event>
<event>
 4      1 +2.4041262e-06 9.11880000e+01 7.81860800e-03 1.13011600e-01
       25 -1    0    0    0    0 +0.0000000000e+00 +0.0000000000e+00 +9.9999998245e-15 1.2500000000e+02 1.2500000000e+02 0.0000e+00 0.0000e+00
      -13  1    1    0    0    0 +2.0387018105e+01 -2.8278360801e+01 -5.1874296516e+01 6.2499999999e+01 1.0566000000e-01 0.0000e+00 1.0000e+00
       13  1    1    0    0    0 -2.0387018102e+01 +2.8278360801e+01 +5.1874296515e+01 6.2499999997e+01 1.0566000000e-01 0.0000e+00 1.0000e+00
       22  1    1    0    0    0 -3.5688433257e-09 +3.6244123369e-10 +1.4427440441e-09 3.8664604884e-09 0.0000000000e+00 0.0000e+00 -1.0000e+00
</event>
<event>
 4      1 +2.4041262e-06 9.11880000e+01 7.81860800e-03 1.13011600e-01
       25 -1    0    0    0    0 +0.0000000000e+00 +0.0000000000e+00 +9.9999998245e-15 1.2500000000e+02 1.2500000000e+02 0.0000e+00 0.0000e+00
      -13  1    1    0    0    0 +3.4431697254e+01 -4.1073538215e+01 -3.2150606813e+01 6.2499999999e+01 1.0566000000e-01 0.0000e+00 1.0000e+00
       13  1    1    0    0    0 -3.4431697256e+01 +4.1073538215e+01 +3.2150606813e+01 6.2499999999e+01 1.0566000000e-01 0.0000e+00 1.0000e+00
       22  1    1    0    0    0 +1.7104435638e-09 -1.4069251077e-11 +4.2931590502e-10 1.7635552940e-09 0.0000000000e+00 0.0000e+00 1.0000e+00
</event>
<event>
 4      1 +2.4041262e-06 9.11880000e+01 7.81860800e-03 1.13011600e-01
       25 -1    0    0    0    0 +0.0000000000e+00 +0.0000000000e+00 +9.9999998245e-15 1.2500000000e+02 1.2500000000e+02 0.0000e+00 0.0000e+00
      -13  1    1    0    0    0 +1.0787800549e+01 +3.4885619886e+01 +5.0721701906e+01 6.2498682577e+01 1.0566000000e-01 0.0000e+00 1.0000e+00
       13  1    1    0    0    0 -1.0788014366e+01 -3.4886359929e+01 -5.0722770704e+01 6.2499999960e+01 1.0566000000e-01 0.0000e+00 1.0000e+00
       22  1    1    0    0    0 +2.1381740255e-04 +7.4004324728e-04 +1.0687976929e-03 1.3174636230e-03 0.0000000000e+00 0.0000e+00 1.0000e+00
</event>
<event>
 4      1 +2.4041262e-06 9.11880000e+01 7.81860800e-03 1.13011600e-01
       25 -1    0    0    0    0 +0.0000000000e+00 +0.0000000000e+00 +9.9999998245e-15 1.2500000000e+02 1.2500000000e+02 0.0000e+00 0.0000e+00
      -13  1    1    0    0    0 +3.0862321503e+01 +5.3095881702e+01 +1.1601003996e+01 6.2500000000e+01 1.0566000000e-01 0.0000e+00 1.0000e+00
       13  1    1    0    0    0 -3.0862321503e+01 -5.3095881700e+01 -1.1601003996e+01 6.2499999999e+01 1.0566000000e-01 0.0000e+00 1.0000e+00
       22  1    1    0    0    0 -3.5833525339e-10 -1.2764236723e-09 -1.2060767464e-10 1.3312429366e-09 0.0000000000e+00 0.0000e+00 -1.0000e+00
</event>
<event>
 5      1 +2.4041262e-06 9.11880000e+01 7.81860800e-03 1.13011600e-01
       25 -1    0    0    0    0 +0.0000000000e+00 +0.0000000000e+00 +9.9999998245e-15 1.2500000000e+02 1.2500000000e+02 0.0000e+00 0.0000e+00
       23  2    1    0    0    0 +2.4135281041e+01 +1.3727535909e+01 +2.8597773342e+00 9.7087003753e+01 9.2987907484e+01 0.0000e+00 0.0000e+00
      -11  1    2    2    0    0 +2.5053780664e+01 +4.0780710001e+01 -2.8465202122e+01 5.5686856312e+01 5.1100000000e-04 0.0000e+00 1.0000e+00
       11  1    2    2    0    0 -9.1849962287e-01 -2.7053174092e+01 +3.1324979456e+01 4.1400147441e+01 5.1100000000e-04 0.0000e+00 -1.0000e+00
       22  1    1    0    0    0 -2.4135281041e+01 -1.3727535909e+01 -2.8597773342e+00 2.7912996247e+01 0.0000000000e+00 0.0000e+00 1.0000e+00
</event>
<event>
 4      1 +2.4041262e-06 9.11880000e+01 7.81860800e-03 1.13011600e-01
       25 -1    0    0    0    0 +0.0000000000e+00 +0.0000000000e+00 +9.9999998245e-15 1.2500000000e+02 1.2500000000e+02 0.0000e+00 0.0000e+00
      -13  1    1    0    0    0 -1.0189988640e+00 +6.3225114427e-01 +1.5025365195e+01 1.5073515299e+01 1.0566000000e-01 0.0000e+00 -1.0000e+00
       13  1    1    0    0    0 -2.1228195156e+01 -4.6795003581e+01 +1.0853445813e+01 5.2518730752e+01 1.0566000000e-01 0.0000e+00 1.0000e+00
       22  1    1    0    0    0 +2.2247194020e+01 +4.6162752437e+01 -2.5878811008e+01 5.7407753949e+01 0.0000000000e+00 0.0000e+00 1.0000e+00
</event>
<event>
 5      1 +2.4041262e-06 9.11880000e+01 7.81860800e-03 1.13011600e-01
       25 -1    0    0    0    0 +0.0000000000e+00 +0.0000000000e+00 +9.9999998245e-15 1.2500000000e+02 1.2500000000e+02 0.0000e+00 0.0000e+00
       23  2    1    0    0    0 -2.1878026841e+01 +1.6148977149e+01 -3.3148148336e+01 8.2125330794e+01 7.0045218955e+01 0.0000e+00 0.0000e+00
      -11  1    2    2    0    0 -2.9025748286e+01 +2.3265905433e+01 -5.0099514102e+01 6.2399981833e+01 5.1100000000e-04 0.0000e+00 -1.0000e+00
       11  1    2    2    0    0 +7.1477214451e+00 -7.1169282838e+00 +1.6951365766e+01 1.9725348961e+01 5.1100000000e-04 0.0000e+00 1.0000e+00
       22  1    1    0    0    0 +2.1878026841e+01 -1.6148977149e+01 +3.3148148336e+01 4.2874669206e+01 0.0000000000e+00 0.0000e+00 -1.0000e+00
</event>
<event>
 5      1 +2.4041262e-06 9.11880000e+01 7.81860800e-03 1.13011600e-01
       25 -1    0    0    0    0 +0.0000000000e+00 +0.0000000000e+00 +9.9999998245e-15 1.2500000000e+02 1.2500000000e+02 0.0000e+00 0.0000e+00
       23  2    1    0    0    0 -1.5322499649e+01 -2.2836172877e+01 -1.2824879220e+01 9.4656181615e+01 8.9660723864e+01 0.0000e+00 0.0000e+00
      -11  1    2    2    0    0 +2.4089174753e+01 +2.2670377173e+01 +1.2000632917e-01 3.3079430818e+01 5.1100000000e-04 0.0000e+00 1.0000e+00
       11  1    2    2    0    0 -3.9411674402e+01 -4.5506550051e+01 -1.2944885549e+01 6.1576750797e+01 5.1100000000e-04 0.0000e+00 -1.0000e+00
       22  1    1    0    0    0 +1.5322499649e+01 +2.2836172877e+01 +1.2824879220e+01 3.0343818385e+01 0.0000000000e+00 0.0000e+00 -1.0000e+00
</event>
<event>
 4      1 +2.4041262e-06 9.11880000e+01 7.81860800e-03 1.13011600e-01
       25 -1    0    0    0    0 +0.0000000000e+00 +0.0000000000e+00 +9.9999998245e-15 1.2500000000e+02 1.2500000000e+02 0.0000e+00 0.0000e+00
      -13  1    1    0    0    0 -9.2276311962e+00 -2.6833004096e+01 +7.9196743564e+00 2.9460001565e+01 1.0566000000e-01 0.0000e+00 -1.0000e+00
       13  1    1    0    0    0 -6.0621251089e-01 -3.3687604378e+01 +1.7470313386e-01 3.3693676967e+01 1.0566000000e-01 0.0000e+00 1.0000e+00
       22  1    1    0    0    0 +9.8338437071e+00 +6.0520608474e+01 -8.0943774903e+00 6.1846321467e+01 0.0000000000e+00 0.0000e+00 -1.0000e+00
</event>
<event>
 5      1 +2.4041262e-06 9.11880000e+01 7.81860800e-03 1.13011600e-01
       25 -1    0    0    0    0 +0.0000000000e+00 +0.0000000000e+00 +9.9999998245e-15 1.2500000000e+02 1.2500000000e+02 0.0000e+00 0.0000e+00
       23  2    1    0    0    0 -2.2200337006e+01 -1.1414846876e+01 +1.4337363890e+01 9.6212612211e+01 9.1804972920e+01 0.0000e+00 0.0000e+00
      -11  1    2    2    0    0 -1.8520863473e+01 -1.8521657024e+01 +5.1724567504e+01 5.7978487790e+01 5.1100000000e-04 0.0000e+00 -1.0000e+00
       11  1    2    2    0    0 -3.6794735327e+00 +7.1068101482e+00 -3.7387203613e+01 3.8234124421e+01 5.1100000000e-04 0.0000e+00 1.0000e+00
       22  1    1    0    0    0 +2.2200337006e+01 +1.1414846876e+01 -1.4337363890e+01 2.8787387789e+01 0.0000000000e+00 0.0000e+00 1.0000e+00
</event>
<event>
 4      1 +2.4041262e-06 9.11880000e+01 7.81860800e-03 1.13011600e-01
       25 -1    0    0    0    0 +0.0000000000e+00 +0.0000000000e+00 +9.9999998245e-15 1.2500000000e+02 1.2500000000e+02 0.0000e+00 0.0000e+00
      -11  1    1    0    0    0 +1.6781279909e+01 -4.9475284401e+01 +2.0705044248e+00 5.2284817211e+01 5.1100000000e-04 0.0000e+00 -1.0000e+00
       11  1    1    0    0    0 +3.2827670732e+00 -9.6652076643e+00 +3.9647835914e-01 1.0215184492e+01 5.1100000000e-04 0.0000e+00 1.0000e+00
       22  1    1    0    0    0 -2.0064046982e+01 +5.9140492066e+01 -2.4669827839e+00 6.2499998297e+01 0.0000000000e+00 0.0000e+00 -1.0000e+00
</event>
<event>
 5      1 +2.4041262e-06 9.11880000e+01 7.81860800e-03 1.13011600e-01
       25 -1    0    0    0    0 +0.0000000000e+00 +0.0000000000e+00 +9.9999998245e-15 1.2500000000e+02 1.2500000000e+02 0.0000e+00 0.0000e+00
       23  2    1    0    0    0 +2.2455425113e+01 -9.3885441338e-01 -1.9675270315e+01 9.5129549274e+01 9.0318255732e+01 0.0000e+00 0.0000e+00
      -11  1    2    2    0    0 +6.5120441652e+00 +1.9205597132e+00 +3.6263118871e+01 3.6893211561e+01 5.1100000000e-04 0.0000e+00 -1.0000e+00
       11  1    2    2    0    0 +1.5943380948e+01 -2.8594141265e+00 -5.5938389186e+01 5.8236337712e+01 5.1100000000e-04 0.0000e+00 1.0000e+00
       22  1    1    0    0    0 -2.2455425113e+01 +9.3885441338e-01 +1.9675270315e+01 2.9870450726e+01 0.0000000000e+00 0.0000e+00 1.0000e+00
</event>
<event>
 5      1 +2.4041262e-06 9.11880000e+01 7.81860800e-03 1.13011600e-01
       25 -1    0    0    0    0 +0.0000000000e+00 +0.0000000000e+00 +9.9999998245e-15 1.2500000000e+02 1.2500000000e+02 0.0000e+00 0.0000e+00
       23  2    1    0    0    0 +1.0993034698e+01 +8.2843399989e+00 -2.6558575458e+01 9.5086206669e+01 9.0258249857e+01 0.0000e+00 0.0000e+00
      -11  1    2    2    0    0 +1.5121570221e+01 -3.7851649835e+01 -2.6770370839e+01 4.8765377434e+01 5.1100000000e-04 0.0000e+00 1.0000e+00
       11  1    2    2    0    0 -4.1285355235e+00 +4.6135989834e+01 +2.1179538144e-01 4.6320829235e+01 5.1100000000e-04 0.0000e+00 -1.0000e+00
       22  1    1    0    0    0 -1.0993034698e+01 -8.2843399989e+00 +2.6558575458e+01 2.9913793331e+01 0.0000000000e+00 0.0000e+00 1.0000e+00
</event>
<event>
 4      1 +2.4041262e-06 9.11880000e+01 7.81860800e-03 1.13011600e-01
       25 -1    0    0    0    0 +0.0000000000e+00 +0.0000000000e+00 +9.9999998245e-15 1.2500000000e+02 1.2500000000e+02 0.0000e+00 0.0000e+00
      -13  1    1    0    0    0 -5.3120082591e+01 +2.6610499781e+01 -1.9400437144e+01 6.2499999988e+01 1.0566000000e-01 0.0000e+00 -1.0000e+00
       13  1    1    0    0    0 +5.3120082602e+01 -2.6610499786e+01 +1.9400437147e+01 6.2500000000e+01 1.0566000000e-01 0.0000e+00 -1.0000e+00
       22  1    1    0    0    0 -1.0633249461e-08 +5.2648051281e-09 -3.3524167694e-09 1.2329755283e-08 0.0000000000e+00 0.0000e+00 -1.0000e+00
</event>
<event>
 5      1 +2.4041262e-06 9.11880000e+01 7.81860800e-03 1.13011600e-01
       25 -1    0    0    0    0 +0.0000000000e+00 +0.0000000000e+00 +9.9999998245e-15 1.2500000000e+02 1.2500000000e+02 0.0000e+00 0.0000e+00
       23  2    1    0    0    0 +3.8124261415e+00 +2.5722699342e+01 -1.5045683040e+01 9.4957289858e+01 9.0079534105e+01 0.0000e+00 0.0000e+00
      -13  1    2    2    0    0 -1.9877178664e+01 -1.8102471923e+01 -3.2491800903e+01 4.2172621585e+01 1.0566000000e-01 0.0000e+00 1.0000e+00
       13  1    2    2    0    0 +2.3689604805e+01 +4.3825171265e+01 +1.7446117863e+01 5.2784668274e+01 1.0566000000e-01 0.0000e+00 -1.0000e+00
       22  1    1    0    0    0 -3.8124261415e+00 -2.5722699342e+01 +1.5045683040e+01 3.0042710142e+01 0.0000000000e+00 0.0000e+00 -1.0000e+00
</event>
<event>
 4      1 +2.4041262e-06 9.11880000e+01 7.81860800e-03 1.13011600e-01
       25 -1    0    0    0    0 +0.0000000000e+00 +0.0000000000e+00 +9.9999998245e-15 1.2500000000e+02 1.2500000000e+02 0.0000e+00 0.0000e+00
      -13  1    1    0    0    0 -2.0903571299e+01 +5.2933842209e+00 +3.2837638513e+01 3.9284868292e+01 1.0566000000e-01 0.0000e+00 -1.0000e+00
       13  1    1    0    0    0 -9.7315637206e+00 +3.0460998148e+01 -1.1035575701e+01 3.3828550600e+01 1.0566000000e-01 0.0000e+00 1.0000e+00
       22  1    1    0    0    0 +3.0635135020e+01 -3.5754382369e+01 -2.1802062812e+01 5.1886581108e+01 0.0000000000e+00 0.0000e+00 -1.0000e+00
</event>
<event>
 5      1 +2.4041262e-06 9.11880000e+01 7.81860800e-03 1.13011600e-01
       25 -1    0    0    0    0 +0.0000000000e+00 +0.0000000000e+00 +9.9999998245e-15 1.2500000000e+02 1.2500000000e+02 0.0000e+00 0.0000e+00
       23  2    1    0    0    0 +3.7284701389e+00 -1.3258639219e+01 -2.8358098108e+01 9.3474221155e+01 8.7997473195e+01 0.0000e+00 0.0000e+00
      -11  1    2    2    0    0 +1.5943661562e+01 -2.7362347606e+01 -5.3497058777e+01 6.2167786743e+01 5.1100000000e-04 0.0000e+00 -1.0000e+00
       11  1    2    2    0    0 -1.2215191423e+01 +1.4103708387e+01 +2.5138960669e+01 3.1306434411e+01 5.1100000000e-04 0.0000e+00 1.0000e+00
       22  1    1    0    0    0 -3.7284701389e+00 +1.3258639219e+01 +2.8358098108e+01 3.1525778845e+01 0.0000000000e+00 0.0000e+00 -1.0000e+00
</event>
<event>
 5      1 +2.4041262e-06 9.11880000e+01 7.81860800e-03 1.13011600e-01
       25 -1    0    0    0    0 +0.0000000000e+00 +0.0000000000e+00 +9.9999998245e-15 1.2500000000e+02 1.2500000000e+02 0.0000e+00 0.0000e+00
       23  2    1    0    0    0 +8.5678158942e+00 -1.8333832904e+01 -2.3293712024e+01 9.4143332682e+01 8.8942864640e+01 0.0000e+00 0.0000e+00
      -13  1    2    2    0    0 -2.1032438477e+01 +2.8669832201e+01 -6.8321210311e+00 3.6207896770e+01 1.0566000000e-01 0.0000e+00 -1.0000e+00
       13  1    2    2    0    0 +2.9600254371e+01 -4.7003665105e+01 -1.6461590993e+01 5.7935435911e+01 1.0566000000e-01 0.0000e+00 1.0000e+00
       22  1    1    0    0    0 -8.5678158942e+00 +1.8333832904e+01 +2.3293712024e+01 3.0856667318e+01 0.0000000000e+00 0.0000e+00 1.0000e+00
</event>
<event>
 4      1 +2.4041262e-06 9.11880000e+01 7.81860800e-03 1.13011600e-01
       25 -1    0    0    0    0 +0.0000000000e+00 +0.0000000000e+00 +9.9999998245e-15 1.2500000000e+02 1.2500000000e+02 0.0000e+00 0.0000e+00
      -13  1    1    0    0    0 +1.8304129174e+01 +2.3911374355e+00 -5.9708714438e+01 6.2497203353e+01 1.0566000000e-01 0.0000e+00 -1.0000e+00
       13  1    1    0    0    0 -1.8304859097e+01 -2.3917864508e+00 +5.9711363724e+01 6.2499973046e+01 1.0566000000e-01 0.0000e+00 -1.0000e+00
       22  1    1    0    0    0 +7.2992247928e-04 +6.4901530710e-04 -2.6492854495e-03 2.8236007309e-03 0.0000000000e+00 0.0000e+00 -1.0000e+00
</event>
<event>
 4      1 +2.4041262e-06 9.11880000e+01 7.81860800e-03 1.13011600e-01
       25 -1    0    0    0    0 +0.0000000000e+00 +0.0000000000e+00 +9.9999998245e-15 1.2500000000e+02 1.2500000000e+02 0.0000e+00 0.0000e+00
      -13  1    1    0    0    0 -1.9522466988e+00 -8.1512929482e-01 -1.9299603410e+00 2.8655913689e+00 1.0566000000e-01 0.0000e+00 -1.0000e+00
       13  1    1    0    0    0 +4.5074524175e+01 +2.2483855318e+01 -3.5023859757e+01 6.1350781543e+01 1.0566000000e-01 0.0000e+00 1.0000e+00
       22  1    1    0    0    0 -4.3122277476e+01 -2.1668726023e+01 +3.6953820098e+01 6.0783627089e+01 0.0000000000e+00 0.0000e+00 1.0000e+00
</event>
<event>
 4      1 +2.4041262e-06 9.11880000e+01 7.81860800e-03 1.13011600e-01
       25 -1    0    0    0    0 +0.0000000000e+00 +0.0000000000e+00 +9.9999998245e-15 1.2500000000e+02 1.2500000000e+02 0.0000e+00 0.0000e+00
      -13  1    1    0    0    0 +5.2383267792e+01 -1.0093429687e+01 -9.8062181830e+00 5.4240733278e+01 1.0566000000e-01 0.0000e+00 1.0000e+00
       13  1    1    0    0    0 +7.3410766518e+00 -3.4953513271e+00 -2.0170111923e+00 8.3778508875e+00 1.0566000000e-01 0.0000e+00 -1.0000e+00
       22  1    1    0    0    0 -5.9724344444e+01 +1.3588781014e+01 +1.1823229375e+01 6.2381415835e+01 0.0000000000e+00 0.0000e+00 1.0000e+00
</event>
<event>
 4      1 +2.4041262e-06 9.11880000e+01 7.81860800e-03 1.13011600e-01
       25 -1    0    0    0    0 +0.0000000000e+00 +0.0000000000e+00 +9.9999998245e-15 1.2500000000e+02 1.2500000000e+02 0.0000e+00 0.0000e+00
      -13  1    1    0    0    0 -5.7960837495e+01 -2.3377625713e+01 +7.5721084761e-02 6.2497911684e+01 1.0566000000e-01 0.0000e+00 -1.0000e+00
       13  1    1    0    0    0 +5.7962771974e+01 +2.3378412360e+01 -7.5730522083e-02 6.2499999989e+01 1.0566000000e-01 0.0000e+00 -1.0000e+00
       22  1    1    0    0    0 -1.9344790360e-03 -7.8664722544e-04 +9.4373222057e-06 2.0883275752e-03 0.0000000000e+00 0.0000e+00 1.0000e+00
</event>
<event>
 4      1 +2.4041262e-06 9.11880000e+01 7.81860800e-03 1.13011600e-01
       25 -1    0    0    0    0 +0.0000000000e+00 +0.0000000000e+00 +9.9999998245e-15 1.2500000000e+02 1.2500000000e+02 0.0000e+00 0.0000e+00
      -13  1    1    0    0    0 -6.0652619999e+01 -1.5016297467e+01 +1.2829477436e+00 6.2497092903e+01 1.0566000000e-01 0.0000e+00 1.0000e+00
       13  1    1    0    0    0 +4.7539725526e+01 +1.1869125186e+01 -1.3425214088e+00 4.9017498544e+01 1.0566000000e-01 0.0000e+00 1.0000e+00
       22  1    1    0    0    0 +1.3112894473e+01 +3.1471722812e+00 +5.9573665265e-02 1.3485408553e+01 0.0000000000e+00 0.0000e+00 -1.0000e+00
</event>
<event>
 4      1 +2.4041262e-06 9.11880000e+01 7.81860800e-03 1.13011600e-01
       25 -1    0    0    0    0 +0.0000000000e+00 +0.0000000000e+00 +9.9999998245e-15 1.2500000000e+02 1.2500000000e+02 0.0000e+00 0.0000e+00
      -13  1    1    0    0    0 -4.4955565074e+01 +6.4299144585e+00 +4.2898681895e+01 6.2471231006e+01 1.0566000000e-01 0.0000e+00 -1.0000e+00
       13  1    1    0    0    0 +4.4976219793e+01 -6.4329149073e+00 -4.2918481869e+01 6.2499999929e+01 1.0566000000e-01 0.0000e+00 -1.0000e+00
       22  1    1    0    0    0 -2.0654719693e-02 +3.0004488612e-03 +1.9799974707e-02 2.8769065632e-02 0.0000000000e+00 0.0000e+00 1.0000e+00
</event>
<event>
 4      1 +2.4041262e-06 9.11880000e+01 7.81860800e-03 1.13011600e-01
       25 -1    0    0    0    0 +0.0000000000e+00 +0.0000000000e+00 +9.9999998245e-15 1.2500000000e+02 1.2500000000e+02 0.0000e+00 0.0000e+00
      -13  1    1    0    0    0 -4.8631740190e+01 -1.2917566759e+01 +3.7071945606e+01 6.2500000000e+01 1.0566000000e-01 0.0000e+00 -1.0000e+00
       13  1    1    0    0    0 +4.8631739998e+01 +1.2917566705e+01 -3.7071945475e+01 6.2499999761e+01 1.0566000000e-01 0.0000e+00 -1.0000e+00
       22  1    1    0    0    0 +1.9246641788e-07 +5.4133892477e-08 -1.3084061412e-07 2.3894155484e-07 0.0000000000e+00 0.0000e+00 -1.0000e+00
</event>
<event>
 4      1 +2.4041262e-06 9.11880000e+01 7.81860800e-03 1.13011600e-01
       25 -1    0    0    0    0 +0.0000000000e+00 +0.0000000000e+00 +9.9999998245e-15 1.2500000000e+02 1.2500000000e+02 0.0000e+00 0.0000e+00
      -13  1    1    0    0    0 +4.1445882353e+01 -3.2701587943e+01 -3.3448968084e+01 6.2497997151e+01 1.0566000000e-01 0.0000e+00 1.0000e+00
       13  1    1    0    0    0 -4.1446281142e+01 +3.2704023943e+01 +3.3445271849e+01 6.2497558157e+01 1.0566000000e-01 0.0000e+00 1.0000e+00
       22  1    1    0    0    0 +3.9878975071e-04 -2.4359999938e-03 +3.6962353440e-03 4.4446917726e-03 0.0000000000e+00 0.0000e+00 1.0000e+00
</event>
<event>
 4      1 +2.4041262e-06 9.11880000e+01 7.81860800e-03 1.13011600e-01
       25 -1    0    0    0    0 +0.0000000000e+00 +0.0000000000e+00 +9.9999998245e-15 1.2500000000e+02 1.2500000000e+02 0.0000e+00 0.0000e+00
      -13  1    1    0    0    0 +4.7128527437e+01 +2.6613249483e+01 -2.9314454992e+01 6.1552510769e+01 1.0566000000e-01 0.0000e+00 1.0000e+00
       13  1    1    0    0    0 -4.7921327516e+01 -2.6976903641e+01 +2.9692453557e+01 6.2496879308e+01 1.0566000000e-01 0.0000e+00 1.0000e+00
       22  1    1    0    0    0 +7.9280007898e-01 +3.6365415784e-01 -3.7799856499e-01 9.5060992362e-01 0.0000000000e+00 0.0000e+00 -1.0000e+00
</event>
<event>
 4      1 +2.4041262e-06 9.11880000e+01 7.81860800e-03 1.13011600e-01
       25 -1    0    0    0    0 +0.0000000000e+00 +0.0000000000e+00 +9.9999998245e-15 1.2500000000e+02 1.2500000000e+02 0.0000e+00 0.0000e+00
      -13  1    1    0    0    0 -3.0850384327e+01 -5.4148460827e+01 +4.7367474169e+00 6.2499999705e+01 1.0566000000e-01 0.0000e+00 -1.0000e+00
       13  1    1    0    0    0 +3.0850384155e+01 +5.4148459035e+01 -4.7367485732e+00 6.2499998156e+01 1.0566000000e-01 0.0000e+00 -1.0000e+00
       22  1    1    0    0    0 +1.7173149046e-07 +1.7914903022e-06 +1.1562577279e-06 2.1391262565e-06 0.0000000000e+00 0.0000e+00 1.0000e+00
</event>
<event>
 4      1 +2.4041262e-06 9.11880000e+01 7.81860800e-03 1.13011600e-01
       25 -1    0    0    0    0 +0.0000000000e+00 +0.0000000000e+00 +9.9999998245e-15 1.2500000000e+02 1.2500000000e+02 0.0000e+00 0.0000e+00
      -13  1    1    0    0    0 -3.1057560020e+01 -2.0365053727e+01 +5.0268592463e+01 6.2500000000e+01 1.0566000000e-01 0.0000e+00 1.0000e+00
       13  1    1    0    0    0 +3.1057560019e+01 +2.0365053727e+01 -5.0268592463e+01 6.2499999999e+01 1.0566000000e-01 0.0000e+00 1.0000e+00
       22  1    1    0    0    0 +5.9674971694e-10 +2.6755399638e-10 -7.9499143204e-10 1.0294205859e-09 0.0000000000e+00 0.0000e+00 1.0000e+00
</event>
<event>
 4      1 +2.4041262e-06 9.11880000e+01 7.81860800e-03 1.13011600e-01
       25 -1    0    0    0    0 +0.0000000000e+00 +0.0000000000e+00 +9.9999998245e-15 1.2500000000e+02 1.2500000000e+02 0.0000e+00 0.0000e+00
      -11  1    1    0    0    0 +3.0786792865e+01 -3.3780931141e+01 +2.7324549170e+01 5.3250435785e+01 5.1100000000e-04 0.0000e+00 1.0000e+00
       11  1    1    0    0    0 +4.9423558238e+00 -6.4608611994e+00 +4.4324641620e+00 9.2637113154e+00 5.1100000000e-04 0.0000e+00 -1.0000e+00
       22  1    1    0    0    0 -3.5729148689e+01 +4.0241792341e+01 -3.1757013332e+01 6.2485852900e+01 0.0000000000e+00 0.0000e+00 1.0000e+00
</event>
<event>
 5      1 +2.4041262e-06 9.11880000e+01 7.81860800e-03 1.13011600e-01
       25 -1    0    0    0    0 +0.0000000000e+00 +0.0000000000e+00 +9.9999998245e-15 1.2500000000e+02 1.2500000000e+02 0.0000e+00 0.0000e+00
       23  2    1    0    0    0 -2.7908796424e+01 +9.9189804937e+00 -2.7752534017e+00 9.5251233247e+01 9.0486509004e+01 0.0000e+00 0.0000e+00
      -13  1    2    2    0    0 +2.5523187392e+01 -1.7220766930e+01 +1.2778785983e+01 3.3336113204e+01 1.0566000000e-01 0.0000e+00 -1.0000e+00
       13  1    2    2    0    0 -5.3431983816e+01 +2.7139747424e+01 -1.5554039384e+01 6.1915120043e+01 1.0566000000e-01 0.0000e+00 1.0000e+00
       22  1    1    0    0    0 +2.7908796424e+01 -9.9189804937e+00 +2.7752534017e+00 2.9748766753e+01 0.0000000000e+00 0.0000e+00 1.0000e+00
</event>
<event>
 4      1 +2.4041262e-06 9.11880000e+01 7.81860800e-03 1.13011600e-01
       25 -1    0    0    0    0 +0.0000000000e+00 +0.0000000000e+00 +9.9999998245e-15 1.2500000000e+02 1.2500000000e+02 0.0000e+00 0.0000e+00
      -13  1    1    0    0    0 +5.7161295682e+01 -1.9441929458e+01 -1.5937108648e+01 6.2445215519e+01 1.0566000000e-01 0.0000e+00 1.0000e+00
       13  1    1    0    0    0 -5.7213055880e+01 +1.9456690226e+01 +1.5947775020e+01 6.2499913998e+01 1.0566000000e-01 0.0000e+00 1.0000e+00
       22  1    1    0    0    0 +5.1760197837e-02 -1.4760767863e-02 -1.0666371896e-02 5.4870482387e-02 0.0000000000e+00 0.0000e+00 1.0000e+00
</event>
<event>
 4      1 +2.4041262e-06 9.11880000e+01 7.81860800e-03 1.13011600e-01
       25 -1    0    0    0    0 +0.0000000000e+00 +0.0000000000e+00 +9.9999998245e-15 1.2500000000e+02 1.2500000000e+02 0.0000e+00 0.0000e+00
      -11  1    1    0    0    0 -2.2182136440e+01 +4.1495959421e+01 +3.1115227360e+01 5.6410275653e+01 5.1100000000e-04 0.0000e+00 1.0000e+00
       11  1    1    0    0    0 -2.3836670785e+00 +4.5011704196e+00 +3.3380832316e+00 6.0897622129e+00 5.1100000000e-04 0.0000e+00 -1.0000e+00
       22  1    1    0    0    0 +2.4565803519e+01 -4.5997129841e+01 -3.4453310591e+01 6.2499962134e+01 0.0000000000e+00 0.0000e+00 1.0000e+00
</event>
<event>
 4      1 +2.4041262e-06 9.11880000e+01 7.81860800e-03 1.13011600e-01
       25 -1    0    0    0    0 +0.0000000000e+00 +0.0000000000e+00 +9.9999998245e-15 1.2500000000e+02 1.2500000000e+02 0.0000e+00 0.0000e+00
      -11  1    1    0    0    0 -2.7512197919e+01 -1.6570748176e+01 +5.8875090056e+00 3.2652312200e+01 5.1100000000e-04 0.0000e+00 -1.0000e+00
       11  1    1    0    0    0 -2.3140501163e+01 -1.6958729361e+01 +8.5005202148e+00 2.9922234873e+01 5.1100000000e-04 0.0000e+00 1.0000e+00
       22  1    1    0    0    0 +5.0652699082e+01 +3.3529477537e+01 -1.4388029220e+01 6.2425452927e+01 0.0000000000e+00 0.0000e+00 -1.0000e+00
</event>
<event>
 4      1 +2.4041262e-06 9.11880000e+01 7.81860800e-03 1.13011600e-01
       25 -1    0    0    0    0 +0.0000000000e+00 +0.0000000000e+00 +9.9999998245e-15 1.2500000000e+02 1.2500000000e+02 0.0000e+00 0.0000e+00
      -13  1    1    0    0    0 +4.8592211313e+00 +1.8582558015e+01 +2.3461711091e+01 3.0321387562e+01 1.0566000000e-01 0.0000e+00 -1.0000e+00
       13  1    1    0    0    0 -1.6236569969e+00 +1.9424251099e+01 +2.5825008710e+01 3.2355525520e+01 1.0566000000e-01 0.0000e+00 1.0000e+00
       22  1    1    0    0    0 -3.2355641345e+00 -3.8006809114e+01 -4.9286719800e+01 6.2323086918e+01 0.0000000000e+00 0.0000e+00 1.0000e+00
</event>
<event>
 4      1 +2.4041262e-06 9.11880000e+01 7.81860800e-03 1.13011600e-01
       25 -1    0    0    0    0 +0.0000000000e+00 +0.0000000000e+00 +9.9999998245e-15 1.2500000000e+02 1.2500000000e+02 0.0000e+00 0.0000e+00
      -13  1    1    0    0    0 +5.2731886336e+01 +2.6211325873e+01 -2.0941567425e+01 6.2499966807e+01 1.0566000000e-01 0.0000e+00 1.0000e+00
       13  1    1    0    0    0 -5.2731886478e+01 -2.6211332269e+01 +2.0941614729e+01 6.2499985459e+01 1.0566000000e-01 0.0000e+00 1.0000e+00
       22  1    1    0    0    0 +1.4130684567e-07 +6.3958673308e-06 -4.7303527851e-05 4.7734168409e-05 0.0000000000e+00 0.0000e+00 1.0000e+00
</event>
<event>
 4      1 +2.4041262e-06 9.11880000e+01 7.81860800e-03 1.13011600e-01
       25 -1    0    0    0    0 +0.0000000000e+00 +0.0000000000e+00 +9.9999998245e-15 1.2500000000e+02 1.2500000000e+02 0.0000e+00 0.0000e+00
      -11  1    1    0    0    0 +4.4174618878e+00 -3.7117364900e+00 -1.0975869488e+01 1.2400026959e+01 5.1100000000e-04 0.0000e+00 -1.0000e+00
       11  1    1    0    0    0 +3.5430921706e+01 +2.6248973145e+01 -2.8203859643e+01 5.2343256520e+01 5.1100000000e-04 0.0000e+00 1.0000e+00
       22  1    1    0    0    0 -3.9848383594e+01 -2.2537236655e+01 +3.9179729131e+01 6.0256716521e+01 0.0000000000e+00 0.0000e+00 1.0000e+00
</event>
<event>
 5      1 +2.4041262e-06 9.11880000e+01 7.81860800e-03 1.13011600e-01
       25 -1    0    0    0    0 +0.0000000000e+00 +0.0000000000e+00 +9.9999998245e-15 1.2500000000e+02 1.2500000000e+02 0.0000e+00 0.0000e+00
       23  2    1    0    0    0 +2.0410385099e+01 +5.4175297616e+00 +1.9831927384e+01 9.6030381563e+01 9.1556514737e+01 0.0000e+00 0.0000e+00
      -13  1    2    2    0    0 -3.5094643210e+01 +1.3026029466e+00 -4.2716649918e+00 3.5377804374e+01 1.0566000000e-01 0.0000e+00 1.0000e+00
       13  1    2    2    0    0 +5.5505028309e+01 +4.1149268150e+00 +2.4103592376e+01 6.0652577189e+01 1.0566000000e-01 0.0000e+00 -1.0000e+00
       22  1    1    0    0    0 -2.0410385099e+01 -5.4175297616e+00 -1.9831927384e+01 2.8969618437e+01 0.0000000000e+00 0.0000e+00 -1.0000e+00
</event>
<event>
 4      1 +2.4041262e-06 9.11880000e+01 7.81860800e-03 1.13011600e-01
       25 -1    0    0    0    0 +0.0000000000e+00 +0.0000000000e+00 +9.9999998245e-15 1.2500000000e+02 1.2500000000e+02 0.0000e+00 0.0000e+00
      -13  1    1    0    0    0 -6.4752316958e-01 -7.8999256757e-01 +2.5156419751e-01 1.0572715323e+00 1.0566000000e-01 0.0000e+00 1.0000e+00
       13  1    1    0    0    0 -5.1451685641e+01 -3.2670791644e+01 -8.2707433325e+00 6.1506690215e+01 1.0566000000e-01 0.0000e+00 -1.0000e+00
       22  1    1    0    0    0 +5.2099208810e+01 +3.3460784211e+01 +8.0191791350e+00 6.2436038253e+01 0.0000000000e+00 0.0000e+00 -1.0000e+00
</event>
<event>
 4      1 +2.4041262e-06 9.11880000e+01 7.81860800e-03 1.13011600e-01
       25 -1    0    0    0    0 +0.0000000000e+00 +0.0000000000e+00 +9.9999998245e-15 1.2500000000e+02 1.2500000000e+02 0.0000e+00 0.0000e+00
      -13  1    1    0    0    0 +2.7136325243e+01 +2.7943565897e+01 +4.8674706687e+01 6.2341489057e+01 1.0566000000e-01 0.0000e+00 -1.0000e+00
       13  1    1    0    0    0 -1.5701587516e+00 -3.0501902686e+00 -6.9859097678e+00 7.7835183882e+00 1.0566000000e-01 0.0000e+00 -1.0000e+00
       22  1    1    0    0    0 -2.5566166492e+01 -2.4893375629e+01 -4.1688796920e+01 5.4874992554e+01 0.0000000000e+00 0.0000e+00 -1.0000e+00
</event>
<event>
 4      1 +2.4041262e-06 9.11880000e+01 7.81860800e-03 1.13011600e-01
       25 -1    0    0    0    0 +0.0000000000e+00 +0.0000000000e+00 +9.9999998245e-15 1.2500000000e+02 1.2500000000e+02 0.0000e+00 0.0000e+00
      -13  1    1    0    0    0 -1.0194561166e+01 +6.0506462703e+00 -6.7966709811e+00 1.3665478335e+01 1.0566000000e-01 0.0000e+00 -1.0000e+00
       13  1    1    0    0    0 -3.6509090247e+01 +2.1471840980e+01 -2.4307908867e+01 4.8834815688e+01 1.0566000000e-01 0.0000e+00 -1.0000e+00
       22  1    1    0    0    0 +4.6703651413e+01 -2.7522487250e+01 +3.1104579848e+01 6.2499705978e+01 0.0000000000e+00 0.0000e+00 -1.0000e+00
</event>
<event>
 4      1 +2.4041262e-06 9.11880000e+01 7.81860800e-03 1.13011600e-01
       25 -1    0    0    0    0 +0.0000000000e+00 +0.0000000000e+00 +9.9999998245e-15 1.2500000000e+02 1.2500000000e+02 0.0000e+00 0.0000e+00
      -13  1    1    0    0    0 -2.5088839850e+01 -3.0035699374e+01 -4.8730229327e+01 6.2499916289e+01 1.0566000000e-01 0.0000e+00 1.0000e+00
       13  1    1    0    0    0 +2.5088873206e+01 +3.0035739776e+01 +4.8730294615e+01 6.2500000000e+01 1.0566000000e-01 0.0000e+00 1.0000e+00
       22  1    1    0    0    0 -3.3355843792e-05 -4.0401626223e-05 -6.5288959687e-05 8.3711122162e-05 0.0000000000e+00 0.0000e+00 1.0000e+00
</event>
<event>
 4      1 +2.4041262e-06 9.11880000e+01 7.81860800e-03 1.13011600e-01
       25 -1    0    0    0    0 +0.0000000000e+00 +0.0000000000e+00 +9.9999998245e-15 1.2500000000e+02 1.2500000000e+02 0.0000e+00 0.0000e+00
      -13  1    1    0    0    0 +3.8491947322e+01 +3.5241788256e+01 -8.8661662086e+00 5.2936128640e+01 1.0566000000e-01 0.0000e+00 -1.0000e+00
       13  1    1    0    0    0 -3.8089169015e+01 -4.5383064481e+01 +1.3715537379e+01 6.0815577508e+01 1.0566000000e-01 0.0000e+00 -1.0000e+00
       22  1    1    0    0    0 -4.0277830710e-01 +1.0141276225e+01 -4.8493711706e+00 1.1248293853e+01 0.0000000000e+00 0.0000e+00 -1.0000e+00
</event>
<event>
 5      1 +2.4041262e-06 9.11880000e+01 7.81860800e-03 1.13011600e-01
       25 -1    0    0    0    0 +0.0000000000e+00 +0.0000000000e+00 +9.9999998245e-15 1.2500000000e+02 1.2500000000e+02 0.0000e+00 0.0000e+00
       23  2    1    0    0    0 -2.2150049500e+01 -1.6428591871e+01 +4.3364098684e+00 9.7083557278e+01 9.2983274407e+01 0.0000e+00 0.0000e+00
      -13  1    2    2    0    0 -3.3896922375e+01 -3.7719874477e+01 +3.2222624855e+01 6.0084099341e+01 1.0566000000e-01 0.0000e+00 1.0000e+00
       13  1    2    2    0    0 +1.1746872875e+01 +2.1291282606e+01 -2.7886214987e+01 3.6999457937e+01 1.0566000000e-01 0.0000e+00 -1.0000e+00
       22  1    1    0    0    0 +2.2150049500e+01 +1.6428591871e+01 -4.3364098684e+00 2.7916442722e+01 0.0000000000e+00 0.0000e+00 1.0000e+00
</event>
<event>
 4      1 +2.4041262e-06 9.11880000e+01 7.81860800e-03 1.13011600e-01
       25 -1    0    0    0    0 +0.0000000000e+00 +0.0000000000e+00 +9.9999998245e-15 1.2500000000e+02 1.2500000000e+02 0.0000e+00 0.0000e+00
      -13  1    1    0    0    0 +5.3062953490e+01 -3.2313875613e+01 +6.8099368121e+00 6.2499999949e+01 1.0566000000e-01 0.0000e+00 -1.0000e+00
       13  1    1    0    0    0 -5.3058715601e+01 +3.2311325251e+01 -6.8094112770e+00 6.2495026096e+01 1.0566000000e-01 0.0000e+00 -1.0000e+00
       22  1    1    0    0    0 -4.2378887048e-03 +2.5503619018e-03 -5.2553509378e-04 4.9739555325e-03 0.0000000000e+00 0.0000e+00 1.0000e+00
</event>
<event>
 4      1 +2.4041262e-06 9.11880000e+01 7.81860800e-03 1.13011600e-01
       25 -1    0    0    0    0 +0.0000000000e+00 +0.0000000000e+00 +9.9999998245e-15 1.2500000000e+02 1.2500000000e+02 0.0000e+00 0.0000e+00
      -13  1    1    0    0    0 +3.6179554111e+01 -2.1129247116e+01 +4.5904327691e+01 6.2150009527e+01 1.0566000000e-01 0.0000e+00 1.0000e+00
       13  1    1    0    0    0 -3.6349233574e+01 +2.1125346893e+01 -4.6226664505e+01 6.2485700268e+01 1.0566000000e-01 0.0000e+00 1.0000e+00
       22  1    1    0    0    0 +1.6967946277e-01 +3.9002235218e-03 +3.2233681356e-01 3.6429020465e-01 0.0000000000e+00 0.0000e+00 1.0000e+00
</event>
<event>
 4      1 +2.4041262e-06 9.11880000e+01 7.81860800e-03 1.13011600e-01
       25 -1    0    0    0    0 +0.0000000000e+00 +0.0000000000e+00 +9.9999998245e-15 1.2500000000e+02 1.2500000000e+02 0.0000e+00 0.0000e+00
      -13  1    1    0    0    0 +1.1119774742e+01 +3.5463487929e+00 +6.1400430413e+01 6.2499999992e+01 1.0566000000e-01 0.0000e+00 -1.0000e+00
       13  1    1    0    0    0 -1.1119774096e+01 -3.5463481975e+00 -6.1400425589e+01 6.2499995104e+01 1.0566000000e-01 0.0000e+00 -1.0000e+00
       22  1    1    0    0    0 -6.4586436093e-07 -5.9536937022e-07 -4.8241640618e-06 4.9034849194e-06 0.0000000000e+00 0.0000e+00 -1.0000e+00
</event>
<event>
 4      1 +2.4041262e-06 9.11880000e+01 7.81860800e-03 1.13011600e-01
       25 -1    0    0    0    0 +0.0000000000e+00 +0.0000000000e+00 +9.9999998245e-15 1.2500000000e+02 1.2500000000e+02 0.0000e+00 0.0000e+00
      -13  1    1    0    0    0 +1.3402425305e+01 -5.2747775093e+01 -3.0729237781e+01 6.2500000000e+01 1.0566000000e-01 0.0000e+00 -1.0000e+00
       13  1    1    0    0    0 -1.3402425303e+01 +5.2747775088e+01 +3.0729237777e+01 6.2499999993e+01 1.0566000000e-01 0.0000e+00 -1.0000e+00
       22  1    1    0    0    0 -1.9282829397e-09 +4.8037889046e-09 +4.3367855055e-09 6.7529527953e-09 0.0000000000e+00 0.0000e+00 -1.0000e+00
</event>
<event>
 5      1 +2.4041262e-06 9.11880000e+01 7.81860800e-03 1.13011600e-01
       25 -1    0    0    0    0 +0.0000000000e+00 +0.0000000000e+00 +9.9999998245e-15 1.2500000000e+02 1.2500000000e+02 0.0000e+00 0.0000e+00
       23  2    1    0    0    0 +2.6996491968e+01 +9.6458679779e+00 +6.6651956100e+00 9.5567395968e+01 9.0922213963e+01 0.0000e+00 0.0000e+00
      -13  1    2    2    0    0 -2.9438686715e+01 -1.5315809804e+01 -2.0395133364e+00 3.3247271830e+01 1.0566000000e-01 0.0000e+00 1.0000e+00
       13  1    2    2    0    0 +5.6435178682e+01 +2.4961677782e+01 +8.7047089465e+00 6.2320124138e+01 1.0566000000e-01 0.0000e+00 -1.0000e+00
       22  1    1    0    0    0 -2.6996491968e+01 -9.6458679779e+00 -6.6651956100e+00 2.9432604032e+01 0.0000000000e+00 0.0000e+00 -1.0000e+00
</event>
<event>
 4      1 +2.4041262e-06 9.11880000e+01 7.81860800e-03 1.13011600e-01
       25 -1    0    0    0    0 +0.0000000000e+00 +0.0000000000e+00 +9.9999998245e-15 1.2500000000e+02 1.2500000000e+02 0.0000e+00 0.0000e+00
      -13  1    1    0    0    0 +2.0742798642e+01 +3.5577051204e+01 +4.2989743376e+01 5.9532507653e+01 1.0566000000e-01 0.0000e+00 -1.0000e+00
       13  1    1    0    0    0 -2.1581485920e+01 -3.7039435159e+01 -4.5455104356e+01 6.2480860809e+01 1.0566000000e-01 0.0000e+00 -1.0000e+00
       22  1    1    0    0    0 +8.3868727801e-01 +1.4623839555e+00 +2.4653609800e+00 2.9866315382e+00 0.0000000000e+00 0.0000e+00 -1.0000e+00
</event>
<event>
 4      1 +2.4041262e-06 9.11880000e+01 7.81860800e-03 1.13011600e-01
       25 -1    0    0    0    0 +0.0000000000e+00 +0.0000000000e+00 +9.9999998245e-15 1.2500000000e+02 1.2500000000e+02 0.0000e+00 0.0000e+00
      -13  1    1    0    0    0 +3.5106961295e+01 -2.0875546580e+01 +4.7306993771e+01 6.2500000000e+01 1.0566000000e-01 0.0000e+00 1.0000e+00
       13  1    1    0    0    0 -3.5106961273e+01 +2.0875546568e+01 -4.7306993742e+01 6.2499999962e+01 1.0566000000e-01 0.0000e+00 1.0000e+00
       22  1    1    0    0    0 -2.1424856538e-08 +1.1837573000e-08 -2.8870854780e-08 3.7850744615e-08 0.0000000000e+00 0.0000e+00 -1.0000e+00
</event>
<event>
 4      1 +2.4041262e-06 9.11880000e+01 7.81860800e-03 1.13011600e-01
       25 -1    0    0    0    0 +0.0000000000e+00 +0.0000000000e+00 +9.9999998245e-15 1.2500000000e+02 1.2500000000e+02 0.0000e+00 0.0000e+00
      -13  1    1    0    0    0 +5.7450172344e+01 +2.4611246565e+01 +8.2332722982e-03 6.2499975933e+01 1.0566000000e-01 0.0000e+00 -1.0000e+00
       13  1    1    0    0    0 -5.7450050275e+01 -2.4611173123e+01 -8.3578447973e-03 6.2499834824e+01 1.0566000000e-01 0.0000e+00 -1.0000e+00
       22  1    1    0    0    0 -1.2206869639e-04 -7.3442055228e-05 +1.2457249903e-04 1.8924272675e-04 0.0000000000e+00 0.0000e+00 -1.0000e+00
</event>
<event>
 4      1 +2.4041262e-06 9.11880000e+01 7.81860800e-03 1.13011600e-01
       25 -1    0    0    0    0 +0.0000000000e+00 +0.0000000000e+00 +9.9999998245e-15 1.2500000000e+02 1.2500000000e+02 0.0000e+00 0.0000e+00
      -13  1    1    0    0    0 +5.0175439793e+01 +2.9545677057e+01 -2.2709404021e+01 6.2499999889e+01 1.0566000000e-01 0.0000e+00 -1.0000e+00
       13  1    1    0    0    0 -5.0175439878e+01 -2.9545677107e+01 +2.2709404072e+01 6.2500000000e+01 1.0566000000e-01 0.0000e+00 -1.0000e+00
       22  1    1    0    0    0 +8.4528401228e-08 +5.0472910661e-08 -5.0937517346e-08 1.1084762513e-07 0.0000000000e+00 0.0000e+00 1.0000e+00
</event>
<event>
 4      1 +2.4041262e-06 9.11880000e+01 7.81860800e-03 1.13011600e-01
       25 -1    0    0    0    0 +0.0000000000e+00 +0.0000000000e+00 +9.9999998245e-15 1.2500000000e+02 1.2500000000e+02 0.0000e+00 0.0000e+00
      -11  1    1    0    0    0 +1.2900744106e+01 +6.0741216034e+00 -1.2030241811e+01 1.8656121516e+01 5.1100000000e-04 0.0000e+00 1.0000e+00
       11  1    1    0    0    0 +3.0327535296e+01 +1.4269264200e+01 -2.8265074005e+01 4.3843878782e+01 5.1100000000e-04 0.0000e+00 -1.0000e+00
       22  1    1    0    0    0 -4.3228279401e+01 -2.0343385804e+01 +4.0295315816e+01 6.2499999701e+01 0.0000000000e+00 0.0000e+00 -1.0000e+00
</event>
<event>
 4      1 +2.4041262e-06 9.11880000e+01 7.81860800e-03 1.13011600e-01
       25 -1    0    0    0    0 +0.0000000000e+00 +0.0000000000e+00 +9.9999998245e-15 1.2500000000e+02 1.2500000000e+02 0.0000e+00 0.0000e+00
      -13  1    1    0    0    0 -3.0651953362e+01 -5.3586380980e+01 -9.7568623913e+00 6.2499999994e+01 1.0566000000e-01 0.0000e+00 -1.0000e+00
       13  1    1    0    0    0 +3.0651953367e+01 +5.3586380984e+01 +9.7568623946e+00 6.2500000000e+01 1.0566000000e-01 0.0000e+00 -1.0000e+00
       22  1    1    0    0    0 -4.6094013144e-09 -3.8068345278e-09 -3.3280226088e-09 6.8420979299e-09 0.0000000000e+00 0.0000e+00 -1.0000e+00
</event>
<event>
 4      1 +2.4041262e-06 9.11880000e+01 7.81860800e-03 1.13011600e-01
       25 -1    0    0    0    0 +0.0000000000e+00 +0.0000000000e+00 +9.9999998245e-15 1.2500000000e+02 1.2500000000e+02 0.0000e+00 0.0000e+00
      -13  1    1    0    0    0 -6.0978541420e+01 -1.0400867444e+01 +8.9262690219e+00 6.2500000000e+01 1.0566000000e-01 0.0000e+00 1.0000e+00
       13  1    1    0    0    0 +6.0978504762e+01 +1.0400861105e+01 -8.9262634625e+00 6.2499962385e+01 1.0566000000e-01 0.0000e+00 1.0000e+00
       22  1    1    0    0    0 +3.6658030094e-05 +6.3394804857e-06 -5.5594054179e-06 3.7615251851e-05 0.0000000000e+00 0.0000e+00 1.0000e+00
</event>
<event>
 4      1 +2.4041262e-06 9.11880000e+01 7.81860800e-03 1.13011600e-01
       25 -1    0    0    0    0 +0.0000000000e+00 +0.0000000000e+00 +9.9999998245e-15 1.2500000000e+02 1.2500000000e+02 0.0000e+00 0.0000e+00
      -13  1    1    0    0    0 +3.1597919103e+01 -3.4400252607e+01 -1.0916423332e+00 4.6722678841e+01 1.0566000000e-01 0.0000e+00 -1.0000e+00
       13  1    1    0    0    0 -1.9138163660e+01 -1.5836629198e+01 -7.1884159747e+00 2.5860251756e+01 1.0566000000e-01 0.0000e+00 1.0000e+00
       22  1    1    0    0    0 -1.2459755442e+01 +5.0236881805e+01 +8.2800583078e+00 5.2417069403e+01 0.0000000000e+00 0.0000e+00 -1.0000e+00
</event>
<event>
 5      1 +2.4041262e-06 9.11880000e+01 7.81860800e-03 1.13011600e-01
       25 -1    0    0    0    0 +0.0000000000e+00 +0.0000000000e+00 +9.9999998245e-15 1.2500000000e+02 1.2500000000e+02 0.0000e+00 0.0000e+00
       23  2    1    0    0    0 -1.8044522855e+01 -1.7194302231e+01 +5.4986804244e+00 9.9475809109e+01 9.6145474554e+01 0.0000e+00 0.0000e+00
      -13  1    2    2    0    0 -2.3752070248e+00 -5.6120686856e+01 -4.4617502708e+00 5.6347950105e+01 1.0566000000e-01 0.0000e+00 -1.0000e+00
       13  1    2    2    0    0 -1.5669315830e+01 +3.8926384625e+01 +9.9604306951e+00 4.3127859003e+01 1.0566000000e-01 0.0000e+00 1.0000e+00
       22  1    1    0    0    0 +1.8044522855e+01 +1.7194302231e+01 -5.4986804244e+00 2.5524190891e+01 0.0000000000e+00 0.0000e+00 -1.0000e+00
</event>
<event>
 4      1 +2.4041262e-06 9.11880000e+01 7.81860800e-03 1.13011600e-01
       25 -1    0    0    0    0 +0.0000000000e+00 +0.0000000000e+00 +9.9999998245e-15 1.2500000000e+02 1.2500000000e+02 0.0000e+00 0.0000e+00
      -13  1    1    0    0    0 +5.3604179208e+01 -1.0625337453e+01 -3.0330397482e+01 6.2500000000e+01 1.0566000000e-01 0.0000e+00 -1.0000e+00
       13  1    1    0    0    0 -5.3604179018e+01 +1.0625337413e+01 +3.0330397368e+01 6.2499999775e+01 1.0566000000e-01 0.0000e+00 -1.0000e+00
       22  1    1    0    0    0 -1.8940166689e-07 +4.0010588583e-08 +1.1433460832e-07 2.2482491250e-07 0.0000000000e+00 0.0000e+00 1.0000e+00
</event>
<event>
 4      1 +2.4041262e-06 9.11880000e+01 7.81860800e-03 1.13011600e-01
       25 -1    0    0    0    0 +0.0000000000e+00 +0.0000000000e+00 +9.9999998245e-15 1.2500000000e+02 1.2500000000e+02 0.0000e+00 0.0000e+00
      -11  1    1    0    0    0 +5.2482843833e+01 +1.5273898332e+01 -1.5840224462e+01 5.6909169546e+01 5.1100000000e-04 0.0000e+00 -1.0000e+00
       11  1    1    0    0    0 +5.1557842102e+00 +1.5020141023e+00 -1.5553871431e+00 5.5908305834e+00 5.1100000000e-04 0.0000e+00 1.0000e+00
       22  1    1    0    0    0 -5.7638628044e+01 -1.6775912435e+01 +1.7395611605e+01 6.2499999871e+01 0.0000000000e+00 0.0000e+00 -1.0000e+00
</event>
<event>
 5      1 +2.4041262e-06 9.11880000e+01 7.81860800e-03 1.13011600e-01
       25 -1    0    0    0    0 +0.0000000000e+00 +0.0000000000e+00 +9.9999998245e-15 1.2500000000e+02 1.2500000000e+02 0.0000e+00 0.0000e+00
       23  2    1    0    0    0 +2.1821202756e+01 -6.9692896120e+00 -1.8268048552e+01 9.5700554864e+01 9.1105097091e+01 0.0000e+00 0.0000e+00
      -11  1    2    2    0    0 -1.2948948381e+01 -3.5935421436e+00 +3.1873002205e+01 3.4590129793e+01 5.1100000000e-04 0.0000e+00 1.0000e+00
       11  1    2    2    0    0 +3.4770151137e+01 -3.3757474684e+00 -5.0141050756e+01 6.1110425070e+01 5.1100000000e-04 0.0000e+00 -1.0000e+00
       22  1    1    0    0    0 -2.1821202756e+01 +6.9692896120e+00 +1.8268048552e+01 2.9299445136e+01 0.0000000000e+00 0.0000e+00 -1.0000e+00
</event>
<event>
 4      1 +2.4041262e-06 9.11880000e+01 7.81860800e-03 1.13011600e-01
       25 -1    0    0    0    0 +0.0000000000e+00 +0.0000000000e+00 +9.9999998245e-15 1.2500000000e+02 1.2500000000e+02 0.0000e+00 0.0000e+00
      -13  1    1    0    0    0 +1.6913665501e+01 +2.3568423378e+00 +6.0120111736e+01 6.2498526268e+01 1.0566000000e-01 0.0000e+00 -1.0000e+00
       13  1    1    0    0    0 -1.6915690363e+01 -2.3526955338e+00 -6.0116957810e+01 6.2495884162e+01 1.0566000000e-01 0.0000e+00 -1.0000e+00
       22  1    1    0    0    0 +2.0248622574e-03 -4.1468039737e-03 -3.1539255372e-03 5.5895703459e-03 0.0000000000e+00 0.0000e+00 1.0000e+00
</event>
<event>
 4      1 +2.4041262e-06 9.11880000e+01 7.81860800e-03 1.13011600e-01
       25 -1    0    0    0    0 +0.0000000000e+00 +0.0000000000e+00 +9.9999998245e-15 1.2500000000e+02 1.2500000000e+02 0.0000e+00 0.0000e+00
      -13  1    1    0    0    0 -4.3250460511e+01 +1.6833644139e+01 +4.1860063617e+01 6.2499999996e+01 1.0566000000e-01 0.0000e+00 1.0000e+00
       13  1    1    0    0    0 +4.3250134459e+01 -1.6833516263e+01 -4.1859751096e+01 6.2499530610e+01 1.0566000000e-01 0.0000e+00 1.0000e+00
       22  1    1    0    0    0 +3.2605146927e-04 -1.2787583457e-04 -3.1252095545e-04 4.6939443678e-04 0.0000000000e+00 0.0000e+00 -1.0000e+00
</event>
<event>
 4      1 +2.4041262e-06 9.11880000e+01 7.81860800e-03 1.13011600e-01
       25 -1    0    0    0    0 +0.0000000000e+00 +0.0000000000e+00 +9.9999998245e-15 1.2500000000e+02 1.2500000000e+02 0.0000e+00 0.0000e+00
      -11  1    1    0    0    0 -9.5092443801e+00 +1.3429793736e+00 -2.1920544412e+01 2.3931978394e+01 5.1100000000e-04 0.0000e+00 1.0000e+00
       11  1    1    0    0    0 -1.5043588994e+01 +2.2319697609e+00 -3.5443189154e+01 3.8568263074e+01 5.1100000000e-04 0.0000e+00 -1.0000e+00
       22  1    1    0    0    0 +2.4552833374e+01 -3.5749491344e+00 +5.7363733566e+01 6.2499758533e+01 0.0000000000e+00 0.0000e+00 -1.0000e+00
</event>
<event>
 4      1 +2.4041262e-06 9.11880000e+01 7.81860800e-03 1.13011600e-01
       25 -1    0    0    0    0 +0.0000000000e+00 +0.0000000000e+00 +9.9999998245e-15 1.2500000000e+02 1.2500000000e+02 0.0000e+00 0.0000e+00
      -11  1    1    0    0    0 +1.1859863205e+01 -2.8073516987e+01 -4.3286324611e+01 5.2938498372e+01 5.1100000000e-04 0.0000e+00 -1.0000e+00
       11  1    1    0    0    0 +3.8949229691e+00 -5.8370524717e+00 -6.6565254446e+00 9.6721733725e+00 5.1100000000e-04 0.0000e+00 1.0000e+00
       22  1    1    0    0    0 -1.5754786175e+01 +3.3910569459e+01 +4.9942850056e+01 6.2389328255e+01 0.0000000000e+00 0.0000e+00 -1.0000e+00
</event>
<event>
 4      1 +2.4041262e-06 9.11880000e+01 7.81860800e-03 1.13011600e-01
       25 -1    0    0    0    0 +0.0000000000e+00 +0.0000000000e+00 +9.9999998245e-15 1.2500000000e+02 1.2500000000e+02 0.0000e+00 0.0000e+00
      -11  1    1    0    0    0 +3.3110170907e+00 +4.4844555860e+00 -2.1749514612e+00 5.9836101308e+00 5.1100000000e-04 0.0000e+00 -1.0000e+00
       11  1    1    0    0    0 +3.1316013585e+01 +4.2332394335e+01 -2.0527497044e+01 5.6516391004e+01 5.1100000000e-04 0.0000e+00 1.0000e+00
       22  1    1    0    0    0 -3.4627030676e+01 -4.6816849921e+01 +2.2702448505e+01 6.2499998865e+01 0.0000000000e+00 0.0000e+00 1.0000e+00
</event>
<event>
 5      1 +2.4041262e-06 9.11880000e+01 7.81860800e-03 1.13011600e-01
       25 -1    0    0    0    0 +0.0000000000e+00 +0.0000000000e+00 +9.9999998245e-15 1.2500000000e+02 1.2500000000e+02 0.0000e+00 0.0000e+00
       23  2    1    0    0    0 -1.8084562712e+01 -1.9203773182e+01 -5.2564410865e+00 9.8102667682e+01 9.4343345927e+01 0.0000e+00 0.0000e+00
      -11  1    2    2    0    0 -1.7032509365e+01 -1.7826138024e+01 -4.8720685765e+01 5.4603871600e+01 5.1100000000e-04 0.0000e+00 1.0000e+00
       11  1    2    2    0    0 -1.0520533465e+00 -1.3776351583e+00 +4.3464244678e+01 4.3498796082e+01 5.1100000000e-04 0.0000e+00 -1.0000e+00
       22  1    1    0    0    0 +1.8084562712e+01 +1.9203773182e+01 +5.2564410865e+00 2.6897332318e+01 0.0000000000e+00 0.0000e+00 1.0000e+00
</event>
<event>
 4      1 +2.4041262e-06 9.11880000e+01 7.81860800e-03 1.13011600e-01
       25 -1    0    0    0    0 +0.0000000000e+00 +0.0000000000e+00 +9.9999998245e-15 1.2500000000e+02 1.2500000000e+02 0.0000e+00 0.0000e+00
      -11  1    1    0    0    0 -1.7096563997e+00 +2.0688797739e-01 -9.6181278080e-01 1.9725140624e+00 5.1100000000e-04 0.0000e+00 1.0000e+00
       11  1    1    0    0    0 -3.7849048953e+01 +1.3856937774e+01 -4.5245778598e+01 6.0594931408e+01 5.1100000000e-04 0.0000e+00 -1.0000e+00
       22  1    1    0    0    0 +3.9558705353e+01 -1.4063825752e+01 +4.6207591379e+01 6.2432554529e+01 0.0000000000e+00 0.0000e+00 -1.0000e+00
</event>
<event>
 4      1 +2.4041262e-06 9.11880000e+01 7.81860800e-03 1.13011600e-01
       25 -1    0    0    0    0 +0.0000000000e+00 +0.0000000000e+00 +9.9999998245e-15 1.2500000000e+02 1.2500000000e+02 0.0000e+00 0.0000e+00
      -13  1    1    0    0    0 +1.9179528582e+01 +5.5997773601e+01 -1.7913169559e+01 6.1842523983e+01 1.0566000000e-01 0.0000e+00 -1.0000e+00
       13  1    1    0    0    0 -1.9443956077e+01 -5.6595938616e+01 +1.8014632782e+01 6.2495646681e+01 1.0566000000e-01 0.0000e+00 -1.0000e+00
       22  1    1    0    0    0 +2.6442749520e-01 +5.9816501465e-01 -1.0146322281e-01 6.6182933642e-01 0.0000000000e+00 0.0000e+00 1.0000e+00
</event>
<event>
 4      1 +2.4041262e-06 9.11880000e+01 7.81860800e-03 1.13011600e-01
       25 -1    0    0    0    0 +0.0000000000e+00 +0.0000000000e+00 +9.9999998245e-15 1.2500000000e+02 1.2500000000e+02 0.0000e+00 0.0000e+00
      -13  1    1    0    0    0 -2.9362056160e+01 +3.2789385324e+01 +2.6983197104e+01 5.1627301129e+01 1.0566000000e-01 0.0000e+00 1.0000e+00
       13  1    1    0    0    0 -4.8071341503e+00 +6.6636464444e+00 +7.2470766685e+00 1.0956459599e+01 1.0566000000e-01 0.0000e+00 -1.0000e+00
       22  1    1    0    0    0 +3.4169190311e+01 -3.9453031769e+01 -3.4230273773e+01 6.2416239271e+01 0.0000000000e+00 0.0000e+00 1.0000e+00
</event>
<event>
 4      1 +2.4041262e-06 9.11880000e+01 7.81860800e-03 1.13011600e-01
       25 -1    0    0    0    0 +0.0000000000e+00 +0.0000000000e+00 +9.9999998245e-15 1.2500000000e+02 1.2500000000e+02 0.0000e+00 0.0000e+00
      -13  1    1    0    0    0 +3.3478497744e+01 -3.9576699144e+01 +3.0961446889e+01 6.0380023881e+01 1.0566000000e-01 0.0000e+00 -1.0000e+00
       13  1    1    0    0    0 -3.5371132103e+01 +4.0222649470e+01 -3.1971844063e+01 6.2379391577e+01 1.0566000000e-01 0.0000e+00 -1.0000e+00
       22  1    1    0    0    0 +1.8926343598e+00 -6.4595032583e-01 +1.0103971738e+00 2.2405845425e+00 0.0000000000e+00 0.0000e+00 -1.0000e+00
</event>
<event>
 4      1 +2.4041262e-06 9.11880000e+01 7.81860800e-03 1.13011600e-01
       25 -1    0    0    0    0 +0.0000000000e+00 +0.0000000000e+00 +9.9999998245e-15 1.2500000000e+02 1.2500000000e+02 0.0000e+00 0.0000e+00
      -11  1    1    0    0    0 -3.1934835412e+01 -1.5389720195e+01 +3.0366855825e+01 4.6677865562e+01 5.1100000000e-04 0.0000e+00 1.0000e+00
       11  1    1    0    0    0 -1.0834457873e+01 -5.2288029348e+00 +1.0276880459e+01 1.5822140492e+01 5.1100000000e-04 0.0000e+00 -1.0000e+00
       22  1    1    0    0    0 +4.2769293285e+01 +2.0618523130e+01 -4.0643736284e+01 6.2499993946e+01 0.0000000000e+00 0.0000e+00 1.0000e+00
</event>
<event>
 5      1 +2.4041262e-06 9.11880000e+01 7.81860800e-03 1.13011600e-01
       25 -1    0    0    0    0 +0.0000000000e+00 +0.0000000000e+00 +9.9999998245e-15 1.2500000000e+02 1.2500000000e+02 0.0000e+00 0.0000e+00
       23  2    1    0    0    0 -6.8504141368e+00 +2.1172110005e+01 -5.4142896732e+00 1.0209801431e+02 9.9496249062e+01 0.0000e+00 0.0000e+00
      -11  1    2    2    0    0 -2.0365481489e+01 +1.5755394875e+01 -4.9431263035e+01 5.5735402299e+01 5.1100000000e-04 0.0000e+00 1.0000e+00
       11  1    2    2    0    0 +1.3515067352e+01 +5.4167151299e+00 +4.4016973361e+01 4.6362612011e+01 5.1100000000e-04 0.0000e+00 -1.0000e+00
       22  1    1    0    0    0 +6.8504141368e+00 -2.1172110005e+01 +5.4142896732e+00 2.2901985690e+01 0.0000000000e+00 0.0000e+00 1.0000e+00
</event>
<event>
 5      1 +2.4041262e-06 9.11880000e+01 7.81860800e-03 1.13011600e-01
       25 -1    0    0    0    0 +0.0000000000e+00 +0.0000000000e+00 +9.9999998245e-15 1.2500000000e+02 1.2500000000e+02 0.0000e+00 0.0000e+00
       23  2    1    0    0    0 -7.7087274885e+00 +6.6102003258e+00 +3.0571425926e+01 9.2786162741e+01 8.7014600414e+01 0.0000e+00 0.0000e+00
      -11  1    2    2    0    0 -2.4102368635e+01 +3.0624223221e+01 -1.2404807007e+01 4.0898000671e+01 5.1100000000e-04 0.0000e+00 1.0000e+00
       11  1    2    2    0    0 +1.6393641146e+01 -2.4014022895e+01 +4.2976232933e+01 5.1888162070e+01 5.1100000000e-04 0.0000e+00 -1.0000e+00
       22  1    1    0    0    0 +7.7087274885e+00 -6.6102003258e+00 -3.0571425926e+01 3.2213837259e+01 0.0000000000e+00 0.0000e+00 -1.0000e+00
</event>
<event>
 5      1 +2.4041262e-06 9.11880000e+01 7.81860800e-03 1.13011600e-01
       25 -1    0    0    0    0 +0.0000000000e+00 +0.0000000000e+00 +9.9999998245e-15 1.2500000000e+02 1.2500000000e+02 0.0000e+00 0.0000e+00
       23  2    1    0    0    0 -7.1685162400e+00 +2.0213613589e+01 -1.9766777243e+01 9.5833181833e+01 9.1286885467e+01 0.0000e+00 0.0000e+00
      -13  1    2    2    0    0 +6.0798275298e+00 +5.5618272116e+01 -1.0815350511e+01 5.6985432057e+01 1.0566000000e-01 0.0000e+00 1.0000e+00
       13  1    2    2    0    0 -1.3248343770e+01 -3.5404658528e+01 -8.9514267318e+00 3.8847749776e+01 1.0566000000e-01 0.0000e+00 -1.0000e+00
       22  1    1    0    0    0 +7.1685162400e+00 -2.0213613589e+01 +1.9766777243e+01 2.9166818167e+01 0.0000000000e+00 0.0000e+00 1.0000e+00
</event>
<event>
 4      1 +2.4041262e-06 9.11880000e+01 7.81860800e-03 1.13011600e-01
       25 -1    0    0    0    0 +0.0000000000e+00 +0.0000000000e+00 +9.9999998245e-15 1.2500000000e+02 1.2500000000e+02 0.0000e+00 0.0000e+00
      -13  1    1    0    0    0 -6.2073267192e+01 -2.6072276340e+00 -6.8081288492e+00 6.2499999346e+01 1.0566000000e-01 0.0000e+00 1.0000e+00
       13  1    1    0    0    0 +6.2073267820e+01 +2.6072278734e+00 +6.8081286844e+00 6.2499999962e+01 1.0566000000e-01 0.0000e+00 1.0000e+00
       22  1    1    0    0    0 -6.2802857883e-07 -2.3944081994e-07 +1.6480330154e-07 6.9203463084e-07 0.0000000000e+00 0.0000e+00 1.0000e+00
</event>
<event>
 4      1 +2.4041262e-06 9.11880000e+01 7.81860800e-03 1.13011600e-01
       25 -1    0    0    0    0 +0.0000000000e+00 +0.0000000000e+00 +9.9999998245e-15 1.2500000000e+02 1.2500000000e+02 0.0000e+00 0.0000e+00
      -13  1    1    0    0    0 +2.2231547522e+01 +1.7960652594e+01 -5.5582480049e+01 6.2499999994e+01 1.0566000000e-01 0.0000e+00 1.0000e+00
       13  1    1    0    0    0 -2.2231546190e+01 -1.7960651869e+01 +5.5582477209e+01 6.2499996786e+01 1.0566000000e-01 0.0000e+00 1.0000e+00
       22  1    1    0    0    0 -1.3326536659e-06 -7.2463687161e-07 +2.8396843605e-06 3.2194520739e-06 0.0000000000e+00 0.0000e+00 1.0000e+00
</event>
<event>
 4      1 +2.4041262e-06 9.11880000e+01 7.81860800e-03 1.13011600e-01
       25 -1    0    0    0    0 +0.0000000000e+00 +0.0000000000e+00 +9.9999998245e-15 1.2500000000e+02 1.2500000000e+02 0.0000e+00 0.0000e+00
      -13  1    1    0    0    0 -5.5837834452e+01 -2.4547236228e+01 +1.3629669349e+01 6.2499676906e+01 1.0566000000e-01 0.0000e+00 -1.0000e+00
       13  1    1    0    0    0 +5.5838024773e+01 +2.4547512804e+01 -1.3629760004e+01 6.2499975338e+01 1.0566000000e-01 0.0000e+00 -1.0000e+00
       22  1    1    0    0    0 -1.9032044073e-04 -2.7657615719e-04 +9.0654674411e-05 3.4775639589e-04 0.0000000000e+00 0.0000e+00 1.0000e+00
</event>
<event>
 4      1 +2.4041262e-06 9.11880000e+01 7.81860800e-03 1.13011600e-01
       25 -1    0    0    0    0 +0.0000000000e+00 +0.0000000000e+00 +9.9999998245e-15 1.2500000000e+02 1.2500000000e+02 0.0000e+00 0.0000e+00
      -11  1    1    0    0    0 -3.1239704347e-01 +3.0476271063e+00 -1.0219722976e+00 3.2295588754e+00 5.1100000000e-04 0.0000e+00 -1.0000e+00
       11  1    1    0    0    0 -5.7641652715e+00 +5.5867584539e+01 -1.8936038662e+01 5.9270449331e+01 5.1100000000e-04 0.0000e+00 1.0000e+00
       22  1    1    0    0    0 +6.0765623150e+00 -5.8915211645e+01 +1.9958010959e+01 6.2499991793e+01 0.0000000000e+00 0.0000e+00 1.0000e+00
</event>
<event>
 4      1 +2.4041262e-06 9.11880000e+01 7.81860800e-03 1.13011600e-01
       25 -1    0    0    0    0 +0.0000000000e+00 +0.0000000000e+00 +9.9999998245e-15 1.2500000000e+02 1.2500000000e+02 0.0000e+00 0.0000e+00
      -13  1    1    0    0    0 +4.0039624461e+01 -2.7309208689e+01 -4.8122082022e+00 4.8704547200e+01 1.0566000000e-01 0.0000e+00 1.0000e+00
       13  1    1    0    0    0 +7.9047257549e+00 -1.1779034911e+01 -6.1054303346e-01 1.4199094321e+01 1.0566000000e-01 0.0000e+00 -1.0000e+00
       22  1    1    0    0    0 -4.7944350216e+01 +3.9088243600e+01 +5.4227512357e+00 6.2096358479e+01 0.0000000000e+00 0.0000e+00 1.0000e+00
</event>
<event>
 4      1 +2.4041262e-06 9.11880000e+01 7.81860800e-03 1.13011600e-01
       25 -1    0    0    0    0 +0.0000000000e+00 +0.0000000000e+00 +9.9999998245e-15 1.2500000000e+02 1.2500000000e+02 0.0000e+00 0.0000e+00
      -13  1    1    0    0    0 -2.8418310904e+01 -1.8172647616e+01 -5.1948927000e+01 6.1939871622e+01 1.0566000000e-01 0.0000e+00 1.0000e+00
       13  1    1    0    0    0 +2.8793010870e+01 +1.8765719552e+01 +5.2027389736e+01 6.2354231228e+01 1.0566000000e-01 0.0000e+00 1.0000e+00
       22  1    1    0    0    0 -3.7469996563e-01 -5.9307193613e-01 -7.8462735077e-02 7.0589715006e-01 0.0000000000e+00 0.0000e+00 -1.0000e+00
</event>
<event>
 5      1 +2.4041262e-06 9.11880000e+01 7.81860800e-03 1.13011600e-01
       25 -1    0    0    0    0 +0.0000000000e+00 +0.0000000000e+00 +9.9999998245e-15 1.2500000000e+02 1.2500000000e+02 0.0000e+00 0.0000e+00
       23  2    1    0    0    0 +2.1883556130e+01 +1.7878250588e+01 -1.4620940026e+01 9.3183435757e+01 8.7583439869e+01 0.0000e+00 0.0000e+00
      -13  1    2    2    0    0 +4.4171002416e+01 +3.9482042077e+01 -1.8103794318e+01 6.1948911482e+01 1.0566000000e-01 0.0000e+00 1.0000e+00
       13  1    2    2    0    0 -2.2287446287e+01 -2.1603791489e+01 +3.4828542917e+00 3.1234524276e+01 1.0566000000e-01 0.0000e+00 -1.0000e+00
       22  1    1    0    0    0 -2.1883556130e+01 -1.7878250588e+01 +1.4620940026e+01 3.1816564243e+01 0.0000000000e+00 0.0000e+00 1.0000e+00
</event>
<event>
 4      1 +2.4041262e-06 9.11880000e+01 7.81860800e-03 1.13011600e-01
       25 -1    0    0    0    0 +0.0000000000e+00 +0.0000000000e+00 +9.9999998245e-15 1.2500000000e+02 1.2500000000e+02 0.0000e+00 0.0000e+00
      -11  1    1    0    0    0 +4.6899328745e+00 +1.4632514304e-01 +6.4273157894e-01 4.7360305699e+00 5.1100000000e-04 0.0000e+00 1.0000e+00
       11  1    1    0    0    0 +5.7207964110e+01 +1.8103911554e+00 +7.7876581342e+00 5.7763970546e+01 5.1100000000e-04 0.0000e+00 -1.0000e+00
       22  1    1    0    0    0 -6.1897896985e+01 -1.9567162985e+00 -8.4303897131e+00 6.2499998884e+01 0.0000000000e+00 0.0000e+00 -1.0000e+00
</event>
<event>
 4      1 +2.4041262e-06 9.11880000e+01 7.81860800e-03 1.13011600e-01
       25 -1    0    0    0    0 +0.0000000000e+00 +0.0000000000e+00 +9.9999998245e-15 1.2500000000e+02 1.2500000000e+02 0.0000e+00 0.0000e+00
      -13  1    1    0    0    0 -1.0726387664e+01 -4.5588874413e+01 +4.1386362334e+01 6.2499944111e+01 1.0566000000e-01 0.0000e+00 1.0000e+00
       13  1    1    0    0    0 +1.0726396873e+01 +4.5588916327e+01 -4.1386398159e+01 6.2499999987e+01 1.0566000000e-01 0.0000e+00 1.0000e+00
       22  1    1    0    0    0 -9.2093088635e-06 -4.1914194914e-05 +3.5824822904e-05 5.5901959189e-05 0.0000000000e+00 0.0000e+00 1.0000e+00
</event>
<event>
 4      1 +2.4041262e-06 9.11880000e+01 7.81860800e-03 1.13011600e-01
       25 -1    0    0    0    0 +0.0000000000e+00 +0.0000000000e+00 +9.9999998245e-15 1.2500000000e+02 1.2500000000e+02 0.0000e+00 0.0000e+00
      -13  1    1    0    0    0 +1.1974725617e+01 +4.8057811693e+01 +3.8121699087e+01 6.2499779389e+01 1.0566000000e-01 0.0000e+00 1.0000e+00
       13  1    1    0    0    0 -1.1974258180e+01 -4.8057745412e+01 -3.8121843450e+01 6.2499726920e+01 1.0566000000e-01 0.0000e+00 1.0000e+00
       22  1    1    0    0    0 -4.6743697319e-04 -6.6281439820e-05 +1.4436280651e-04 4.9369137431e-04 0.0000000000e+00 0.0000e+00 -1.0000e+00
</event>
<event>
 4      1 +2.4041262e-06 9.11880000e+01 7.81860800e-03 1.13011600e-01
       25 -1    0    0    0    0 +0.0000000000e+00 +0.0000000000e+00 +9.9999998245e-15 1.2500000000e+02 1.2500000000e+02 0.0000e+00 0.0000e+00
      -13  1    1    0    0    0 -6.2911340208e+00 -3.6720538434e+01 +4.7517100141e+01 6.0380976143e+01 1.0566000000e-01 0.0000e+00 -1.0000e+00
       13  1    1    0    0    0 +6.6215096441e+00 +3.8048813266e+01 -4.9137118637e+01 6.2498193357e+01 1.0566000000e-01 0.0000e+00 -1.0000e+00
       22  1    1    0    0    0 -3.3037562327e-01 -1.3282748323e+00 +1.6200184959e+00 2.1208305000e+00 0.0000000000e+00 0.0000e+00 1.0000e+00
</event>
<event>
 4      1 +2.4041262e-06 9.11880000e+01 7.81860800e-03 1.13011600e-01
       25 -1    0    0    0    0 +0.0000000000e+00 +0.0000000000e+00 +9.9999998245e-15 1.2500000000e+02 1.2500000000e+02 0.0000e+00 0.0000e+00
      -13  1    1    0    0    0 +9.2144184161e+00 -2.9459540093e+01 +5.4345809959e+01 6.2499985867e+01 1.0566000000e-01 0.0000e+00 -1.0000e+00
       13  1    1    0    0    0 -9.2144205090e+00 +2.9459546727e+01 -5.4345822261e+01 6.2500000000e+01 1.0566000000e-01 0.0000e+00 -1.0000e+00
       22  1    1    0    0    0 +2.0929195541e-06 -6.6343665149e-06 +1.2302099000e-05 1.4132826013e-05 0.0000000000e+00 0.0000e+00 1.0000e+00
</event>
<event>
 4      1 +2.4041262e-06 9.11880000e+01 7.81860800e-03 1.13011600e-01
       25 -1    0    0    0    0 +0.0000000000e+00 +0.0000000000e+00 +9.9999998245e-15 1.2500000000e+02 1.2500000000e+02 0.0000e+00 0.0000e+00
      -13  1    1    0    0    0 -5.8286499878e+01 +3.5910736933e+00 +2.2223728443e+01 6.2482934857e+01 1.0566000000e-01 0.0000e+00 -1.0000e+00
       13  1    1    0    0    0 +5.8302639128e+01 -3.5907843880e+00 -2.2229349135e+01 6.2499972711e+01 1.0566000000e-01 0.0000e+00 -1.0000e+00
       22  1    1    0    0    0 -1.6139249534e-02 -2.8930523664e-04 +5.6206925395e-03 1.7092432761e-02 0.0000000000e+00 0.0000e+00 -1.0000e+00
</event>
<event>
 4      1 +2.4041262e-06 9.11880000e+01 7.81860800e-03 1.13011600e-01
       25 -1    0    0    0    0 +0.0000000000e+00 +0.0000000000e+00 +9.9999998245e-15 1.2500000000e+02 1.2500000000e+02 0.0000e+00 0.0000e+00
      -11  1    1    0    0    0 -2.3393271883e+01 +2.6663026470e+01 +4.7785668642e+00 3.5791016351e+01 5.1100000000e-04 0.0000e+00 1.0000e+00
       11  1    1    0    0    0 -1.6311988840e+01 +2.1213597316e+01 +7.0271213052e-01 2.6769226653e+01 5.1100000000e-04 0.0000e+00 -1.0000e+00
       22  1    1    0    0    0 +3.9705260723e+01 -4.7876623786e+01 -5.4812789947e+00 6.2439756995e+01 0.0000000000e+00 0.0000e+00 -1.0000e+00
</event>
<event>
 5      1 +2.4041262e-06 9.11880000e+01 7.81860800e-03 1.13011600e-01
       25 -1    0    0    0    0 +0.0000000000e+00 +0.0000000000e+00 +9.9999998245e-15 1.2500000000e+02 1.2500000000e+02 0.0000e+00 0.0000e+00
       23  2    1    0    0    0 -1.4505191213e+01 +2.5114074533e+01 +5.8258154118e-01 9.5992126707e+01 9.1504271357e+01 0.0000e+00 0.0000e+00
      -11  1    2    2    0    0 -4.8185108805e+01 +1.2601758517e+01 -2.1030066338e+01 5.4063598832e+01 5.1100000000e-04 0.0000e+00 1.0000e+00
       11  1    2    2    0    0 +3.3679917592e+01 +1.2512316015e+01 +2.1612647879e+01 4.1928527874e+01 5.1100000000e-04 0.0000e+00 -1.0000e+00
       22  1    1    0    0    0 +1.4505191213e+01 -2.5114074533e+01 -5.8258154118e-01 2.9007873293e+01 0.0000000000e+00 0.0000e+00 1.0000e+00
</event>
<event>
 4      1 +2.4041262e-06 9.11880000e+01 7.81860800e-03 1.13011600e-01
       25 -1    0    0    0    0 +0.0000000000e+00 +0.0000000000e+00 +9.9999998245e-15 1.2500000000e+02 1.2500000000e+02 0.0000e+00 0.0000e+00
      -13  1    1    0    0    0 -1.0140197122e+01 -2.4458978760e+01 +1.9028540090e+01 3.2606161100e+01 1.0566000000e-01 0.0000e+00 1.0000e+00
       13  1    1    0    0    0 -8.6684098874e+00 -2.2226265969e+01 +1.8019210098e+01 2.9897346462e+01 1.0566000000e-01 0.0000e+00 -1.0000e+00
       22  1    1    0    0    0 +1.8808607009e+01 +4.6685244729e+01 -3.7047750188e+01 6.2496492438e+01 0.0000000000e+00 0.0000e+00 -1.0000e+00
</event>
<event>
 4      1 +2.4041262e-06 9.11880000e+01 7.81860800e-03 1.13011600e-01
       25 -1    0    0    0    0 +0.0000000000e+00 +0.0000000000e+00 +9.9999998245e-15 1.2500000000e+02 1.2500000000e+02 0.0000e+00 0.0000e+00
      -13  1    1    0    0    0 -4.1183650981e+01 -3.2644423349e+01 +2.9539935985e+01 6.0285740154e+01 1.0566000000e-01 0.0000e+00 -1.0000e+00
       13  1    1    0    0    0 +4.2996687107e+01 +3.3619260352e+01 -3.0409373459e+01 6.2479684114e+01 1.0566000000e-01 0.0000e+00 -1.0000e+00
       22  1    1    0    0    0 -1.8130361259e+00 -9.7483700365e-01 +8.6943747365e-01 2.2345757311e+00 0.0000000000e+00 0.0000e+00 1.0000e+00
</event>
<event>
 4      1 +2.4041262e-06 9.11880000e+01 7.81860800e-03 1.13011600e-01
       25 -1    0    0    0    0 +0.0000000000e+00 +0.0000000000e+00 +9.9999998245e-15 1.2500000000e+02 1.2500000000e+02 0.0000e+00 0.0000e+00
      -11  1    1    0    0    0 +4.2768522593e-01 -9.9128431321e-01 +2.0872685237e+00 2.3499466788e+00 5.1100000000e-04 0.0000e+00 -1.0000e+00
       11  1    1    0    0    0 +4.3240572851e+01 +9.2202329414e+00 +4.1331087787e+01 6.0522877112e+01 5.1100000000e-04 0.0000e+00 1.0000e+00
       22  1    1    0    0    0 -4.3668258077e+01 -8.2289486282e+00 -4.3418356311e+01 6.2127176209e+01 0.0000000000e+00 0.0000e+00 1.0000e+00
</event>
<event>
 5      1 +2.4041262e-06 9.11880000e+01 7.81860800e-03 1.13011600e-01
       25 -1    0    0    0    0 +0.0000000000e+00 +0.0000000000e+00 +9.9999998245e-15 1.2500000000e+02 1.2500000000e+02 0.0000e+00 0.0000e+00
       23  2    1    0    0    0 -3.0947103613e+00 -2.9169271169e+01 -5.1913721038e+00 9.5211177313e+01 9.0431157951e+01 0.0000e+00 0.0000e+00
      -13  1    2    2    0    0 -3.2613161652e+01 -7.0579304186e+00 +2.9528923843e+01 4.4557841085e+01 1.0566000000e-01 0.0000e+00 1.0000e+00
       13  1    2    2    0    0 +2.9518451291e+01 -2.2111340750e+01 -3.4720295947e+01 5.0653336229e+01 1.0566000000e-01 0.0000e+00 -1.0000e+00
       22  1    1    0    0    0 +3.0947103613e+00 +2.9169271169e+01 +5.1913721038e+00 2.9788822687e+01 0.0000000000e+00 0.0000e+00 -1.0000e+00
</event>
<event>
 4      1 +2.4041262e-06 9.11880000e+01 7.81860800e-03 1.13011600e-01
       25 -1    0    0    0    0 +0.0000000000e+00 +0.0000000000e+00 +9.9999998245e-15 1.2500000000e+02 1.2500000000e+02 0.0000e+00 0.0000e+00
      -13  1    1    0    0    0 -5.6016661197e+01 +9.0667311885e-01 -2.7704700762e+01 6.2499999969e+01 1.0566000000e-01 0.0000e+00 -1.0000e+00
       13  1    1    0    0    0 +5.6016661225e+01 -9.0667311885e-01 +2.7704700774e+01 6.2500000000e+01 1.0566000000e-01 0.0000e+00 -1.0000e+00
       22  1    1    0    0    0 -2.8342033148e-08 -2.0540856421e-12 -1.2784934441e-08 3.1092207960e-08 0.0000000000e+00 0.0000e+00 -1.0000e+00
</event>
<event>
 4      1 +2.4041262e-06 9.11880000e+01 7.81860800e-03 1.13011600e-01
       25 -1    0    0    0    0 +0.0000000000e+00 +0.0000000000e+00 +9.9999998245e-15 1.2500000000e+02 1.2500000000e+02 0.0000e+00 0.0000e+00
      -13  1    1    0    0    0 -4.7472209193e+01 +4.0176282941e+01 -6.2043919430e+00 6.2500000000e+01 1.0566000000e-01 0.0000e+00 -1.0000e+00
       13  1    1    0    0    0 +4.7472209165e+01 -4.0176282915e+01 +6.2043919438e+00 6.2499999962e+01 1.0566000000e-01 0.0000e+00 -1.0000e+00
       22  1    1    0    0    0 +2.7842589759e-08 -2.5468545545e-08 -8.0056047974e-10 3.7742515997e-08 0.0000000000e+00 0.0000e+00 -1.0000e+00
</event>
<event>
 4      1 +2.4041262e-06 9.11880000e+01 7.81860800e-03 1.13011600e-01
       25 -1    0    0    0    0 +0.0000000000e+00 +0.0000000000e+00 +9.9999998245e-15 1.2500000000e+02 1.2500000000e+02 0.0000e+00 0.0000e+00
      -13  1    1    0    0    0 +1.8329654928e+01 +1.8229759402e+01 -3.0459751197e+01 3.9951320187e+01 1.0566000000e-01 0.0000e+00 1.0000e+00
       13  1    1    0    0    0 -1.0694663207e+01 -1.5565983456e+01 +5.5557803236e+01 5.8680118665e+01 1.0566000000e-01 0.0000e+00 -1.0000e+00
       22  1    1    0    0    0 -7.6349917211e+00 -2.6637759457e+00 -2.5098052039e+01 2.6368561148e+01 0.0000000000e+00 0.0000e+00 -1.0000e+00
</event>
<event>
 4      1 +2.4041262e-06 9.11880000e+01 7.81860800e-03 1.13011600e-01
       25 -1    0    0    0    0 +0.0000000000e+00 +0.0000000000e+00 +9.9999998245e-15 1.2500000000e+02 1.2500000000e+02 0.0000e+00 0.0000e+00
      -13  1    1    0    0    0 +1.8623797290e+01 +2.5700159132e+01 +5.3841278746e+01 6.2499907728e+01 1.0566000000e-01 0.0000e+00 1.0000e+00
       13  1    1    0    0    0 -1.8623935998e+01 -2.5699831666e+01 -5.3839531696e+01 6.2498309393e+01 1.0566000000e-01 0.0000e+00 1.0000e+00
       22  1    1    0    0    0 +1.3870840195e-04 -3.2746539100e-04 -1.7470501191e-03 1.7828790541e-03 0.0000000000e+00 0.0000e+00 -1.0000e+00
</event>
<event>
 4      1 +2.4041262e-06 9.11880000e+01 7.81860800e-03 1.13011600e-01
       25 -1    0    0    0    0 +0.0000000000e+00 +0.0000000000e+00 +9.9999998245e-15 1.2500000000e+02 1.2500000000e+02 0.0000e+00 0.0000e+00
      -11  1    1    0    0    0 -2.1448425651e+01 +3.5469437852e+00 -1.6220489000e+01 2.7124159651e+01 5.1100000000e-04 0.0000e+00 -1.0000e+00
       11  1    1    0    0    0 -2.7997906033e+01 +4.5246337183e+00 -2.1144678065e+01 3.5375874028e+01 5.1100000000e-04 0.0000e+00 1.0000e+00
       22  1    1    0    0    0 +4.9446331683e+01 -8.0715775035e+00 +3.7365167065e+01 6.2499966321e+01 0.0000000000e+00 0.0000e+00 -1.0000e+00
</event>
<event>
 4      1 +2.4041262e-06 9.11880000e+01 7.81860800e-03 1.13011600e-01
       25 -1    0    0    0    0 +0.0000000000e+00 +0.0000000000e+00 +9.9999998245e-15 1.2500000000e+02 1.2500000000e+02 0.0000e+00 0.0000e+00
      -13  1    1    0    0    0 -4.3763302641e+00 +9.1874553403e+00 +6.1665851439e+01 6.2500000000e+01 1.0566000000e-01 0.0000e+00 1.0000e+00
       13  1    1    0    0    0 +4.3763302622e+00 -9.1874553367e+00 -6.1665851418e+01 6.2499999979e+01 1.0566000000e-01 0.0000e+00 1.0000e+00
       22  1    1    0    0    0 +1.8645008353e-09 -3.5786500793e-09 -2.1102858421e-08 2.1485198004e-08 0.0000000000e+00 0.0000e+00 -1.0000e+00
</event>
<event>
 4      1 +2.4041262e-06 9.11880000e+01 7.81860800e-03 1.13011600e-01
       25 -1    0    0    0    0 +0.0000000000e+00 +0.0000000000e+00 +9.9999998245e-15 1.2500000000e+02 1.2500000000e+02 0.0000e+00 0.0000e+00
      -13  1    1    0    0    0 -5.7523103985e+01 -4.4795563180e+00 -2.4025081903e+01 6.2499517129e+01 1.0566000000e-01 0.0000e+00 1.0000e+00
       13  1    1    0    0    0 +5.7483607658e+01 +4.4831517492e+00 +2.4001636851e+01 6.2454411650e+01 1.0566000000e-01 0.0000e+00 1.0000e+00
       22  1    1    0    0    0 +3.9496326889e-02 -3.5954312038e-03 +2.3445051468e-02 4.6071220969e-02 0.0000000000e+00 0.0000e+00 -1.0000e+00
</event>
<event>
 4      1 +2.4041262e-06 9.11880000e+01 7.81860800e-03 1.13011600e-01
       25 -1    0    0    0    0 +0.0000000000e+00 +0.0000000000e+00 +9.9999998245e-15 1.2500000000e+02 1.2500000000e+02 0.0000e+00 0.0000e+00
      -13  1    1    0    0    0 +4.8593311488e+00 +1.0229951794e+01 +1.9468392504e+01 2.2523198788e+01 1.0566000000e-01 0.0000e+00 1.0000e+00
       13  1    1    0    0    0 +7.9390889209e+00 +1.7876686665e+01 +3.4866320893e+01 3.9978451141e+01 1.0566000000e-01 0.0000e+00 -1.0000e+00
       22  1    1    0    0    0 -1.2798420070e+01 -2.8106638459e+01 -5.4334713397e+01 6.2498350071e+01 0.0000000000e+00 0.0000e+00 -1.0000e+00
</event>
<event>
 4      1 +2.4041262e-06 9.11880000e+01 7.81860800e-03 1.13011600e-01
       25 -1    0    0    0    0 +0.0000000000e+00 +0.0000000000e+00 +9.9999998245e-15 1.2500000000e+02 1.2500000000e+02 0.0000e+00 0.0000e+00
      -13  1    1    0    0    0 +3.4145440481e+01 +4.2116433802e+01 +3.1089125647e+01 6.2499999995e+01 1.0566000000e-01 0.0000e+00 -1.0000e+00
       13  1    1    0    0    0 -3.4145369647e+01 -4.2116347848e+01 -3.1089063191e+01 6.2499872308e+01 1.0566000000e-01 0.0000e+00 -1.0000e+00
       22  1    1    0    0    0 -7.0834774132e-05 -8.5954097141e-05 -6.2456061222e-05 1.2769663905e-04 0.0000000000e+00 0.0000e+00 -1.0000e+00
</event>
<event>
 4      1 +2.4041262e-06 9.11880000e+01 7.81860800e-03 1.13011600e-01
       25 -1    0    0    0    0 +0.0000000000e+00 +0.0000000000e+00 +9.9999998245e-15 1.2500000000e+02 1.2500000000e+02 0.0000e+00 0.0000e+00
      -13  1    1    0    0    0 -4.6419078534e+01 -2.3590529840e+01 -3.4545200022e+01 6.2487006319e+01 1.0566000000e-01 0.0000e+00 1.0000e+00
       13  1    1    0    0    0 +4.6431574976e+01 +2.3593786547e+01 +3.4548894764e+01 6.2499561693e+01 1.0566000000e-01 0.0000e+00 1.0000e+00
       22  1    1    0    0    0 -1.2496441590e-02 -3.2567074574e-03 -3.6947412951e-03 1.3431988278e-02 0.0000000000e+00 0.0000e+00 1.0000e+00
</event>
<event>
 4      1 +2.4041262e-06 9.11880000e+01 7.81860800e-03 1.13011600e-01
       25 -1    0    0    0    0 +0.0000000000e+00 +0.0000000000e+00 +9.9999998245e-15 1.2500000000e+02 1.2500000000e+02 0.0000e+00 0.0000e+00
      -13  1    1    0    0    0 +6.0971538058e+01 +1.7091951854e+00 +1.3630385816e+01 6.2499987063e+01 1.0566000000e-01 0.0000e+00 1.0000e+00
       13  1    1    0    0    0 -6.0971548026e+01 -1.7091995438e+00 -1.3630394756e+01 6.2499998856e+01 1.0566000000e-01 0.0000e+00 1.0000e+00
       22  1    1    0    0    0 +9.9678174674e-06 +4.3583206866e-06 +8.9398452651e-06 1.4080950878e-05 0.0000000000e+00 0.0000e+00 -1.0000e+00
</event>
<event>
 4      1 +2.4041262e-06 9.11880000e+01 7.81860800e-03 1.13011600e-01
       25 -1    0    0    0    0 +0.0000000000e+00 +0.0000000000e+00 +9.9999998245e-15 1.2500000000e+02 1.2500000000e+02 0.0000e+00 0.0000e+00
      -13  1    1    0    0    0 -2.5051428593e+01 -4.7551694128e+01 +3.1898293749e+01 6.2499999977e+01 1.0566000000e-01 0.0000e+00 1.0000e+00
       13  1    1    0    0    0 +2.5051428600e+01 +4.7551694147e+01 -3.1898293761e+01 6.2500000000e+01 1.0566000000e-01 0.0000e+00 1.0000e+00
       22  1    1    0    0    0 -6.3754689627e-09 -1.8315409899e-08 +1.2038046318e-08 2.2825761837e-08 0.0000000000e+00 0.0000e+00 1.0000e+00
</event>
<event>
 4      1 +2.4041262e-06 9.11880000e+01 7.81860800e-03 1.13011600e-01
       25 -1    0    0    0    0 +0.0000000000e+00 +0.0000000000e+00 +9.9999998245e-15 1.2500000000e+02 1.2500000000e+02 0.0000e+00 0.0000e+00
      -13  1    1    0    0    0 -3.5893007622e+01 +4.0096291258e+01 +3.1783930958e+01 6.2500000000e+01 1.0566000000e-01 0.0000e+00 -1.0000e+00
       13  1    1    0    0    0 +3.5893006417e+01 -4.0096289903e+01 -3.1783929878e+01 6.2499997889e+01 1.0566000000e-01 0.0000e+00 -1.0000e+00
       22  1    1    0    0    0 +1.2047590269e-06 -1.3558463816e-06 -1.0798687427e-06 2.1108955979e-06 0.0000000000e+00 0.0000e+00 1.0000e+00
</event>
<event>
 4      1 +2.4041262e-06 9.11880000e+01 7.81860800e-03 1.13011600e-01
       25 -1    0    0    0    0 +0.0000000000e+00 +0.0000000000e+00 +9.9999998245e-15 1.2500000000e+02 1.2500000000e+02 0.0000e+00 0.0000e+00
      -11  1    1    0    0    0 -8.3572613835e-02 +1.3678958832e+00 +4.9434913548e+00 5.1299347525e+00 5.1100000000e-04 0.0000e+00 1.0000e+00
       11  1    1    0    0    0 -3.1050675617e-01 +1.5787732328e+01 +5.5154347263e+01 5.7370296572e+01 5.1100000000e-04 0.0000e+00 -1.0000e+00
       22  1    1    0    0    0 +3.9407937000e-01 -1.7155628211e+01 -6.0097838618e+01 6.2499768675e+01 0.0000000000e+00 0.0000e+00 -1.0000e+00
</event>
<event>
 4      1 +2.4041262e-06 9.11880000e+01 7.81860800e-03 1.13011600e-01
       25 -1    0    0    0    0 +0.0000000000e+00 +0.0000000000e+00 +9.9999998245e-15 1.2500000000e+02 1.2500000000e+02 0.0000e+00 0.0000e+00
      -11  1    1    0    0    0 +4.1810736105e+01 -2.3131976723e+01 -3.7716959471e+00 4.7931739916e+01 5.1100000000e-04 0.0000e+00 1.0000e+00
       11  1    1    0    0    0 +1.2885263128e+01 -6.7744526030e+00 -6.6197562159e-01 1.4572625911e+01 5.1100000000e-04 0.0000e+00 -1.0000e+00
       22  1    1    0    0    0 -5.4695999234e+01 +2.9906429326e+01 +4.4336715687e+00 6.2495634173e+01 0.0000000000e+00 0.0000e+00 1.0000e+00
</event>
<event>
 4      1 +2.4041262e-06 9.11880000e+01 7.81860800e-03 1.13011600e-01
       25 -1    0    0    0    0 +0.0000000000e+00 +0.0000000000e+00 +9.9999998245e-15 1.2500000000e+02 1.2500000000e+02 0.0000e+00 0.0000e+00
      -13  1    1    0    0    0 +5.4114734790e+01 -3.1166763502e+01 +2.4998673605e+00 6.2498257331e+01 1.0566000000e-01 0.0000e+00 -1.0000e+00
       13  1    1    0    0    0 -3.6413329271e+01 +2.1266158507e+01 -1.8593251084e+00 4.2209575930e+01 1.0566000000e-01 0.0000e+00 -1.0000e+00
       22  1    1    0    0    0 -1.7701405519e+01 +9.9006049947e+00 -6.4054225212e-01 2.0292166739e+01 0.0000000000e+00 0.0000e+00 1.0000e+00
</event>
<event>
 4      1 +2.4041262e-06 9.11880000e+01 7.81860800e-03 1.13011600e-01
       25 -1    0    0    0    0 +0.0000000000e+00 +0.0000000000e+00 +9.9999998245e-15 1.2500000000e+02 1.2500000000e+02 0.0000e+00 0.0000e+00
      -13  1    1    0    0    0 -7.8081177732e+00 -2.8703198290e+01 +3.2914454336e+01 4.4364543990e+01 1.0566000000e-01 0.0000e+00 -1.0000e+00
       13  1    1    0    0    0 -1.3969307229e+01 -1.0113998638e+01 +9.0381123331e+00 1.9471341800e+01 1.0566000000e-01 0.0000e+00 1.0000e+00
       22  1    1    0    0    0 +2.1777425002e+01 +3.8817196928e+01 -4.1952566669e+01 6.1164114210e+01 0.0000000000e+00 0.0000e+00 -1.0000e+00
</event>
<event>
 4      1 +2.4041262e-06 9.11880000e+01 7.81860800e-03 1.13011600e-01
       25 -1    0    0    0    0 +0.0000000000e+00 +0.0000000000e+00 +9.9999998245e-15 1.2500000000e+02 1.2500000000e+02 0.0000e+00 0.0000e+00
      -13  1    1    0    0    0 -9.3936203753e+00 +4.4080243740e+01 -4.3300471637e+01 6.2500000000e+01 1.0566000000e-01 0.0000e+00 1.0000e+00
       13  1    1    0    0    0 +9.3936202108e+00 -4.4080242956e+01 +4.3300470869e+01 6.2499998890e+01 1.0566000000e-01 0.0000e+00 1.0000e+00
       22  1    1    0    0    0 +1.6443325541e-07 -7.8475632956e-07 +7.6781636046e-07 1.1101453759e-06 0.0000000000e+00 0.0000e+00 -1.0000e+00
</event>
<event>
 5      1 +2.4041262e-06 9.11880000e+01 7.81860800e-03 1.13011600e-01
       25 -1    0    0    0    0 +0.0000000000e+00 +0.0000000000e+00 +9.9999998245e-15 1.2500000000e+02 1.2500000000e+02 0.0000e+00 0.0000e+00
       23  2    1    0    0    0 -2.7870053569e+01 -6.3982278467e+00 -7.9543509143e+00 9.5319216587e+01 9.0580373961e+01 0.0000e+00 0.0000e+00
      -13  1    2    2    0    0 -3.9082470958e+01 +2.6959753839e+01 -2.7697267927e+01 5.4967423789e+01 1.0566000000e-01 0.0000e+00 -1.0000e+00
       13  1    2    2    0    0 +1.1212417389e+01 -3.3357981686e+01 +1.9742917013e+01 4.0351792799e+01 1.0566000000e-01 0.0000e+00 1.0000e+00
       22  1    1    0    0    0 +2.7870053569e+01 +6.3982278467e+00 +7.9543509143e+00 2.9680783413e+01 0.0000000000e+00 0.0000e+00 -1.0000e+00
</event>
<event>
 4      1 +2.4041262e-06 9.11880000e+01 7.81860800e-03 1.13011600e-01
       25 -1    0    0    0    0 +0.0000000000e+00 +0.0000000000e+00 +9.9999998245e-15 1.2500000000e+02 1.2500000000e+02 0.0000e+00 0.0000e+00
      -13  1    1    0    0    0 +1.8497710767e+01 +9.7456151057e+00 +5.8899036652e+01 6.2500000000e+01 1.0566000000e-01 0.0000e+00 1.0000e+00
       13  1    1    0    0    0 -1.8497710755e+01 -9.7456151001e+00 -5.8899036613e+01 6.2499999958e+01 1.0566000000e-01 0.0000e+00 1.0000e+00
       22  1    1    0    0    0 -1.1828415102e-08 -5.6008542706e-09 -3.9391250726e-08 4.1508452225e-08 0.0000000000e+00 0.0000e+00 -1.0000e+00
</event>
<event>
 4      1 +2.4041262e-06 9.11880000e+01 7.81860800e-03 1.13011600e-01
       25 -1    0    0    0    0 +0.0000000000e+00 +0.0000000000e+00 +9.9999998245e-15 1.2500000000e+02 1.2500000000e+02 0.0000e+00 0.0000e+00
      -13  1    1    0    0    0 +5.7686432678e+01 +2.2639026944e+01 +8.1232566287e+00 6.2499988147e+01 1.0566000000e-01 0.0000e+00 -1.0000e+00
       13  1    1    0    0    0 -5.7668788269e+01 -2.2632900685e+01 -8.1213947483e+00 6.2481241589e+01 1.0566000000e-01 0.0000e+00 -1.0000e+00
       22  1    1    0    0    0 -1.7644409106e-02 -6.1262592168e-03 -1.8618804018e-03 1.8770264338e-02 0.0000000000e+00 0.0000e+00 1.0000e+00
</event>
<event>
 4      1 +2.4041262e-06 9.11880000e+01 7.81860800e-03 1.13011600e-01
       25 -1    0    0    0    0 +0.0000000000e+00 +0.0000000000e+00 +9.9999998245e-15 1.2500000000e+02 1.2500000000e+02 0.0000e+00 0.0000e+00
      -13  1    1    0    0    0 +3.2886922251e+01 -3.3589197662e+01 +3.3432543312e+01 5.7684746432e+01 1.0566000000e-01 0.0000e+00 -1.0000e+00
       13  1    1    0    0    0 +3.3823730509e+00 -2.1879742767e+00 +2.7056233527e+00 4.8537862183e+00 1.0566000000e-01 0.0000e+00 1.0000e+00
       22  1    1    0    0    0 -3.6269295301e+01 +3.5777171938e+01 -3.6138166664e+01 6.2461467349e+01 0.0000000000e+00 0.0000e+00 -1.0000e+00
</event>
<event>
 4      1 +2.4041262e-06 9.11880000e+01 7.81860800e-03 1.13011600e-01
       25 -1    0    0    0    0 +0.0000000000e+00 +0.0000000000e+00 +9.9999998245e-15 1.2500000000e+02 1.2500000000e+02 0.0000e+00 0.0000e+00
      -13  1    1    0    0    0 -5.4450387530e+01 -1.9193937205e+01 -2.1380056100e+01 6.1565979976e+01 1.0566000000e-01 0.0000e+00 -1.0000e+00
       13  1    1    0    0    0 -3.0537707180e-01 -4.0114368881e-01 -9.9615528584e-01 1.1214547713e+00 1.0566000000e-01 0.0000e+00 1.0000e+00
       22  1    1    0    0    0 +5.4755764601e+01 +1.9595080894e+01 +2.2376211386e+01 6.2312565252e+01 0.0000000000e+00 0.0000e+00 -1.0000e+00
</event>
<event>
 4      1 +2.4041262e-06 9.11880000e+01 7.81860800e-03 1.13011600e-01
       25 -1    0    0    0    0 +0.0000000000e+00 +0.0000000000e+00 +9.9999998245e-15 1.2500000000e+02 1.2500000000e+02 0.0000e+00 0.0000e+00
      -11  1    1    0    0    0 -3.3873301143e-01 -3.9263052571e-01 +1.7012336515e+00 1.7785092018e+00 5.1100000000e-04 0.0000e+00 1.0000e+00
       11  1    1    0    0    0 -1.2870981415e+01 -1.8120367739e+01 +5.6510754363e+01 6.0724585206e+01 5.1100000000e-04 0.0000e+00 -1.0000e+00
       22  1    1    0    0    0 +1.3209714426e+01 +1.8512998264e+01 -5.8211988014e+01 6.2496905592e+01 0.0000000000e+00 0.0000e+00 -1.0000e+00
</event>
<event>
 5      1 +2.4041262e-06 9.11880000e+01 7.81860800e-03 1.13011600e-01
       25 -1    0    0    0    0 +0.0000000000e+00 +0.0000000000e+00 +9.9999998245e-15 1.2500000000e+02 1.2500000000e+02 0.0000e+00 0.0000e+00
       23  2    1    0    0    0 +2.4535982836e+01 -1.3084483777e+01 +1.2607845789e+01 9.4468443458e+01 8.9398606613e+01 0.0000e+00 0.0000e+00
      -13  1    2    2    0    0 -3.3848432534e+01 -9.3184256172e+00 +5.3850976477e+00 3.5518444247e+01 1.0566000000e-01 0.0000e+00 1.0000e+00
       13  1    2    2    0    0 +5.8384415370e+01 -3.7660581599e+00 +7.2227481413e+00 5.8949999211e+01 1.0566000000e-01 0.0000e+00 -1.0000e+00
       22  1    1    0    0    0 -2.4535982836e+01 +1.3084483777e+01 -1.2607845789e+01 3.0531556542e+01 0.0000000000e+00 0.0000e+00 -1.0000e+00
</event>
<event>
 4      1 +2.4041262e-06 9.11880000e+01 7.81860800e-03 1.13011600e-01
       25 -1    0    0    0    0 +0.0000000000e+00 +0.0000000000e+00 +9.9999998245e-15 1.2500000000e+02 1.2500000000e+02 0.0000e+00 0.0000e+00
      -13  1    1    0    0    0 -4.1335149567e+01 -2.9502448637e-01 +4.6878110099e+01 6.2499999997e+01 1.0566000000e-01 0.0000e+00 1.0000e+00
       13  1    1    0    0    0 +4.1335072154e+01 +2.9502374915e-01 -4.6878024063e+01 6.2499884264e+01 1.0566000000e-01 0.0000e+00 1.0000e+00
       22  1    1    0    0    0 +7.7412220994e-05 +7.3722546637e-07 -8.6036208133e-05 1.1573860450e-04 0.0000000000e+00 0.0000e+00 -1.0000e+00
</event>
<event>
 4      1 +2.4041262e-06 9.11880000e+01 7.81860800e-03 1.13011600e-01
       25 -1    0    0    0    0 +0.0000000000e+00 +0.0000000000e+00 +9.9999998245e-15 1.2500000000e+02 1.2500000000e+02 0.0000e+00 0.0000e+00
      -13  1    1    0    0    0 -5.1955426897e+01 -3.2184242480e+01 +1.3078493057e+01 6.2499999942e+01 1.0566000000e-01 0.0000e+00 -1.0000e+00
       13  1    1    0    0    0 +5.1955426796e+01 +3.2184242076e+01 -1.3078492954e+01 6.2499999629e+01 1.0566000000e-01 0.0000e+00 -1.0000e+00
       22  1    1    0    0    0 +1.0091714770e-07 +4.0390428233e-07 -1.0355311705e-07 4.2900604663e-07 0.0000000000e+00 0.0000e+00 1.0000e+00
</event>
<event>
 5      1 +2.4041262e-06 9.11880000e+01 7.81860800e-03 1.13011600e-01
       25 -1    0    0    0    0 +0.0000000000e+00 +0.0000000000e+00 +9.9999998245e-15 1.2500000000e+02 1.2500000000e+02 0.0000e+00 0.0000e+00
       23  2    1    0    0    0 +1.6630418279e+01 +7.2170678099e+00 +2.3335445502e+01 9.5450044049e+01 9.0760734970e+01 0.0000e+00 0.0000e+00
      -13  1    2    2    0    0 +1.3133170416e+01 +1.0775455871e+01 -3.3941772054e+01 3.7955838400e+01 1.0566000000e-01 0.0000e+00 1.0000e+00
       13  1    2    2    0    0 +3.4972478627e+00 -3.5583880614e+00 +5.7277217556e+01 5.7494205649e+01 1.0566000000e-01 0.0000e+00 -1.0000e+00
       22  1    1    0    0    0 -1.6630418279e+01 -7.2170678099e+00 -2.3335445502e+01 2.9549955951e+01 0.0000000000e+00 0.0000e+00 -1.0000e+00
</event>
<event>
 4      1 +2.4041262e-06 9.11880000e+01 7.81860800e-03 1.13011600e-01
       25 -1    0    0    0    0 +0.0000000000e+00 +0.0000000000e+00 +9.9999998245e-15 1.2500000000e+02 1.2500000000e+02 0.0000e+00 0.0000e+00
      -13  1    1    0    0    0 +3.4986479330e+01 -1.4274265767e+01 +4.9783837105e+01 6.2500000000e+01 1.0566000000e-01 0.0000e+00 -1.0000e+00
       13  1    1    0    0    0 -3.4986479329e+01 +1.4274265767e+01 -4.9783837104e+01 6.2499999999e+01 1.0566000000e-01 0.0000e+00 -1.0000e+00
       22  1    1    0    0    0 -5.1285103939e-10 +2.5895039454e-10 -9.0260253513e-10 1.0699359008e-09 0.0000000000e+00 0.0000e+00 1.0000e+00
</event>
<event>
 5      1 +2.4041262e-06 9.11880000e+01 7.81860800e-03 1.13011600e-01
       25 -1    0    0    0    0 +0.0000000000e+00 +0.0000000000e+00 +9.9999998245e-15 1.2500000000e+02 1.2500000000e+02 0.0000e+00 0.0000e+00
       23  2    1    0    0    0 +1.2042249607e+00 +1.5857242662e+01 +2.8871648045e+01 9.2038289434e+01 8.5933534540e+01 0.0000e+00 0.0000e+00
      -13  1    2    2    0    0 +2.1816595718e+01 +3.2263870953e+01 -1.4277523709e+01 4.1482286158e+01 1.0566000000e-01 0.0000e+00 -1.0000e+00
       13  1    2    2    0    0 -2.0612370758e+01 -1.6406628291e+01 +4.3149171754e+01 5.0556003276e+01 1.0566000000e-01 0.0000e+00 1.0000e+00
       22  1    1    0    0    0 -1.2042249607e+00 -1.5857242662e+01 -2.8871648045e+01 3.2961710566e+01 0.0000000000e+00 0.0000e+00 1.0000e+00
</event>
<event>
 5      1 +2.4041262e-06 9.11880000e+01 7.81860800e-03 1.13011600e-01
       25 -1    0    0    0    0 +0.0000000000e+00 +0.0000000000e+00 +9.9999998245e-15 1.2500000000e+02 1.2500000000e+02 0.0000e+00 0.0000e+00
       23  2    1    0    0    0 +1.3328311774e+01 -2.3005238550e+01 +1.0383717484e+00 9.8392423797e+01 9.4726479663e+01 0.0000e+00 0.0000e+00
      -11  1    2    2    0    0 +5.3380590582e+01 -2.1574979298e+01 +6.5108576892e+00 5.7942716977e+01 5.1100000000e-04 0.0000e+00 1.0000e+00
       11  1    2    2    0    0 -4.0052278808e+01 -1.4302592516e+00 -5.4724859408e+00 4.0449706820e+01 5.1100000000e-04 0.0000e+00 -1.0000e+00
       22  1    1    0    0    0 -1.3328311774e+01 +2.3005238550e+01 -1.0383717484e+00 2.6607576203e+01 0.0000000000e+00 0.0000e+00 -1.0000e+00
</event>
<event>
 4      1 +2.4041262e-06 9.11880000e+01 7.81860800e-03 1.13011600e-01
       25 -1    0    0    0    0 +0.0000000000e+00 +0.0000000000e+00 +9.9999998245e-15 1.2500000000e+02 1.2500000000e+02 0.0000e+00 0.0000e+00
      -13  1    1    0    0    0 +2.1791948730e+01 +3.1114853671e+01 +4.9630789201e+01 6.2499996393e+01 1.0566000000e-01 0.0000e+00 -1.0000e+00
       13  1    1    0    0    0 -2.1791948653e+01 -3.1114856308e+01 -4.9630791906e+01 6.2499999828e+01 1.0566000000e-01 0.0000e+00 -1.0000e+00
       22  1    1    0    0    0 -7.6978616732e-08 +2.6370526041e-06 +2.7055995246e-06 3.7789206041e-06 0.0000000000e+00 0.0000e+00 -1.0000e+00
</event>
<event>
 4      1 +2.4041262e-06 9.11880000e+01 7.81860800e-03 1.13011600e-01
       25 -1    0    0    0    0 +0.0000000000e+00 +0.0000000000e+00 +9.9999998245e-15 1.2500000000e+02 1.2500000000e+02 0.0000e+00 0.0000e+00
      -11  1    1    0    0    0 +5.0116944077e-01 -2.1779832528e+00 +2.9218181052e+00 3.6785599300e+00 5.1100000000e-04 0.0000e+00 1.0000e+00
       11  1    1    0    0    0 +8.0100664701e+00 -3.4822343156e+01 +4.6724780016e+01 5.8821440101e+01 5.1100000000e-04 0.0000e+00 1.0000e+00
       22  1    1    0    0    0 -8.5112359109e+00 +3.7000326409e+01 -4.9646598121e+01 6.2499999969e+01 0.0000000000e+00 0.0000e+00 1.0000e+00
</event>
<event>
 4      1 +2.4041262e-06 9.11880000e+01 7.81860800e-03 1.13011600e-01
       25 -1    0    0    0    0 +0.0000000000e+00 +0.0000000000e+00 +9.9999998245e-15 1.2500000000e+02 1.2500000000e+02 0.0000e+00 0.0000e+00
      -13  1    1    0    0    0 +2.3965916027e+00 +4.5588846990e+01 +4.2686674907e+01 6.2499999998e+01 1.0566000000e-01 0.0000e+00 1.0000e+00
       13  1    1    0    0    0 -2.3965915479e+00 -4.5588842692e+01 -4.2686671017e+01 6.2499994204e+01 1.0566000000e-01 0.0000e+00 1.0000e+00
       22  1    1    0    0    0 -5.4818631423e-08 -4.2980492398e-06 -3.8902406922e-06 5.7974308959e-06 0.0000000000e+00 0.0000e+00 1.0000e+00
</event>
<event>
 4      1 +2.4041262e-06 9.11880000e+01 7.81860800e-03 1.13011600e-01
       25 -1    0    0    0    0 +0.0000000000e+00 +0.0000000000e+00 +9.9999998245e-15 1.2500000000e+02 1.2500000000e+02 0.0000e+00 0.0000e+00
      -11  1    1    0    0    0 -1.8236503938e+01 -2.5455873296e+01 +1.2692696165e+01 3.3788697775e+01 5.1100000000e-04 0.0000e+00 -1.0000e+00
       11  1    1    0    0    0 -1.0129105889e+01 -2.5850639480e+01 +8.2390887440e+00 2.8960955289e+01 5.1100000000e-04 0.0000e+00 1.0000e+00
       22  1    1    0    0    0 +2.8365609827e+01 +5.1306512777e+01 -2.0931784909e+01 6.2250346936e+01 0.0000000000e+00 0.0000e+00 1.0000e+00
</event>
<event>
 4      1 +2.4041262e-06 9.11880000e+01 7.81860800e-03 1.13011600e-01
       25 -1    0    0    0    0 +0.0000000000e+00 +0.0000000000e+00 +9.9999998245e-15 1.2500000000e+02 1.2500000000e+02 0.0000e+00 0.0000e+00
      -13  1    1    0    0    0 +1.9915613899e+01 +5.8487077558e+01 +4.7348815477e+00 6.1966121273e+01 1.0566000000e-01 0.0000e+00 -1.0000e+00
       13  1    1    0    0    0 -2.0322724086e+01 -5.8261090469e+01 -5.6955983163e+00 6.1966271319e+01 1.0566000000e-01 0.0000e+00 -1.0000e+00
       22  1    1    0    0    0 +4.0711018699e-01 -2.2598708923e-01 +9.6071676861e-01 1.0676074083e+00 0.0000000000e+00 0.0000e+00 1.0000e+00
</event>
<event>
 4      1 +2.4041262e-06 9.11880000e+01 7.81860800e-03 1.13011600e-01
       25 -1    0    0    0    0 +0.0000000000e+00 +0.0000000000e+00 +9.9999998245e-15 1.2500000000e+02 1.2500000000e+02 0.0000e+00 0.0000e+00
      -11  1    1    0    0    0 +1.5228134720e+00 +2.1351997486e+00 -4.5134625401e+00 5.2200941753e+00 5.1100000000e-04 0.0000e+00 -1.0000e+00
       11  1    1    0    0    0 -4.2031964263e+01 -5.0962364832e+00 -4.0889122691e+01 5.8860665990e+01 5.1100000000e-04 0.0000e+00 1.0000e+00
       22  1    1    0    0    0 +4.0509150791e+01 +2.9610367346e+00 +4.5402585231e+01 6.0919239835e+01 0.0000000000e+00 0.0000e+00 1.0000e+00
</event>
<event>
 4      1 +2.4041262e-06 9.11880000e+01 7.81860800e-03 1.13011600e-01
       25 -1    0    0    0    0 +0.0000000000e+00 +0.0000000000e+00 +9.9999998245e-15 1.2500000000e+02 1.2500000000e+02 0.0000e+00 0.0000e+00
      -11  1    1    0    0    0 -8.9866485522e+00 -1.8163185731e+00 +3.3562879185e+01 3.4792610204e+01 5.1100000000e-04 0.0000e+00 -1.0000e+00
       11  1    1    0    0    0 -4.9020873646e+00 -3.1795680558e+00 +2.7126658522e+01 2.7748796666e+01 5.1100000000e-04 0.0000e+00 1.0000e+00
       22  1    1    0    0    0 +1.3888735917e+01 +4.9958866290e+00 -6.0689537708e+01 6.2458593130e+01 0.0000000000e+00 0.0000e+00 -1.0000e+00
</event>
<event>
 4      1 +2.4041262e-06 9.11880000e+01 7.81860800e-03 1.13011600e-01
       25 -1    0    0    0    0 +0.0000000000e+00 +0.0000000000e+00 +9.9999998245e-15 1.2500000000e+02 1.2500000000e+02 0.0000e+00 0.0000e+00
      -13  1    1    0    0    0 +2.5331229955e+01 -4.2157330468e+01 +2.3796376812e+01 5.4636896294e+01 1.0566000000e-01 0.0000e+00 -1.0000e+00
       13  1    1    0    0    0 -2.9168250883e+01 +4.8938241341e+01 -2.5451262709e+01 6.2398046946e+01 1.0566000000e-01 0.0000e+00 -1.0000e+00
       22  1    1    0    0    0 +3.8370209278e+00 -6.7809108727e+00 +1.6548858967e+00 7.9650567604e+00 0.0000000000e+00 0.0000e+00 1.0000e+00
</event>
<event>
 4      1 +2.4041262e-06 9.11880000e+01 7.81860800e-03 1.13011600e-01
       25 -1    0    0    0    0 +0.0000000000e+00 +0.0000000000e+00 +9.9999998245e-15 1.2500000000e+02 1.2500000000e+02 0.0000e+00 0.0000e+00
      -13  1    1    0    0    0 -8.9768274417e+00 +1.0947489449e+01 -6.0875077054e+01 6.2499737012e+01 1.0566000000e-01 0.0000e+00 -1.0000e+00
       13  1    1    0    0    0 +8.9768661868e+00 -1.0947537022e+01 +6.0875332789e+01 6.2499999997e+01 1.0566000000e-01 0.0000e+00 -1.0000e+00
       22  1    1    0    0    0 -3.8745123327e-05 +4.7573050833e-05 -2.5573473635e-04 2.6299170163e-04 0.0000000000e+00 0.0000e+00 -1.0000e+00
</event>
<event>
 4      1 +2.4041262e-06 9.11880000e+01 7.81860800e-03 1.13011600e-01
       25 -1    0    0    0    0 +0.0000000000e+00 +0.0000000000e+00 +9.9999998245e-15 1.2500000000e+02 1.2500000000e+02 0.0000e+00 0.0000e+00
      -11  1    1    0    0    0 +2.7518545642e+00 -4.9487012745e+00 -8.1236916147e+00 9.9023589896e+00 5.1100000000e-04 0.0000e+00 -1.0000e+00
       11  1    1    0    0    0 +1.4618799980e+01 -2.6286746311e+01 -4.3148690554e+01 5.2597641023e+01 5.1100000000e-04 0.0000e+00 -1.0000e+00
       22  1    1    0    0    0 -1.7370654545e+01 +3.1235447585e+01 +5.1272382168e+01 6.2499999987e+01 0.0000000000e+00 0.0000e+00 -1.0000e+00
</event>
<event>
 4      1 +2.4041262e-06 9.11880000e+01 7.81860800e-03 1.13011600e-01
       25 -1    0    0    0    0 +0.0000000000e+00 +0.0000000000e+00 +9.9999998245e-15 1.2500000000e+02 1.2500000000e+02 0.0000e+00 0.0000e+00
      -13  1    1    0    0    0 +4.6694158463e+01 -1.5777203314e+01 -3.8367849350e+01 6.2460928641e+01 1.0566000000e-01 0.0000e+00 -1.0000e+00
       13  1    1    0    0    0 -4.6724018872e+01 +1.5783026768e+01 +3.8392540484e+01 6.2499889619e+01 1.0566000000e-01 0.0000e+00 -1.0000e+00
       22  1    1    0    0    0 +2.9860408885e-02 -5.8234541489e-03 -2.4691134153e-02 3.9181739915e-02 0.0000000000e+00 0.0000e+00 1.0000e+00
</event>
<event>
 4      1 +2.4041262e-06 9.11880000e+01 7.81860800e-03 1.13011600e-01
       25 -1    0    0    0    0 +0.0000000000e+00 +0.0000000000e+00 +9.9999998245e-15 1.2500000000e+02 1.2500000000e+02 0.0000e+00 0.0000e+00
      -13  1    1    0    0    0 +3.6851316502e+01 -1.0499823584e+01 -4.9374068470e+01 6.2498604981e+01 1.0566000000e-01 0.0000e+00 1.0000e+00
       13  1    1    0    0    0 -3.6852137135e+01 +1.0500068590e+01 +4.9375169684e+01 6.2499999978e+01 1.0566000000e-01 0.0000e+00 1.0000e+00
       22  1    1    0    0    0 +8.2063341090e-04 -2.4500595637e-04 -1.1012140824e-03 1.3950410636e-03 0.0000000000e+00 0.0000e+00 -1.0000e+00
</event>
<event>
 4      1 +2.4041262e-06 9.11880000e+01 7.81860800e-03 1.13011600e-01
       25 -1    0    0    0    0 +0.0000000000e+00 +0.0000000000e+00 +9.9999998245e-15 1.2500000000e+02 1.2500000000e+02 0.0000e+00 0.0000e+00
      -11  1    1    0    0    0 -3.1193499950e+00 -2.8073362063e+01 -3.3210503233e+01 4.3597953245e+01 5.1100000000e-04 0.0000e+00 -1.0000e+00
       11  1    1    0    0    0 -1.4895644396e+00 -1.2001888421e+01 -1.4527408898e+01 1.8902638372e+01 5.1100000000e-04 0.0000e+00 1.0000e+00
       22  1    1    0    0    0 +4.6089144346e+00 +4.0075250484e+01 +4.7737912130e+01 6.2499408383e+01 0.0000000000e+00 0.0000e+00 -1.0000e+00
</event>
<event>
 4      1 +2.4041262e-06 9.11880000e+01 7.81860800e-03 1.13011600e-01
       25 -1    0    0    0    0 +0.0000000000e+00 +0.0000000000e+00 +9.9999998245e-15 1.2500000000e+02 1.2500000000e+02 0.0000e+00 0.0000e+00
      -11  1    1    0    0    0 +1.9437000503e+01 -4.5050239071e+01 -1.6029230814e+01 5.1616443791e+01 5.1100000000e-04 0.0000e+00 -1.0000e+00
       11  1    1    0    0    0 +6.1567889018e+00 -9.1061514676e+00 -1.1944874253e+00 1.1056891272e+01 5.1100000000e-04 0.0000e+00 1.0000e+00
       22  1    1    0    0    0 -2.5593789404e+01 +5.4156390538e+01 +1.7223718239e+01 6.2326664937e+01 0.0000000000e+00 0.0000e+00 -1.0000e+00
</event>
<event>
 4      1 +2.4041262e-06 9.11880000e+01 7.81860800e-03 1.13011600e-01
       25 -1    0    0    0    0 +0.0000000000e+00 +0.0000000000e+00 +9.9999998245e-15 1.2500000000e+02 1.2500000000e+02 0.0000e+00 0.0000e+00
      -13  1    1    0    0    0 +3.9048153836e+01 -4.1939141121e+01 +2.4951732577e+01 6.2499999989e+01 1.0566000000e-01 0.0000e+00 -1.0000e+00
       13  1    1    0    0    0 -3.9047013224e+01 +4.1937914755e+01 -2.4951012650e+01 6.2498177029e+01 1.0566000000e-01 0.0000e+00 -1.0000e+00
       22  1    1    0    0    0 -1.1406120870e-03 +1.2263659183e-03 -7.1992652624e-04 1.8229820356e-03 0.0000000000e+00 0.0000e+00 1.0000e+00
</event>
<event>
 4      1 +2.4041262e-06 9.11880000e+01 7.81860800e-03 1.13011600e-01
       25 -1    0    0    0    0 +0.0000000000e+00 +0.0000000000e+00 +9.9999998245e-15 1.2500000000e+02 1.2500000000e+02 0.0000e+00 0.0000e+00
      -13  1    1    0    0    0 -4.5992372710e+01 -2.0608592478e+01 +3.5474659196e+01 6.1631769734e+01 1.0566000000e-01 0.0000e+00 1.0000e+00
       13  1    1    0    0    0 +4.6630481488e+01 +2.0869642444e+01 -3.6003217897e+01 6.2499493138e+01 1.0566000000e-01 0.0000e+00 1.0000e+00
       22  1    1    0    0    0 -6.3810877780e-01 -2.6104996600e-01 +5.2855870130e-01 8.6873712813e-01 0.0000000000e+00 0.0000e+00 -1.0000e+00
</event>
<event>
 4      1 +2.4041262e-06 9.11880000e+01 7.81860800e-03 1.13011600e-01
       25 -1    0    0    0    0 +0.0000000000e+00 +0.0000000000e+00 +9.9999998245e-15 1.2500000000e+02 1.2500000000e+02 0.0000e+00 0.0000e+00
      -13  1    1    0    0    0 +3.1198996228e+01 -4.8315251507e+01 +2.4462328456e+01 6.2499260566e+01 1.0566000000e-01 0.0000e+00 1.0000e+00
       13  1    1    0    0    0 -3.1199017647e+01 +4.8315960366e+01 -2.4462669232e+01 6.2499952625e+01 1.0566000000e-01 0.0000e+00 1.0000e+00
       22  1    1    0    0    0 +2.1419273415e-05 -7.0885845965e-04 +3.4077576259e-04 7.8680824948e-04 0.0000000000e+00 0.0000e+00 1.0000e+00
</event>
<event>
 4      1 +2.4041262e-06 9.11880000e+01 7.81860800e-03 1.13011600e-01
       25 -1    0    0    0    0 +0.0000000000e+00 +0.0000000000e+00 +9.9999998245e-15 1.2500000000e+02 1.2500000000e+02 0.0000e+00 0.0000e+00
      -11  1    1    0    0    0 +3.0869171982e+01 -2.5243460763e+01 -1.4499815108e+01 4.2430917131e+01 5.1100000000e-04 0.0000e+00 -1.0000e+00
       11  1    1    0    0    0 -2.0057141447e+01 -2.0047889622e+01 +2.1359379637e+01 3.5502533713e+01 5.1100000000e-04 0.0000e+00 1.0000e+00
       22  1    1    0    0    0 -1.0812030535e+01 +4.5291350385e+01 -6.8595645290e+00 4.7066549156e+01 0.0000000000e+00 0.0000e+00 1.0000e+00
</event>
<event>
 4      1 +2.4041262e-06 9.11880000e+01 7.81860800e-03 1.13011600e-01
       25 -1    0    0    0    0 +0.0000000000e+00 +0.0000000000e+00 +9.9999998245e-15 1.2500000000e+02 1.2500000000e+02 0.0000e+00 0.0000e+00
      -13  1    1    0    0    0 +3.5718069914e+01 +4.5020939581e+01 +2.4567729176e+01 6.2500000000e+01 1.0566000000e-01 0.0000e+00 1.0000e+00
       13  1    1    0    0    0 -3.5718069914e+01 -4.5020939580e+01 -2.4567729176e+01 6.2500000000e+01 1.0566000000e-01 0.0000e+00 1.0000e+00
       22  1    1    0    0    0 -2.6919439899e-10 -4.5512613862e-10 +2.1702481698e-10 5.7158131328e-10 0.0000000000e+00 0.0000e+00 -1.0000e+00
</event>
<event>
 4      1 +2.4041262e-06 9.11880000e+01 7.81860800e-03 1.13011600e-01
       25 -1    0    0    0    0 +0.0000000000e+00 +0.0000000000e+00 +9.9999998245e-15 1.2500000000e+02 1.2500000000e+02 0.0000e+00 0.0000e+00
      -13  1    1    0    0    0 -1.2738356497e+01 +3.0674646247e+01 -5.2943569539e+01 6.2499858945e+01 1.0566000000e-01 0.0000e+00 -1.0000e+00
       13  1    1    0    0    0 +4.7145491746e+00 -1.1259743954e+01 +1.9364974233e+01 2.2891531161e+01 1.0566000000e-01 0.0000e+00 -1.0000e+00
       22  1    1    0    0    0 +8.0238073226e+00 -1.9414902292e+01 +3.3578595306e+01 3.9608609894e+01 0.0000000000e+00 0.0000e+00 -1.0000e+00
</event>
<event>
 4      1 +2.4041262e-06 9.11880000e+01 7.81860800e-03 1.13011600e-01
       25 -1    0    0    0    0 +0.0000000000e+00 +0.0000000000e+00 +9.9999998245e-15 1.2500000000e+02 1.2500000000e+02 0.0000e+00 0.0000e+00
      -13  1    1    0    0    0 -3.0090515409e+01 +5.2647865737e+00 -1.2292463085e+01 3.2928299500e+01 1.0566000000e-01 0.0000e+00 1.0000e+00
       13  1    1    0    0    0 -2.7362582089e+01 +6.6577448550e+00 -9.1333205032e+00 2.9605154493e+01 1.0566000000e-01 0.0000e+00 -1.0000e+00
       22  1    1    0    0    0 +5.7453097497e+01 -1.1922531429e+01 +2.1425783588e+01 6.2466546007e+01 0.0000000000e+00 0.0000e+00 -1.0000e+00
</event>
<event>
 4      1 +2.4041262e-06 9.11880000e+01 7.81860800e-03 1.13011600e-01
       25 -1    0    0    0    0 +0.0000000000e+00 +0.0000000000e+00 +9.9999998245e-15 1.2500000000e+02 1.2500000000e+02 0.0000e+00 0.0000e+00
      -13  1    1    0    0    0 +4.2738816274e+01 +4.4878476942e+01 -8.0945922203e+00 6.2499741571e+01 1.0566000000e-01 0.0000e+00 1.0000e+00
       13  1    1    0    0    0 -4.2738959627e+01 -4.4878668100e+01 +8.0947098676e+00 6.2499992098e+01 1.0566000000e-01 0.0000e+00 1.0000e+00
       22  1    1    0    0    0 +1.4335247652e-04 +1.9115758717e-04 -1.1764733675e-04 2.6633071828e-04 0.0000000000e+00 0.0000e+00 1.0000e+00
</event>
<event>
 5      1 +2.4041262e-06 9.11880000e+01 7.81860800e-03 1.13011600e-01
       25 -1    0    0    0    0 +0.0000000000e+00 +0.0000000000e+00 +9.9999998245e-15 1.2500000000e+02 1.2500000000e+02 0.0000e+00 0.0000e+00
       23  2    1    0    0    0 -1.1821210492e+01 -3.8857888753e+00 +2.5979860938e+01 9.6193862684e+01 9.1779440350e+01 0.0000e+00 0.0000e+00
      -13  1    2    2    0    0 +3.8389431975e+00 -4.3922790571e+01 -3.2458512823e+00 4.4209679155e+01 1.0566000000e-01 0.0000e+00 1.0000e+00
       13  1    2    2    0    0 -1.5660153690e+01 +4.0037001695e+01 +2.9225712221e+01 5.1984183529e+01 1.0566000000e-01 0.0000e+00 -1.0000e+00
       22  1    1    0    0    0 +1.1821210492e+01 +3.8857888753e+00 -2.5979860938e+01 2.8806137316e+01 0.0000000000e+00 0.0000e+00 -1.0000e+00
</event>
<event>
 4      1 +2.4041262e-06 9.11880000e+01 7.81860800e-03 1.13011600e-01
       25 -1    0    0    0    0 +0.0000000000e+00 +0.0000000000e+00 +9.9999998245e-15 1.2500000000e+02 1.2500000000e+02 0.0000e+00 0.0000e+00
      -13  1    1    0    0    0 +5.3916224593e+01 -2.5488361997e+01 +1.8698207506e+01 6.2499999997e+01 1.0566000000e-01 0.0000e+00 -1.0000e+00
       13  1    1    0    0    0 -5.3915976786e+01 +2.5488246899e+01 -1.8698122032e+01 6.2499713714e+01 1.0566000000e-01 0.0000e+00 -1.0000e+00
       22  1    1    0    0    0 -2.4780740704e-04 +1.1509719582e-04 -8.5473364667e-05 2.8628931440e-04 0.0000000000e+00 0.0000e+00 -1.0000e+00
</event>
<event>
 4      1 +2.4041262e-06 9.11880000e+01 7.81860800e-03 1.13011600e-01
       25 -1    0    0    0    0 +0.0000000000e+00 +0.0000000000e+00 +9.9999998245e-15 1.2500000000e+02 1.2500000000e+02 0.0000e+00 0.0000e+00
      -13  1    1    0    0    0 +1.2452073027e+01 +1.9200685734e+01 -5.8159422089e+01 6.2499999976e+01 1.0566000000e-01 0.0000e+00 -1.0000e+00
       13  1    1    0    0    0 -1.2452062180e+01 -1.9200672222e+01 +5.8159374671e+01 6.2499949539e+01 1.0566000000e-01 0.0000e+00 -1.0000e+00
       22  1    1    0    0    0 -1.0846505409e-05 -1.3511625258e-05 +4.7417917442e-05 5.0484349963e-05 0.0000000000e+00 0.0000e+00 1.0000e+00
</event>
<event>
 4      1 +2.4041262e-06 9.11880000e+01 7.81860800e-03 1.13011600e-01
       25 -1    0    0    0    0 +0.0000000000e+00 +0.0000000000e+00 +9.9999998245e-15 1.2500000000e+02 1.2500000000e+02 0.0000e+00 0.0000e+00
      -11  1    1    0    0    0 +7.3369369003e+00 +1.0917609450e+01 -3.4354748509e+00 1.3595121437e+01 5.1100000000e-04 0.0000e+00 1.0000e+00
       11  1    1    0    0    0 +2.6866325877e+01 +3.9318348467e+01 -1.1141844368e+01 4.8906775487e+01 5.1100000000e-04 0.0000e+00 -1.0000e+00
       22  1    1    0    0    0 -3.4203262777e+01 -5.0235957918e+01 +1.4577319219e+01 6.2498103076e+01 0.0000000000e+00 0.0000e+00 -1.0000e+00
</event>
<event>
 4      1 +2.4041262e-06 9.11880000e+01 7.81860800e-03 1.13011600e-01
       25 -1    0    0    0    0 +0.0000000000e+00 +0.0000000000e+00 +9.9999998245e-15 1.2500000000e+02 1.2500000000e+02 0.0000e+00 0.0000e+00
      -13  1    1    0    0    0 -1.1012976329e+01 -3.1423454238e+00 -6.9677849683e+00 1.3406012599e+01 1.0566000000e-01 0.0000e+00 -1.0000e+00
       13  1    1    0    0    0 -4.4658752569e+01 -2.2409982759e+01 +2.1020241746e-01 4.9966657457e+01 1.0566000000e-01 0.0000e+00 1.0000e+00
       22  1    1    0    0    0 +5.5671728899e+01 +2.5552328183e+01 +6.7575825508e+00 6.1627329944e+01 0.0000000000e+00 0.0000e+00 1.0000e+00
</event>
<event>
 4      1 +2.4041262e-06 9.11880000e+01 7.81860800e-03 1.13011600e-01
       25 -1    0    0    0    0 +0.0000000000e+00 +0.0000000000e+00 +9.9999998245e-15 1.2500000000e+02 1.2500000000e+02 0.0000e+00 0.0000e+00
      -13  1    1    0    0    0 -2.1433065566e+01 -4.7550112409e+01 +3.1798313908e+01 6.1086278500e+01 1.0566000000e-01 0.0000e+00 1.0000e+00
       13  1    1    0    0    0 +2.3414374614e+01 +4.7468205704e+01 -2.8629993256e+01 6.0176001605e+01 1.0566000000e-01 0.0000e+00 1.0000e+00
       22  1    1    0    0    0 -1.9813090488e+00 +8.1906704783e-02 -3.1683206518e+00 3.7377198942e+00 0.0000000000e+00 0.0000e+00 1.0000e+00
</event>
<event>
 5      1 +2.4041262e-06 9.11880000e+01 7.81860800e-03 1.13011600e-01
       25 -1    0    0    0    0 +0.0000000000e+00 +0.0000000000e+00 +9.9999998245e-15 1.2500000000e+02 1.2500000000e+02 0.0000e+00 0.0000e+00
       23  2    1    0    0    0 -1.8400597824e+01 +1.2048772479e+01 -1.6586899244e+01 9.7452220687e+01 9.3477565072e+01 0.0000e+00 0.0000e+00
      -11  1    2    2    0    0 +4.6584009945e+00 -3.8875859082e+01 -1.3678836044e+01 4.1474614826e+01 5.1100000000e-04 0.0000e+00 1.0000e+00
       11  1    2    2    0    0 -2.3058998818e+01 +5.0924631561e+01 -2.9080632001e+00 5.5977605861e+01 5.1100000000e-04 0.0000e+00 -1.0000e+00
       22  1    1    0    0    0 +1.8400597824e+01 -1.2048772479e+01 +1.6586899244e+01 2.7547779313e+01 0.0000000000e+00 0.0000e+00 -1.0000e+00
</event>
<event>
 4      1 +2.4041262e-06 9.11880000e+01 7.81860800e-03 1.13011600e-01
       25 -1    0    0    0    0 +0.0000000000e+00 +0.0000000000e+00 +9.9999998245e-15 1.2500000000e+02 1.2500000000e+02 0.0000e+00 0.0000e+00
      -13  1    1    0    0    0 -3.0050468248e+01 -1.2544037130e+01 +2.3000878292e+01 3.9867719720e+01 1.0566000000e-01 0.0000e+00 1.0000e+00
       13  1    1    0    0    0 +4.8570150241e+01 +2.0919375179e+01 -3.3148921625e+01 6.2414276582e+01 1.0566000000e-01 0.0000e+00 1.0000e+00
       22  1    1    0    0    0 -1.8519681993e+01 -8.3753380493e+00 +1.0148043333e+01 2.2718003698e+01 0.0000000000e+00 0.0000e+00 1.0000e+00
</event>
<event>
 4      1 +2.4041262e-06 9.11880000e+01 7.81860800e-03 1.13011600e-01
       25 -1    0    0    0    0 +0.0000000000e+00 +0.0000000000e+00 +9.9999998245e-15 1.2500000000e+02 1.2500000000e+02 0.0000e+00 0.0000e+00
      -13  1    1    0    0    0 +2.5934448115e+01 +5.1003089042e+01 +2.5146135788e+01 6.2500000000e+01 1.0566000000e-01 0.0000e+00 -1.0000e+00
       13  1    1    0    0    0 -2.5934448071e+01 -5.1003088945e+01 -2.5146135734e+01 6.2499999880e+01 1.0566000000e-01 0.0000e+00 -1.0000e+00
       22  1    1    0    0    0 -4.3683758767e-08 -9.7368635416e-08 -5.4177269690e-08 1.1968332588e-07 0.0000000000e+00 0.0000e+00 -1.0000e+00
</event>
<event>
 4      1 +2.4041262e-06 9.11880000e+01 7.81860800e-03 1.13011600e-01
       25 -1    0    0    0    0 +0.0000000000e+00 +0.0000000000e+00 +9.9999998245e-15 1.2500000000e+02 1.2500000000e+02 0.0000e+00 0.0000e+00
      -11  1    1    0    0    0 -5.9851071075e+00 -1.3647065807e+01 +3.1130628447e+01 3.4513474760e+01 5.1100000000e-04 0.0000e+00 -1.0000e+00
       11  1    1    0    0    0 +4.0589564700e+00 -1.2815477929e+01 +2.5008879961e+01 2.8392880786e+01 5.1100000000e-04 0.0000e+00 1.0000e+00
       22  1    1    0    0    0 +1.9261506375e+00 +2.6462543736e+01 -5.6139508408e+01 6.2093644454e+01 0.0000000000e+00 0.0000e+00 -1.0000e+00
</event>
<event>
 4      1 +2.4041262e-06 9.11880000e+01 7.81860800e-03 1.13011600e-01
       25 -1    0    0    0    0 +0.0000000000e+00 +0.0000000000e+00 +9.9999998245e-15 1.2500000000e+02 1.2500000000e+02 0.0000e+00 0.0000e+00
      -13  1    1    0    0    0 +1.3706521922e+00 +5.6883306636e+01 +2.5858257369e+01 6.2499999196e+01 1.0566000000e-01 0.0000e+00 1.0000e+00
       13  1    1    0    0    0 -1.3706696206e+00 -5.6883169378e+01 -2.5858186118e+01 6.2499845176e+01 1.0566000000e-01 0.0000e+00 1.0000e+00
       22  1    1    0    0    0 +1.7428459356e-05 -1.3725766532e-04 -7.1251221129e-05 1.5562825706e-04 0.0000000000e+00 0.0000e+00 1.0000e+00
</event>
<event>
 5      1 +2.4041262e-06 9.11880000e+01 7.81860800e-03 1.13011600e-01
       25 -1    0    0    0    0 +0.0000000000e+00 +0.0000000000e+00 +9.9999998245e-15 1.2500000000e+02 1.2500000000e+02 0.0000e+00 0.0000e+00
       23  2    1    0    0    0 +9.8161033391e+00 -2.5339369602e+01 -6.1922968258e-01 9.7818701613e+01 9.3966352506e+01 0.0000e+00 0.0000e+00
      -13  1    2    2    0    0 +2.6154232637e+01 -5.4177332113e+01 +1.3720669042e+01 6.1704903555e+01 1.0566000000e-01 0.0000e+00 -1.0000e+00
       13  1    2    2    0    0 -1.6338129298e+01 +2.8837962511e+01 -1.4339898725e+01 3.6113798059e+01 1.0566000000e-01 0.0000e+00 1.0000e+00
       22  1    1    0    0    0 -9.8161033391e+00 +2.5339369602e+01 +6.1922968258e-01 2.7181298387e+01 0.0000000000e+00 0.0000e+00 -1.0000e+00
</event>
<event>
 5      1 +2.4041262e-06 9.11880000e+01 7.81860800e-03 1.13011600e-01
       25 -1    0    0    0    0 +0.0000000000e+00 +0.0000000000e+00 +9.9999998245e-15 1.2500000000e+02 1.2500000000e+02 0.0000e+00 0.0000e+00
       23  2    1    0    0    0 -2.8485963562e+01 +1.4129489704e+00 +1.3163852562e+01 9.3587684595e+01 8.8158500150e+01 0.0000e+00 0.0000e+00
      -13  1    2    2    0    0 -2.3013724074e+01 +2.4432369043e-01 -3.6749472133e+01 4.3361573494e+01 1.0566000000e-01 0.0000e+00 1.0000e+00
       13  1    2    2    0    0 -5.4722394882e+00 +1.1686252799e+00 +4.9913324695e+01 5.0226111100e+01 1.0566000000e-01 0.0000e+00 -1.0000e+00
       22  1    1    0    0    0 +2.8485963562e+01 -1.4129489704e+00 -1.3163852562e+01 3.1412315405e+01 0.0000000000e+00 0.0000e+00 -1.0000e+00
</event>
<event>
 5      1 +2.4041262e-06 9.11880000e+01 7.81860800e-03 1.13011600e-01
       25 -1    0    0    0    0 +0.0000000000e+00 +0.0000000000e+00 +9.9999998245e-15 1.2500000000e+02 1.2500000000e+02 0.0000e+00 0.0000e+00
       23  2    1    0    0    0 -1.8608189897e+01 +1.8516717188e+01 +2.8985608489e+00 9.8589108276e+01 9.4985667703e+01 0.0000e+00 0.0000e+00
      -11  1    2    2    0    0 -1.5914562060e+01 -4.8540209005e+00 +4.6312614762e+01 4.9210700979e+01 5.1100000000e-04 0.0000e+00 -1.0000e+00
       11  1    2    2    0    0 -2.6936278374e+00 +2.3370738088e+01 -4.3414053914e+01 4.9378407297e+01 5.1100000000e-04 0.0000e+00 1.0000e+00
       22  1    1    0    0    0 +1.8608189897e+01 -1.8516717188e+01 -2.8985608489e+00 2.6410891724e+01 0.0000000000e+00 0.0000e+00 1.0000e+00
</event>
<event>
 4      1 +2.4041262e-06 9.11880000e+01 7.81860800e-03 1.13011600e-01
       25 -1    0    0    0    0 +0.0000000000e+00 +0.0000000000e+00 +9.9999998245e-15 1.2500000000e+02 1.2500000000e+02 0.0000e+00 0.0000e+00
      -13  1    1    0    0    0 -3.1105648114e+00 -8.5567661517e+00 -6.1833202774e+01 6.2499999918e+01 1.0566000000e-01 0.0000e+00 -1.0000e+00
       13  1    1    0    0    0 +3.1105647770e+00 +8.5567660638e+00 +6.1833202838e+01 6.2499999968e+01 1.0566000000e-01 0.0000e+00 -1.0000e+00
       22  1    1    0    0    0 +3.4449963363e-08 +8.7858187382e-08 -6.3751218020e-08 1.1388625406e-07 0.0000000000e+00 0.0000e+00 1.0000e+00
</event>
<event>
 4      1 +2.4041262e-06 9.11880000e+01 7.81860800e-03 1.13011600e-01
       25 -1    0    0    0    0 +0.0000000000e+00 +0.0000000000e+00 +9.9999998245e-15 1.2500000000e+02 1.2500000000e+02 0.0000e+00 0.0000e+00
      -13  1    1    0    0    0 +2.7827534517e+01 +3.1800439326e+01 -4.6049963911e+01 6.2499999671e+01 1.0566000000e-01 0.0000e+00 -1.0000e+00
       13  1    1    0    0    0 -2.7817262519e+01 -3.1788442649e+01 +4.6032727563e+01 6.2476622436e+01 1.0566000000e-01 0.0000e+00 -1.0000e+00
       22  1    1    0    0    0 -1.0271998120e-02 -1.1996677000e-02 +1.7236347932e-02 2.3377893285e-02 0.0000000000e+00 0.0000e+00 1.0000e+00
</event>
<event>
 4      1 +2.4041262e-06 9.11880000e+01 7.81860800e-03 1.13011600e-01
       25 -1    0    0    0    0 +0.0000000000e+00 +0.0000000000e+00 +9.9999998245e-15 1.2500000000e+02 1.2500000000e+02 0.0000e+00 0.0000e+00
      -11  1    1    0    0    0 -2.8733744189e+00 +1.4571427686e+01 +9.8986743232e-01 1.4884979784e+01 5.1100000000e-04 0.0000e+00 -1.0000e+00
       11  1    1    0    0    0 -9.1899121069e+00 +4.6612001058e+01 +3.1712815078e+00 4.7615020254e+01 5.1100000000e-04 0.0000e+00 1.0000e+00
       22  1    1    0    0    0 +1.2063286526e+01 -6.1183428744e+01 -4.1611489401e+00 6.2499999962e+01 0.0000000000e+00 0.0000e+00 1.0000e+00
</event>
<event>
 4      1 +2.4041262e-06 9.11880000e+01 7.81860800e-03 1.13011600e-01
       25 -1    0    0    0    0 +0.0000000000e+00 +0.0000000000e+00 +9.9999998245e-15 1.2500000000e+02 1.2500000000e+02 0.0000e+00 0.0000e+00
      -11  1    1    0    0    0 -2.6541286432e+01 -1.0558533885e+01 +3.3344531359e+01 4.3906494907e+01 5.1100000000e-04 0.0000e+00 1.0000e+00
       11  1    1    0    0    0 -1.1244867892e+01 -4.4739313615e+00 +1.4115783231e+01 1.8593505646e+01 5.1100000000e-04 0.0000e+00 -1.0000e+00
       22  1    1    0    0    0 +3.7786154324e+01 +1.5032465246e+01 -4.7460314589e+01 6.2499999447e+01 0.0000000000e+00 0.0000e+00 1.0000e+00
</event>
<event>
 4      1 +2.4041262e-06 9.11880000e+01 7.81860800e-03 1.13011600e-01
       25 -1    0    0    0    0 +0.0000000000e+00 +0.0000000000e+00 +9.9999998245e-15 1.2500000000e+02 1.2500000000e+02 0.0000e+00 0.0000e+00
      -13  1    1    0    0    0 -5.2435480159e+00 +4.1973608393e+01 -2.9637877132e+01 5.1649719479e+01 1.0566000000e-01 0.0000e+00 -1.0000e+00
       13  1    1    0    0    0 +1.7183588970e+00 -1.4552042932e+01 -1.4919683767e+01 2.0912265265e+01 1.0566000000e-01 0.0000e+00 1.0000e+00
       22  1    1    0    0    0 +3.5251891189e+00 -2.7421565461e+01 +4.4557560899e+01 5.2438015256e+01 0.0000000000e+00 0.0000e+00 -1.0000e+00
</event>
<event>
 4      1 +2.4041262e-06 9.11880000e+01 7.81860800e-03 1.13011600e-01
       25 -1    0    0    0    0 +0.0000000000e+00 +0.0000000000e+00 +9.9999998245e-15 1.2500000000e+02 1.2500000000e+02 0.0000e+00 0.0000e+00
      -13  1    1    0    0    0 -1.6854219015e+01 -1.0231498851e+01 -6.4184616085e+00 2.0735382340e+01 1.0566000000e-01 0.0000e+00 -1.0000e+00
       13  1    1    0    0    0 -3.2082530139e+01 -8.1894376545e+00 -2.6557390480e+01 4.2445986646e+01 1.0566000000e-01 0.0000e+00 1.0000e+00
       22  1    1    0    0    0 +4.8936749154e+01 +1.8420936506e+01 +3.2975852088e+01 6.1818631014e+01 0.0000000000e+00 0.0000e+00 1.0000e+00
</event>
<event>
 4      1 +2.4041262e-06 9.11880000e+01 7.81860800e-03 1.13011600e-01
       25 -1    0    0    0    0 +0.0000000000e+00 +0.0000000000e+00 +9.9999998245e-15 1.2500000000e+02 1.2500000000e+02 0.0000e+00 0.0000e+00
      -13  1    1    0    0    0 -2.8860728950e+01 +4.1821349162e+01 -3.6389973495e+01 6.2499666049e+01 1.0566000000e-01 0.0000e+00 1.0000e+00
       13  1    1    0    0    0 +2.8835705908e+01 -4.1797876039e+01 +3.6363249681e+01 6.2456844844e+01 1.0566000000e-01 0.0000e+00 1.0000e+00
       22  1    1    0    0    0 +2.5023042679e-02 -2.3473123128e-02 +2.6723814018e-02 4.3489106797e-02 0.0000000000e+00 0.0000e+00 1.0000e+00
</event>
<event>
 5      1 +2.4041262e-06 9.11880000e+01 7.81860800e-03 1.13011600e-01
       25 -1    0    0    0    0 +0.0000000000e+00 +0.0000000000e+00 +9.9999998245e-15 1.2500000000e+02 1.2500000000e+02 0.0000e+00 0.0000e+00
       23  2    1    0    0    0 +1.5201987453e+01 +2.4683611059e+01 -5.0768525666e+00 9.5569479967e+01 9.0925079003e+01 0.0000e+00 0.0000e+00
      -13  1    2    2    0    0 -3.1648793754e+01 +1.5744459654e+01 +2.1094845562e+01 4.1164764413e+01 1.0566000000e-01 0.0000e+00 1.0000e+00
       13  1    2    2    0    0 +4.6850781207e+01 +8.9391514056e+00 -2.6171698128e+01 5.4404715554e+01 1.0566000000e-01 0.0000e+00 -1.0000e+00
       22  1    1    0    0    0 -1.5201987453e+01 -2.4683611059e+01 +5.0768525666e+00 2.9430520033e+01 0.0000000000e+00 0.0000e+00 -1.0000e+00
</event>
<event>
 4      1 +2.4041262e-06 9.11880000e+01 7.81860800e-03 1.13011600e-01
       25 -1    0    0    0    0 +0.0000000000e+00 +0.0000000000e+00 +9.9999998245e-15 1.2500000000e+02 1.2500000000e+02 0.0000e+00 0.0000e+00
      -13  1    1    0    0    0 -5.9825649157e+01 -1.7936743278e+01 -2.3239029400e+00 6.2499973963e+01 1.0566000000e-01 0.0000e+00 1.0000e+00
       13  1    1    0    0    0 +5.9825673542e+01 +1.7936752551e+01 +2.3239018058e+00 6.2499999924e+01 1.0566000000e-01 0.0000e+00 1.0000e+00
       22  1    1    0    0    0 -2.4385055028e-05 -9.2731030863e-06 +1.1341567679e-06 2.6113361735e-05 0.0000000000e+00 0.0000e+00 1.0000e+00
</event>
<event>
 4      1 +2.4041262e-06 9.11880000e+01 7.81860800e-03 1.13011600e-01
       25 -1    0    0    0    0 +0.0000000000e+00 +0.0000000000e+00 +9.9999998245e-15 1.2500000000e+02 1.2500000000e+02 0.0000e+00 0.0000e+00
      -13  1    1    0    0    0 -5.1703845761e-01 +1.2080341294e+01 +1.8530632271e+01 2.2126849548e+01 1.0566000000e-01 0.0000e+00 1.0000e+00
       13  1    1    0    0    0 -3.0200928530e+00 +2.4896098617e+01 +3.1686977301e+01 4.0410547901e+01 1.0566000000e-01 0.0000e+00 -1.0000e+00
       22  1    1    0    0    0 +3.5371313106e+00 -3.6976439910e+01 -5.0217609571e+01 6.2462602551e+01 0.0000000000e+00 0.0000e+00 -1.0000e+00
</event>
<event>
 4      1 +2.4041262e-06 9.11880000e+01 7.81860800e-03 1.13011600e-01
       25 -1    0    0    0    0 +0.0000000000e+00 +0.0000000000e+00 +9.9999998245e-15 1.2500000000e+02 1.2500000000e+02 0.0000e+00 0.0000e+00
      -11  1    1    0    0    0 -4.7662667532e+00 +5.5269751806e+00 +4.9165541021e+00 8.7998441981e+00 5.1100000000e-04 0.0000e+00 1.0000e+00
       11  1    1    0    0    0 -2.9107810364e+01 +3.3703502762e+01 +3.0008600263e+01 5.3700156542e+01 5.1100000000e-04 0.0000e+00 -1.0000e+00
       22  1    1    0    0    0 +3.3874077117e+01 -3.9230477942e+01 -3.4925154365e+01 6.2499999260e+01 0.0000000000e+00 0.0000e+00 -1.0000e+00
</event>
<event>
 4      1 +2.4041262e-06 9.11880000e+01 7.81860800e-03 1.13011600e-01
       25 -1    0    0    0    0 +0.0000000000e+00 +0.0000000000e+00 +9.9999998245e-15 1.2500000000e+02 1.2500000000e+02 0.0000e+00 0.0000e+00
      -13  1    1    0    0    0 +3.5999168783e+01 +3.9961709874e+01 +3.1776142652e+01 6.2470895743e+01 1.0566000000e-01 0.0000e+00 1.0000e+00
       13  1    1    0    0    0 -2.3326675041e+01 -2.4148659253e+01 -1.9136174462e+01 3.8645774016e+01 1.0566000000e-01 0.0000e+00 1.0000e+00
       22  1    1    0    0    0 -1.2672493742e+01 -1.5813050621e+01 -1.2639968190e+01 2.3883330241e+01 0.0000000000e+00 0.0000e+00 1.0000e+00
</event>
<event>
 4      1 +2.4041262e-06 9.11880000e+01 7.81860800e-03 1.13011600e-01
       25 -1    0    0    0    0 +0.0000000000e+00 +0.0000000000e+00 +9.9999998245e-15 1.2500000000e+02 1.2500000000e+02 0.0000e+00 0.0000e+00
      -13  1    1    0    0    0 +2.4581653517e+01 +4.3752302246e+01 +3.6601324165e+01 6.2114327946e+01 1.0566000000e-01 0.0000e+00 1.0000e+00
       13  1    1    0    0    0 -2.4711987547e+01 -4.4052860506e+01 -3.6807028879e+01 6.2498843079e+01 1.0566000000e-01 0.0000e+00 1.0000e+00
       22  1    1    0    0    0 +1.3033403023e-01 +3.0055825955e-01 +2.0570471383e-01 3.8682897528e-01 0.0000000000e+00 0.0000e+00 -1.0000e+00
</event>
<event>
 4      1 +2.4041262e-06 9.11880000e+01 7.81860800e-03 1.13011600e-01
       25 -1    0    0    0    0 +0.0000000000e+00 +0.0000000000e+00 +9.9999998245e-15 1.2500000000e+02 1.2500000000e+02 0.0000e+00 0.0000e+00
      -13  1    1    0    0    0 +5.9398241936e+01 -8.8687024965e+00 +1.7304155650e+01 6.2499999966e+01 1.0566000000e-01 0.0000e+00 1.0000e+00
       13  1    1    0    0    0 -5.9397839733e+01 +8.8686368945e+00 -1.7304032880e+01 6.2499574424e+01 1.0566000000e-01 0.0000e+00 1.0000e+00
       22  1    1    0    0    0 -4.0220294848e-04 +6.5601960628e-05 -1.2277045714e-04 4.2560946201e-04 0.0000000000e+00 0.0000e+00 1.0000e+00
</event>
<event>
 4      1 +2.4041262e-06 9.11880000e+01 7.81860800e-03 1.13011600e-01
       25 -1    0    0    0    0 +0.0000000000e+00 +0.0000000000e+00 +9.9999998245e-15 1.2500000000e+02 1.2500000000e+02 0.0000e+00 0.0000e+00
      -13  1    1    0    0    0 +4.3600642218e+00 -5.4023757485e+00 -6.2113146785e+01 6.2499999931e+01 1.0566000000e-01 0.0000e+00 1.0000e+00
       13  1    1    0    0    0 -4.3600641915e+00 +5.4023757241e+00 +6.2113146851e+01 6.2499999992e+01 1.0566000000e-01 0.0000e+00 1.0000e+00
       22  1    1    0    0    0 -3.0299831325e-08 +2.4474206168e-08 -6.6110571253e-08 7.6731181260e-08 0.0000000000e+00 0.0000e+00 -1.0000e+00
</event>
<event>
 4      1 +2.4041262e-06 9.11880000e+01 7.81860800e-03 1.13011600e-01
       25 -1    0    0    0    0 +0.0000000000e+00 +0.0000000000e+00 +9.9999998245e-15 1.2500000000e+02 1.2500000000e+02 0.0000e+00 0.0000e+00
      -13  1    1    0    0    0 +4.8428811912e+01 -3.7876986331e+01 -1.1234753721e+01 6.2499974175e+01 1.0566000000e-01 0.0000e+00 1.0000e+00
       13  1    1    0    0    0 -4.8428833152e+01 +3.7876999133e+01 +1.1234761589e+01 6.2499999806e+01 1.0566000000e-01 0.0000e+00 1.0000e+00
       22  1    1    0    0    0 +2.1240749806e-05 -1.2802113312e-05 -7.8679597680e-06 2.6018615422e-05 0.0000000000e+00 0.0000e+00 1.0000e+00
</event>
<event>
 4      1 +2.4041262e-06 9.11880000e+01 7.81860800e-03 1.13011600e-01
       25 -1    0    0    0    0 +0.0000000000e+00 +0.0000000000e+00 +9.9999998245e-15 1.2500000000e+02 1.2500000000e+02 0.0000e+00 0.0000e+00
      -13  1    1    0    0    0 -2.0029375336e+00 +2.2605480465e+01 -5.8199279422e+01 6.2467485903e+01 1.0566000000e-01 0.0000e+00 -1.0000e+00
       13  1    1    0    0    0 +1.9935633663e+00 -2.2625444552e+01 +5.8225152242e+01 6.2498516412e+01 1.0566000000e-01 0.0000e+00 -1.0000e+00
       22  1    1    0    0    0 +9.3741672683e-03 +1.9964086894e-02 -2.5872820064e-02 3.3997685150e-02 0.0000000000e+00 0.0000e+00 -1.0000e+00
</event>
<event>
 4      1 +2.4041262e-06 9.11880000e+01 7.81860800e-03 1.13011600e-01
       25 -1    0    0    0    0 +0.0000000000e+00 +0.0000000000e+00 +9.9999998245e-15 1.2500000000e+02 1.2500000000e+02 0.0000e+00 0.0000e+00
      -13  1    1    0    0    0 -5.3197041205e+01 -1.1020619933e+01 -3.0880722554e+01 6.2490074781e+01 1.0566000000e-01 0.0000e+00 1.0000e+00
       13  1    1    0    0    0 +5.3201866738e+01 +1.1029803499e+01 +3.0885867521e+01 6.2498345308e+01 1.0566000000e-01 0.0000e+00 1.0000e+00
       22  1    1    0    0    0 -4.8255328216e-03 -9.1835663679e-03 -5.1449673250e-03 1.1579911356e-02 0.0000000000e+00 0.0000e+00 1.0000e+00
</event>
<event>
 4      1 +2.4041262e-06 9.11880000e+01 7.81860800e-03 1.13011600e-01
       25 -1    0    0    0    0 +0.0000000000e+00 +0.0000000000e+00 +9.9999998245e-15 1.2500000000e+02 1.2500000000e+02 0.0000e+00 0.0000e+00
      -11  1    1    0    0    0 +2.7617740864e+00 +5.3815584255e+01 +8.8103729012e+00 5.4601897180e+01 5.1100000000e-04 0.0000e+00 -1.0000e+00
       11  1    1    0    0    0 +3.9868728415e-01 +7.7850962107e+00 +1.2701817990e+00 7.8981033561e+00 5.1100000000e-04 0.0000e+00 1.0000e+00
       22  1    1    0    0    0 -3.1604613705e+00 -6.1600680465e+01 -1.0080554700e+01 6.2499999463e+01 0.0000000000e+00 0.0000e+00 -1.0000e+00
</event>
<event>
 4      1 +2.4041262e-06 9.11880000e+01 7.81860800e-03 1.13011600e-01
       25 -1    0    0    0    0 +0.0000000000e+00 +0.0000000000e+00 +9.9999998245e-15 1.2500000000e+02 1.2500000000e+02 0.0000e+00 0.0000e+00
      -13  1    1    0    0    0 +4.1074240046e+01 -3.4977661007e+01 +3.1554854952e+01 6.2500000000e+01 1.0566000000e-01 0.0000e+00 1.0000e+00
       13  1    1    0    0    0 -4.1074240038e+01 +3.4977661004e+01 -3.1554854951e+01 6.2499999992e+01 1.0566000000e-01 0.0000e+00 1.0000e+00
       22  1    1    0    0    0 -7.5454923569e-09 +3.2536706411e-09 -1.3440592391e-09 8.3263030684e-09 0.0000000000e+00 0.0000e+00 1.0000e+00
</event>
<event>
 4      1 +2.4041262e-06 9.11880000e+01 7.81860800e-03 1.13011600e-01
       25 -1    0    0    0    0 +0.0000000000e+00 +0.0000000000e+00 +9.9999998245e-15 1.2500000000e+02 1.2500000000e+02 0.0000e+00 0.0000e+00
      -13  1    1    0    0    0 +5.2738890710e+00 +7.6928297715e+00 +6.1800042881e+01 6.2500000000e+01 1.0566000000e-01 0.0000e+00 -1.0000e+00
       13  1    1    0    0    0 -5.2738890694e+00 -7.6928297670e+00 -6.1800042854e+01 6.2499999972e+01 1.0566000000e-01 0.0000e+00 -1.0000e+00
       22  1    1    0    0    0 -1.5911174858e-09 -4.4625700617e-09 -2.7591602439e-08 2.7995405186e-08 0.0000000000e+00 0.0000e+00 1.0000e+00
</event>
<event>
 4      1 +2.4041262e-06 9.11880000e+01 7.81860800e-03 1.13011600e-01
       25 -1    0    0    0    0 +0.0000000000e+00 +0.0000000000e+00 +9.9999998245e-15 1.2500000000e+02 1.2500000000e+02 0.0000e+00 0.0000e+00
      -13  1    1    0    0    0 +1.2706804660e+01 +8.0105058662e+00 +6.0668012350e+01 6.2499999804e+01 1.0566000000e-01 0.0000e+00 -1.0000e+00
       13  1    1    0    0    0 -1.2706804685e+01 -8.0105058844e+00 -6.0668012544e+01 6.2500000000e+01 1.0566000000e-01 0.0000e+00 -1.0000e+00
       22  1    1    0    0    0 +2.4808165689e-08 +1.8169365454e-08 +1.9404992143e-07 1.9647122673e-07 0.0000000000e+00 0.0000e+00 1.0000e+00
</event>
<event>
 4      1 +2.4041262e-06 9.11880000e+01 7.81860800e-03 1.13011600e-01
       25 -1    0    0    0    0 +0.0000000000e+00 +0.0000000000e+00 +9.9999998245e-15 1.2500000000e+02 1.2500000000e+02 0.0000e+00 0.0000e+00
      -13  1    1    0    0    0 -5.6388128772e+01 +2.6010348153e+01 +7.0664437637e+00 6.2498840541e+01 1.0566000000e-01 0.0000e+00 -1.0000e+00
       13  1    1    0    0    0 +5.6189393117e+01 -2.5916336249e+01 -7.0733583206e+00 6.2281200577e+01 1.0566000000e-01 0.0000e+00 -1.0000e+00
       22  1    1    0    0    0 +1.9873565536e-01 -9.4011903929e-02 +6.9145569612e-03 2.1995888227e-01 0.0000000000e+00 0.0000e+00 1.0000e+00
</event>
<event>
 4      1 +2.4041262e-06 9.11880000e+01 7.81860800e-03 1.13011600e-01
       25 -1    0    0    0    0 +0.0000000000e+00 +0.0000000000e+00 +9.9999998245e-15 1.2500000000e+02 1.2500000000e+02 0.0000e+00 0.0000e+00
      -13  1    1    0    0    0 +6.1162408774e+01 -1.2792892288e+01 +1.3192784804e+00 6.2499999999e+01 1.0566000000e-01 0.0000e+00 -1.0000e+00
       13  1    1    0    0    0 -6.1162408775e+01 +1.2792892288e+01 -1.3192784805e+00 6.2500000000e+01 1.0566000000e-01 0.0000e+00 -1.0000e+00
       22  1    1    0    0    0 +1.0472288240e-09 -1.8313683445e-10 +3.7405471506e-11 1.0637793377e-09 0.0000000000e+00 0.0000e+00 1.0000e+00
</event>
<event>
 4      1 +2.4041262e-06 9.11880000e+01 7.81860800e-03 1.13011600e-01
       25 -1    0    0    0    0 +0.0000000000e+00 +0.0000000000e+00 +9.9999998245e-15 1.2500000000e+02 1.2500000000e+02 0.0000e+00 0.0000e+00
      -13  1    1    0    0    0 +7.6703412234e+00 +1.2936407014e+01 -2.2889970371e-01 1.5041553112e+01 1.0566000000e-01 0.0000e+00 1.0000e+00
       13  1    1    0    0    0 +1.6858192564e+01 +4.4408007819e+01 +2.2750878882e+00 4.7554778980e+01 1.0566000000e-01 0.0000e+00 -1.0000e+00
       22  1    1    0    0    0 -2.4528533787e+01 -5.7344414833e+01 -2.0461881845e+00 6.2403667908e+01 0.0000000000e+00 0.0000e+00 -1.0000e+00
</event>
<event>
 4      1 +2.4041262e-06 9.11880000e+01 7.81860800e-03 1.13011600e-01
       25 -1    0    0    0    0 +0.0000000000e+00 +0.0000000000e+00 +9.9999998245e-15 1.2500000000e+02 1.2500000000e+02 0.0000e+00 0.0000e+00
      -13  1    1    0    0    0 -1.8779500777e+01 -7.8924009275e+00 +5.9087047600e+01 6.2500000000e+01 1.0566000000e-01 0.0000e+00 1.0000e+00
       13  1    1    0    0    0 +1.8779500775e+01 +7.8924009267e+00 -5.9087047596e+01 6.2499999995e+01 1.0566000000e-01 0.0000e+00 1.0000e+00
       22  1    1    0    0    0 +1.9771799870e-09 +7.8531071047e-10 -4.6673648146e-09 5.1293516087e-09 0.0000000000e+00 0.0000e+00 -1.0000e+00
</event>
<event>
 4      1 +2.4041262e-06 9.11880000e+01 7.81860800e-03 1.13011600e-01
       25 -1    0    0    0    0 +0.0000000000e+00 +0.0000000000e+00 +9.9999998245e-15 1.2500000000e+02 1.2500000000e+02 0.0000e+00 0.0000e+00
      -13  1    1    0    0    0 -3.5723274763e+01 +3.2910186184e+01 -3.9331905159e+01 6.2499941135e+01 1.0566000000e-01 0.0000e+00 1.0000e+00
       13  1    1    0    0    0 +3.5723312060e+01 -3.2910214067e+01 +3.9331941331e+01 6.2499999899e+01 1.0566000000e-01 0.0000e+00 1.0000e+00
       22  1    1    0    0    0 -3.7297181308e-05 +2.7883436550e-05 -3.6171601776e-05 5.8965672576e-05 0.0000000000e+00 0.0000e+00 -1.0000e+00
</event>
<event>
 4      1 +2.4041262e-06 9.11880000e+01 7.81860800e-03 1.13011600e-01
       25 -1    0    0    0    0 +0.0000000000e+00 +0.0000000000e+00 +9.9999998245e-15 1.2500000000e+02 1.2500000000e+02 0.0000e+00 0.0000e+00
      -13  1    1    0    0    0 +1.0648680470e+01 -4.9014821285e+01 -3.7287956783e+01 6.2499999892e+01 1.0566000000e-01 0.0000e+00 -1.0000e+00
       13  1    1    0    0    0 -1.0648680500e+01 +4.9014821356e+01 +3.7287956861e+01 6.2499999999e+01 1.0566000000e-01 0.0000e+00 -1.0000e+00
       22  1    1    0    0    0 +3.0068238324e-08 -7.0937698625e-08 -7.7763140907e-08 1.0946854400e-07 0.0000000000e+00 0.0000e+00 1.0000e+00
</event>
<event>
 4      1 +2.4041262e-06 9.11880000e+01 7.81860800e-03 1.13011600e-01
       25 -1    0    0    0    0 +0.0000000000e+00 +0.0000000000e+00 +9.9999998245e-15 1.2500000000e+02 1.2500000000e+02 0.0000e+00 0.0000e+00
      -13  1    1    0    0    0 -1.5163598048e+01 -1.5545844946e+01 -5.8605723569e+01 6.2500000000e+01 1.0566000000e-01 0.0000e+00 -1.0000e+00
       13  1    1    0    0    0 +1.5163598049e+01 +1.5545844946e+01 +5.8605723570e+01 6.2500000000e+01 1.0566000000e-01 0.0000e+00 -1.0000e+00
       22  1    1    0    0    0 -6.9677892897e-11 -9.8036651950e-11 -1.8901010609e-10 2.2403351109e-10 0.0000000000e+00 0.0000e+00 1.0000e+00
</event>
<event>
 4      1 +2.4041262e-06 9.11880000e+01 7.81860800e-03 1.13011600e-01
       25 -1    0    0    0    0 +0.0000000000e+00 +0.0000000000e+00 +9.9999998245e-15 1.2500000000e+02 1.2500000000e+02 0.0000e+00 0.0000e+00
      -13  1    1    0    0    0 +3.9775864103e+01 +4.6434676340e+01 +1.2959178290e+01 6.2499999984e+01 1.0566000000e-01 0.0000e+00 1.0000e+00
       13  1    1    0    0    0 -3.9775864090e+01 -4.6434676283e+01 -1.2959178209e+01 6.2499999916e+01 1.0566000000e-01 0.0000e+00 1.0000e+00
       22  1    1    0    0    0 -1.2761153061e-08 -5.7616053917e-08 -8.1275439869e-08 1.0043980198e-07 0.0000000000e+00 0.0000e+00 -1.0000e+00
</event>
<event>
 4      1 +2.4041262e-06 9.11880000e+01 7.81860800e-03 1.13011600e-01
       25 -1    0    0    0    0 +0.0000000000e+00 +0.0000000000e+00 +9.9999998245e-15 1.2500000000e+02 1.2500000000e+02 0.0000e+00 0.0000e+00
      -11  1    1    0    0    0 -7.3711410544e-01 +2.9490075827e+01 -1.6128418794e+01 3.3620437275e+01 5.1100000000e-04 0.0000e+00 -1.0000e+00
       11  1    1    0    0    0 -2.2132664800e+01 +2.3153765321e+01 +1.1069953016e+00 3.2049604343e+01 5.1100000000e-04 0.0000e+00 1.0000e+00
       22  1    1    0    0    0 +2.2869778905e+01 -5.2643841148e+01 +1.5021423493e+01 5.9329958383e+01 0.0000000000e+00 0.0000e+00 1.0000e+00
</event>
<event>
 4      1 +2.4041262e-06 9.11880000e+01 7.81860800e-03 1.13011600e-01
       25 -1    0    0    0    0 +0.0000000000e+00 +0.0000000000e+00 +9.9999998245e-15 1.2500000000e+02 1.2500000000e+02 0.0000e+00 0.0000e+00
      -13  1    1    0    0    0 -5.1496612387e+01 -3.4171069523e+01 +9.3099815352e+00 6.2500000000e+01 1.0566000000e-01 0.0000e+00 -1.0000e+00
       13  1    1    0    0    0 +5.1496612386e+01 +3.4171069521e+01 -9.3099815362e+00 6.2499999998e+01 1.0566000000e-01 0.0000e+00 -1.0000e+00
       22  1    1    0    0    0 +9.5354915666e-10 +2.4651841531e-09 +1.0146830590e-09 2.8312489493e-09 0.0000000000e+00 0.0000e+00 -1.0000e+00
</event>
<event>
 4      1 +2.4041262e-06 9.11880000e+01 7.81860800e-03 1.13011600e-01
       25 -1    0    0    0    0 +0.0000000000e+00 +0.0000000000e+00 +9.9999998245e-15 1.2500000000e+02 1.2500000000e+02 0.0000e+00 0.0000e+00
      -13  1    1    0    0    0 -2.9139911965e+01 +2.3177037397e+01 -5.0198894631e+01 6.2499997744e+01 1.0566000000e-01 0.0000e+00 -1.0000e+00
       13  1    1    0    0    0 +2.9139913886e+01 -2.3177038892e+01 +5.0198895301e+01 6.2499999732e+01 1.0566000000e-01 0.0000e+00 -1.0000e+00
       22  1    1    0    0    0 -1.9208366436e-06 +1.4949003195e-06 -6.6981568625e-07 2.5244788432e-06 0.0000000000e+00 0.0000e+00 -1.0000e+00
</event>
<event>
 4      1 +2.4041262e-06 9.11880000e+01 7.81860800e-03 1.13011600e-01
       25 -1    0    0    0    0 +0.0000000000e+00 +0.0000000000e+00 +9.9999998245e-15 1.2500000000e+02 1.2500000000e+02 0.0000e+00 0.0000e+00
      -13  1    1    0    0    0 +1.1196456389e+01 -1.2875699596e+01 +6.0125656286e+01 6.2499999869e+01 1.0566000000e-01 0.0000e+00 -1.0000e+00
       13  1    1    0    0    0 -1.1191076936e+01 +1.2869685554e+01 -6.0097279657e+01 6.2470498601e+01 1.0566000000e-01 0.0000e+00 -1.0000e+00
       22  1    1    0    0    0 -5.3794520754e-03 +6.0140418924e-03 -2.8376629186e-02 2.9501530273e-02 0.0000000000e+00 0.0000e+00 -1.0000e+00
</event>
<event>
 4      1 +2.4041262e-06 9.11880000e+01 7.81860800e-03 1.13011600e-01
       25 -1    0    0    0    0 +0.0000000000e+00 +0.0000000000e+00 +9.9999998245e-15 1.2500000000e+02 1.2500000000e+02 0.0000e+00 0.0000e+00
      -13  1    1    0    0    0 -4.0861771056e+00 +2.7075751519e+00 +3.4207473972e+00 5.9783344948e+00 1.0566000000e-01 0.0000e+00 -1.0000e+00
       13  1    1    0    0    0 -3.4511514406e+01 +2.9929726812e+01 +3.3311669966e+01 5.6537701524e+01 1.0566000000e-01 0.0000e+00 1.0000e+00
       22  1    1    0    0    0 +3.8597691511e+01 -3.2637301964e+01 -3.6732417363e+01 6.2483963981e+01 0.0000000000e+00 0.0000e+00 1.0000e+00
</event>
<event>
 4      1 +2.4041262e-06 9.11880000e+01 7.81860800e-03 1.13011600e-01
       25 -1    0    0    0    0 +0.0000000000e+00 +0.0000000000e+00 +9.9999998245e-15 1.2500000000e+02 1.2500000000e+02 0.0000e+00 0.0000e+00
      -13  1    1    0    0    0 +4.7126426248e+01 -3.1376954918e+01 +2.6473108665e+01 6.2499999978e+01 1.0566000000e-01 0.0000e+00 1.0000e+00
       13  1    1    0    0    0 -4.7126426265e+01 +3.1376954929e+01 -2.6473108674e+01 6.2500000000e+01 1.0566000000e-01 0.0000e+00 1.0000e+00
       22  1    1    0    0    0 +1.6546087199e-08 -1.0519850976e-08 +9.0931346919e-09 2.1613083183e-08 0.0000000000e+00 0.0000e+00 1.0000e+00
</event>
<event>
 4      1 +2.4041262e-06 9.11880000e+01 7.81860800e-03 1.13011600e-01
       25 -1    0    0    0    0 +0.0000000000e+00 +0.0000000000e+00 +9.9999998245e-15 1.2500000000e+02 1.2500000000e+02 0.0000e+00 0.0000e+00
      -13  1    1    0    0    0 +5.9868349021e+01 +4.1938361110e+00 -1.7446436450e+01 6.2499574276e+01 1.0566000000e-01 0.0000e+00 -1.0000e+00
       13  1    1    0    0    0 -5.9868633983e+01 -4.1937110058e+00 +1.7446806557e+01 6.2499942160e+01 1.0566000000e-01 0.0000e+00 -1.0000e+00
       22  1    1    0    0    0 +2.8496166765e-04 -1.2510520444e-04 -3.7010712398e-04 4.8356359192e-04 0.0000000000e+00 0.0000e+00 1.0000e+00
</event>
<event>
 4      1 +2.4041262e-06 9.11880000e+01 7.81860800e-03 1.13011600e-01
       25 -1    0    0    0    0 +0.0000000000e+00 +0.0000000000e+00 +9.9999998245e-15 1.2500000000e+02 1.2500000000e+02 0.0000e+00 0.0000e+00
      -13  1    1    0    0    0 +3.8093595846e+01 -3.4273129058e+01 +3.5673704250e+01 6.2437118438e+01 1.0566000000e-01 0.0000e+00 -1.0000e+00
       13  1    1    0    0    0 -3.8086149679e+01 +3.4043497587e+01 -3.5713637677e+01 6.2329684785e+01 1.0566000000e-01 0.0000e+00 -1.0000e+00
       22  1    1    0    0    0 -7.4461677925e-03 +2.2963147094e-01 +3.9933427050e-02 2.3319677625e-01 0.0000000000e+00 0.0000e+00 -1.0000e+00
</event>
<event>
 5      1 +2.4041262e-06 9.11880000e+01 7.81860800e-03 1.13011600e-01
       25 -1    0    0    0    0 +0.0000000000e+00 +0.0000000000e+00 +9.9999998245e-15 1.2500000000e+02 1.2500000000e+02 0.0000e+00 0.0000e+00
       23  2    1    0    0    0 +2.1105452224e+01 -1.6332229577e+01 -1.2129415076e+01 9.5686103183e+01 9.1085266622e+01 0.0000e+00 0.0000e+00
      -13  1    2    2    0    0 +9.1169613289e-01 +1.9394004460e+01 -4.1097856257e+01 4.5453311781e+01 1.0566000000e-01 0.0000e+00 1.0000e+00
       13  1    2    2    0    0 +2.0193756091e+01 -3.5726234037e+01 +2.8968441181e+01 5.0232791402e+01 1.0566000000e-01 0.0000e+00 -1.0000e+00
       22  1    1    0    0    0 -2.1105452224e+01 +1.6332229577e+01 +1.2129415076e+01 2.9313896817e+01 0.0000000000e+00 0.0000e+00 -1.0000e+00
</event>
<event>
 5      1 +2.4041262e-06 9.11880000e+01 7.81860800e-03 1.13011600e-01
       25 -1    0    0    0    0 +0.0000000000e+00 +0.0000000000e+00 +9.9999998245e-15 1.2500000000e+02 1.2500000000e+02 0.0000e+00 0.0000e+00
       23  2    1    0    0    0 +1.7076114300e+01 -8.4844373317e+00 -3.2668600367e+01 8.7173860805e+01 7.8539577293e+01 0.0000e+00 0.0000e+00
      -11  1    2    2    0    0 +3.2828778435e+01 +2.4166336468e+01 -4.0084589676e+00 4.0961057791e+01 5.1100000000e-04 0.0000e+00 -1.0000e+00
       11  1    2    2    0    0 -1.5752664135e+01 -3.2650773800e+01 -2.8660141400e+01 4.6212803014e+01 5.1100000000e-04 0.0000e+00 1.0000e+00
       22  1    1    0    0    0 -1.7076114300e+01 +8.4844373317e+00 +3.2668600367e+01 3.7826139195e+01 0.0000000000e+00 0.0000e+00 1.0000e+00
</event>
<event>
 5      1 +2.4041262e-06 9.11880000e+01 7.81860800e-03 1.13011600e-01
       25 -1    0    0    0    0 +0.0000000000e+00 +0.0000000000e+00 +9.9999998245e-15 1.2500000000e+02 1.2500000000e+02 0.0000e+00 0.0000e+00
       23  2    1    0    0    0 +2.2345488104e+01 -1.0982245307e+01 -1.4226815357e+01 9.6323653897e+01 9.1956040989e+01 0.0000e+00 0.0000e+00
      -13  1    2    2    0    0 +4.3378058184e+01 +1.3869427971e+00 +2.5030612305e+01 5.0101120332e+01 1.0566000000e-01 0.0000e+00 1.0000e+00
       13  1    2    2    0    0 -2.1032570080e+01 -1.2369188105e+01 -3.9257427662e+01 4.6222533566e+01 1.0566000000e-01 0.0000e+00 -1.0000e+00
       22  1    1    0    0    0 -2.2345488104e+01 +1.0982245307e+01 +1.4226815357e+01 2.8676346103e+01 0.0000000000e+00 0.0000e+00 1.0000e+00
</event>
<event>
 4      1 +2.4041262e-06 9.11880000e+01 7.81860800e-03 1.13011600e-01
       25 -1    0    0    0    0 +0.0000000000e+00 +0.0000000000e+00 +9.9999998245e-15 1.2500000000e+02 1.2500000000e+02 0.0000e+00 0.0000e+00
      -13  1    1    0    0    0 -6.0794866357e+01 +1.2614765443e+01 -7.1477796140e+00 6.2500000000e+01 1.0566000000e-01 0.0000e+00 -1.0000e+00
       13  1    1    0    0    0 +6.0794866347e+01 -1.2614765443e+01 +7.1477796104e+00 6.2499999990e+01 1.0566000000e-01 0.0000e+00 -1.0000e+00
       22  1    1    0    0    0 +9.4411516996e-09 +4.7084739569e-10 +3.6351741627e-09 1.0127760556e-08 0.0000000000e+00 0.0000e+00 1.0000e+00
</event>
<event>
 4      1 +2.4041262e-06 9.11880000e+01 7.81860800e-03 1.13011600e-01
       25 -1    0    0    0    0 +0.0000000000e+00 +0.0000000000e+00 +9.9999998245e-15 1.2500000000e+02 1.2500000000e+02 0.0000e+00 0.0000e+00
      -13  1    1    0    0    0 -2.2190762479e+01 -5.6602392721e+01 +1.4490618856e+01 6.2500000000e+01 1.0566000000e-01 0.0000e+00 1.0000e+00
       13  1    1    0    0    0 +2.2190762479e+01 +5.6602392721e+01 -1.4490618856e+01 6.2500000000e+01 1.0566000000e-01 0.0000e+00 1.0000e+00
       22  1    1    0    0    0 -8.1499131311e-11 -2.1430620395e-10 +5.2448812076e-12 2.2933984877e-10 0.0000000000e+00 0.0000e+00 1.0000e+00
</event>
<event>
 4      1 +2.4041262e-06 9.11880000e+01 7.81860800e-03 1.13011600e-01
       25 -1    0    0    0    0 +0.0000000000e+00 +0.0000000000e+00 +9.9999998245e-15 1.2500000000e+02 1.2500000000e+02 0.0000e+00 0.0000e+00
      -13  1    1    0    0    0 -1.3301966829e+01 +5.0700989190e+01 -3.0883270026e+01 6.0838475966e+01 1.0566000000e-01 0.0000e+00 1.0000e+00
       13  1    1    0    0    0 +1.3476656612e+01 -5.2162187139e+01 +3.1668682275e+01 6.2493444789e+01 1.0566000000e-01 0.0000e+00 1.0000e+00
       22  1    1    0    0    0 -1.7468978253e-01 +1.4611979490e+00 -7.8541224865e-01 1.6680792447e+00 0.0000000000e+00 0.0000e+00 -1.0000e+00
</event>
<event>
 4      1 +2.4041262e-06 9.11880000e+01 7.81860800e-03 1.13011600e-01
       25 -1    0    0    0    0 +0.0000000000e+00 +0.0000000000e+00 +9.9999998245e-15 1.2500000000e+02 1.2500000000e+02 0.0000e+00 0.0000e+00
      -11  1    1    0    0    0 -4.0947352549e+01 +3.6144236677e+01 +2.3491079887e+01 5.9455213062e+01 5.1100000000e-04 0.0000e+00 1.0000e+00
       11  1    1    0    0    0 -1.9285907158e+00 +2.1362156360e+00 +1.0270433190e+00 3.0557646560e+00 5.1100000000e-04 0.0000e+00 -1.0000e+00
       22  1    1    0    0    0 +4.2875943265e+01 -3.8280452313e+01 -2.4518123206e+01 6.2489022282e+01 0.0000000000e+00 0.0000e+00 1.0000e+00
</event>
<event>
 5      1 +2.4041262e-06 9.11880000e+01 7.81860800e-03 1.13011600e-01
       25 -1    0    0    0    0 +0.0000000000e+00 +0.0000000000e+00 +9.9999998245e-15 1.2500000000e+02 1.2500000000e+02 0.0000e+00 0.0000e+00
       23  2    1    0    0    0 -2.4455935968e+01 -1.6789148966e+00 +1.6664607973e+01 9.5358462958e+01 9.0634517374e+01 0.0000e+00 0.0000e+00
      -13  1    2    2    0    0 -4.9300183262e+01 +2.4053762249e+01 -2.2400795184e+00 5.4901007899e+01 1.0566000000e-01 0.0000e+00 -1.0000e+00
       13  1    2    2    0    0 +2.4844247294e+01 -2.5732677146e+01 +1.8904687491e+01 4.0457455059e+01 1.0566000000e-01 0.0000e+00 1.0000e+00
       22  1    1    0    0    0 +2.4455935968e+01 +1.6789148966e+00 -1.6664607973e+01 2.9641537042e+01 0.0000000000e+00 0.0000e+00 -1.0000e+00
</event>
<event>
 4      1 +2.4041262e-06 9.11880000e+01 7.81860800e-03 1.13011600e-01
       25 -1    0    0    0    0 +0.0000000000e+00 +0.0000000000e+00 +9.9999998245e-15 1.2500000000e+02 1.2500000000e+02 0.0000e+00 0.0000e+00
      -11  1    1    0    0    0 +5.9592376562e+00 +3.8873569675e+01 +2.4447138000e+01 4.6306905418e+01 5.1100000000e-04 0.0000e+00 1.0000e+00
       11  1    1    0    0    0 +2.6714362771e+00 +1.2550157685e+01 +9.9409970163e+00 1.6231649689e+01 5.1100000000e-04 0.0000e+00 -1.0000e+00
       22  1    1    0    0    0 -8.6306739333e+00 -5.1423727360e+01 -3.4388135016e+01 6.2461444893e+01 0.0000000000e+00 0.0000e+00 1.0000e+00
</event>
<event>
 4      1 +2.4041262e-06 9.11880000e+01 7.81860800e-03 1.13011600e-01
       25 -1    0    0    0    0 +0.0000000000e+00 +0.0000000000e+00 +9.9999998245e-15 1.2500000000e+02 1.2500000000e+02 0.0000e+00 0.0000e+00
      -13  1    1    0    0    0 +4.4379002698e+00 +5.9968853973e+01 -1.7037615781e+01 6.2499999370e+01 1.0566000000e-01 0.0000e+00 -1.0000e+00
       13  1    1    0    0    0 -4.4379002957e+00 -5.9968854612e+01 +1.7037615806e+01 6.2499999991e+01 1.0566000000e-01 0.0000e+00 -1.0000e+00
       22  1    1    0    0    0 +2.5847289998e-08 +6.3828824214e-07 -2.5478849819e-08 6.3931927410e-07 0.0000000000e+00 0.0000e+00 1.0000e+00
</event>
<event>
 4      1 +2.4041262e-06 9.11880000e+01 7.81860800e-03 1.13011600e-01
       25 -1    0    0    0    0 +0.0000000000e+00 +0.0000000000e+00 +9.9999998245e-15 1.2500000000e+02 1.2500000000e+02 0.0000e+00 0.0000e+00
      -13  1    1    0    0    0 +5.9474045487e+01 +5.1040928974e+00 -1.8519567750e+01 6.2499595235e+01 1.0566000000e-01 0.0000e+00 1.0000e+00
       13  1    1    0    0    0 -5.9468249535e+01 -5.1012685173e+00 +1.8519902822e+01 6.2493948570e+01 1.0566000000e-01 0.0000e+00 1.0000e+00
       22  1    1    0    0    0 -5.7959517827e-03 -2.8243800412e-03 -3.3507156353e-04 6.4561949039e-03 0.0000000000e+00 0.0000e+00 1.0000e+00
</event>
<event>
 4      1 +2.4041262e-06 9.11880000e+01 7.81860800e-03 1.13011600e-01
       25 -1    0    0    0    0 +0.0000000000e+00 +0.0000000000e+00 +9.9999998245e-15 1.2500000000e+02 1.2500000000e+02 0.0000e+00 0.0000e+00
      -11  1    1    0    0    0 -2.6081012633e+01 -3.4001026311e+01 -3.1944749342e+01 5.3448629739e+01 5.1100000000e-04 0.0000e+00 -1.0000e+00
       11  1    1    0    0    0 -4.4233359097e+00 -5.7549971138e+00 -5.4075350777e+00 9.0513716214e+00 5.1100000000e-04 0.0000e+00 1.0000e+00
       22  1    1    0    0    0 +3.0504348543e+01 +3.9756023425e+01 +3.7352284420e+01 6.2499998640e+01 0.0000000000e+00 0.0000e+00 -1.0000e+00
</event>
<event>
 4      1 +2.4041262e-06 9.11880000e+01 7.81860800e-03 1.13011600e-01
       25 -1    0    0    0    0 +0.0000000000e+00 +0.0000000000e+00 +9.9999998245e-15 1.2500000000e+02 1.2500000000e+02 0.0000e+00 0.0000e+00
      -13  1    1    0    0    0 -2.7658454071e+01 +5.4740071592e+01 +1.1829755550e+01 6.2461346446e+01 1.0566000000e-01 0.0000e+00 -1.0000e+00
       13  1    1    0    0    0 +2.6751397779e+01 -5.3597898995e+01 -1.1160464705e+01 6.0933892016e+01 1.0566000000e-01 0.0000e+00 -1.0000e+00
       22  1    1    0    0    0 +9.0705629142e-01 -1.1421725968e+00 -6.6929084543e-01 1.6047615376e+00 0.0000000000e+00 0.0000e+00 1.0000e+00
</event>
<event>
 4      1 +2.4041262e-06 9.11880000e+01 7.81860800e-03 1.13011600e-01
       25 -1    0    0    0    0 +0.0000000000e+00 +0.0000000000e+00 +9.9999998245e-15 1.2500000000e+02 1.2500000000e+02 0.0000e+00 0.0000e+00
      -13  1    1    0    0    0 +7.1500996733e+00 +5.4296986664e+01 +3.0115646251e+01 6.2499999994e+01 1.0566000000e-01 0.0000e+00 1.0000e+00
       13  1    1    0    0    0 -7.1500990840e+00 -5.4296982260e+01 -3.0115643403e+01 6.2499994729e+01 1.0566000000e-01 0.0000e+00 1.0000e+00
       22  1    1    0    0    0 -5.8939942242e-07 -4.4040916805e-06 -2.8474178717e-06 5.2774239687e-06 0.0000000000e+00 0.0000e+00 1.0000e+00
</event>
<event>
 4      1 +2.4041262e-06 9.11880000e+01 7.81860800e-03 1.13011600e-01
       25 -1    0    0    0    0 +0.0000000000e+00 +0.0000000000e+00 +9.9999998245e-15 1.2500000000e+02 1.2500000000e+02 0.0000e+00 0.0000e+00
      -13  1    1    0    0    0 +5.3694111341e+01 +1.3037816528e+01 -2.9209528964e+01 6.2499999991e+01 1.0566000000e-01 0.0000e+00 -1.0000e+00
       13  1    1    0    0    0 -5.3694111349e+01 -1.3037816530e+01 +2.9209528968e+01 6.2500000000e+01 1.0566000000e-01 0.0000e+00 -1.0000e+00
       22  1    1    0    0    0 +7.7230567440e-09 +1.5097818828e-09 -3.7114054049e-09 8.7005503782e-09 0.0000000000e+00 0.0000e+00 1.0000e+00
</event>
<event>
 4      1 +2.4041262e-06 9.11880000e+01 7.81860800e-03 1.13011600e-01
       25 -1    0    0    0    0 +0.0000000000e+00 +0.0000000000e+00 +9.9999998245e-15 1.2500000000e+02 1.2500000000e+02 0.0000e+00 0.0000e+00
      -13  1    1    0    0    0 -4.5285269559e+01 -4.0406365254e+01 -1.4926782772e+01 6.2500000000e+01 1.0566000000e-01 0.0000e+00 -1.0000e+00
       13  1    1    0    0    0 +4.5285269557e+01 +4.0406365252e+01 +1.4926782771e+01 6.2499999998e+01 1.0566000000e-01 0.0000e+00 -1.0000e+00
       22  1    1    0    0    0 +1.5479597441e-09 +1.2382327757e-09 +6.3242295967e-10 2.0807110747e-09 0.0000000000e+00 0.0000e+00 1.0000e+00
</event>
<event>
 4      1 +2.4041262e-06 9.11880000e+01 7.81860800e-03 1.13011600e-01
       25 -1    0    0    0    0 +0.0000000000e+00 +0.0000000000e+00 +9.9999998245e-15 1.2500000000e+02 1.2500000000e+02 0.0000e+00 0.0000e+00
      -13  1    1    0    0    0 -3.7884453630e+01 -1.6839426180e+01 +4.6770083761e+01 6.2500000000e+01 1.0566000000e-01 0.0000e+00 -1.0000e+00
       13  1    1    0    0    0 +3.7884453572e+01 +1.6839426163e+01 -4.6770083698e+01 6.2499999913e+01 1.0566000000e-01 0.0000e+00 -1.0000e+00
       22  1    1    0    0    0 +5.7604586577e-08 +1.7206795308e-08 -6.3009157697e-08 8.7089127641e-08 0.0000000000e+00 0.0000e+00 -1.0000e+00
</event>
<event>
 4      1 +2.4041262e-06 9.11880000e+01 7.81860800e-03 1.13011600e-01
       25 -1    0    0    0    0 +0.0000000000e+00 +0.0000000000e+00 +9.9999998245e-15 1.2500000000e+02 1.2500000000e+02 0.0000e+00 0.0000e+00
      -13  1    1    0    0    0 +3.8196571212e+01 -4.8250378399e+01 -1.0626399448e+01 6.2450048817e+01 1.0566000000e-01 0.0000e+00 1.0000e+00
       13  1    1    0    0    0 -3.5436384014e+01 +4.5242072616e+01 +1.0751724548e+01 5.8465316140e+01 1.0566000000e-01 0.0000e+00 1.0000e+00
       22  1    1    0    0    0 -2.7601871987e+00 +3.0083057824e+00 -1.2532510035e-01 4.0846350428e+00 0.0000000000e+00 0.0000e+00 -1.0000e+00
</event>
<event>
 4      1 +2.4041262e-06 9.11880000e+01 7.81860800e-03 1.13011600e-01
       25 -1    0    0    0    0 +0.0000000000e+00 +0.0000000000e+00 +9.9999998245e-15 1.2500000000e+02 1.2500000000e+02 0.0000e+00 0.0000e+00
      -11  1    1    0    0    0 +3.3483689013e+01 -4.3947843011e+01 -1.3623883203e+01 5.6905013215e+01 5.1100000000e-04 0.0000e+00 -1.0000e+00
       11  1    1    0    0    0 +6.3451549398e+00 -6.3557785290e-01 +4.0389983122e+00 7.5484076496e+00 5.1100000000e-04 0.0000e+00 1.0000e+00
       22  1    1    0    0    0 -3.9828843953e+01 +4.4583420864e+01 +9.5848848903e+00 6.0546579135e+01 0.0000000000e+00 0.0000e+00 -1.0000e+00
</event>
<event>
 4      1 +2.4041262e-06 9.11880000e+01 7.81860800e-03 1.13011600e-01
       25 -1    0    0    0    0 +0.0000000000e+00 +0.0000000000e+00 +9.9999998245e-15 1.2500000000e+02 1.2500000000e+02 0.0000e+00 0.0000e+00
      -11  1    1    0    0    0 -4.7042980233e+00 +2.1176011895e+01 +1.2752639527e+01 2.5163141990e+01 5.1100000000e-04 0.0000e+00 -1.0000e+00
       11  1    1    0    0    0 +4.9345964934e+01 +5.9411693888e-01 -6.0062797445e+00 4.9713706629e+01 5.1100000000e-04 0.0000e+00 1.0000e+00
       22  1    1    0    0    0 -4.4641666911e+01 -2.1770128834e+01 -6.7463597827e+00 5.0123151380e+01 0.0000000000e+00 0.0000e+00 1.0000e+00
</event>
<event>
 4      1 +2.4041262e-06 9.11880000e+01 7.81860800e-03 1.13011600e-01
       25 -1    0    0    0    0 +0.0000000000e+00 +0.0000000000e+00 +9.9999998245e-15 1.2500000000e+02 1.2500000000e+02 0.0000e+00 0.0000e+00
      -13  1    1    0    0    0 +4.7186389205e+01 +2.0358913401e+01 -3.5568530155e+01 6.2499377457e+01 1.0566000000e-01 0.0000e+00 -1.0000e+00
       13  1    1    0    0    0 -4.6936041102e+01 -2.0235412013e+01 +3.5343786103e+01 6.2142241944e+01 1.0566000000e-01 0.0000e+00 -1.0000e+00
       22  1    1    0    0    0 -2.5034810253e-01 -1.2350138837e-01 +2.2474405196e-01 3.5838059973e-01 0.0000000000e+00 0.0000e+00 -1.0000e+00
</event>
<event>
 4      1 +2.4041262e-06 9.11880000e+01 7.81860800e-03 1.13011600e-01
       25 -1    0    0    0    0 +0.0000000000e+00 +0.0000000000e+00 +9.9999998245e-15 1.2500000000e+02 1.2500000000e+02 0.0000e+00 0.0000e+00
      -13  1    1    0    0    0 +3.5650405286e+01 -4.6034099683e+01 -2.2718915137e+01 6.2499999998e+01 1.0566000000e-01 0.0000e+00 -1.0000e+00
       13  1    1    0    0    0 -3.5650405287e+01 +4.6034099685e+01 +2.2718915138e+01 6.2500000000e+01 1.0566000000e-01 0.0000e+00 -1.0000e+00
       22  1    1    0    0    0 +1.1059901101e-09 -1.6383652248e-09 -7.8302981755e-10 2.1261680152e-09 0.0000000000e+00 0.0000e+00 -1.0000e+00
</event>
<event>
 5      1 +2.4041262e-06 9.11880000e+01 7.81860800e-03 1.13011600e-01
       25 -1    0    0    0    0 +0.0000000000e+00 +0.0000000000e+00 +9.9999998245e-15 1.2500000000e+02 1.2500000000e+02 0.0000e+00 0.0000e+00
       23  2    1    0    0    0 -1.3825706000e+00 +2.8543892963e+01 +4.3334684741e+00 9.6095947067e+01 9.1645986091e+01 0.0000e+00 0.0000e+00
      -11  1    2    2    0    0 +1.2443952968e+01 +3.8871705809e+00 -4.0804507190e+01 4.2836548272e+01 5.1100000000e-04 0.0000e+00 1.0000e+00
       11  1    2    2    0    0 -1.3826523568e+01 +2.4656722382e+01 +4.5137975664e+01 5.3259398794e+01 5.1100000000e-04 0.0000e+00 -1.0000e+00
       22  1    1    0    0    0 +1.3825706000e+00 -2.8543892963e+01 -4.3334684741e+00 2.8904052933e+01 0.0000000000e+00 0.0000e+00 -1.0000e+00
</event>
<event>
 4      1 +2.4041262e-06 9.11880000e+01 7.81860800e-03 1.13011600e-01
       25 -1    0    0    0    0 +0.0000000000e+00 +0.0000000000e+00 +9.9999998245e-15 1.2500000000e+02 1.2500000000e+02 0.0000e+00 0.0000e+00
      -11  1    1    0    0    0 -1.9950304797e-01 -1.6133760464e+00 +5.2303856807e+00 5.4771998652e+00 5.1100000000e-04 0.0000e+00 1.0000e+00
       11  1    1    0    0    0 -1.1376836860e+00 -1.6447610977e+01 +5.4587785287e+01 5.7023192947e+01 5.1100000000e-04 0.0000e+00 -1.0000e+00
       22  1    1    0    0    0 +1.3371867340e+00 +1.8060987024e+01 -5.9818170968e+01 6.2499607188e+01 0.0000000000e+00 0.0000e+00 -1.0000e+00
</event>
<event>
 4      1 +2.4041262e-06 9.11880000e+01 7.81860800e-03 1.13011600e-01
       25 -1    0    0    0    0 +0.0000000000e+00 +0.0000000000e+00 +9.9999998245e-15 1.2500000000e+02 1.2500000000e+02 0.0000e+00 0.0000e+00
      -13  1    1    0    0    0 +3.3858232864e+01 -3.0856125984e+00 +4.5053030472e+01 5.6441896287e+01 1.0566000000e-01 0.0000e+00 -1.0000e+00
       13  1    1    0    0    0 +3.7135116231e+00 -2.4654139572e-01 +4.7803922027e+00 6.0592297268e+00 1.0566000000e-01 0.0000e+00 1.0000e+00
       22  1    1    0    0    0 -3.7571744487e+01 +3.3321539942e+00 -4.9833422674e+01 6.2498873986e+01 0.0000000000e+00 0.0000e+00 -1.0000e+00
</event>
<event>
 4      1 +2.4041262e-06 9.11880000e+01 7.81860800e-03 1.13011600e-01
       25 -1    0    0    0    0 +0.0000000000e+00 +0.0000000000e+00 +9.9999998245e-15 1.2500000000e+02 1.2500000000e+02 0.0000e+00 0.0000e+00
      -13  1    1    0    0    0 -3.7210940204e+01 +4.9819941483e+01 -6.2861679091e+00 6.2499661690e+01 1.0566000000e-01 0.0000e+00 1.0000e+00
       13  1    1    0    0    0 +3.7211392505e+01 -4.9819480451e+01 +6.2856518038e+00 6.2499511575e+01 1.0566000000e-01 0.0000e+00 1.0000e+00
       22  1    1    0    0    0 -4.5230023079e-04 -4.6103245861e-04 +5.1610525088e-04 8.2673517928e-04 0.0000000000e+00 0.0000e+00 -1.0000e+00
</event>
<event>
 4      1 +2.4041262e-06 9.11880000e+01 7.81860800e-03 1.13011600e-01
       25 -1    0    0    0    0 +0.0000000000e+00 +0.0000000000e+00 +9.9999998245e-15 1.2500000000e+02 1.2500000000e+02 0.0000e+00 0.0000e+00
      -13  1    1    0    0    0 -3.1334252129e+01 -4.7997819162e+01 -2.4220463183e+01 6.2227550182e+01 1.0566000000e-01 0.0000e+00 1.0000e+00
       13  1    1    0    0    0 -2.3120810854e-01 -5.6935306202e-02 -1.7755171290e-01 3.1525777532e-01 1.0566000000e-01 0.0000e+00 -1.0000e+00
       22  1    1    0    0    0 +3.1565460238e+01 +4.8054754468e+01 +2.4398014896e+01 6.2457192043e+01 0.0000000000e+00 0.0000e+00 1.0000e+00
</event>
<event>
 4      1 +2.4041262e-06 9.11880000e+01 7.81860800e-03 1.13011600e-01
       25 -1    0    0    0    0 +0.0000000000e+00 +0.0000000000e+00 +9.9999998245e-15 1.2500000000e+02 1.2500000000e+02 0.0000e+00 0.0000e+00
      -13  1    1    0    0    0 +4.2704366069e+01 +2.1916380478e+01 +4.0028092901e+01 6.2499999999e+01 1.0566000000e-01 0.0000e+00 1.0000e+00
       13  1    1    0    0    0 -4.2704366066e+01 -2.1916380479e+01 -4.0028092900e+01 6.2499999997e+01 1.0566000000e-01 0.0000e+00 1.0000e+00
       22  1    1    0    0    0 -2.6423147105e-09 +1.5682361592e-09 -1.4004644026e-09 3.3767576495e-09 0.0000000000e+00 0.0000e+00 1.0000e+00
</event>
<event>
 4      1 +2.4041262e-06 9.11880000e+01 7.81860800e-03 1.13011600e-01
       25 -1    0    0    0    0 +0.0000000000e+00 +0.0000000000e+00 +9.9999998245e-15 1.2500000000e+02 1.2500000000e+02 0.0000e+00 0.0000e+00
      -13  1    1    0    0    0 +3.4636257819e+01 +2.9825124058e+01 -4.2625786518e+01 6.2499417766e+01 1.0566000000e-01 0.0000e+00 -1.0000e+00
       13  1    1    0    0    0 -3.4636577820e+01 -2.9825404181e+01 +4.2626184178e+01 6.2499999994e+01 1.0566000000e-01 0.0000e+00 -1.0000e+00
       22  1    1    0    0    0 +3.2000042542e-04 +2.8012364131e-04 -3.9766068075e-04 5.8224010829e-04 0.0000000000e+00 0.0000e+00 1.0000e+00
</event>
<event>
 4      1 +2.4041262e-06 9.11880000e+01 7.81860800e-03 1.13011600e-01
       25 -1    0    0    0    0 +0.0000000000e+00 +0.0000000000e+00 +9.9999998245e-15 1.2500000000e+02 1.2500000000e+02 0.0000e+00 0.0000e+00
      -13  1    1    0    0    0 +3.5171293531e+01 +5.1256617712e+01 -6.4790499334e+00 6.2500000000e+01 1.0566000000e-01 0.0000e+00 1.0000e+00
       13  1    1    0    0    0 -3.5171289205e+01 -5.1256611383e+01 +6.4790491207e+00 6.2499992291e+01 1.0566000000e-01 0.0000e+00 1.0000e+00
       22  1    1    0    0    0 -4.3259977817e-06 -6.3289495658e-06 +8.1270935999e-07 7.7091086332e-06 0.0000000000e+00 0.0000e+00 -1.0000e+00
</event>
<event>
 4      1 +2.4041262e-06 9.11880000e+01 7.81860800e-03 1.13011600e-01
       25 -1    0    0    0    0 +0.0000000000e+00 +0.0000000000e+00 +9.9999998245e-15 1.2500000000e+02 1.2500000000e+02 0.0000e+00 0.0000e+00
      -11  1    1    0    0    0 -8.1202851151e+00 +3.9999806063e+00 +1.3072453531e+01 1.5900563411e+01 5.1100000000e-04 0.0000e+00 1.0000e+00
       11  1    1    0    0    0 -2.3797014788e+01 +1.1722315696e+01 +3.8311837502e+01 4.6599436597e+01 5.1100000000e-04 0.0000e+00 1.0000e+00
       22  1    1    0    0    0 +3.1917299903e+01 -1.5722296303e+01 -5.1384291033e+01 6.2499999993e+01 0.0000000000e+00 0.0000e+00 1.0000e+00
</event>
<event>
 4      1 +2.4041262e-06 9.11880000e+01 7.81860800e-03 1.13011600e-01
       25 -1    0    0    0    0 +0.0000000000e+00 +0.0000000000e+00 +9.9999998245e-15 1.2500000000e+02 1.2500000000e+02 0.0000e+00 0.0000e+00
      -13  1    1    0    0    0 +4.1343671656e-01 -1.3129652422e+01 -6.0806912137e+01 6.2209729386e+01 1.0566000000e-01 0.0000e+00 -1.0000e+00
       13  1    1    0    0    0 -3.7644687192e+00 +1.1088602104e+01 +4.4042388434e+01 4.5572705256e+01 1.0566000000e-01 0.0000e+00 -1.0000e+00
       22  1    1    0    0    0 +3.3510320027e+00 +2.0410503181e+00 +1.6764523702e+01 1.7217565358e+01 0.0000000000e+00 0.0000e+00 1.0000e+00
</event>
<event>
 4      1 +2.4041262e-06 9.11880000e+01 7.81860800e-03 1.13011600e-01
       25 -1    0    0    0    0 +0.0000000000e+00 +0.0000000000e+00 +9.9999998245e-15 1.2500000000e+02 1.2500000000e+02 0.0000e+00 0.0000e+00
      -13  1    1    0    0    0 +4.8146173541e+00 -1.8439115787e+01 +1.3242250711e+01 2.3206677901e+01 1.0566000000e-01 0.0000e+00 1.0000e+00
       13  1    1    0    0    0 +2.9479789327e-02 -2.6417530780e+01 +2.9531115302e+01 3.9623032905e+01 1.0566000000e-01 0.0000e+00 -1.0000e+00
       22  1    1    0    0    0 -4.8440971434e+00 +4.4856646567e+01 -4.2773366013e+01 6.2170289194e+01 0.0000000000e+00 0.0000e+00 -1.0000e+00
</event>
<event>
 4      1 +2.4041262e-06 9.11880000e+01 7.81860800e-03 1.13011600e-01
       25 -1    0    0    0    0 +0.0000000000e+00 +0.0000000000e+00 +9.9999998245e-15 1.2500000000e+02 1.2500000000e+02 0.0000e+00 0.0000e+00
      -13  1    1    0    0    0 -1.9296066043e+01 -7.4659228137e+00 +1.1282216569e+01 2.3566453763e+01 1.0566000000e-01 0.0000e+00 -1.0000e+00
       13  1    1    0    0    0 -3.1814143438e+01 -1.2130090362e+01 +1.8882947398e+01 3.8933991336e+01 1.0566000000e-01 0.0000e+00 -1.0000e+00
       22  1    1    0    0    0 +5.1110209482e+01 +1.9596013176e+01 -3.0165163967e+01 6.2499554901e+01 0.0000000000e+00 0.0000e+00 -1.0000e+00
</event>
<event>
 4      1 +2.4041262e-06 9.11880000e+01 7.81860800e-03 1.13011600e-01
       25 -1    0    0    0    0 +0.0000000000e+00 +0.0000000000e+00 +9.9999998245e-15 1.2500000000e+02 1.2500000000e+02 0.0000e+00 0.0000e+00
      -13  1    1    0    0    0 -4.8802637472e+01 -9.6740302963e+00 -3.7827959262e+01 6.2499999618e+01 1.0566000000e-01 0.0000e+00 -1.0000e+00
       13  1    1    0    0    0 +4.8802636790e+01 +9.6740314564e+00 +3.7827957703e+01 6.2499998322e+01 1.0566000000e-01 0.0000e+00 -1.0000e+00
       22  1    1    0    0    0 +6.8174621117e-07 -1.1601427368e-06 +1.5590715342e-06 2.0594691343e-06 0.0000000000e+00 0.0000e+00 -1.0000e+00
</event>
<event>
 4      1 +2.4041262e-06 9.11880000e+01 7.81860800e-03 1.13011600e-01
       25 -1    0    0    0    0 +0.0000000000e+00 +0.0000000000e+00 +9.9999998245e-15 1.2500000000e+02 1.2500000000e+02 0.0000e+00 0.0000e+00
      -11  1    1    0    0    0 -1.2243316161e+01 -8.0348311901e+00 +2.1158670454e+01 2.5732210136e+01 5.1100000000e-04 0.0000e+00 1.0000e+00
       11  1    1    0    0    0 -1.7492610746e+01 -1.1479541887e+01 +3.0234071176e+01 3.6767789882e+01 5.1100000000e-04 0.0000e+00 -1.0000e+00
       22  1    1    0    0    0 +2.9735926907e+01 +1.9514373077e+01 -5.1392741630e+01 6.2499999982e+01 0.0000000000e+00 0.0000e+00 -1.0000e+00
</event>
<event>
 4      1 +2.4041262e-06 9.11880000e+01 7.81860800e-03 1.13011600e-01
       25 -1    0    0    0    0 +0.0000000000e+00 +0.0000000000e+00 +9.9999998245e-15 1.2500000000e+02 1.2500000000e+02 0.0000e+00 0.0000e+00
      -13  1    1    0    0    0 +3.2470257813e+01 -3.2080943545e+01 +4.2693363312e+01 6.2499912129e+01 1.0566000000e-01 0.0000e+00 1.0000e+00
       13  1    1    0    0    0 -3.2470303246e+01 +3.2080988808e+01 -4.2693423383e+01 6.2500000000e+01 1.0566000000e-01 0.0000e+00 1.0000e+00
       22  1    1    0    0    0 +4.5432770769e-05 -4.5263323150e-05 +6.0071096085e-05 8.7871734176e-05 0.0000000000e+00 0.0000e+00 -1.0000e+00
</event>
<event>
 5      1 +2.4041262e-06 9.11880000e+01 7.81860800e-03 1.13011600e-01
       25 -1    0    0    0    0 +0.0000000000e+00 +0.0000000000e+00 +9.9999998245e-15 1.2500000000e+02 1.2500000000e+02 0.0000e+00 0.0000e+00
       23  2    1    0    0    0 +2.9693630422e+01 -4.3263655247e-01 -8.9711285781e+00 9.3977749759e+01 8.8709849734e+01 0.0000e+00 0.0000e+00
      -13  1    2    2    0    0 +5.5801249585e+01 -1.8195952718e+01 -1.7540173074e+01 6.1257987120e+01 1.0566000000e-01 0.0000e+00 -1.0000e+00
       13  1    2    2    0    0 -2.6107619162e+01 +1.7763316166e+01 +8.5690444960e+00 3.2719762639e+01 1.0566000000e-01 0.0000e+00 1.0000e+00
       22  1    1    0    0    0 -2.9693630422e+01 +4.3263655247e-01 +8.9711285781e+00 3.1022250241e+01 0.0000000000e+00 0.0000e+00 -1.0000e+00
</event>
<event>
 4      1 +2.4041262e-06 9.11880000e+01 7.81860800e-03 1.13011600e-01
       25 -1    0    0    0    0 +0.0000000000e+00 +0.0000000000e+00 +9.9999998245e-15 1.2500000000e+02 1.2500000000e+02 0.0000e+00 0.0000e+00
      -13  1    1    0    0    0 +4.7192186825e+01 +4.0959405199e+01 +1.2097314724e+00 6.2499999886e+01 1.0566000000e-01 0.0000e+00 1.0000e+00
       13  1    1    0    0    0 -4.7192186910e+01 -4.0959405273e+01 -1.2097314751e+00 6.2500000000e+01 1.0566000000e-01 0.0000e+00 1.0000e+00
       22  1    1    0    0    0 +8.5693968235e-08 +7.4745610025e-08 +2.7598594724e-09 1.1374523829e-07 0.0000000000e+00 0.0000e+00 -1.0000e+00
</event>
<event>
 4      1 +2.4041262e-06 9.11880000e+01 7.81860800e-03 1.13011600e-01
       25 -1    0    0    0    0 +0.0000000000e+00 +0.0000000000e+00 +9.9999998245e-15 1.2500000000e+02 1.2500000000e+02 0.0000e+00 0.0000e+00
      -13  1    1    0    0    0 +3.9742496441e+01 -4.6722576116e+00 +4.8009802860e+01 6.2499986794e+01 1.0566000000e-01 0.0000e+00 -1.0000e+00
       13  1    1    0    0    0 -3.9739898792e+01 +4.6716697818e+00 -4.8007163255e+01 6.2496263427e+01 1.0566000000e-01 0.0000e+00 -1.0000e+00
       22  1    1    0    0    0 -2.5976489922e-03 +5.8782976724e-04 -2.6396053745e-03 3.7497787474e-03 0.0000000000e+00 0.0000e+00 -1.0000e+00
</event>
<event>
 4      1 +2.4041262e-06 9.11880000e+01 7.81860800e-03 1.13011600e-01
       25 -1    0    0    0    0 +0.0000000000e+00 +0.0000000000e+00 +9.9999998245e-15 1.2500000000e+02 1.2500000000e+02 0.0000e+00 0.0000e+00
      -13  1    1    0    0    0 -5.2982718805e+01 -2.3457104901e+01 +2.3425977732e+01 6.2499534871e+01 1.0566000000e-01 0.0000e+00 -1.0000e+00
       13  1    1    0    0    0 +4.9415715436e+01 +2.1859413889e+01 -2.1755370057e+01 5.8249928738e+01 1.0566000000e-01 0.0000e+00 -1.0000e+00
       22  1    1    0    0    0 +3.5670033689e+00 +1.5976910124e+00 -1.6706076752e+00 4.2505363908e+00 0.0000000000e+00 0.0000e+00 -1.0000e+00
</event>
<event>
 5      1 +2.4041262e-06 9.11880000e+01 7.81860800e-03 1.13011600e-01
       25 -1    0    0    0    0 +0.0000000000e+00 +0.0000000000e+00 +9.9999998245e-15 1.2500000000e+02 1.2500000000e+02 0.0000e+00 0.0000e+00
       23  2    1    0    0    0 +1.2519134322e+00 +3.4185180801e+00 -2.9310527470e+01 9.5464249227e+01 9.0780296909e+01 0.0000e+00 0.0000e+00
      -11  1    2    2    0    0 +3.7560698130e+01 +2.0801459347e+01 +4.1256470071e+00 4.3133834961e+01 5.1100000000e-04 0.0000e+00 -1.0000e+00
       11  1    2    2    0    0 -3.6308784698e+01 -1.7382941266e+01 -3.3436174478e+01 5.2330414266e+01 5.1100000000e-04 0.0000e+00 1.0000e+00
       22  1    1    0    0    0 -1.2519134322e+00 -3.4185180801e+00 +2.9310527470e+01 2.9535750773e+01 0.0000000000e+00 0.0000e+00 1.0000e+00
</event>
<event>
 4      1 +2.4041262e-06 9.11880000e+01 7.81860800e-03 1.13011600e-01
       25 -1    0    0    0    0 +0.0000000000e+00 +0.0000000000e+00 +9.9999998245e-15 1.2500000000e+02 1.2500000000e+02 0.0000e+00 0.0000e+00
      -13  1    1    0    0    0 -6.8454508521e+00 -6.0999857309e+01 -1.1764184920e+01 6.2500000000e+01 1.0566000000e-01 0.0000e+00 1.0000e+00
       13  1    1    0    0    0 +6.8454508519e+00 +6.0999857309e+01 +1.1764184920e+01 6.2500000000e+01 1.0566000000e-01 0.0000e+00 1.0000e+00
       22  1    1    0    0    0 +2.1214666397e-10 +4.2482579520e-10 -2.2871593737e-11 4.7540117070e-10 0.0000000000e+00 0.0000e+00 -1.0000e+00
</event>
<event>
 4      1 +2.4041262e-06 9.11880000e+01 7.81860800e-03 1.13011600e-01
       25 -1    0    0    0    0 +0.0000000000e+00 +0.0000000000e+00 +9.9999998245e-15 1.2500000000e+02 1.2500000000e+02 0.0000e+00 0.0000e+00
      -13  1    1    0    0    0 -5.5324849947e+01 +1.5540587906e+01 -2.4573560864e+01 6.2499759613e+01 1.0566000000e-01 0.0000e+00 -1.0000e+00
       13  1    1    0    0    0 +5.5324798160e+01 -1.5540167287e+01 +2.4573854674e+01 6.2499724706e+01 1.0566000000e-01 0.0000e+00 -1.0000e+00
       22  1    1    0    0    0 +5.1787492466e-05 -4.2061909963e-04 -2.9381079344e-04 5.1568125202e-04 0.0000000000e+00 0.0000e+00 1.0000e+00
</event>
<event>
 4      1 +2.4041262e-06 9.11880000e+01 7.81860800e-03 1.13011600e-01
       25 -1    0    0    0    0 +0.0000000000e+00 +0.0000000000e+00 +9.9999998245e-15 1.2500000000e+02 1.2500000000e+02 0.0000e+00 0.0000e+00
      -13  1    1    0    0    0 -1.1522165719e+01 -6.0660397695e+01 +9.6847044594e+00 6.2499990527e+01 1.0566000000e-01 0.0000e+00 1.0000e+00
       13  1    1    0    0    0 +1.1522167475e+01 +6.0660406879e+01 -9.6847059814e+00 6.2500000000e+01 1.0566000000e-01 0.0000e+00 1.0000e+00
       22  1    1    0    0    0 -1.7559895567e-06 -9.1839127006e-06 +1.5220099667e-06 9.4733450351e-06 0.0000000000e+00 0.0000e+00 -1.0000e+00
</event>
<event>
 4      1 +2.4041262e-06 9.11880000e+01 7.81860800e-03 1.13011600e-01
       25 -1    0    0    0    0 +0.0000000000e+00 +0.0000000000e+00 +9.9999998245e-15 1.2500000000e+02 1.2500000000e+02 0.0000e+00 0.0000e+00
      -11  1    1    0    0    0 +1.0001133403e+01 +3.9164551043e+00 -1.0302824345e+01 1.4883194538e+01 5.1100000000e-04 0.0000e+00 -1.0000e+00
       11  1    1    0    0    0 +3.2749579601e+01 +1.6304104300e+01 -3.0520082512e+01 4.7642777185e+01 5.1100000000e-04 0.0000e+00 1.0000e+00
       22  1    1    0    0    0 -4.2750713003e+01 -2.0220559404e+01 +4.0822906857e+01 6.2474028277e+01 0.0000000000e+00 0.0000e+00 1.0000e+00
</event>
<event>
 4      1 +2.4041262e-06 9.11880000e+01 7.81860800e-03 1.13011600e-01
       25 -1    0    0    0    0 +0.0000000000e+00 +0.0000000000e+00 +9.9999998245e-15 1.2500000000e+02 1.2500000000e+02 0.0000e+00 0.0000e+00
      -13  1    1    0    0    0 +5.8314346847e+01 -9.4430177968e+00 +2.0388567404e+01 6.2493507488e+01 1.0566000000e-01 0.0000e+00 1.0000e+00
       13  1    1    0    0    0 -5.8319626789e+01 +9.4482343072e+00 -2.0388043290e+01 6.2499051782e+01 1.0566000000e-01 0.0000e+00 1.0000e+00
       22  1    1    0    0    0 +5.2799421908e-03 -5.2165104595e-03 -5.2411317380e-04 7.4407301746e-03 0.0000000000e+00 0.0000e+00 1.0000e+00
</event>
<event>
 4      1 +2.4041262e-06 9.11880000e+01 7.81860800e-03 1.13011600e-01
       25 -1    0    0    0    0 +0.0000000000e+00 +0.0000000000e+00 +9.9999998245e-15 1.2500000000e+02 1.2500000000e+02 0.0000e+00 0.0000e+00
      -13  1    1    0    0    0 -4.7296137280e+01 -3.3512436361e+01 -2.3371581965e+01 6.2500000000e+01 1.0566000000e-01 0.0000e+00 -1.0000e+00
       13  1    1    0    0    0 +4.7296137062e+01 +3.3512436208e+01 +2.3371581855e+01 6.2499999712e+01 1.0566000000e-01 0.0000e+00 -1.0000e+00
       22  1    1    0    0    0 +2.1834522619e-07 +1.5245486652e-07 +1.1000819679e-07 2.8813005308e-07 0.0000000000e+00 0.0000e+00 -1.0000e+00
</event>
<event>
 4      1 +2.4041262e-06 9.11880000e+01 7.81860800e-03 1.13011600e-01
       25 -1    0    0    0    0 +0.0000000000e+00 +0.0000000000e+00 +9.9999998245e-15 1.2500000000e+02 1.2500000000e+02 0.0000e+00 0.0000e+00
      -13  1    1    0    0    0 +3.9795991710e+01 -9.6313838294e+00 +4.7220249316e+01 6.2499980961e+01 1.0566000000e-01 0.0000e+00 1.0000e+00
       13  1    1    0    0    0 -3.9795010295e+01 +9.6307909814e+00 -4.7219082880e+01 6.2498383430e+01 1.0566000000e-01 0.0000e+00 1.0000e+00
       22  1    1    0    0    0 -9.8141476754e-04 +5.9284797454e-04 -1.1664353569e-03 1.6356084827e-03 0.0000000000e+00 0.0000e+00 -1.0000e+00
</event>
<event>
 4      1 +2.4041262e-06 9.11880000e+01 7.81860800e-03 1.13011600e-01
       25 -1    0    0    0    0 +0.0000000000e+00 +0.0000000000e+00 +9.9999998245e-15 1.2500000000e+02 1.2500000000e+02 0.0000e+00 0.0000e+00
      -13  1    1    0    0    0 +1.0218379406e+01 +3.5470725460e+01 +5.0434622965e+01 6.2500000000e+01 1.0566000000e-01 0.0000e+00 -1.0000e+00
       13  1    1    0    0    0 -1.0218379173e+01 -3.5470724493e+01 -5.0434621555e+01 6.2499998275e+01 1.0566000000e-01 0.0000e+00 -1.0000e+00
       22  1    1    0    0    0 -2.3358839231e-07 -9.6688423149e-07 -1.4097954954e-06 1.7253845928e-06 0.0000000000e+00 0.0000e+00 -1.0000e+00
</event>
<event>
 4      1 +2.4041262e-06 9.11880000e+01 7.81860800e-03 1.13011600e-01
       25 -1    0    0    0    0 +0.0000000000e+00 +0.0000000000e+00 +9.9999998245e-15 1.2500000000e+02 1.2500000000e+02 0.0000e+00 0.0000e+00
      -13  1    1    0    0    0 +3.0315578066e+00 -5.5755227426e+01 -2.8078511542e+01 6.2499997620e+01 1.0566000000e-01 0.0000e+00 1.0000e+00
       13  1    1    0    0    0 -3.0315579193e+00 +5.5755229549e+01 +2.8078512611e+01 6.2500000000e+01 1.0566000000e-01 0.0000e+00 1.0000e+00
       22  1    1    0    0    0 +1.1270601655e-07 -2.1227637094e-06 -1.0695487811e-06 2.3796560691e-06 0.0000000000e+00 0.0000e+00 1.0000e+00
</event>
<event>
 4      1 +2.4041262e-06 9.11880000e+01 7.81860800e-03 1.13011600e-01
       25 -1    0    0    0    0 +0.0000000000e+00 +0.0000000000e+00 +9.9999998245e-15 1.2500000000e+02 1.2500000000e+02 0.0000e+00 0.0000e+00
      -13  1    1    0    0    0 +1.4732316473e+01 +5.9705646974e+01 +1.1154972027e+01 6.2499999954e+01 1.0566000000e-01 0.0000e+00 -1.0000e+00
       13  1    1    0    0    0 -1.4732315230e+01 -5.9705644371e+01 -1.1154971953e+01 6.2499997161e+01 1.0566000000e-01 0.0000e+00 -1.0000e+00
       22  1    1    0    0    0 -1.2428976999e-06 -2.6032653250e-06 -7.3599604308e-08 2.8856891632e-06 0.0000000000e+00 0.0000e+00 1.0000e+00
</event>
<event>
 4      1 +2.4041262e-06 9.11880000e+01 7.81860800e-03 1.13011600e-01
       25 -1    0    0    0    0 +0.0000000000e+00 +0.0000000000e+00 +9.9999998245e-15 1.2500000000e+02 1.2500000000e+02 0.0000e+00 0.0000e+00
      -13  1    1    0    0    0 -3.0201501681e+01 -1.2318453299e+01 +5.3313823871e+01 6.2499999801e+01 1.0566000000e-01 0.0000e+00 -1.0000e+00
       13  1    1    0    0    0 +3.0199659390e+01 +1.2317643174e+01 -5.3310550086e+01 6.2496157283e+01 1.0566000000e-01 0.0000e+00 -1.0000e+00
       22  1    1    0    0    0 +1.8422909089e-03 +8.1012418275e-04 -3.2737849004e-03 3.8429161530e-03 0.0000000000e+00 0.0000e+00 1.0000e+00
</event>
<event>
 4      1 +2.4041262e-06 9.11880000e+01 7.81860800e-03 1.13011600e-01
       25 -1    0    0    0    0 +0.0000000000e+00 +0.0000000000e+00 +9.9999998245e-15 1.2500000000e+02 1.2500000000e+02 0.0000e+00 0.0000e+00
      -11  1    1    0    0    0 -3.3349781697e+01 +3.3744991537e+01 -3.3565794386e+01 5.8117079642e+01 5.1100000000e-04 0.0000e+00 1.0000e+00
       11  1    1    0    0    0 -2.5149851078e+00 +2.5464955504e+00 -2.5298623155e+00 4.3829206332e+00 5.1100000000e-04 0.0000e+00 -1.0000e+00
       22  1    1    0    0    0 +3.5864766805e+01 -3.6291487087e+01 +3.6095656701e+01 6.2499999725e+01 0.0000000000e+00 0.0000e+00 1.0000e+00
</event>
<event>
 4      1 +2.4041262e-06 9.11880000e+01 7.81860800e-03 1.13011600e-01
       25 -1    0    0    0    0 +0.0000000000e+00 +0.0000000000e+00 +9.9999998245e-15 1.2500000000e+02 1.2500000000e+02 0.0000e+00 0.0000e+00
      -13  1    1    0    0    0 +6.0470403822e+01 +1.2737342488e+01 -9.3450095740e+00 6.2500000000e+01 1.0566000000e-01 0.0000e+00 1.0000e+00
       13  1    1    0    0    0 -6.0470401248e+01 -1.2737341944e+01 +9.3450091810e+00 6.2499997340e+01 1.0566000000e-01 0.0000e+00 1.0000e+00
       22  1    1    0    0    0 -2.5739129987e-06 -5.4471023361e-07 +3.9293425573e-07 2.6601005043e-06 0.0000000000e+00 0.0000e+00 1.0000e+00
</event>
<event>
 4      1 +2.4041262e-06 9.11880000e+01 7.81860800e-03 1.13011600e-01
       25 -1    0    0    0    0 +0.0000000000e+00 +0.0000000000e+00 +9.9999998245e-15 1.2500000000e+02 1.2500000000e+02 0.0000e+00 0.0000e+00
      -13  1    1    0    0    0 +3.4252867433e+01 -5.4537017713e+00 +5.0444015480e+01 6.1217739685e+01 1.0566000000e-01 0.0000e+00 -1.0000e+00
       13  1    1    0    0    0 -3.4961265084e+01 +5.5758001359e+00 -5.1505873630e+01 6.2499966287e+01 1.0566000000e-01 0.0000e+00 -1.0000e+00
       22  1    1    0    0    0 +7.0839765131e-01 -1.2209836463e-01 +1.0618581503e+00 1.2822940280e+00 0.0000000000e+00 0.0000e+00 1.0000e+00
</event>
<event>
 4      1 +2.4041262e-06 9.11880000e+01 7.81860800e-03 1.13011600e-01
       25 -1    0    0    0    0 +0.0000000000e+00 +0.0000000000e+00 +9.9999998245e-15 1.2500000000e+02 1.2500000000e+02 0.0000e+00 0.0000e+00
      -13  1    1    0    0    0 +4.6065736253e+01 +3.6873746762e+01 +2.5479564762e+00 5.9061226731e+01 1.0566000000e-01 0.0000e+00 -1.0000e+00
       13  1    1    0    0    0 -4.8808634321e+01 -3.8939266848e+01 -2.7520710851e+00 6.2499074763e+01 1.0566000000e-01 0.0000e+00 -1.0000e+00
       22  1    1    0    0    0 +2.7428980684e+00 +2.0655200860e+00 +2.0411460895e-01 3.4396985061e+00 0.0000000000e+00 0.0000e+00 -1.0000e+00
</event>
<event>
 4      1 +2.4041262e-06 9.11880000e+01 7.81860800e-03 1.13011600e-01
       25 -1    0    0    0    0 +0.0000000000e+00 +0.0000000000e+00 +9.9999998245e-15 1.2500000000e+02 1.2500000000e+02 0.0000e+00 0.0000e+00
      -13  1    1    0    0    0 -8.5389572055e-01 +2.1215377082e+01 -5.8782799050e+01 6.2499999926e+01 1.0566000000e-01 0.0000e+00 -1.0000e+00
       13  1    1    0    0    0 +8.5379621963e-01 -2.1212332605e+01 +5.8774492931e+01 6.2491153021e+01 1.0566000000e-01 0.0000e+00 -1.0000e+00
       22  1    1    0    0    0 +9.9500913223e-05 -3.0444765775e-03 +8.3061183779e-03 8.8470526488e-03 0.0000000000e+00 0.0000e+00 -1.0000e+00
</event>
<event>
 4      1 +2.4041262e-06 9.11880000e+01 7.81860800e-03 1.13011600e-01
       25 -1    0    0    0    0 +0.0000000000e+00 +0.0000000000e+00 +9.9999998245e-15 1.2500000000e+02 1.2500000000e+02 0.0000e+00 0.0000e+00
      -13  1    1    0    0    0 +5.0367580357e+01 +2.5615771314e+01 +2.6705390480e+01 6.2499999486e+01 1.0566000000e-01 0.0000e+00 -1.0000e+00
       13  1    1    0    0    0 -5.0367580846e+01 -2.5615771349e+01 -2.6705390687e+01 6.2499999982e+01 1.0566000000e-01 0.0000e+00 -1.0000e+00
       22  1    1    0    0    0 +4.8869725961e-07 +3.5240296557e-08 +2.0621451224e-07 5.3159318573e-07 0.0000000000e+00 0.0000e+00 -1.0000e+00
</event>
<event>
 4      1 +2.4041262e-06 9.11880000e+01 7.81860800e-03 1.13011600e-01
       25 -1    0    0    0    0 +0.0000000000e+00 +0.0000000000e+00 +9.9999998245e-15 1.2500000000e+02 1.2500000000e+02 0.0000e+00 0.0000e+00
      -13  1    1    0    0    0 -2.4725432976e+01 -1.8160109842e+00 -5.7175902138e+01 6.2319658865e+01 1.0566000000e-01 0.0000e+00 -1.0000e+00
       13  1    1    0    0    0 +2.4558953902e+01 +1.5373337329e+00 +5.7277969527e+01 6.2340055895e+01 1.0566000000e-01 0.0000e+00 -1.0000e+00
       22  1    1    0    0    0 +1.6647907463e-01 +2.7867725125e-01 -1.0206738973e-01 3.4028524020e-01 0.0000000000e+00 0.0000e+00 -1.0000e+00
</event>
<event>
 4      1 +2.4041262e-06 9.11880000e+01 7.81860800e-03 1.13011600e-01
       25 -1    0    0    0    0 +0.0000000000e+00 +0.0000000000e+00 +9.9999998245e-15 1.2500000000e+02 1.2500000000e+02 0.0000e+00 0.0000e+00
      -13  1    1    0    0    0 -2.8881694113e+01 +2.9187454788e+01 +4.7118776131e+01 6.2500000000e+01 1.0566000000e-01 0.0000e+00 -1.0000e+00
       13  1    1    0    0    0 +2.8881694113e+01 -2.9187454788e+01 -4.7118776131e+01 6.2500000000e+01 1.0566000000e-01 0.0000e+00 -1.0000e+00
       22  1    1    0    0    0 +2.8276696985e-11 -3.9083957187e-10 +1.8752010168e-10 4.3441792212e-10 0.0000000000e+00 0.0000e+00 1.0000e+00
</event>
<event>
 4      1 +2.4041262e-06 9.11880000e+01 7.81860800e-03 1.13011600e-01
       25 -1    0    0    0    0 +0.0000000000e+00 +0.0000000000e+00 +9.9999998245e-15 1.2500000000e+02 1.2500000000e+02 0.0000e+00 0.0000e+00
      -13  1    1    0    0    0 -2.0566792389e+01 +5.9018501834e+01 -2.4964075552e-01 6.2499999939e+01 1.0566000000e-01 0.0000e+00 -1.0000e+00
       13  1    1    0    0    0 +2.0566792409e+01 -5.9018501891e+01 +2.4964075544e-01 6.2500000000e+01 1.0566000000e-01 0.0000e+00 -1.0000e+00
       22  1    1    0    0    0 -2.0148729663e-08 +5.7606797665e-08 +7.9018181857e-11 6.1028851276e-08 0.0000000000e+00 0.0000e+00 -1.0000e+00
</event>
<event>
 5      1 +2.4041262e-06 9.11880000e+01 7.81860800e-03 1.13011600e-01
       25 -1    0    0    0    0 +0.0000000000e+00 +0.0000000000e+00 +9.9999998245e-15 1.2500000000e+02 1.2500000000e+02 0.0000e+00 0.0000e+00
       23  2    1    0    0    0 +4.0502761866e+00 +2.4652731021e+01 -1.4928072634e+01 9.5896576893e+01 9.1373651690e+01 0.0000e+00 0.0000e+00
      -11  1    2    2    0    0 +4.1310666388e+01 -9.7550975810e+00 -1.5465599681e+01 4.5176518901e+01 5.1100000000e-04 0.0000e+00 1.0000e+00
       11  1    2    2    0    0 -3.7260390202e+01 +3.4407828602e+01 +5.3752704676e-01 5.0720057992e+01 5.1100000000e-04 0.0000e+00 -1.0000e+00
       22  1    1    0    0    0 -4.0502761866e+00 -2.4652731021e+01 +1.4928072634e+01 2.9103423107e+01 0.0000000000e+00 0.0000e+00 -1.0000e+00
</event>
<event>
 4      1 +2.4041262e-06 9.11880000e+01 7.81860800e-03 1.13011600e-01
       25 -1    0    0    0    0 +0.0000000000e+00 +0.0000000000e+00 +9.9999998245e-15 1.2500000000e+02 1.2500000000e+02 0.0000e+00 0.0000e+00
      -13  1    1    0    0    0 +4.3522380417e+01 +4.0571532750e+01 -1.7929330198e+01 6.2142730164e+01 1.0566000000e-01 0.0000e+00 -1.0000e+00
       13  1    1    0    0    0 -3.8403057260e+01 -3.7441159102e+01 +1.8714359904e+01 5.6805577477e+01 1.0566000000e-01 0.0000e+00 -1.0000e+00
       22  1    1    0    0    0 -5.1193231570e+00 -3.1303736482e+00 -7.8502970605e-01 6.0516923585e+00 0.0000000000e+00 0.0000e+00 -1.0000e+00
</event>
<event>
 4      1 +2.4041262e-06 9.11880000e+01 7.81860800e-03 1.13011600e-01
       25 -1    0    0    0    0 +0.0000000000e+00 +0.0000000000e+00 +9.9999998245e-15 1.2500000000e+02 1.2500000000e+02 0.0000e+00 0.0000e+00
      -13  1    1    0    0    0 -8.0174417627e+00 +1.3197595200e+00 -1.4803361724e+01 1.6887031118e+01 1.0566000000e-01 0.0000e+00 -1.0000e+00
       13  1    1    0    0    0 -2.1702592665e+01 +3.7179680137e+00 -3.9946592820e+01 4.5613235541e+01 1.0566000000e-01 0.0000e+00 1.0000e+00
       22  1    1    0    0    0 +2.9720034428e+01 -5.0377275337e+00 +5.4749954544e+01 6.2499733341e+01 0.0000000000e+00 0.0000e+00 1.0000e+00
</event>
<event>
 4      1 +2.4041262e-06 9.11880000e+01 7.81860800e-03 1.13011600e-01
       25 -1    0    0    0    0 +0.0000000000e+00 +0.0000000000e+00 +9.9999998245e-15 1.2500000000e+02 1.2500000000e+02 0.0000e+00 0.0000e+00
      -13  1    1    0    0    0 -6.0431552751e+01 +3.6545150094e+00 +1.5521301110e+01 6.2500000000e+01 1.0566000000e-01 0.0000e+00 -1.0000e+00
       13  1    1    0    0    0 +6.0431552749e+01 -3.6545150089e+00 -1.5521301109e+01 6.2499999999e+01 1.0566000000e-01 0.0000e+00 -1.0000e+00
       22  1    1    0    0    0 +1.2600700175e-09 -4.5937778564e-10 -7.9267695916e-10 1.5579284838e-09 0.0000000000e+00 0.0000e+00 -1.0000e+00
</event>
<event>
 4      1 +2.4041262e-06 9.11880000e+01 7.81860800e-03 1.13011600e-01
       25 -1    0    0    0    0 +0.0000000000e+00 +0.0000000000e+00 +9.9999998245e-15 1.2500000000e+02 1.2500000000e+02 0.0000e+00 0.0000e+00
      -13  1    1    0    0    0 +1.3310465171e+01 +5.9707981091e+01 -1.2806996492e+01 6.2499934498e+01 1.0566000000e-01 0.0000e+00 -1.0000e+00
       13  1    1    0    0    0 -1.3310477661e+01 -5.9708043823e+01 +1.2807010657e+01 6.2499999990e+01 1.0566000000e-01 0.0000e+00 -1.0000e+00
       22  1    1    0    0    0 +1.2489311620e-05 +6.2731549813e-05 -1.4165248212e-05 6.5512475939e-05 0.0000000000e+00 0.0000e+00 -1.0000e+00
</event>
<event>
 4      1 +2.4041262e-06 9.11880000e+01 7.81860800e-03 1.13011600e-01
       25 -1    0    0    0    0 +0.0000000000e+00 +0.0000000000e+00 +9.9999998245e-15 1.2500000000e+02 1.2500000000e+02 0.0000e+00 0.0000e+00
      -13  1    1    0    0    0 +4.4325786170e+01 +7.5081494696e+00 -4.3417637061e+01 6.2500000000e+01 1.0566000000e-01 0.0000e+00 1.0000e+00
       13  1    1    0    0    0 -4.4325786132e+01 -7.5081494594e+00 +4.3417637022e+01 6.2499999945e+01 1.0566000000e-01 0.0000e+00 1.0000e+00
       22  1    1    0    0    0 -3.7449009450e-08 -1.0137241407e-08 +3.8706937748e-08 5.4803457938e-08 0.0000000000e+00 0.0000e+00 -1.0000e+00
</event>
<event>
 4      1 +2.4041262e-06 9.11880000e+01 7.81860800e-03 1.13011600e-01
       25 -1    0    0    0    0 +0.0000000000e+00 +0.0000000000e+00 +9.9999998245e-15 1.2500000000e+02 1.2500000000e+02 0.0000e+00 0.0000e+00
      -13  1    1    0    0    0 +1.4525660555e+01 +2.8693206723e+01 +5.3590520703e+01 6.2499999999e+01 1.0566000000e-01 0.0000e+00 1.0000e+00
       13  1    1    0    0    0 -1.4525660555e+01 -2.8693206723e+01 -5.3590520704e+01 6.2500000000e+01 1.0566000000e-01 0.0000e+00 1.0000e+00
       22  1    1    0    0    0 +3.7535796540e-10 +6.2272163295e-10 +7.7790971618e-10 1.0648095421e-09 0.0000000000e+00 0.0000e+00 1.0000e+00
</event>
<event>
 4      1 +2.4041262e-06 9.11880000e+01 7.81860800e-03 1.13011600e-01
       25 -1    0    0    0    0 +0.0000000000e+00 +0.0000000000e+00 +9.9999998245e-15 1.2500000000e+02 1.2500000000e+02 0.0000e+00 0.0000e+00
      -13  1    1    0    0    0 +1.0132895041e+01 +5.2187739368e+01 -3.2859841713e+01 6.2498128481e+01 1.0566000000e-01 0.0000e+00 -1.0000e+00
       13  1    1    0    0    0 -1.0133199064e+01 -5.2189300292e+01 +3.2860828464e+01 6.2499999997e+01 1.0566000000e-01 0.0000e+00 -1.0000e+00
       22  1    1    0    0    0 +3.0402218387e-04 +1.5609243994e-03 -9.8675122573e-04 1.8715214266e-03 0.0000000000e+00 0.0000e+00 1.0000e+00
</event>
<event>
 4      1 +2.4041262e-06 9.11880000e+01 7.81860800e-03 1.13011600e-01
       25 -1    0    0    0    0 +0.0000000000e+00 +0.0000000000e+00 +9.9999998245e-15 1.2500000000e+02 1.2500000000e+02 0.0000e+00 0.0000e+00
      -13  1    1    0    0    0 +3.8509063313e+01 -4.0415893783e+01 +2.4293524997e+01 6.0881679908e+01 1.0566000000e-01 0.0000e+00 -1.0000e+00
       13  1    1    0    0    0 -9.6765459558e+00 +3.0536195600e+00 +1.6233936786e+00 1.0276512303e+01 1.0566000000e-01 0.0000e+00 1.0000e+00
       22  1    1    0    0    0 -2.8832517358e+01 +3.7362274223e+01 -2.5916918675e+01 5.3841807789e+01 0.0000000000e+00 0.0000e+00 -1.0000e+00
</event>
<event>
 4      1 +2.4041262e-06 9.11880000e+01 7.81860800e-03 1.13011600e-01
       25 -1    0    0    0    0 +0.0000000000e+00 +0.0000000000e+00 +9.9999998245e-15 1.2500000000e+02 1.2500000000e+02 0.0000e+00 0.0000e+00
      -13  1    1    0    0    0 -3.0133900687e+01 -3.3110940959e+01 -4.3610233171e+01 6.2499999865e+01 1.0566000000e-01 0.0000e+00 1.0000e+00
       13  1    1    0    0    0 +3.0133900747e+01 +3.3110941037e+01 +4.3610233264e+01 6.2500000000e+01 1.0566000000e-01 0.0000e+00 1.0000e+00
       22  1    1    0    0    0 -6.0032897038e-08 -7.7822947971e-08 -9.3314640135e-08 1.3552852844e-07 0.0000000000e+00 0.0000e+00 1.0000e+00
</event>
<event>
 4      1 +2.4041262e-06 9.11880000e+01 7.81860800e-03 1.13011600e-01
       25 -1    0    0    0    0 +0.0000000000e+00 +0.0000000000e+00 +9.9999998245e-15 1.2500000000e+02 1.2500000000e+02 0.0000e+00 0.0000e+00
      -13  1    1    0    0    0 +1.1542296502e+01 +5.5435251230e+01 -2.6456513960e+01 6.2499999859e+01 1.0566000000e-01 0.0000e+00 -1.0000e+00
       13  1    1    0    0    0 -1.1529592434e+01 -5.5375008714e+01 +2.6427761959e+01 6.2432049926e+01 1.0566000000e-01 0.0000e+00 -1.0000e+00
       22  1    1    0    0    0 -1.2704067528e-02 -6.0242516327e-02 +2.8752000562e-02 6.7950214433e-02 0.0000000000e+00 0.0000e+00 1.0000e+00
</event>
<event>
 4      1 +2.4041262e-06 9.11880000e+01 7.81860800e-03 1.13011600e-01
       25 -1    0    0    0    0 +0.0000000000e+00 +0.0000000000e+00 +9.9999998245e-15 1.2500000000e+02 1.2500000000e+02 0.0000e+00 0.0000e+00
      -13  1    1    0    0    0 -5.5556662169e+01 -1.0391785948e+01 +2.6677833583e+01 6.2499999162e+01 1.0566000000e-01 0.0000e+00 -1.0000e+00
       13  1    1    0    0    0 +5.5556662891e+01 +1.0391786279e+01 -2.6677833885e+01 6.2499999988e+01 1.0566000000e-01 0.0000e+00 -1.0000e+00
       22  1    1    0    0    0 -7.2182126954e-07 -3.3110826279e-07 +3.0220540883e-07 8.4969802634e-07 0.0000000000e+00 0.0000e+00 1.0000e+00
</event>
<event>
 4      1 +2.4041262e-06 9.11880000e+01 7.81860800e-03 1.13011600e-01
       25 -1    0    0    0    0 +0.0000000000e+00 +0.0000000000e+00 +9.9999998245e-15 1.2500000000e+02 1.2500000000e+02 0.0000e+00 0.0000e+00
      -13  1    1    0    0    0 -1.9855547081e+01 +2.1635572418e+01 +4.5381748302e+01 5.4054185654e+01 1.0566000000e-01 0.0000e+00 1.0000e+00
       13  1    1    0    0    0 +2.1136312424e+01 -2.3764220373e+01 -5.3619211093e+01 6.2341902723e+01 1.0566000000e-01 0.0000e+00 1.0000e+00
       22  1    1    0    0    0 -1.2807653432e+00 +2.1286479550e+00 +8.2374627913e+00 8.6039116231e+00 0.0000000000e+00 0.0000e+00 1.0000e+00
</event>
<event>
 4      1 +2.4041262e-06 9.11880000e+01 7.81860800e-03 1.13011600e-01
       25 -1    0    0    0    0 +0.0000000000e+00 +0.0000000000e+00 +9.9999998245e-15 1.2500000000e+02 1.2500000000e+02 0.0000e+00 0.0000e+00
      -13  1    1    0    0    0 -4.2771639010e+01 +2.3175254184e+01 -3.9239435335e+01 6.2499999677e+01 1.0566000000e-01 0.0000e+00 -1.0000e+00
       13  1    1    0    0    0 +4.2755314630e+01 -2.3166303297e+01 +3.9224233176e+01 6.2475964737e+01 1.0566000000e-01 0.0000e+00 -1.0000e+00
       22  1    1    0    0    0 +1.6324380066e-02 -8.9508873352e-03 +1.5202159251e-02 2.4035586419e-02 0.0000000000e+00 0.0000e+00 -1.0000e+00
</event>
<event>
 4      1 +2.4041262e-06 9.11880000e+01 7.81860800e-03 1.13011600e-01
       25 -1    0    0    0    0 +0.0000000000e+00 +0.0000000000e+00 +9.9999998245e-15 1.2500000000e+02 1.2500000000e+02 0.0000e+00 0.0000e+00
      -13  1    1    0    0    0 +4.1622559898e-01 -3.5836300520e+00 -1.4036950291e-01 3.6119960869e+00 1.0566000000e-01 0.0000e+00 -1.0000e+00
       13  1    1    0    0    0 +1.4393267318e+01 -5.4160696530e+01 +1.8494024134e+01 5.9013450038e+01 1.0566000000e-01 0.0000e+00 1.0000e+00
       22  1    1    0    0    0 -1.4809492917e+01 +5.7744326582e+01 -1.8353654631e+01 6.2374553875e+01 0.0000000000e+00 0.0000e+00 1.0000e+00
</event>
<event>
 4      1 +2.4041262e-06 9.11880000e+01 7.81860800e-03 1.13011600e-01
       25 -1    0    0    0    0 +0.0000000000e+00 +0.0000000000e+00 +9.9999998245e-15 1.2500000000e+02 1.2500000000e+02 0.0000e+00 0.0000e+00
      -13  1    1    0    0    0 +1.9417422165e+01 -4.3485901825e+01 -4.0474422409e+01 6.2499999796e+01 1.0566000000e-01 0.0000e+00 -1.0000e+00
       13  1    1    0    0    0 -1.9417405297e+01 +4.3485874378e+01 +4.0474400192e+01 6.2499961070e+01 1.0566000000e-01 0.0000e+00 -1.0000e+00
       22  1    1    0    0    0 -1.6867842129e-05 +2.7447536253e-05 +2.2216814915e-05 3.9134105450e-05 0.0000000000e+00 0.0000e+00 -1.0000e+00
</event>
<event>
 4      1 +2.4041262e-06 9.11880000e+01 7.81860800e-03 1.13011600e-01
       25 -1    0    0    0    0 +0.0000000000e+00 +0.0000000000e+00 +9.9999998245e-15 1.2500000000e+02 1.2500000000e+02 0.0000e+00 0.0000e+00
      -13  1    1    0    0    0 +3.7064700668e+00 -8.8552667416e+00 +6.1758280145e+01 6.2499999999e+01 1.0566000000e-01 0.0000e+00 -1.0000e+00
       13  1    1    0    0    0 -3.7064700675e+00 +8.8552667044e+00 -6.1758280007e+01 6.2499999858e+01 1.0566000000e-01 0.0000e+00 -1.0000e+00
       22  1    1    0    0    0 +7.8750807130e-10 +3.7157993590e-08 -1.3767222658e-07 1.4260076658e-07 0.0000000000e+00 0.0000e+00 1.0000e+00
</event>
<event>
 4      1 +2.4041262e-06 9.11880000e+01 7.81860800e-03 1.13011600e-01
       25 -1    0    0    0    0 +0.0000000000e+00 +0.0000000000e+00 +9.9999998245e-15 1.2500000000e+02 1.2500000000e+02 0.0000e+00 0.0000e+00
      -13  1    1    0    0    0 +3.3679622208e+01 -4.5676261194e+01 -2.6183984541e+01 6.2499999994e+01 1.0566000000e-01 0.0000e+00 1.0000e+00
       13  1    1    0    0    0 -3.3679622212e+01 +4.5676261198e+01 +2.6183984544e+01 6.2500000000e+01 1.0566000000e-01 0.0000e+00 1.0000e+00
       22  1    1    0    0    0 +3.1362088952e-09 -4.1589835543e-09 -2.7666729107e-09 5.8980869300e-09 0.0000000000e+00 0.0000e+00 1.0000e+00
</event>
<event>
 4      1 +2.4041262e-06 9.11880000e+01 7.81860800e-03 1.13011600e-01
       25 -1    0    0    0    0 +0.0000000000e+00 +0.0000000000e+00 +9.9999998245e-15 1.2500000000e+02 1.2500000000e+02 0.0000e+00 0.0000e+00
      -13  1    1    0    0    0 -1.9964858667e+01 +5.7980964374e+00 -5.8940863007e+01 6.2500000000e+01 1.0566000000e-01 0.0000e+00 1.0000e+00
       13  1    1    0    0    0 +1.9964858649e+01 -5.7980964344e+00 +5.8940862972e+01 6.2499999960e+01 1.0566000000e-01 0.0000e+00 1.0000e+00
       22  1    1    0    0    0 +1.8236966099e-08 -2.9950325770e-09 +3.5458436241e-08 3.9985720618e-08 0.0000000000e+00 0.0000e+00 -1.0000e+00
</event>
<event>
 5      1 +2.4041262e-06 9.11880000e+01 7.81860800e-03 1.13011600e-01
       25 -1    0    0    0    0 +0.0000000000e+00 +0.0000000000e+00 +9.9999998245e-15 1.2500000000e+02 1.2500000000e+02 0.0000e+00 0.0000e+00
       23  2    1    0    0    0 +8.6799592418e+00 -1.7274652453e+01 +2.1072353544e+01 9.6402807941e+01 9.2063575779e+01 0.0000e+00 0.0000e+00
      -11  1    2    2    0    0 +4.6156226287e+01 -2.6339046391e+01 +2.2754468929e+01 5.7809241877e+01 5.1100000000e-04 0.0000e+00 -1.0000e+00
       11  1    2    2    0    0 -3.7476267045e+01 +9.0643939385e+00 -1.6821153852e+00 3.8593566064e+01 5.1100000000e-04 0.0000e+00 1.0000e+00
       22  1    1    0    0    0 -8.6799592418e+00 +1.7274652453e+01 -2.1072353544e+01 2.8597192059e+01 0.0000000000e+00 0.0000e+00 -1.0000e+00
</event>
<event>
 4      1 +2.4041262e-06 9.11880000e+01 7.81860800e-03 1.13011600e-01
       25 -1    0    0    0    0 +0.0000000000e+00 +0.0000000000e+00 +9.9999998245e-15 1.2500000000e+02 1.2500000000e+02 0.0000e+00 0.0000e+00
      -13  1    1    0    0    0 +3.4421799443e+01 -2.6411438891e+01 +3.4827098754e+01 5.5635980739e+01 1.0566000000e-01 0.0000e+00 -1.0000e+00
       13  1    1    0    0    0 -3.6150200060e+01 +2.8414694344e+01 -4.1653765335e+01 6.2042559180e+01 1.0566000000e-01 0.0000e+00 -1.0000e+00
       22  1    1    0    0    0 +1.7284006174e+00 -2.0032554533e+00 +6.8266665809e+00 7.3214600807e+00 0.0000000000e+00 0.0000e+00 1.0000e+00
</event>
<event>
 5      1 +2.4041262e-06 9.11880000e+01 7.81860800e-03 1.13011600e-01
       25 -1    0    0    0    0 +0.0000000000e+00 +0.0000000000e+00 +9.9999998245e-15 1.2500000000e+02 1.2500000000e+02 0.0000e+00 0.0000e+00
       23  2    1    0    0    0 -2.2271147155e+01 -2.0981945621e+01 +3.9760038991e+00 9.4144617250e+01 8.8944669950e+01 0.0000e+00 0.0000e+00
      -11  1    2    2    0    0 -3.3514494289e+01 +2.7045553359e+01 +1.0665557709e+01 4.4367075692e+01 5.1100000000e-04 0.0000e+00 1.0000e+00
       11  1    2    2    0    0 +1.1243347135e+01 -4.8027498981e+01 -6.6895538102e+00 4.9777541558e+01 5.1100000000e-04 0.0000e+00 -1.0000e+00
       22  1    1    0    0    0 +2.2271147155e+01 +2.0981945621e+01 -3.9760038991e+00 3.0855382750e+01 0.0000000000e+00 0.0000e+00 -1.0000e+00
</event>
<event>
 4      1 +2.4041262e-06 9.11880000e+01 7.81860800e-03 1.13011600e-01
       25 -1    0    0    0    0 +0.0000000000e+00 +0.0000000000e+00 +9.9999998245e-15 1.2500000000e+02 1.2500000000e+02 0.0000e+00 0.0000e+00
      -13  1    1    0    0    0 +3.9873009712e+01 +4.4631356360e+01 +1.8011742962e+01 6.2499991380e+01 1.0566000000e-01 0.0000e+00 1.0000e+00
       13  1    1    0    0    0 -3.9873015201e+01 -4.4631362514e+01 -1.8011745472e+01 6.2500000000e+01 1.0566000000e-01 0.0000e+00 1.0000e+00
       22  1    1    0    0    0 +5.4893330207e-06 +6.1539652649e-06 +2.5096797763e-06 8.6198931591e-06 0.0000000000e+00 0.0000e+00 -1.0000e+00
</event>
<event>
 4      1 +2.4041262e-06 9.11880000e+01 7.81860800e-03 1.13011600e-01
       25 -1    0    0    0    0 +0.0000000000e+00 +0.0000000000e+00 +9.9999998245e-15 1.2500000000e+02 1.2500000000e+02 0.0000e+00 0.0000e+00
      -11  1    1    0    0    0 -1.7735314600e+00 -1.7698716645e+00 -7.5075313135e-01 2.6156242226e+00 5.1100000000e-04 0.0000e+00 -1.0000e+00
       11  1    1    0    0    0 -4.1743747375e+01 -3.9481772114e+01 -1.6877187593e+01 5.9884808052e+01 5.1100000000e-04 0.0000e+00 1.0000e+00
       22  1    1    0    0    0 +4.3517278835e+01 +4.1251643779e+01 +1.7627940724e+01 6.2499567725e+01 0.0000000000e+00 0.0000e+00 1.0000e+00
</event>
<event>
 4      1 +2.4041262e-06 9.11880000e+01 7.81860800e-03 1.13011600e-01
       25 -1    0    0    0    0 +0.0000000000e+00 +0.0000000000e+00 +9.9999998245e-15 1.2500000000e+02 1.2500000000e+02 0.0000e+00 0.0000e+00
      -13  1    1    0    0    0 -5.4583811724e+01 +1.4983941911e+00 +3.0407254866e+01 6.2500000000e+01 1.0566000000e-01 0.0000e+00 1.0000e+00
       13  1    1    0    0    0 +5.4583811381e+01 -1.4983941820e+00 -3.0407254676e+01 6.2499999608e+01 1.0566000000e-01 0.0000e+00 1.0000e+00
       22  1    1    0    0    0 +3.4319544379e-07 -9.1823951550e-09 -1.8964540631e-07 3.9221525870e-07 0.0000000000e+00 0.0000e+00 -1.0000e+00
</event>
<event>
 4      1 +2.4041262e-06 9.11880000e+01 7.81860800e-03 1.13011600e-01
       25 -1    0    0    0    0 +0.0000000000e+00 +0.0000000000e+00 +9.9999998245e-15 1.2500000000e+02 1.2500000000e+02 0.0000e+00 0.0000e+00
      -13  1    1    0    0    0 +1.5927038713e+01 +6.0429797396e+01 -8.9881060171e-01 6.2500000000e+01 1.0566000000e-01 0.0000e+00 1.0000e+00
       13  1    1    0    0    0 -1.5927038713e+01 -6.0429797396e+01 +8.9881060196e-01 6.2500000000e+01 1.0566000000e-01 0.0000e+00 1.0000e+00
       22  1    1    0    0    0 -3.3073808765e-10 -1.7501931275e-10 -2.4785300518e-10 4.4883243490e-10 0.0000000000e+00 0.0000e+00 -1.0000e+00
</event>
<event>
 4      1 +2.4041262e-06 9.11880000e+01 7.81860800e-03 1.13011600e-01
       25 -1    0    0    0    0 +0.0000000000e+00 +0.0000000000e+00 +9.9999998245e-15 1.2500000000e+02 1.2500000000e+02 0.0000e+00 0.0000e+00
      -13  1    1    0    0    0 +5.9232746073e+01 +2.5908277238e+00 +1.9765806305e+01 6.2497430815e+01 1.0566000000e-01 0.0000e+00 -1.0000e+00
       13  1    1    0    0    0 -5.5800114711e+01 -2.4892563175e+00 -1.8428919309e+01 5.8817390538e+01 1.0566000000e-01 0.0000e+00 -1.0000e+00
       22  1    1    0    0    0 -3.4326313619e+00 -1.0157140629e-01 -1.3368869960e+00 3.6851786466e+00 0.0000000000e+00 0.0000e+00 -1.0000e+00
</event>
<event>
 5      1 +2.4041262e-06 9.11880000e+01 7.81860800e-03 1.13011600e-01
       25 -1    0    0    0    0 +0.0000000000e+00 +0.0000000000e+00 +9.9999998245e-15 1.2500000000e+02 1.2500000000e+02 0.0000e+00 0.0000e+00
       23  2    1    0    0    0 +2.2599270698e+01 -1.8362886568e+01 -9.2277792710e+00 9.4453731006e+01 8.9378032824e+01 0.0000e+00 0.0000e+00
      -11  1    2    2    0    0 +2.0301111794e+01 -5.1839327640e+01 +8.7974875038e+00 5.6363523815e+01 5.1100000000e-04 0.0000e+00 -1.0000e+00
       11  1    2    2    0    0 +2.2981589048e+00 +3.3476441072e+01 -1.8025266775e+01 3.8090207190e+01 5.1100000000e-04 0.0000e+00 1.0000e+00
       22  1    1    0    0    0 -2.2599270698e+01 +1.8362886568e+01 +9.2277792710e+00 3.0546268994e+01 0.0000000000e+00 0.0000e+00 -1.0000e+00
</event>
<event>
 5      1 +2.4041262e-06 9.11880000e+01 7.81860800e-03 1.13011600e-01
       25 -1    0    0    0    0 +0.0000000000e+00 +0.0000000000e+00 +9.9999998245e-15 1.2500000000e+02 1.2500000000e+02 0.0000e+00 0.0000e+00
       23  2    1    0    0    0 -8.5156029025e+00 +2.6515213136e+01 -7.2160795356e+00 9.6231200506e+01 9.1830278920e+01 0.0000e+00 0.0000e+00
      -11  1    2    2    0    0 +4.6069391075e+00 -1.4182257725e+01 -3.9779822385e+01 4.2482874095e+01 5.1100000000e-04 0.0000e+00 -1.0000e+00
       11  1    2    2    0    0 -1.3122542010e+01 +4.0697470861e+01 +3.2563742850e+01 5.3748326411e+01 5.1100000000e-04 0.0000e+00 1.0000e+00
       22  1    1    0    0    0 +8.5156029025e+00 -2.6515213136e+01 +7.2160795356e+00 2.8768799494e+01 0.0000000000e+00 0.0000e+00 1.0000e+00
</event>
<event>
 4      1 +2.4041262e-06 9.11880000e+01 7.81860800e-03 1.13011600e-01
       25 -1    0    0    0    0 +0.0000000000e+00 +0.0000000000e+00 +9.9999998245e-15 1.2500000000e+02 1.2500000000e+02 0.0000e+00 0.0000e+00
      -13  1    1    0    0    0 -1.3650972664e+01 +5.8211748120e+01 -1.8201151712e+01 6.2499998092e+01 1.0566000000e-01 0.0000e+00 -1.0000e+00
       13  1    1    0    0    0 +1.3650973083e+01 -5.8211749899e+01 +1.8201152259e+01 6.2500000000e+01 1.0566000000e-01 0.0000e+00 -1.0000e+00
       22  1    1    0    0    0 -4.1897442197e-07 +1.7794802771e-06 -5.4696383289e-07 1.9082083370e-06 0.0000000000e+00 0.0000e+00 1.0000e+00
</event>
<event>
 4      1 +2.4041262e-06 9.11880000e+01 7.81860800e-03 1.13011600e-01
       25 -1    0    0    0    0 +0.0000000000e+00 +0.0000000000e+00 +9.9999998245e-15 1.2500000000e+02 1.2500000000e+02 0.0000e+00 0.0000e+00
      -13  1    1    0    0    0 +1.6619392103e+01 -1.9283561610e+01 -5.7076606050e+01 6.2496480417e+01 1.0566000000e-01 0.0000e+00 1.0000e+00
       13  1    1    0    0    0 -1.6620652814e+01 +1.9292361080e+01 +5.7064722956e+01 6.2488679504e+01 1.0566000000e-01 0.0000e+00 1.0000e+00
       22  1    1    0    0    0 +1.2607115929e-03 -8.7994690977e-03 +1.1883093638e-02 1.4840079667e-02 0.0000000000e+00 0.0000e+00 1.0000e+00
</event>
<event>
 4      1 +2.4041262e-06 9.11880000e+01 7.81860800e-03 1.13011600e-01
       25 -1    0    0    0    0 +0.0000000000e+00 +0.0000000000e+00 +9.9999998245e-15 1.2500000000e+02 1.2500000000e+02 0.0000e+00 0.0000e+00
      -13  1    1    0    0    0 -3.5410442685e+01 -5.0290559683e+01 -1.0855573304e+01 6.2457141146e+01 1.0566000000e-01 0.0000e+00 1.0000e+00
       13  1    1    0    0    0 +1.6643834764e+01 +2.5443925363e+01 +4.0811151247e+00 3.0676982222e+01 1.0566000000e-01 0.0000e+00 1.0000e+00
       22  1    1    0    0    0 +1.8766607921e+01 +2.4846634319e+01 +6.7744581795e+00 3.1865876632e+01 0.0000000000e+00 0.0000e+00 1.0000e+00
</event>
<event>
 5      1 +2.4041262e-06 9.11880000e+01 7.81860800e-03 1.13011600e-01
       25 -1    0    0    0    0 +0.0000000000e+00 +0.0000000000e+00 +9.9999998245e-15 1.2500000000e+02 1.2500000000e+02 0.0000e+00 0.0000e+00
       23  2    1    0    0    0 -2.3404529053e+01 +1.5617331942e+01 +3.5734993925e+00 9.6637296760e+01 9.2381406083e+01 0.0000e+00 0.0000e+00
      -11  1    2    2    0    0 -3.3776243953e+01 -2.2327864835e+01 -2.5386580496e+01 4.7789608423e+01 5.1100000000e-04 0.0000e+00 -1.0000e+00
       11  1    2    2    0    0 +1.0371714900e+01 +3.7945196777e+01 +2.8960079888e+01 4.8847688337e+01 5.1100000000e-04 0.0000e+00 1.0000e+00
       22  1    1    0    0    0 +2.3404529053e+01 -1.5617331942e+01 -3.5734993925e+00 2.8362703240e+01 0.0000000000e+00 0.0000e+00 -1.0000e+00
</event>
<event>
 4      1 +2.4041262e-06 9.11880000e+01 7.81860800e-03 1.13011600e-01
       25 -1    0    0    0    0 +0.0000000000e+00 +0.0000000000e+00 +9.9999998245e-15 1.2500000000e+02 1.2500000000e+02 0.0000e+00 0.0000e+00
      -13  1    1    0    0    0 +5.9174133599e+01 +1.8119606147e+01 -8.7373100855e+00 6.2499999726e+01 1.0566000000e-01 0.0000e+00 -1.0000e+00
       13  1    1    0    0    0 -5.9174054452e+01 -1.8119587604e+01 +8.7372907000e+00 6.2499916704e+01 1.0566000000e-01 0.0000e+00 -1.0000e+00
       22  1    1    0    0    0 -7.9147578568e-05 -1.8542807915e-05 +1.9385529538e-05 8.3570172155e-05 0.0000000000e+00 0.0000e+00 1.0000e+00
</event>
<event>
 4      1 +2.4041262e-06 9.11880000e+01 7.81860800e-03 1.13011600e-01
       25 -1    0    0    0    0 +0.0000000000e+00 +0.0000000000e+00 +9.9999998245e-15 1.2500000000e+02 1.2500000000e+02 0.0000e+00 0.0000e+00
      -13  1    1    0    0    0 -4.9902443223e+01 +3.7057914255e+01 +6.5342166612e+00 6.2500000000e+01 1.0566000000e-01 0.0000e+00 -1.0000e+00
       13  1    1    0    0    0 +4.9902421873e+01 -3.7057898433e+01 -6.5342137933e+00 6.2499973272e+01 1.0566000000e-01 0.0000e+00 -1.0000e+00
       22  1    1    0    0    0 +2.1350253242e-05 -1.5821654894e-05 -2.8679199798e-06 2.6727944966e-05 0.0000000000e+00 0.0000e+00 -1.0000e+00
</event>
<event>
 4      1 +2.4041262e-06 9.11880000e+01 7.81860800e-03 1.13011600e-01
       25 -1    0    0    0    0 +0.0000000000e+00 +0.0000000000e+00 +9.9999998245e-15 1.2500000000e+02 1.2500000000e+02 0.0000e+00 0.0000e+00
      -13  1    1    0    0    0 -2.3000232620e+01 +3.7998142534e+01 -4.3970094413e+01 6.2499999227e+01 1.0566000000e-01 0.0000e+00 -1.0000e+00
       13  1    1    0    0    0 +2.3000192130e+01 -3.7998075615e+01 +4.3970040971e+01 6.2499906043e+01 1.0566000000e-01 0.0000e+00 -1.0000e+00
       22  1    1    0    0    0 +4.0490557046e-05 -6.6919198435e-05 +5.3442317048e-05 9.4729855804e-05 0.0000000000e+00 0.0000e+00 -1.0000e+00
</event>
<event>
 4      1 +2.4041262e-06 9.11880000e+01 7.81860800e-03 1.13011600e-01
       25 -1    0    0    0    0 +0.0000000000e+00 +0.0000000000e+00 +9.9999998245e-15 1.2500000000e+02 1.2500000000e+02 0.0000e+00 0.0000e+00
      -11  1    1    0    0    0 +2.3435038298e+00 -5.2396879887e-02 +2.1053503401e+00 3.1507548221e+00 5.1100000000e-04 0.0000e+00 1.0000e+00
       11  1    1    0    0    0 +4.4148327363e+01 -9.8961792236e-01 +3.9651970374e+01 5.9349245213e+01 5.1100000000e-04 0.0000e+00 1.0000e+00
       22  1    1    0    0    0 -4.6491831192e+01 +1.0420148022e+00 -4.1757320714e+01 6.2499999965e+01 0.0000000000e+00 0.0000e+00 1.0000e+00
</event>
<event>
 5      1 +2.4041262e-06 9.11880000e+01 7.81860800e-03 1.13011600e-01
       25 -1    0    0    0    0 +0.0000000000e+00 +0.0000000000e+00 +9.9999998245e-15 1.2500000000e+02 1.2500000000e+02 0.0000e+00 0.0000e+00
       23  2    1    0    0    0 +1.8921805661e+01 +8.0860677024e+00 -2.0357778328e+01 9.6054216908e+01 9.1589050803e+01 0.0000e+00 0.0000e+00
      -11  1    2    2    0    0 -2.8192117982e-01 +3.2415540841e+01 -4.5691554663e+01 5.6022896527e+01 5.1100000000e-04 0.0000e+00 -1.0000e+00
       11  1    2    2    0    0 +1.9203726841e+01 -2.4329473139e+01 +2.5333776335e+01 4.0031320381e+01 5.1100000000e-04 0.0000e+00 1.0000e+00
       22  1    1    0    0    0 -1.8921805661e+01 -8.0860677024e+00 +2.0357778328e+01 2.8945783092e+01 0.0000000000e+00 0.0000e+00 -1.0000e+00
</event>
<event>
 4      1 +2.4041262e-06 9.11880000e+01 7.81860800e-03 1.13011600e-01
       25 -1    0    0    0    0 +0.0000000000e+00 +0.0000000000e+00 +9.9999998245e-15 1.2500000000e+02 1.2500000000e+02 0.0000e+00 0.0000e+00
      -13  1    1    0    0    0 -1.8179719056e+01 +3.4614048206e+01 -4.8760215546e+01 6.2499634417e+01 1.0566000000e-01 0.0000e+00 -1.0000e+00
       13  1    1    0    0    0 +1.8179809210e+01 -3.4614281903e+01 +4.8760483279e+01 6.2499998946e+01 1.0566000000e-01 0.0000e+00 -1.0000e+00
       22  1    1    0    0    0 -9.0153982017e-05 +2.3369644333e-04 -2.6773358548e-04 3.6663747884e-04 0.0000000000e+00 0.0000e+00 -1.0000e+00
</event>
<event>
 4      1 +2.4041262e-06 9.11880000e+01 7.81860800e-03 1.13011600e-01
       25 -1    0    0    0    0 +0.0000000000e+00 +0.0000000000e+00 +9.9999998245e-15 1.2500000000e+02 1.2500000000e+02 0.0000e+00 0.0000e+00
      -13  1    1    0    0    0 +4.4954303699e+01 +1.2045674412e+01 -4.1716317461e+01 6.2499999997e+01 1.0566000000e-01 0.0000e+00 -1.0000e+00
       13  1    1    0    0    0 -4.4954303687e+01 -1.2045674405e+01 +4.1716317463e+01 6.2499999988e+01 1.0566000000e-01 0.0000e+00 -1.0000e+00
       22  1    1    0    0    0 -1.2221642250e-08 -6.8192022490e-09 -1.7813394561e-09 1.4108268103e-08 0.0000000000e+00 0.0000e+00 1.0000e+00
</event>
<event>
 4      1 +2.4041262e-06 9.11880000e+01 7.81860800e-03 1.13011600e-01
       25 -1    0    0    0    0 +0.0000000000e+00 +0.0000000000e+00 +9.9999998245e-15 1.2500000000e+02 1.2500000000e+02 0.0000e+00 0.0000e+00
      -13  1    1    0    0    0 -4.2844965601e+01 +1.2766840450e+01 +4.3675569940e+01 6.2499998929e+01 1.0566000000e-01 0.0000e+00 -1.0000e+00
       13  1    1    0    0    0 +4.2825277945e+01 -1.2761199794e+01 -4.3655181856e+01 6.2471103065e+01 1.0566000000e-01 0.0000e+00 -1.0000e+00
       22  1    1    0    0    0 +1.9687656272e-02 -5.6406561329e-03 -2.0388083938e-02 2.8898006467e-02 0.0000000000e+00 0.0000e+00 -1.0000e+00
</event>
<event>
 4      1 +2.4041262e-06 9.11880000e+01 7.81860800e-03 1.13011600e-01
       25 -1    0    0    0    0 +0.0000000000e+00 +0.0000000000e+00 +9.9999998245e-15 1.2500000000e+02 1.2500000000e+02 0.0000e+00 0.0000e+00
      -13  1    1    0    0    0 +4.1544413912e+01 -4.6133238175e+01 +7.2095536505e+00 6.2499622556e+01 1.0566000000e-01 0.0000e+00 1.0000e+00
       13  1    1    0    0    0 -4.1544668493e+01 +4.6133514170e+01 -7.2095923891e+00 6.2499999971e+01 1.0566000000e-01 0.0000e+00 1.0000e+00
       22  1    1    0    0    0 +2.5458119816e-04 -2.7599540218e-04 +3.8738604057e-05 3.7747281747e-04 0.0000000000e+00 0.0000e+00 1.0000e+00
</event>
<event>
 4      1 +2.4041262e-06 9.11880000e+01 7.81860800e-03 1.13011600e-01
       25 -1    0    0    0    0 +0.0000000000e+00 +0.0000000000e+00 +9.9999998245e-15 1.2500000000e+02 1.2500000000e+02 0.0000e+00 0.0000e+00
      -13  1    1    0    0    0 +4.8976436110e+00 +4.2214933900e+01 -4.5827157469e+01 6.2499816663e+01 1.0566000000e-01 0.0000e+00 1.0000e+00
       13  1    1    0    0    0 -4.8976569368e+00 -4.2215058159e+01 +4.5827291616e+01 6.2499999998e+01 1.0566000000e-01 0.0000e+00 1.0000e+00
       22  1    1    0    0    0 +1.3325761360e-05 +1.2425932028e-04 -1.3414693953e-04 1.8333945559e-04 0.0000000000e+00 0.0000e+00 1.0000e+00
</event>
<event>
 4      1 +2.4041262e-06 9.11880000e+01 7.81860800e-03 1.13011600e-01
       25 -1    0    0    0    0 +0.0000000000e+00 +0.0000000000e+00 +9.9999998245e-15 1.2500000000e+02 1.2500000000e+02 0.0000e+00 0.0000e+00
      -13  1    1    0    0    0 +1.4598716503e+01 +5.4054804635e+00 -6.0403524876e+01 6.2377389526e+01 1.0566000000e-01 0.0000e+00 1.0000e+00
       13  1    1    0    0    0 -1.4753556681e+01 -5.2681753811e+00 +6.0417107368e+01 6.2415215559e+01 1.0566000000e-01 0.0000e+00 1.0000e+00
       22  1    1    0    0    0 +1.5484017885e-01 -1.3730508237e-01 -1.3582491959e-02 2.0739491488e-01 0.0000000000e+00 0.0000e+00 -1.0000e+00
</event>
<event>
 4      1 +2.4041262e-06 9.11880000e+01 7.81860800e-03 1.13011600e-01
       25 -1    0    0    0    0 +0.0000000000e+00 +0.0000000000e+00 +9.9999998245e-15 1.2500000000e+02 1.2500000000e+02 0.0000e+00 0.0000e+00
      -13  1    1    0    0    0 -3.7694786626e+01 -6.3637580709e+00 +4.9445368644e+01 6.2500000000e+01 1.0566000000e-01 0.0000e+00 -1.0000e+00
       13  1    1    0    0    0 +3.7694786447e+01 +6.3637580526e+00 -4.9445368387e+01 6.2499999686e+01 1.0566000000e-01 0.0000e+00 -1.0000e+00
       22  1    1    0    0    0 +1.7923229580e-07 +1.8316876784e-08 -2.5743709785e-07 3.1421900513e-07 0.0000000000e+00 0.0000e+00 1.0000e+00
</event>
<event>
 4      1 +2.4041262e-06 9.11880000e+01 7.81860800e-03 1.13011600e-01
       25 -1    0    0    0    0 +0.0000000000e+00 +0.0000000000e+00 +9.9999998245e-15 1.2500000000e+02 1.2500000000e+02 0.0000e+00 0.0000e+00
      -11  1    1    0    0    0 -3.6786394340e+00 -1.8748100410e+00 +1.5393871488e+00 4.4064740814e+00 5.1100000000e-04 0.0000e+00 1.0000e+00
       11  1    1    0    0    0 -4.3419531604e+01 -3.1103516073e+01 +2.2907673915e+01 5.8115797863e+01 5.1100000000e-04 0.0000e+00 -1.0000e+00
       22  1    1    0    0    0 +4.7098171038e+01 +3.2978326114e+01 -2.4447061064e+01 6.2477728056e+01 0.0000000000e+00 0.0000e+00 -1.0000e+00
</event>
<event>
 4      1 +2.4041262e-06 9.11880000e+01 7.81860800e-03 1.13011600e-01
       25 -1    0    0    0    0 +0.0000000000e+00 +0.0000000000e+00 +9.9999998245e-15 1.2500000000e+02 1.2500000000e+02 0.0000e+00 0.0000e+00
      -13  1    1    0    0    0 -3.0590807556e+01 -3.1740523321e+01 +4.4305534190e+01 6.2499998812e+01 1.0566000000e-01 0.0000e+00 -1.0000e+00
       13  1    1    0    0    0 +3.0590808156e+01 +3.1740523937e+01 -4.4305535010e+01 6.2500000000e+01 1.0566000000e-01 0.0000e+00 -1.0000e+00
       22  1    1    0    0    0 -6.0009909891e-07 -6.1504941907e-07 +8.2078769477e-07 1.1883169427e-06 0.0000000000e+00 0.0000e+00 1.0000e+00
</event>
<event>
 5      1 +2.4041262e-06 9.11880000e+01 7.81860800e-03 1.13011600e-01
       25 -1    0    0    0    0 +0.0000000000e+00 +0.0000000000e+00 +9.9999998245e-15 1.2500000000e+02 1.2500000000e+02 0.0000e+00 0.0000e+00
       23  2    1    0    0    0 -2.1276382008e-01 +1.2120638588e+01 -2.5937574031e+01 9.6369371386e+01 9.2018165850e+01 0.0000e+00 0.0000e+00
      -13  1    2    2    0    0 +6.8634331771e+00 -8.3618639656e+00 +3.2388544334e+01 3.4147568757e+01 1.0566000000e-01 0.0000e+00 -1.0000e+00
       13  1    2    2    0    0 -7.0761969972e+00 +2.0482502553e+01 -5.8326118365e+01 6.2221802628e+01 1.0566000000e-01 0.0000e+00 1.0000e+00
       22  1    1    0    0    0 +2.1276382008e-01 -1.2120638588e+01 +2.5937574031e+01 2.8630628614e+01 0.0000000000e+00 0.0000e+00 1.0000e+00
</event>
<event>
 4      1 +2.4041262e-06 9.11880000e+01 7.81860800e-03 1.13011600e-01
       25 -1    0    0    0    0 +0.0000000000e+00 +0.0000000000e+00 +9.9999998245e-15 1.2500000000e+02 1.2500000000e+02 0.0000e+00 0.0000e+00
      -13  1    1    0    0    0 -1.9008857716e+01 +2.5233524789e+01 +5.3924723997e+01 6.2497635692e+01 1.0566000000e-01 0.0000e+00 -1.0000e+00
       13  1    1    0    0    0 +1.4470588427e+01 -1.8955096922e+01 -4.1274001815e+01 4.7668102738e+01 1.0566000000e-01 0.0000e+00 -1.0000e+00
       22  1    1    0    0    0 +4.5382692892e+00 -6.2784278669e+00 -1.2650722182e+01 1.4834261570e+01 0.0000000000e+00 0.0000e+00 -1.0000e+00
</event>
<event>
 4      1 +2.4041262e-06 9.11880000e+01 7.81860800e-03 1.13011600e-01
       25 -1    0    0    0    0 +0.0000000000e+00 +0.0000000000e+00 +9.9999998245e-15 1.2500000000e+02 1.2500000000e+02 0.0000e+00 0.0000e+00
      -13  1    1    0    0    0 +4.8666189944e+01 -2.3039963806e+01 -3.1733276858e+01 6.2500000000e+01 1.0566000000e-01 0.0000e+00 -1.0000e+00
       13  1    1    0    0    0 -4.8666189930e+01 +2.3039963794e+01 +3.1733276850e+01 6.2499999981e+01 1.0566000000e-01 0.0000e+00 -1.0000e+00
       22  1    1    0    0    0 -1.3329548114e-08 +1.1722253874e-08 +8.1829916768e-09 1.9546085071e-08 0.0000000000e+00 0.0000e+00 -1.0000e+00
</event>
<event>
 4      1 +2.4041262e-06 9.11880000e+01 7.81860800e-03 1.13011600e-01
       25 -1    0    0    0    0 +0.0000000000e+00 +0.0000000000e+00 +9.9999998245e-15 1.2500000000e+02 1.2500000000e+02 0.0000e+00 0.0000e+00
      -13  1    1    0    0    0 +2.0141973848e+01 -2.0551399829e+01 +5.5481345402e+01 6.2499999977e+01 1.0566000000e-01 0.0000e+00 -1.0000e+00
       13  1    1    0    0    0 -2.0141973417e+01 +2.0551399537e+01 -5.5481344919e+01 6.2499999313e+01 1.0566000000e-01 0.0000e+00 -1.0000e+00
       22  1    1    0    0    0 -4.3130687752e-07 +2.9216339070e-07 -4.8268301049e-07 7.1018867780e-07 0.0000000000e+00 0.0000e+00 -1.0000e+00
</event>
<event>
 5      1 +2.4041262e-06 9.11880000e+01 7.81860800e-03 1.13011600e-01
       25 -1    0    0    0    0 +0.0000000000e+00 +0.0000000000e+00 +9.9999998245e-15 1.2500000000e+02 1.2500000000e+02 0.0000e+00 0.0000e+00
       23  2    1    0    0    0 -2.4827354923e+00 +1.0666547654e+01 -2.8500767170e+01 9.4467510032e+01 8.9397301458e+01 0.0000e+00 0.0000e+00
      -13  1    2    2    0    0 -3.4115821310e+01 -2.2220987833e+01 -9.0927830067e-02 4.0714628769e+01 1.0566000000e-01 0.0000e+00 1.0000e+00
       13  1    2    2    0    0 +3.1633085817e+01 +3.2887535487e+01 -2.8409839340e+01 5.3752881263e+01 1.0566000000e-01 0.0000e+00 -1.0000e+00
       22  1    1    0    0    0 +2.4827354923e+00 -1.0666547654e+01 +2.8500767170e+01 3.0532489968e+01 0.0000000000e+00 0.0000e+00 -1.0000e+00
</event>
<event>
 5      1 +2.4041262e-06 9.11880000e+01 7.81860800e-03 1.13011600e-01
       25 -1    0    0    0    0 +0.0000000000e+00 +0.0000000000e+00 +9.9999998245e-15 1.2500000000e+02 1.2500000000e+02 0.0000e+00 0.0000e+00
       23  2    1    0    0    0 +1.6727273423e+01 -9.6054295984e-01 -2.3825415266e+01 9.5873126986e+01 9.1341566368e+01 0.0000e+00 0.0000e+00
      -13  1    2    2    0    0 +3.8096432278e+01 +3.3166987197e+01 -2.3244404253e+01 5.5603063631e+01 1.0566000000e-01 0.0000e+00 -1.0000e+00
       13  1    2    2    0    0 -2.1369158855e+01 -3.4127530157e+01 -5.8101101324e-01 4.0270063355e+01 1.0566000000e-01 0.0000e+00 1.0000e+00
       22  1    1    0    0    0 -1.6727273423e+01 +9.6054295984e-01 +2.3825415266e+01 2.9126873014e+01 0.0000000000e+00 0.0000e+00 -1.0000e+00
</event>
<event>
 4      1 +2.4041262e-06 9.11880000e+01 7.81860800e-03 1.13011600e-01
       25 -1    0    0    0    0 +0.0000000000e+00 +0.0000000000e+00 +9.9999998245e-15 1.2500000000e+02 1.2500000000e+02 0.0000e+00 0.0000e+00
      -13  1    1    0    0    0 +1.3088981487e+01 -2.2962370204e+01 -5.6634624094e+01 6.2498669523e+01 1.0566000000e-01 0.0000e+00 -1.0000e+00
       13  1    1    0    0    0 -1.3089489591e+01 +2.2962756428e+01 +5.6635805110e+01 6.2499988040e+01 1.0566000000e-01 0.0000e+00 -1.0000e+00
       22  1    1    0    0    0 +5.0810418161e-04 -3.8622429840e-04 -1.1810157513e-03 1.3424370648e-03 0.0000000000e+00 0.0000e+00 -1.0000e+00
</event>
<event>
 5      1 +2.4041262e-06 9.11880000e+01 7.81860800e-03 1.13011600e-01
       25 -1    0    0    0    0 +0.0000000000e+00 +0.0000000000e+00 +9.9999998245e-15 1.2500000000e+02 1.2500000000e+02 0.0000e+00 0.0000e+00
       23  2    1    0    0    0 +2.0820618725e+01 +8.1236541633e+00 -1.8497885568e+01 9.5988559299e+01 9.1499397948e+01 0.0000e+00 0.0000e+00
      -13  1    2    2    0    0 -2.5648264375e+01 -2.2276867347e+01 -2.1792535676e+01 4.0361095866e+01 1.0566000000e-01 0.0000e+00 1.0000e+00
       13  1    2    2    0    0 +4.6468883100e+01 +3.0400521511e+01 +3.2946501074e+00 5.5627463433e+01 1.0566000000e-01 0.0000e+00 -1.0000e+00
       22  1    1    0    0    0 -2.0820618725e+01 -8.1236541633e+00 +1.8497885568e+01 2.9011440701e+01 0.0000000000e+00 0.0000e+00 -1.0000e+00
</event>
<event>
 5      1 +2.4041262e-06 9.11880000e+01 7.81860800e-03 1.13011600e-01
       25 -1    0    0    0    0 +0.0000000000e+00 +0.0000000000e+00 +9.9999998245e-15 1.2500000000e+02 1.2500000000e+02 0.0000e+00 0.0000e+00
       23  2    1    0    0    0 +1.4507916373e+01 +9.6486557985e+00 -2.3637921236e+01 9.5634586388e+01 9.1014540580e+01 0.0000e+00 0.0000e+00
      -13  1    2    2    0    0 -3.6515221237e+01 -1.0140357725e+01 -1.1116918749e+01 3.9494117071e+01 1.0566000000e-01 0.0000e+00 -1.0000e+00
       13  1    2    2    0    0 +5.1023137610e+01 +1.9789013523e+01 -1.2521002487e+01 5.6140469317e+01 1.0566000000e-01 0.0000e+00 1.0000e+00
       22  1    1    0    0    0 -1.4507916373e+01 -9.6486557985e+00 +2.3637921236e+01 2.9365413612e+01 0.0000000000e+00 0.0000e+00 1.0000e+00
</event>
<event>
 4      1 +2.4041262e-06 9.11880000e+01 7.81860800e-03 1.13011600e-01
       25 -1    0    0    0    0 +0.0000000000e+00 +0.0000000000e+00 +9.9999998245e-15 1.2500000000e+02 1.2500000000e+02 0.0000e+00 0.0000e+00
      -13  1    1    0    0    0 -4.1382295700e+01 +4.3359215388e+01 -1.7712224012e+01 6.2500000000e+01 1.0566000000e-01 0.0000e+00 -1.0000e+00
       13  1    1    0    0    0 +4.1382295700e+01 -4.3359215388e+01 +1.7712224012e+01 6.2500000000e+01 1.0566000000e-01 0.0000e+00 -1.0000e+00
       22  1    1    0    0    0 +2.0926572655e-10 -4.2707322330e-10 +1.2556684507e-10 4.9188485944e-10 0.0000000000e+00 0.0000e+00 1.0000e+00
</event>
<event>
 4      1 +2.4041262e-06 9.11880000e+01 7.81860800e-03 1.13011600e-01
       25 -1    0    0    0    0 +0.0000000000e+00 +0.0000000000e+00 +9.9999998245e-15 1.2500000000e+02 1.2500000000e+02 0.0000e+00 0.0000e+00
      -11  1    1    0    0    0 -2.2885145956e+01 +3.0271981120e+01 -2.9802789839e+01 4.8252761878e+01 5.1100000000e-04 0.0000e+00 1.0000e+00
       11  1    1    0    0    0 -7.0104673182e+00 +8.7900063432e+00 -8.7525447088e+00 1.4248435096e+01 5.1100000000e-04 0.0000e+00 -1.0000e+00
       22  1    1    0    0    0 +2.9895613274e+01 -3.9061987464e+01 +3.8555334548e+01 6.2498803027e+01 0.0000000000e+00 0.0000e+00 1.0000e+00
</event>
<event>
 4      1 +2.4041262e-06 9.11880000e+01 7.81860800e-03 1.13011600e-01
       25 -1    0    0    0    0 +0.0000000000e+00 +0.0000000000e+00 +9.9999998245e-15 1.2500000000e+02 1.2500000000e+02 0.0000e+00 0.0000e+00
      -11  1    1    0    0    0 -2.5177689538e+00 -3.9707572209e+00 -3.2263510965e-01 4.7127663943e+00 5.1100000000e-04 0.0000e+00 1.0000e+00
       11  1    1    0    0    0 -3.0353128557e+01 -4.9164511063e+01 -1.1078687016e+00 5.7790041829e+01 5.1100000000e-04 0.0000e+00 -1.0000e+00
       22  1    1    0    0    0 +3.2870897511e+01 +5.3135268284e+01 +1.4305038112e+00 6.2497191777e+01 0.0000000000e+00 0.0000e+00 -1.0000e+00
</event>
<event>
 4      1 +2.4041262e-06 9.11880000e+01 7.81860800e-03 1.13011600e-01
       25 -1    0    0    0    0 +0.0000000000e+00 +0.0000000000e+00 +9.9999998245e-15 1.2500000000e+02 1.2500000000e+02 0.0000e+00 0.0000e+00
      -13  1    1    0    0    0 -4.2677047299e+01 -2.9660031828e+01 -3.4715793979e+01 6.2499962959e+01 1.0566000000e-01 0.0000e+00 -1.0000e+00
       13  1    1    0    0    0 +4.2676692489e+01 +2.9659605076e+01 +3.4715034163e+01 6.2499096122e+01 1.0566000000e-01 0.0000e+00 -1.0000e+00
       22  1    1    0    0    0 +3.5481042960e-04 +4.2675150608e-04 +7.5981683841e-04 9.4091918719e-04 0.0000000000e+00 0.0000e+00 -1.0000e+00
</event>
<event>
 4      1 +2.4041262e-06 9.11880000e+01 7.81860800e-03 1.13011600e-01
       25 -1    0    0    0    0 +0.0000000000e+00 +0.0000000000e+00 +9.9999998245e-15 1.2500000000e+02 1.2500000000e+02 0.0000e+00 0.0000e+00
      -13  1    1    0    0    0 +3.3873184735e+01 +3.8387569427e-01 -1.1847040025e+00 3.3896234190e+01 1.0566000000e-01 0.0000e+00 -1.0000e+00
       13  1    1    0    0    0 +2.8568660577e+01 +6.3748999356e-01 -1.2839051232e+00 2.8604795700e+01 1.0566000000e-01 0.0000e+00 1.0000e+00
       22  1    1    0    0    0 -6.2441845312e+01 -1.0213656878e+00 +2.4686091257e+00 6.2498970110e+01 0.0000000000e+00 0.0000e+00 -1.0000e+00
</event>
<event>
 4      1 +2.4041262e-06 9.11880000e+01 7.81860800e-03 1.13011600e-01
       25 -1    0    0    0    0 +0.0000000000e+00 +0.0000000000e+00 +9.9999998245e-15 1.2500000000e+02 1.2500000000e+02 0.0000e+00 0.0000e+00
      -13  1    1    0    0    0 -2.4090149990e+01 +4.0757898759e+01 +4.0800700952e+01 6.2500000000e+01 1.0566000000e-01 0.0000e+00 -1.0000e+00
       13  1    1    0    0    0 +2.4090149933e+01 -4.0757898659e+01 -4.0800700853e+01 6.2499999848e+01 1.0566000000e-01 0.0000e+00 -1.0000e+00
       22  1    1    0    0    0 +5.7125053380e-08 -1.0017659878e-07 -9.8875521867e-08 1.5190454730e-07 0.0000000000e+00 0.0000e+00 -1.0000e+00
</event>
<event>
 4      1 +2.4041262e-06 9.11880000e+01 7.81860800e-03 1.13011600e-01
       25 -1    0    0    0    0 +0.0000000000e+00 +0.0000000000e+00 +9.9999998245e-15 1.2500000000e+02 1.2500000000e+02 0.0000e+00 0.0000e+00
      -13  1    1    0    0    0 -2.6346610133e+01 -5.6401907729e+01 +5.5605537575e+00 6.2499999865e+01 1.0566000000e-01 0.0000e+00 1.0000e+00
       13  1    1    0    0    0 +2.6346578351e+01 +5.6401835084e+01 -5.5605403587e+00 6.2499919718e+01 1.0566000000e-01 0.0000e+00 1.0000e+00
       22  1    1    0    0    0 +3.1781279087e-05 +7.2645326496e-05 -1.3398758484e-05 8.0417161670e-05 0.0000000000e+00 0.0000e+00 1.0000e+00
</event>
<event>
 5      1 +2.4041262e-06 9.11880000e+01 7.81860800e-03 1.13011600e-01
       25 -1    0    0    0    0 +0.0000000000e+00 +0.0000000000e+00 +9.9999998245e-15 1.2500000000e+02 1.2500000000e+02 0.0000e+00 0.0000e+00
       23  2    1    0    0    0 -1.7760264968e+01 -9.5103255048e+00 -2.1810490706e+01 9.5308741897e+01 9.0565917840e+01 0.0000e+00 0.0000e+00
      -11  1    2    2    0    0 +2.6625271515e+01 +2.1686088187e+01 +5.1559019014e+00 3.4724268585e+01 5.1100000000e-04 0.0000e+00 -1.0000e+00
       11  1    2    2    0    0 -4.4385536482e+01 -3.1196413692e+01 -2.6966392607e+01 6.0584473312e+01 5.1100000000e-04 0.0000e+00 1.0000e+00
       22  1    1    0    0    0 +1.7760264968e+01 +9.5103255048e+00 +2.1810490706e+01 2.9691258103e+01 0.0000000000e+00 0.0000e+00 1.0000e+00
</event>
<event>
 4      1 +2.4041262e-06 9.11880000e+01 7.81860800e-03 1.13011600e-01
       25 -1    0    0    0    0 +0.0000000000e+00 +0.0000000000e+00 +9.9999998245e-15 1.2500000000e+02 1.2500000000e+02 0.0000e+00 0.0000e+00
      -11  1    1    0    0    0 +4.2849741343e-01 +1.7056878693e+01 +1.5132017722e+01 2.2805672132e+01 5.1100000000e-04 0.0000e+00 1.0000e+00
       11  1    1    0    0    0 +1.0157647937e-01 +2.9492831974e+01 +2.6568677317e+01 3.9695491813e+01 5.1100000000e-04 0.0000e+00 -1.0000e+00
       22  1    1    0    0    0 -5.3007389280e-01 -4.6549710667e+01 -4.1700695039e+01 6.2498836055e+01 0.0000000000e+00 0.0000e+00 -1.0000e+00
</event>
<event>
 5      1 +2.4041262e-06 9.11880000e+01 7.81860800e-03 1.13011600e-01
       25 -1    0    0    0    0 +0.0000000000e+00 +0.0000000000e+00 +9.9999998245e-15 1.2500000000e+02 1.2500000000e+02 0.0000e+00 0.0000e+00
       23  2    1    0    0    0 -1.8469185305e+01 +6.1780591450e+00 -2.0973520909e+01 9.6378892405e+01 9.2031098555e+01 0.0000e+00 0.0000e+00
      -13  1    2    2    0    0 -4.4565754768e+01 -9.7382419251e+00 +1.6057903904e+01 4.8361216855e+01 1.0566000000e-01 0.0000e+00 -1.0000e+00
       13  1    2    2    0    0 +2.6096569464e+01 +1.5916301070e+01 -3.7031424813e+01 4.8017675550e+01 1.0566000000e-01 0.0000e+00 1.0000e+00
       22  1    1    0    0    0 +1.8469185305e+01 -6.1780591450e+00 +2.0973520909e+01 2.8621107595e+01 0.0000000000e+00 0.0000e+00 1.0000e+00
</event>
<event>
 4      1 +2.4041262e-06 9.11880000e+01 7.81860800e-03 1.13011600e-01
       25 -1    0    0    0    0 +0.0000000000e+00 +0.0000000000e+00 +9.9999998245e-15 1.2500000000e+02 1.2500000000e+02 0.0000e+00 0.0000e+00
      -13  1    1    0    0    0 -4.1547635426e+01 -2.4551463663e+01 -3.9714713375e+01 6.2500000000e+01 1.0566000000e-01 0.0000e+00 -1.0000e+00
       13  1    1    0    0    0 +4.1547635426e+01 +2.4551463663e+01 +3.9714713375e+01 6.2500000000e+01 1.0566000000e-01 0.0000e+00 -1.0000e+00
       22  1    1    0    0    0 -9.5410841039e-11 -1.1098628087e-10 -1.1683106786e-10 1.8727167844e-10 0.0000000000e+00 0.0000e+00 1.0000e+00
</event>
<event>
 5      1 +2.4041262e-06 9.11880000e+01 7.81860800e-03 1.13011600e-01
       25 -1    0    0    0    0 +0.0000000000e+00 +0.0000000000e+00 +9.9999998245e-15 1.2500000000e+02 1.2500000000e+02 0.0000e+00 0.0000e+00
       23  2    1    0    0    0 +3.3046857070e+00 -1.7070303867e+01 +2.2702853619e+01 9.6403920126e+01 9.2065085844e+01 0.0000e+00 0.0000e+00
      -13  1    2    2    0    0 -1.6361829509e+01 -3.5866509824e+01 +4.6003991010e+01 6.0584604849e+01 1.0566000000e-01 0.0000e+00 -1.0000e+00
       13  1    2    2    0    0 +1.9666515216e+01 +1.8796205957e+01 -2.3301137392e+01 3.5819315277e+01 1.0566000000e-01 0.0000e+00 1.0000e+00
       22  1    1    0    0    0 -3.3046857070e+00 +1.7070303867e+01 -2.2702853619e+01 2.8596079874e+01 0.0000000000e+00 0.0000e+00 -1.0000e+00
</event>
<event>
 4      1 +2.4041262e-06 9.11880000e+01 7.81860800e-03 1.13011600e-01
       25 -1    0    0    0    0 +0.0000000000e+00 +0.0000000000e+00 +9.9999998245e-15 1.2500000000e+02 1.2500000000e+02 0.0000e+00 0.0000e+00
      -13  1    1    0    0    0 +2.2928327852e+01 -2.4280169803e+01 +5.2423219786e+01 6.2156576486e+01 1.0566000000e-01 0.0000e+00 -1.0000e+00
       13  1    1    0    0    0 -2.2918364118e+01 +2.4303217331e+01 -5.2792304716e+01 6.2473485478e+01 1.0566000000e-01 0.0000e+00 -1.0000e+00
       22  1    1    0    0    0 -9.9637339787e-03 -2.3047528462e-02 +3.6908493000e-01 3.6993803551e-01 0.0000000000e+00 0.0000e+00 -1.0000e+00
</event>
<event>
 4      1 +2.4041262e-06 9.11880000e+01 7.81860800e-03 1.13011600e-01
       25 -1    0    0    0    0 +0.0000000000e+00 +0.0000000000e+00 +9.9999998245e-15 1.2500000000e+02 1.2500000000e+02 0.0000e+00 0.0000e+00
      -13  1    1    0    0    0 +5.4077809575e+01 -4.2224131494e+00 -1.1232919363e+01 5.5393392230e+01 1.0566000000e-01 0.0000e+00 -1.0000e+00
       13  1    1    0    0    0 -5.9294064651e+01 -1.1677471208e+00 +1.5056965458e+01 6.1187197263e+01 1.0566000000e-01 0.0000e+00 -1.0000e+00
       22  1    1    0    0    0 +5.2162550750e+00 +5.3901602702e+00 -3.8240460949e+00 8.4194105068e+00 0.0000000000e+00 0.0000e+00 1.0000e+00
</event>
<event>
 4      1 +2.4041262e-06 9.11880000e+01 7.81860800e-03 1.13011600e-01
       25 -1    0    0    0    0 +0.0000000000e+00 +0.0000000000e+00 +9.9999998245e-15 1.2500000000e+02 1.2500000000e+02 0.0000e+00 0.0000e+00
      -13  1    1    0    0    0 +4.5234112333e+01 +6.6739944235e+00 +4.2588119299e+01 6.2485407813e+01 1.0566000000e-01 0.0000e+00 -1.0000e+00
       13  1    1    0    0    0 -2.5015802389e+01 -4.5689627706e+00 -2.3149602282e+01 3.4388676040e+01 1.0566000000e-01 0.0000e+00 1.0000e+00
       22  1    1    0    0    0 -2.0218309944e+01 -2.1050316529e+00 -1.9438517018e+01 2.8125916147e+01 0.0000000000e+00 0.0000e+00 -1.0000e+00
</event>
<event>
 4      1 +2.4041262e-06 9.11880000e+01 7.81860800e-03 1.13011600e-01
       25 -1    0    0    0    0 +0.0000000000e+00 +0.0000000000e+00 +9.9999998245e-15 1.2500000000e+02 1.2500000000e+02 0.0000e+00 0.0000e+00
      -13  1    1    0    0    0 -5.6727998734e+01 +1.5979350606e+01 -2.0804647247e+01 6.2499999978e+01 1.0566000000e-01 0.0000e+00 -1.0000e+00
       13  1    1    0    0    0 +5.6727998754e+01 -1.5979350612e+01 +2.0804647255e+01 6.2500000000e+01 1.0566000000e-01 0.0000e+00 -1.0000e+00
       22  1    1    0    0    0 -2.0035030589e-08 +5.8820701063e-09 -7.3423284480e-09 2.2133932919e-08 0.0000000000e+00 0.0000e+00 -1.0000e+00
</event>
<event>
 4      1 +2.4041262e-06 9.11880000e+01 7.81860800e-03 1.13011600e-01
       25 -1    0    0    0    0 +0.0000000000e+00 +0.0000000000e+00 +9.9999998245e-15 1.2500000000e+02 1.2500000000e+02 0.0000e+00 0.0000e+00
      -13  1    1    0    0    0 +4.8565832421e+01 +1.0544039174e+01 +1.6888529611e+01 5.2488574350e+01 1.0566000000e-01 0.0000e+00 -1.0000e+00
       13  1    1    0    0    0 +1.0542586021e+01 -9.0105219037e-01 -3.4783675590e+00 1.1138591472e+01 1.0566000000e-01 0.0000e+00 1.0000e+00
       22  1    1    0    0    0 -5.9108418443e+01 -9.6429869832e+00 -1.3410162052e+01 6.1372834178e+01 0.0000000000e+00 0.0000e+00 -1.0000e+00
</event>
<event>
 4      1 +2.4041262e-06 9.11880000e+01 7.81860800e-03 1.13011600e-01
       25 -1    0    0    0    0 +0.0000000000e+00 +0.0000000000e+00 +9.9999998245e-15 1.2500000000e+02 1.2500000000e+02 0.0000e+00 0.0000e+00
      -13  1    1    0    0    0 +4.7166618840e+00 +1.4420838149e+01 -3.9588620054e-01 1.5178121167e+01 1.0566000000e-01 0.0000e+00 1.0000e+00
       13  1    1    0    0    0 -4.2139167644e+01 +1.4890460445e+01 -2.9607145370e+01 5.3609975592e+01 1.0566000000e-01 0.0000e+00 -1.0000e+00
       22  1    1    0    0    0 +3.7422505759e+01 -2.9311298594e+01 +3.0003031571e+01 5.6211903241e+01 0.0000000000e+00 0.0000e+00 -1.0000e+00
</event>
<event>
 4      1 +2.4041262e-06 9.11880000e+01 7.81860800e-03 1.13011600e-01
       25 -1    0    0    0    0 +0.0000000000e+00 +0.0000000000e+00 +9.9999998245e-15 1.2500000000e+02 1.2500000000e+02 0.0000e+00 0.0000e+00
      -13  1    1    0    0    0 +8.7983940748e+00 -8.0797873268e+00 -6.1347727914e+01 6.2499996687e+01 1.0566000000e-01 0.0000e+00 -1.0000e+00
       13  1    1    0    0    0 -8.7971615354e+00 +8.0790340293e+00 +6.1341039734e+01 6.2493160919e+01 1.0566000000e-01 0.0000e+00 -1.0000e+00
       22  1    1    0    0    0 -1.2325393818e-03 +7.5329754905e-04 +6.6881801521e-03 6.8423946300e-03 0.0000000000e+00 0.0000e+00 1.0000e+00
</event>
<event>
 4      1 +2.4041262e-06 9.11880000e+01 7.81860800e-03 1.13011600e-01
       25 -1    0    0    0    0 +0.0000000000e+00 +0.0000000000e+00 +9.9999998245e-15 1.2500000000e+02 1.2500000000e+02 0.0000e+00 0.0000e+00
      -11  1    1    0    0    0 +8.0825976089e+00 -1.1645773937e+01 -2.1342810566e+01 2.5621631444e+01 5.1100000000e-04 0.0000e+00 1.0000e+00
       11  1    1    0    0    0 +4.3296997859e+01 +1.0744336750e+01 +2.6226462853e+00 4.4687236093e+01 5.1100000000e-04 0.0000e+00 -1.0000e+00
       22  1    1    0    0    0 -5.1379595468e+01 +9.0143718721e-01 +1.8720164281e+01 5.4691132464e+01 0.0000000000e+00 0.0000e+00 -1.0000e+00
</event>
<event>
 4      1 +2.4041262e-06 9.11880000e+01 7.81860800e-03 1.13011600e-01
       25 -1    0    0    0    0 +0.0000000000e+00 +0.0000000000e+00 +9.9999998245e-15 1.2500000000e+02 1.2500000000e+02 0.0000e+00 0.0000e+00
      -13  1    1    0    0    0 +4.9275790809e+01 -1.4543785055e+01 -3.4440813104e+01 6.1853100285e+01 1.0566000000e-01 0.0000e+00 -1.0000e+00
       13  1    1    0    0    0 -4.9772067718e+01 +1.4668377128e+01 +3.4838185410e+01 6.2499042706e+01 1.0566000000e-01 0.0000e+00 -1.0000e+00
       22  1    1    0    0    0 +4.9627690868e-01 -1.2459207245e-01 -3.9737230570e-01 6.4785700887e-01 0.0000000000e+00 0.0000e+00 -1.0000e+00
</event>
<event>
 4      1 +2.4041262e-06 9.11880000e+01 7.81860800e-03 1.13011600e-01
       25 -1    0    0    0    0 +0.0000000000e+00 +0.0000000000e+00 +9.9999998245e-15 1.2500000000e+02 1.2500000000e+02 0.0000e+00 0.0000e+00
      -13  1    1    0    0    0 -3.0307540970e+01 -4.1127083568e+01 +3.5894046387e+01 6.2436990418e+01 1.0566000000e-01 0.0000e+00 1.0000e+00
       13  1    1    0    0    0 +3.0278720358e+01 +4.0564715398e+01 -3.5781144422e+01 6.1988696567e+01 1.0566000000e-01 0.0000e+00 1.0000e+00
       22  1    1    0    0    0 +2.8820611828e-02 +5.6236816967e-01 -1.1290196475e-01 5.7431301532e-01 0.0000000000e+00 0.0000e+00 1.0000e+00
</event>
<event>
 4      1 +2.4041262e-06 9.11880000e+01 7.81860800e-03 1.13011600e-01
       25 -1    0    0    0    0 +0.0000000000e+00 +0.0000000000e+00 +9.9999998245e-15 1.2500000000e+02 1.2500000000e+02 0.0000e+00 0.0000e+00
      -13  1    1    0    0    0 -4.3391237723e+01 +1.4314986084e+01 +4.2630596130e+01 6.2490777145e+01 1.0566000000e-01 0.0000e+00 1.0000e+00
       13  1    1    0    0    0 +4.3390402146e+01 -1.4297633614e+01 -4.2637110795e+01 6.2490668954e+01 1.0566000000e-01 0.0000e+00 1.0000e+00
       22  1    1    0    0    0 +8.3557757947e-04 -1.7352469427e-02 +6.5146652355e-03 1.8553901160e-02 0.0000000000e+00 0.0000e+00 -1.0000e+00
</event>
<event>
 4      1 +2.4041262e-06 9.11880000e+01 7.81860800e-03 1.13011600e-01
       25 -1    0    0    0    0 +0.0000000000e+00 +0.0000000000e+00 +9.9999998245e-15 1.2500000000e+02 1.2500000000e+02 0.0000e+00 0.0000e+00
      -13  1    1    0    0    0 +3.1818491383e+01 -4.2893801233e+01 +3.2464502341e+01 6.2499997235e+01 1.0566000000e-01 0.0000e+00 1.0000e+00
       13  1    1    0    0    0 -3.1818460084e+01 +4.2893784918e+01 -3.2464461940e+01 6.2499949118e+01 1.0566000000e-01 0.0000e+00 1.0000e+00
       22  1    1    0    0    0 -3.1298560514e-05 +1.6315279503e-05 -4.0400684177e-05 5.3647027108e-05 0.0000000000e+00 0.0000e+00 -1.0000e+00
</event>
<event>
 4      1 +2.4041262e-06 9.11880000e+01 7.81860800e-03 1.13011600e-01
       25 -1    0    0    0    0 +0.0000000000e+00 +0.0000000000e+00 +9.9999998245e-15 1.2500000000e+02 1.2500000000e+02 0.0000e+00 0.0000e+00
      -13  1    1    0    0    0 -1.4882047394e+01 -7.5588920501e+00 -6.0229707625e+01 6.2499928226e+01 1.0566000000e-01 0.0000e+00 -1.0000e+00
       13  1    1    0    0    0 +1.4737268531e+01 +7.4974478336e+00 +5.9635132467e+01 6.1885046628e+01 1.0566000000e-01 0.0000e+00 -1.0000e+00
       22  1    1    0    0    0 +1.4477886293e-01 +6.1444216487e-02 +5.9457515807e-01 6.1502514541e-01 0.0000000000e+00 0.0000e+00 -1.0000e+00
</event>
<event>
 4      1 +2.4041262e-06 9.11880000e+01 7.81860800e-03 1.13011600e-01
       25 -1    0    0    0    0 +0.0000000000e+00 +0.0000000000e+00 +9.9999998245e-15 1.2500000000e+02 1.2500000000e+02 0.0000e+00 0.0000e+00
      -13  1    1    0    0    0 +1.2650722061e+01 -3.6173040090e+01 +4.9373146843e+01 6.2499987130e+01 1.0566000000e-01 0.0000e+00 -1.0000e+00
       13  1    1    0    0    0 -1.2617473488e+01 +3.6076928475e+01 -4.9237360156e+01 6.2330363425e+01 1.0566000000e-01 0.0000e+00 -1.0000e+00
       22  1    1    0    0    0 -3.3248572465e-02 +9.6111615042e-02 -1.3578668647e-01 1.6964944544e-01 0.0000000000e+00 0.0000e+00 -1.0000e+00
</event>
<event>
 4      1 +2.4041262e-06 9.11880000e+01 7.81860800e-03 1.13011600e-01
       25 -1    0    0    0    0 +0.0000000000e+00 +0.0000000000e+00 +9.9999998245e-15 1.2500000000e+02 1.2500000000e+02 0.0000e+00 0.0000e+00
      -11  1    1    0    0    0 -1.4962562839e+01 -2.0176789398e+01 -6.5738349330e+00 2.5965292664e+01 5.1100000000e-04 0.0000e+00 1.0000e+00
       11  1    1    0    0    0 -2.1067458886e+01 -2.8383374437e+01 -9.2374863640e+00 3.6534708469e+01 5.1100000000e-04 0.0000e+00 -1.0000e+00
       22  1    1    0    0    0 +3.6030021725e+01 +4.8560163835e+01 +1.5811321297e+01 6.2499998867e+01 0.0000000000e+00 0.0000e+00 -1.0000e+00
</event>
<event>
 4      1 +2.4041262e-06 9.11880000e+01 7.81860800e-03 1.13011600e-01
       25 -1    0    0    0    0 +0.0000000000e+00 +0.0000000000e+00 +9.9999998245e-15 1.2500000000e+02 1.2500000000e+02 0.0000e+00 0.0000e+00
      -13  1    1    0    0    0 -5.2539280094e+01 +2.1303497824e+01 +2.6306346431e+01 6.2499999992e+01 1.0566000000e-01 0.0000e+00 -1.0000e+00
       13  1    1    0    0    0 +5.2539280099e+01 -2.1303497829e+01 -2.6306346437e+01 6.2500000000e+01 1.0566000000e-01 0.0000e+00 -1.0000e+00
       22  1    1    0    0    0 -4.9467111934e-09 +4.8298179877e-09 +5.4401662786e-09 8.7973008681e-09 0.0000000000e+00 0.0000e+00 1.0000e+00
</event>
<event>
 4      1 +2.4041262e-06 9.11880000e+01 7.81860800e-03 1.13011600e-01
       25 -1    0    0    0    0 +0.0000000000e+00 +0.0000000000e+00 +9.9999998245e-15 1.2500000000e+02 1.2500000000e+02 0.0000e+00 0.0000e+00
      -13  1    1    0    0    0 +9.7620812558e+00 +4.9751191727e+01 +3.6548012547e+01 6.2499981551e+01 1.0566000000e-01 0.0000e+00 1.0000e+00
       13  1    1    0    0    0 -9.7620798906e+00 -4.9751196061e+01 -3.6548033480e+01 6.2499997029e+01 1.0566000000e-01 0.0000e+00 1.0000e+00
       22  1    1    0    0    0 -1.3651170243e-06 +4.3337107004e-06 +2.0932957787e-05 2.1420394830e-05 0.0000000000e+00 0.0000e+00 1.0000e+00
</event>
<event>
 4      1 +2.4041262e-06 9.11880000e+01 7.81860800e-03 1.13011600e-01
       25 -1    0    0    0    0 +0.0000000000e+00 +0.0000000000e+00 +9.9999998245e-15 1.2500000000e+02 1.2500000000e+02 0.0000e+00 0.0000e+00
      -13  1    1    0    0    0 +9.3439359654e+00 +4.6430165284e+01 +4.0781974135e+01 6.2499999728e+01 1.0566000000e-01 0.0000e+00 1.0000e+00
       13  1    1    0    0    0 -9.3439360074e+00 -4.6430165486e+01 -4.0781974312e+01 6.2500000000e+01 1.0566000000e-01 0.0000e+00 1.0000e+00
       22  1    1    0    0    0 +4.2071674092e-08 +2.0246897182e-07 +1.7680431106e-07 2.7207255415e-07 0.0000000000e+00 0.0000e+00 -1.0000e+00
</event>
<event>
 4      1 +2.4041262e-06 9.11880000e+01 7.81860800e-03 1.13011600e-01
       25 -1    0    0    0    0 +0.0000000000e+00 +0.0000000000e+00 +9.9999998245e-15 1.2500000000e+02 1.2500000000e+02 0.0000e+00 0.0000e+00
      -13  1    1    0    0    0 -4.5752272669e+01 -1.4107649528e+01 +4.0173904512e+01 6.2499999978e+01 1.0566000000e-01 0.0000e+00 -1.0000e+00
       13  1    1    0    0    0 +4.5752271414e+01 +1.4107648893e+01 -4.0173903722e+01 6.2499998409e+01 1.0566000000e-01 0.0000e+00 -1.0000e+00
       22  1    1    0    0    0 +1.2545630416e-06 +6.3484104322e-07 -7.8917276756e-07 1.6123725477e-06 0.0000000000e+00 0.0000e+00 -1.0000e+00
</event>
<event>
 4      1 +2.4041262e-06 9.11880000e+01 7.81860800e-03 1.13011600e-01
       25 -1    0    0    0    0 +0.0000000000e+00 +0.0000000000e+00 +9.9999998245e-15 1.2500000000e+02 1.2500000000e+02 0.0000e+00 0.0000e+00
      -13  1    1    0    0    0 +1.4344766740e+01 +4.7312272731e+01 +3.2893555572e+01 5.9381989239e+01 1.0566000000e-01 0.0000e+00 -1.0000e+00
       13  1    1    0    0    0 +2.7695979751e+00 -1.2238173314e+01 +2.6572919766e+00 1.2826376094e+01 1.0566000000e-01 0.0000e+00 1.0000e+00
       22  1    1    0    0    0 -1.7114364715e+01 -3.5074099416e+01 -3.5550847548e+01 5.2791634667e+01 0.0000000000e+00 0.0000e+00 -1.0000e+00
</event>
<event>
 4      1 +2.4041262e-06 9.11880000e+01 7.81860800e-03 1.13011600e-01
       25 -1    0    0    0    0 +0.0000000000e+00 +0.0000000000e+00 +9.9999998245e-15 1.2500000000e+02 1.2500000000e+02 0.0000e+00 0.0000e+00
      -13  1    1    0    0    0 +3.1339001585e+00 -5.8975796036e+01 -2.0451576037e+01 6.2499951798e+01 1.0566000000e-01 0.0000e+00 1.0000e+00
       13  1    1    0    0    0 -3.0706727618e+00 +5.7635010178e+01 +2.0001616293e+01 6.1084361728e+01 1.0566000000e-01 0.0000e+00 1.0000e+00
       22  1    1    0    0    0 -6.3227396730e-02 +1.3407858585e+00 +4.4995974345e-01 1.4156864741e+00 0.0000000000e+00 0.0000e+00 1.0000e+00
</event>
<event>
 4      1 +2.4041262e-06 9.11880000e+01 7.81860800e-03 1.13011600e-01
       25 -1    0    0    0    0 +0.0000000000e+00 +0.0000000000e+00 +9.9999998245e-15 1.2500000000e+02 1.2500000000e+02 0.0000e+00 0.0000e+00
      -13  1    1    0    0    0 +2.4734421323e+01 +5.7363751975e+01 +1.9614160370e+00 6.2499999646e+01 1.0566000000e-01 0.0000e+00 -1.0000e+00
       13  1    1    0    0    0 -2.4734415558e+01 -5.7363742643e+01 -1.9614120205e+00 6.2499988674e+01 1.0566000000e-01 0.0000e+00 -1.0000e+00
       22  1    1    0    0    0 -5.7642714150e-06 -9.3315017061e-06 -4.0165432276e-06 1.1680597953e-05 0.0000000000e+00 0.0000e+00 -1.0000e+00
</event>
<event>
 4      1 +2.4041262e-06 9.11880000e+01 7.81860800e-03 1.13011600e-01
       25 -1    0    0    0    0 +0.0000000000e+00 +0.0000000000e+00 +9.9999998245e-15 1.2500000000e+02 1.2500000000e+02 0.0000e+00 0.0000e+00
      -11  1    1    0    0    0 -1.3401823031e+00 +2.3091115209e+00 +1.6471987791e+01 1.6686954985e+01 5.1100000000e-04 0.0000e+00 -1.0000e+00
       11  1    1    0    0    0 -3.6759073960e+00 +6.3432107630e+00 +4.5222632379e+01 4.5813045058e+01 5.1100000000e-04 0.0000e+00 1.0000e+00
       22  1    1    0    0    0 +5.0160896991e+00 -8.6523222840e+00 -6.1694620170e+01 6.2499999957e+01 0.0000000000e+00 0.0000e+00 1.0000e+00
</event>
<event>
 4      1 +2.4041262e-06 9.11880000e+01 7.81860800e-03 1.13011600e-01
       25 -1    0    0    0    0 +0.0000000000e+00 +0.0000000000e+00 +9.9999998245e-15 1.2500000000e+02 1.2500000000e+02 0.0000e+00 0.0000e+00
      -13  1    1    0    0    0 -5.3119863664e+01 +1.0695755193e+01 +3.1145899571e+01 6.2499578550e+01 1.0566000000e-01 0.0000e+00 -1.0000e+00
       13  1    1    0    0    0 +5.3105153513e+01 -1.0697031212e+01 -3.1133332200e+01 6.2481031877e+01 1.0566000000e-01 0.0000e+00 -1.0000e+00
       22  1    1    0    0    0 +1.4710150515e-02 +1.2760187532e-03 -1.2567370463e-02 1.9389573291e-02 0.0000000000e+00 0.0000e+00 1.0000e+00
</event>
<event>
 4      1 +2.4041262e-06 9.11880000e+01 7.81860800e-03 1.13011600e-01
       25 -1    0    0    0    0 +0.0000000000e+00 +0.0000000000e+00 +9.9999998245e-15 1.2500000000e+02 1.2500000000e+02 0.0000e+00 0.0000e+00
      -13  1    1    0    0    0 +6.3098220456e+00 +2.1480436013e+01 +5.8352513338e+01 6.2499999699e+01 1.0566000000e-01 0.0000e+00 1.0000e+00
       13  1    1    0    0    0 -6.3098220883e+00 -2.1480436116e+01 -5.8352513617e+01 6.2500000000e+01 1.0566000000e-01 0.0000e+00 1.0000e+00
       22  1    1    0    0    0 +4.2647460426e-08 +1.0319110831e-07 +2.7945035393e-07 3.0093140585e-07 0.0000000000e+00 0.0000e+00 1.0000e+00
</event>
<event>
 4      1 +2.4041262e-06 9.11880000e+01 7.81860800e-03 1.13011600e-01
       25 -1    0    0    0    0 +0.0000000000e+00 +0.0000000000e+00 +9.9999998245e-15 1.2500000000e+02 1.2500000000e+02 0.0000e+00 0.0000e+00
      -13  1    1    0    0    0 -1.9987042235e+01 +4.9775067545e+01 -2.2025948729e+00 5.3683347461e+01 1.0566000000e-01 0.0000e+00 -1.0000e+00
       13  1    1    0    0    0 +2.3273618809e+01 -5.7946536565e+01 +2.6021254814e+00 6.2499957227e+01 1.0566000000e-01 0.0000e+00 -1.0000e+00
       22  1    1    0    0    0 -3.2865765741e+00 +8.1714690193e+00 -3.9953060843e-01 8.8166953116e+00 0.0000000000e+00 0.0000e+00 -1.0000e+00
</event>
<event>
 4      1 +2.4041262e-06 9.11880000e+01 7.81860800e-03 1.13011600e-01
       25 -1    0    0    0    0 +0.0000000000e+00 +0.0000000000e+00 +9.9999998245e-15 1.2500000000e+02 1.2500000000e+02 0.0000e+00 0.0000e+00
      -13  1    1    0    0    0 -4.3262691349e+01 +7.1349330525e-01 +4.5100657419e+01 6.2499999993e+01 1.0566000000e-01 0.0000e+00 1.0000e+00
       13  1    1    0    0    0 +4.3262691353e+01 -7.1349329938e-01 -4.5100657423e+01 6.2499999999e+01 1.0566000000e-01 0.0000e+00 1.0000e+00
       22  1    1    0    0    0 -4.1207355483e-09 -5.8711288788e-09 +4.2687329503e-09 8.3470172380e-09 0.0000000000e+00 0.0000e+00 -1.0000e+00
</event>
<event>
 5      1 +2.4041262e-06 9.11880000e+01 7.81860800e-03 1.13011600e-01
       25 -1    0    0    0    0 +0.0000000000e+00 +0.0000000000e+00 +9.9999998245e-15 1.2500000000e+02 1.2500000000e+02 0.0000e+00 0.0000e+00
       23  2    1    0    0    0 -2.4955781072e+01 +1.0322452595e+01 +1.2161977241e+01 9.5381463120e+01 9.0666232854e+01 0.0000e+00 0.0000e+00
      -13  1    2    2    0    0 -1.1329964530e+01 -9.9059400435e+00 +4.8967544165e+01 5.1228188431e+01 1.0566000000e-01 0.0000e+00 1.0000e+00
       13  1    2    2    0    0 -1.3625816542e+01 +2.0228392638e+01 -3.6805566923e+01 4.4153274689e+01 1.0566000000e-01 0.0000e+00 -1.0000e+00
       22  1    1    0    0    0 +2.4955781072e+01 -1.0322452595e+01 -1.2161977241e+01 2.9618536880e+01 0.0000000000e+00 0.0000e+00 1.0000e+00
</event>
<event>
 4      1 +2.4041262e-06 9.11880000e+01 7.81860800e-03 1.13011600e-01
       25 -1    0    0    0    0 +0.0000000000e+00 +0.0000000000e+00 +9.9999998245e-15 1.2500000000e+02 1.2500000000e+02 0.0000e+00 0.0000e+00
      -13  1    1    0    0    0 -4.9950926742e+01 -8.7971906204e-01 -3.7554887976e+01 6.2499998104e+01 1.0566000000e-01 0.0000e+00 1.0000e+00
       13  1    1    0    0    0 +4.9949132639e+01 +8.7957162845e-01 +3.7553609511e+01 6.2497793953e+01 1.0566000000e-01 0.0000e+00 1.0000e+00
       22  1    1    0    0    0 +1.7941027488e-03 +1.4743358639e-04 +1.2784656221e-03 2.2079437679e-03 0.0000000000e+00 0.0000e+00 -1.0000e+00
</event>
<event>
 4      1 +2.4041262e-06 9.11880000e+01 7.81860800e-03 1.13011600e-01
       25 -1    0    0    0    0 +0.0000000000e+00 +0.0000000000e+00 +9.9999998245e-15 1.2500000000e+02 1.2500000000e+02 0.0000e+00 0.0000e+00
      -13  1    1    0    0    0 -8.6894197685e+00 -1.9760933288e+01 -2.2654045134e-01 2.1588491956e+01 1.0566000000e-01 0.0000e+00 -1.0000e+00
       13  1    1    0    0    0 -1.6256542830e+01 -3.7531386813e+01 +1.1462576847e+00 4.0917053311e+01 1.0566000000e-01 0.0000e+00 1.0000e+00
       22  1    1    0    0    0 +2.4945962598e+01 +5.7292320102e+01 -9.1971723334e-01 6.2494454733e+01 0.0000000000e+00 0.0000e+00 1.0000e+00
</event>
<event>
 4      1 +2.4041262e-06 9.11880000e+01 7.81860800e-03 1.13011600e-01
       25 -1    0    0    0    0 +0.0000000000e+00 +0.0000000000e+00 +9.9999998245e-15 1.2500000000e+02 1.2500000000e+02 0.0000e+00 0.0000e+00
      -13  1    1    0    0    0 +1.4428665260e+01 -4.2708476983e+01 -4.3290165724e+01 6.2499999999e+01 1.0566000000e-01 0.0000e+00 -1.0000e+00
       13  1    1    0    0    0 -1.4428662315e+01 +4.2708467770e+01 +4.3290156170e+01 6.2499986406e+01 1.0566000000e-01 0.0000e+00 -1.0000e+00
       22  1    1    0    0    0 -2.9449049028e-06 +9.2124568279e-06 +9.5547459063e-06 1.3595403452e-05 0.0000000000e+00 0.0000e+00 -1.0000e+00
</event>
<event>
 4      1 +2.4041262e-06 9.11880000e+01 7.81860800e-03 1.13011600e-01
       25 -1    0    0    0    0 +0.0000000000e+00 +0.0000000000e+00 +9.9999998245e-15 1.2500000000e+02 1.2500000000e+02 0.0000e+00 0.0000e+00
      -13  1    1    0    0    0 -1.9103193190e+01 -5.7130099825e+01 -1.6613086446e+01 6.2488287713e+01 1.0566000000e-01 0.0000e+00 -1.0000e+00
       13  1    1    0    0    0 +1.9106759852e+01 +5.7140796318e+01 +1.6616255595e+01 6.2499999919e+01 1.0566000000e-01 0.0000e+00 -1.0000e+00
       22  1    1    0    0    0 -3.5666622714e-03 -1.0696493310e-02 -3.1691491688e-03 1.1712367623e-02 0.0000000000e+00 0.0000e+00 -1.0000e+00
</event>
<event>
 4      1 +2.4041262e-06 9.11880000e+01 7.81860800e-03 1.13011600e-01
       25 -1    0    0    0    0 +0.0000000000e+00 +0.0000000000e+00 +9.9999998245e-15 1.2500000000e+02 1.2500000000e+02 0.0000e+00 0.0000e+00
      -13  1    1    0    0    0 +5.2040387879e+01 -1.7668432750e+01 -2.9763456470e+01 6.2499999932e+01 1.0566000000e-01 0.0000e+00 1.0000e+00
       13  1    1    0    0    0 -5.2040387944e+01 +1.7668432793e+01 +2.9763456427e+01 6.2499999979e+01 1.0566000000e-01 0.0000e+00 1.0000e+00
       22  1    1    0    0    0 +6.5278021949e-08 -4.3479425582e-08 +4.2586861403e-08 8.9248649080e-08 0.0000000000e+00 0.0000e+00 -1.0000e+00
</event>
<event>
 4      1 +2.4041262e-06 9.11880000e+01 7.81860800e-03 1.13011600e-01
       25 -1    0    0    0    0 +0.0000000000e+00 +0.0000000000e+00 +9.9999998245e-15 1.2500000000e+02 1.2500000000e+02 0.0000e+00 0.0000e+00
      -13  1    1    0    0    0 -2.4532704454e+01 -2.3607739599e+00 +5.7435285256e+01 6.2499999983e+01 1.0566000000e-01 0.0000e+00 1.0000e+00
       13  1    1    0    0    0 +2.4532696045e+01 +2.3607740125e+00 -5.7435267642e+01 6.2499980499e+01 1.0566000000e-01 0.0000e+00 1.0000e+00
       22  1    1    0    0    0 +8.4088231915e-06 -5.2639902807e-08 -1.7613115840e-05 1.9517503119e-05 0.0000000000e+00 0.0000e+00 1.0000e+00
</event>
<event>
 5      1 +2.4041262e-06 9.11880000e+01 7.81860800e-03 1.13011600e-01
       25 -1    0    0    0    0 +0.0000000000e+00 +0.0000000000e+00 +9.9999998245e-15 1.2500000000e+02 1.2500000000e+02 0.0000e+00 0.0000e+00
       23  2    1    0    0    0 +2.9076434029e+00 +4.1467798461e+00 -3.2469222582e+01 9.2138159085e+01 8.6078683605e+01 0.0000e+00 0.0000e+00
      -13  1    2    2    0    0 +4.1952365147e+01 +2.5430455547e+00 -3.2386953041e+01 5.3060285652e+01 1.0566000000e-01 0.0000e+00 1.0000e+00
       13  1    2    2    0    0 -3.9044721744e+01 +1.6037342913e+00 -8.2269540761e-02 3.9077873433e+01 1.0566000000e-01 0.0000e+00 -1.0000e+00
       22  1    1    0    0    0 -2.9076434029e+00 -4.1467798461e+00 +3.2469222582e+01 3.2861840915e+01 0.0000000000e+00 0.0000e+00 1.0000e+00
</event>
<event>
 4      1 +2.4041262e-06 9.11880000e+01 7.81860800e-03 1.13011600e-01
       25 -1    0    0    0    0 +0.0000000000e+00 +0.0000000000e+00 +9.9999998245e-15 1.2500000000e+02 1.2500000000e+02 0.0000e+00 0.0000e+00
      -13  1    1    0    0    0 +2.7146449227e+01 -5.0770001988e+01 -2.4325208093e+01 6.2499997762e+01 1.0566000000e-01 0.0000e+00 -1.0000e+00
       13  1    1    0    0    0 -2.7146450038e+01 +5.0770003856e+01 +2.4325209028e+01 6.2499999996e+01 1.0566000000e-01 0.0000e+00 -1.0000e+00
       22  1    1    0    0    0 +8.1114401134e-07 -1.8687031750e-06 -9.3546838221e-07 2.2416751008e-06 0.0000000000e+00 0.0000e+00 1.0000e+00
</event>
<event>
 4      1 +2.4041262e-06 9.11880000e+01 7.81860800e-03 1.13011600e-01
       25 -1    0    0    0    0 +0.0000000000e+00 +0.0000000000e+00 +9.9999998245e-15 1.2500000000e+02 1.2500000000e+02 0.0000e+00 0.0000e+00
      -13  1    1    0    0    0 -1.9159388468e+01 -1.0428431310e+01 +5.8569654859e+01 6.2499999843e+01 1.0566000000e-01 0.0000e+00 1.0000e+00
       13  1    1    0    0    0 +1.9159387877e+01 +1.0428431783e+01 -5.8569654295e+01 6.2499999212e+01 1.0566000000e-01 0.0000e+00 1.0000e+00
       22  1    1    0    0    0 +5.9084856992e-07 -4.7327528083e-07 -5.6441692860e-07 9.4427643903e-07 0.0000000000e+00 0.0000e+00 -1.0000e+00
</event>
<event>
 4      1 +2.4041262e-06 9.11880000e+01 7.81860800e-03 1.13011600e-01
       25 -1    0    0    0    0 +0.0000000000e+00 +0.0000000000e+00 +9.9999998245e-15 1.2500000000e+02 1.2500000000e+02 0.0000e+00 0.0000e+00
      -13  1    1    0    0    0 +3.0008797878e+00 -4.8956443866e+01 +3.8736289968e+01 6.2500000000e+01 1.0566000000e-01 0.0000e+00 -1.0000e+00
       13  1    1    0    0    0 -3.0008797858e+00 +4.8956443856e+01 -3.8736289960e+01 6.2499999987e+01 1.0566000000e-01 0.0000e+00 -1.0000e+00
       22  1    1    0    0    0 -2.0089660684e-09 +9.9700292692e-09 -7.8574341774e-09 1.2852108782e-08 0.0000000000e+00 0.0000e+00 -1.0000e+00
</event>
<event>
 4      1 +2.4041262e-06 9.11880000e+01 7.81860800e-03 1.13011600e-01
       25 -1    0    0    0    0 +0.0000000000e+00 +0.0000000000e+00 +9.9999998245e-15 1.2500000000e+02 1.2500000000e+02 0.0000e+00 0.0000e+00
      -13  1    1    0    0    0 -1.1760049157e+01 +4.2752778017e+01 +4.4047020917e+01 6.2500000000e+01 1.0566000000e-01 0.0000e+00 -1.0000e+00
       13  1    1    0    0    0 +1.1760048991e+01 -4.2752777443e+01 -4.4047020316e+01 6.2499999153e+01 1.0566000000e-01 0.0000e+00 -1.0000e+00
       22  1    1    0    0    0 +1.6682026403e-07 -5.7396418476e-07 -6.0074987724e-07 8.4744575100e-07 0.0000000000e+00 0.0000e+00 1.0000e+00
</event>
<event>
 4      1 +2.4041262e-06 9.11880000e+01 7.81860800e-03 1.13011600e-01
       25 -1    0    0    0    0 +0.0000000000e+00 +0.0000000000e+00 +9.9999998245e-15 1.2500000000e+02 1.2500000000e+02 0.0000e+00 0.0000e+00
      -13  1    1    0    0    0 +1.4785248803e+01 -3.7845948169e+01 +4.7490203842e+01 6.2500000000e+01 1.0566000000e-01 0.0000e+00 -1.0000e+00
       13  1    1    0    0    0 -1.4785248760e+01 +3.7845948047e+01 -4.7490203685e+01 6.2499999797e+01 1.0566000000e-01 0.0000e+00 -1.0000e+00
       22  1    1    0    0    0 -4.3555008130e-08 +1.2180429827e-07 -1.5692240484e-07 2.0336658268e-07 0.0000000000e+00 0.0000e+00 -1.0000e+00
</event>
<event>
 4      1 +2.4041262e-06 9.11880000e+01 7.81860800e-03 1.13011600e-01
       25 -1    0    0    0    0 +0.0000000000e+00 +0.0000000000e+00 +9.9999998245e-15 1.2500000000e+02 1.2500000000e+02 0.0000e+00 0.0000e+00
      -13  1    1    0    0    0 +3.6327842623e+01 -3.9389852699e+01 +3.2170356504e+01 6.2499725175e+01 1.0566000000e-01 0.0000e+00 1.0000e+00
       13  1    1    0    0    0 -3.6328193443e+01 +3.9389859377e+01 -3.2170337309e+01 6.2499923417e+01 1.0566000000e-01 0.0000e+00 1.0000e+00
       22  1    1    0    0    0 +3.5081985795e-04 -6.6779773649e-06 -1.9194365438e-05 3.5140801325e-04 0.0000000000e+00 0.0000e+00 1.0000e+00
</event>
<event>
 5      1 +2.4041262e-06 9.11880000e+01 7.81860800e-03 1.13011600e-01
       25 -1    0    0    0    0 +0.0000000000e+00 +0.0000000000e+00 +9.9999998245e-15 1.2500000000e+02 1.2500000000e+02 0.0000e+00 0.0000e+00
       23  2    1    0    0    0 -1.9880259312e+01 +2.2070365733e+01 -2.8308267231e+00 9.5161445513e+01 9.0362389180e+01 0.0000e+00 0.0000e+00
      -11  1    2    2    0    0 -4.8376884012e+01 +3.4436311354e+01 +1.2247141164e+01 6.0631468012e+01 5.1100000000e-04 0.0000e+00 -1.0000e+00
       11  1    2    2    0    0 +2.8496624700e+01 -1.2365945620e+01 -1.5077967888e+01 3.4529977501e+01 5.1100000000e-04 0.0000e+00 1.0000e+00
       22  1    1    0    0    0 +1.9880259312e+01 -2.2070365733e+01 +2.8308267231e+00 2.9838554487e+01 0.0000000000e+00 0.0000e+00 -1.0000e+00
</event>
<event>
 4      1 +2.4041262e-06 9.11880000e+01 7.81860800e-03 1.13011600e-01
       25 -1    0    0    0    0 +0.0000000000e+00 +0.0000000000e+00 +9.9999998245e-15 1.2500000000e+02 1.2500000000e+02 0.0000e+00 0.0000e+00
      -13  1    1    0    0    0 -2.0187188402e+01 +3.9250890415e+01 -4.3519268145e+01 6.1984617752e+01 1.0566000000e-01 0.0000e+00 1.0000e+00
       13  1    1    0    0    0 +2.1341935935e+01 -3.3743163558e+01 +3.8753533757e+01 5.5641053720e+01 1.0566000000e-01 0.0000e+00 1.0000e+00
       22  1    1    0    0    0 -1.1547475331e+00 -5.5077268563e+00 +4.7657343879e+00 7.3743285284e+00 0.0000000000e+00 0.0000e+00 1.0000e+00
</event>
<event>
 4      1 +2.4041262e-06 9.11880000e+01 7.81860800e-03 1.13011600e-01
       25 -1    0    0    0    0 +0.0000000000e+00 +0.0000000000e+00 +9.9999998245e-15 1.2500000000e+02 1.2500000000e+02 0.0000e+00 0.0000e+00
      -13  1    1    0    0    0 +4.5627612477e+01 -3.7201172927e+01 +2.0986484376e+01 6.2499999824e+01 1.0566000000e-01 0.0000e+00 -1.0000e+00
       13  1    1    0    0    0 -4.5627455795e+01 +3.7201036625e+01 -2.0986421441e+01 6.2499783178e+01 1.0566000000e-01 0.0000e+00 -1.0000e+00
       22  1    1    0    0    0 -1.5668209391e-04 +1.3630185082e-04 -6.2934841260e-05 2.1699831182e-04 0.0000000000e+00 0.0000e+00 -1.0000e+00
</event>
<event>
 4      1 +2.4041262e-06 9.11880000e+01 7.81860800e-03 1.13011600e-01
       25 -1    0    0    0    0 +0.0000000000e+00 +0.0000000000e+00 +9.9999998245e-15 1.2500000000e+02 1.2500000000e+02 0.0000e+00 0.0000e+00
      -13  1    1    0    0    0 +3.9644165237e+01 -4.6671551320e+01 +1.2503811261e+01 6.2500000000e+01 1.0566000000e-01 0.0000e+00 -1.0000e+00
       13  1    1    0    0    0 -3.9644165016e+01 +4.6671551061e+01 -1.2503811189e+01 6.2499999652e+01 1.0566000000e-01 0.0000e+00 -1.0000e+00
       22  1    1    0    0    0 -2.2101379309e-07 +2.5876376048e-07 -7.2417370249e-08 3.4792248560e-07 0.0000000000e+00 0.0000e+00 -1.0000e+00
</event>
<event>
 4      1 +2.4041262e-06 9.11880000e+01 7.81860800e-03 1.13011600e-01
       25 -1    0    0    0    0 +0.0000000000e+00 +0.0000000000e+00 +9.9999998245e-15 1.2500000000e+02 1.2500000000e+02 0.0000e+00 0.0000e+00
      -11  1    1    0    0    0 +1.4193356356e+00 +3.1849495872e+00 +8.4225270245e-01 3.5871726185e+00 5.1100000000e-04 0.0000e+00 1.0000e+00
       11  1    1    0    0    0 -2.7942896398e+01 -5.1720935575e+01 -2.1174421323e+01 6.2483731918e+01 5.1100000000e-04 0.0000e+00 -1.0000e+00
       22  1    1    0    0    0 +2.6523560762e+01 +4.8535985988e+01 +2.0332168620e+01 5.8929095463e+01 0.0000000000e+00 0.0000e+00 -1.0000e+00
</event>
<event>
 5      1 +2.4041262e-06 9.11880000e+01 7.81860800e-03 1.13011600e-01
       25 -1    0    0    0    0 +0.0000000000e+00 +0.0000000000e+00 +9.9999998245e-15 1.2500000000e+02 1.2500000000e+02 0.0000e+00 0.0000e+00
       23  2    1    0    0    0 -1.0979253796e+01 +2.3618606144e+01 +1.3951785309e+01 9.5452836288e+01 9.0764580493e+01 0.0000e+00 0.0000e+00
      -13  1    2    2    0    0 -1.2778303385e+01 -2.9300294293e+00 -3.6297579637e+01 3.8592687926e+01 1.0566000000e-01 0.0000e+00 1.0000e+00
       13  1    2    2    0    0 +1.7990495882e+00 +2.6548635574e+01 +5.0249364946e+01 5.6860148362e+01 1.0566000000e-01 0.0000e+00 -1.0000e+00
       22  1    1    0    0    0 +1.0979253796e+01 -2.3618606144e+01 -1.3951785309e+01 2.9547163712e+01 0.0000000000e+00 0.0000e+00 -1.0000e+00
</event>
<event>
 4      1 +2.4041262e-06 9.11880000e+01 7.81860800e-03 1.13011600e-01
       25 -1    0    0    0    0 +0.0000000000e+00 +0.0000000000e+00 +9.9999998245e-15 1.2500000000e+02 1.2500000000e+02 0.0000e+00 0.0000e+00
      -13  1    1    0    0    0 +2.5732048516e+01 -3.1113355434e+00 +4.8077940532e+01 5.4619760705e+01 1.0566000000e-01 0.0000e+00 -1.0000e+00
       13  1    1    0    0    0 -2.9425336065e+01 +3.5243681075e+00 -5.5026904156e+01 6.2499943345e+01 1.0566000000e-01 0.0000e+00 -1.0000e+00
       22  1    1    0    0    0 +3.6932875487e+00 -4.1303256406e-01 +6.9489636239e+00 7.8802959502e+00 0.0000000000e+00 0.0000e+00 1.0000e+00
</event>
<event>
 4      1 +2.4041262e-06 9.11880000e+01 7.81860800e-03 1.13011600e-01
       25 -1    0    0    0    0 +0.0000000000e+00 +0.0000000000e+00 +9.9999998245e-15 1.2500000000e+02 1.2500000000e+02 0.0000e+00 0.0000e+00
      -13  1    1    0    0    0 +3.3006890077e+00 +3.9942585770e+01 -4.7957628485e+01 6.2499999999e+01 1.0566000000e-01 0.0000e+00 1.0000e+00
       13  1    1    0    0    0 -3.3006890197e+00 -3.9942585727e+01 +4.7957628431e+01 6.2499999931e+01 1.0566000000e-01 0.0000e+00 1.0000e+00
       22  1    1    0    0    0 +1.2025570375e-08 -4.2930529189e-08 +5.4093157761e-08 7.0097891522e-08 0.0000000000e+00 0.0000e+00 1.0000e+00
</event>
<event>
 4      1 +2.4041262e-06 9.11880000e+01 7.81860800e-03 1.13011600e-01
       25 -1    0    0    0    0 +0.0000000000e+00 +0.0000000000e+00 +9.9999998245e-15 1.2500000000e+02 1.2500000000e+02 0.0000e+00 0.0000e+00
      -13  1    1    0    0    0 +2.4348336650e+00 +2.2566864993e+01 +5.8229451348e+01 6.2496975758e+01 1.0566000000e-01 0.0000e+00 -1.0000e+00
       13  1    1    0    0    0 -2.4733349695e+00 -2.1488672646e+01 -5.5170775468e+01 5.9259649575e+01 1.0566000000e-01 0.0000e+00 -1.0000e+00
       22  1    1    0    0    0 +3.8501304532e-02 -1.0781923471e+00 -3.0586758807e+00 3.2433746670e+00 0.0000000000e+00 0.0000e+00 1.0000e+00
</event>
<event>
 4      1 +2.4041262e-06 9.11880000e+01 7.81860800e-03 1.13011600e-01
       25 -1    0    0    0    0 +0.0000000000e+00 +0.0000000000e+00 +9.9999998245e-15 1.2500000000e+02 1.2500000000e+02 0.0000e+00 0.0000e+00
      -13  1    1    0    0    0 -1.7286365905e+01 +1.4851575967e+01 +1.2682224592e+01 2.6081367670e+01 1.0566000000e-01 0.0000e+00 -1.0000e+00
       13  1    1    0    0    0 +4.1970279798e+01 -3.5787355310e+01 -2.9385524306e+01 6.2496074991e+01 1.0566000000e-01 0.0000e+00 -1.0000e+00
       22  1    1    0    0    0 -2.4683913894e+01 +2.0935779343e+01 +1.6703299714e+01 3.6422557339e+01 0.0000000000e+00 0.0000e+00 -1.0000e+00
</event>
<event>
 4      1 +2.4041262e-06 9.11880000e+01 7.81860800e-03 1.13011600e-01
       25 -1    0    0    0    0 +0.0000000000e+00 +0.0000000000e+00 +9.9999998245e-15 1.2500000000e+02 1.2500000000e+02 0.0000e+00 0.0000e+00
      -13  1    1    0    0    0 -5.0581681530e+01 -6.0289369465e+00 +3.6213039693e+01 6.2499999959e+01 1.0566000000e-01 0.0000e+00 1.0000e+00
       13  1    1    0    0    0 +5.0581681562e+01 +6.0289369508e+00 -3.6213039717e+01 6.2500000000e+01 1.0566000000e-01 0.0000e+00 1.0000e+00
       22  1    1    0    0    0 -3.2275877013e-08 -4.2880524030e-09 +2.4322108680e-08 4.0640922738e-08 0.0000000000e+00 0.0000e+00 1.0000e+00
</event>
<event>
 4      1 +2.4041262e-06 9.11880000e+01 7.81860800e-03 1.13011600e-01
       25 -1    0    0    0    0 +0.0000000000e+00 +0.0000000000e+00 +9.9999998245e-15 1.2500000000e+02 1.2500000000e+02 0.0000e+00 0.0000e+00
      -13  1    1    0    0    0 +1.7364935450e+01 +3.6424733030e+00 +1.1427985721e+01 2.1104942943e+01 1.0566000000e-01 0.0000e+00 1.0000e+00
       13  1    1    0    0    0 +2.9961364618e+01 -3.3887821559e+01 +4.6543947346e+00 4.5472435322e+01 1.0566000000e-01 0.0000e+00 -1.0000e+00
       22  1    1    0    0    0 -4.7326300068e+01 +3.0245348256e+01 -1.6082380456e+01 5.8422621735e+01 0.0000000000e+00 0.0000e+00 -1.0000e+00
</event>
<event>
 4      1 +2.4041262e-06 9.11880000e+01 7.81860800e-03 1.13011600e-01
       25 -1    0    0    0    0 +0.0000000000e+00 +0.0000000000e+00 +9.9999998245e-15 1.2500000000e+02 1.2500000000e+02 0.0000e+00 0.0000e+00
      -13  1    1    0    0    0 -3.6057852600e+01 +4.6556549943e+01 -2.0941770602e+01 6.2499999973e+01 1.0566000000e-01 0.0000e+00 1.0000e+00
       13  1    1    0    0    0 +3.6057852590e+01 -4.6556549885e+01 +2.0941770660e+01 6.2499999944e+01 1.0566000000e-01 0.0000e+00 1.0000e+00
       22  1    1    0    0    0 +1.0426321907e-08 -5.7491006767e-08 -5.8192712610e-08 8.2464027605e-08 0.0000000000e+00 0.0000e+00 -1.0000e+00
</event>
<event>
 4      1 +2.4041262e-06 9.11880000e+01 7.81860800e-03 1.13011600e-01
       25 -1    0    0    0    0 +0.0000000000e+00 +0.0000000000e+00 +9.9999998245e-15 1.2500000000e+02 1.2500000000e+02 0.0000e+00 0.0000e+00
      -13  1    1    0    0    0 -1.3072887459e+01 +5.6110186125e+01 +2.4227409068e+01 6.2499855102e+01 1.0566000000e-01 0.0000e+00 -1.0000e+00
       13  1    1    0    0    0 +1.3072916842e+01 -5.6110314492e+01 -2.4227469614e+01 6.2499999960e+01 1.0566000000e-01 0.0000e+00 -1.0000e+00
       22  1    1    0    0    0 -2.9383399650e-05 +1.2836618703e-04 +6.0545695854e-05 1.4493806758e-04 0.0000000000e+00 0.0000e+00 -1.0000e+00
</event>
<event>
 4      1 +2.4041262e-06 9.11880000e+01 7.81860800e-03 1.13011600e-01
       25 -1    0    0    0    0 +0.0000000000e+00 +0.0000000000e+00 +9.9999998245e-15 1.2500000000e+02 1.2500000000e+02 0.0000e+00 0.0000e+00
      -13  1    1    0    0    0 -1.5570584633e+01 -4.7028832903e+01 -3.8106227914e+01 6.2499999999e+01 1.0566000000e-01 0.0000e+00 1.0000e+00
       13  1    1    0    0    0 +1.5570584616e+01 +4.7028832851e+01 +3.8106227890e+01 6.2499999941e+01 1.0566000000e-01 0.0000e+00 1.0000e+00
       22  1    1    0    0    0 +1.7674662963e-08 +5.1284634831e-08 +2.4809687498e-08 5.9649208497e-08 0.0000000000e+00 0.0000e+00 1.0000e+00
</event>
<event>
 4      1 +2.4041262e-06 9.11880000e+01 7.81860800e-03 1.13011600e-01
       25 -1    0    0    0    0 +0.0000000000e+00 +0.0000000000e+00 +9.9999998245e-15 1.2500000000e+02 1.2500000000e+02 0.0000e+00 0.0000e+00
      -13  1    1    0    0    0 +1.5383312435e+01 -1.9715597015e+01 +5.7279033621e+01 6.2499999390e+01 1.0566000000e-01 0.0000e+00 1.0000e+00
       13  1    1    0    0    0 -1.5383312985e+01 +1.9715597189e+01 -5.7279033995e+01 6.2499999923e+01 1.0566000000e-01 0.0000e+00 1.0000e+00
       22  1    1    0    0    0 +5.4978002528e-07 -1.7471312195e-07 +3.7322903247e-07 6.8708271836e-07 0.0000000000e+00 0.0000e+00 1.0000e+00
</event>
<event>
 4      1 +2.4041262e-06 9.11880000e+01 7.81860800e-03 1.13011600e-01
       25 -1    0    0    0    0 +0.0000000000e+00 +0.0000000000e+00 +9.9999998245e-15 1.2500000000e+02 1.2500000000e+02 0.0000e+00 0.0000e+00
      -11  1    1    0    0    0 -3.6327184745e+00 -6.0549014283e+00 +3.6513741097e+00 7.9492771980e+00 5.1100000000e-04 0.0000e+00 1.0000e+00
       11  1    1    0    0    0 -2.4793416025e+01 -4.1652169084e+01 +2.5023320826e+01 5.4550740169e+01 5.1100000000e-04 0.0000e+00 -1.0000e+00
       22  1    1    0    0    0 +2.8426134500e+01 +4.7707070512e+01 -2.8674694936e+01 6.2499982633e+01 0.0000000000e+00 0.0000e+00 -1.0000e+00
</event>
<event>
 4      1 +2.4041262e-06 9.11880000e+01 7.81860800e-03 1.13011600e-01
       25 -1    0    0    0    0 +0.0000000000e+00 +0.0000000000e+00 +9.9999998245e-15 1.2500000000e+02 1.2500000000e+02 0.0000e+00 0.0000e+00
      -11  1    1    0    0    0 -3.7260891101e+01 +4.1230706604e+00 -1.3775472372e+01 3.9939170705e+01 5.1100000000e-04 0.0000e+00 -1.0000e+00
       11  1    1    0    0    0 -2.1048156601e+01 +2.3274619636e+00 -7.7813266058e+00 2.2560829317e+01 5.1100000000e-04 0.0000e+00 1.0000e+00
       22  1    1    0    0    0 +5.8309047701e+01 -6.4505326240e+00 +2.1556798978e+01 6.2499999977e+01 0.0000000000e+00 0.0000e+00 1.0000e+00
</event>
<event>
 4      1 +2.4041262e-06 9.11880000e+01 7.81860800e-03 1.13011600e-01
       25 -1    0    0    0    0 +0.0000000000e+00 +0.0000000000e+00 +9.9999998245e-15 1.2500000000e+02 1.2500000000e+02 0.0000e+00 0.0000e+00
      -13  1    1    0    0    0 +5.9804495503e+01 +1.2103689855e+01 -1.3533689479e+01 6.2499991243e+01 1.0566000000e-01 0.0000e+00 -1.0000e+00
       13  1    1    0    0    0 -5.9804503875e+01 -1.2103691580e+01 +1.3533691378e+01 6.2500000000e+01 1.0566000000e-01 0.0000e+00 -1.0000e+00
       22  1    1    0    0    0 +8.3727605934e-06 +1.7249262026e-06 -1.8987093700e-06 8.7569165595e-06 0.0000000000e+00 0.0000e+00 -1.0000e+00
</event>
<event>
 5      1 +2.4041262e-06 9.11880000e+01 7.81860800e-03 1.13011600e-01
       25 -1    0    0    0    0 +0.0000000000e+00 +0.0000000000e+00 +9.9999998245e-15 1.2500000000e+02 1.2500000000e+02 0.0000e+00 0.0000e+00
       23  2    1    0    0    0 -1.0085070166e+01 -2.6442097163e+01 +3.9114544687e+00 9.6430914983e+01 9.2101730417e+01 0.0000e+00 0.0000e+00
      -13  1    2    2    0    0 +1.3552664631e+01 -5.4840379161e+01 +1.3860901779e+01 5.8165949380e+01 1.0566000000e-01 0.0000e+00 1.0000e+00
       13  1    2    2    0    0 -2.3637734797e+01 +2.8398281998e+01 -9.9494473108e+00 3.8264965603e+01 1.0566000000e-01 0.0000e+00 -1.0000e+00
       22  1    1    0    0    0 +1.0085070166e+01 +2.6442097163e+01 -3.9114544687e+00 2.8569085017e+01 0.0000000000e+00 0.0000e+00 1.0000e+00
</event>
<event>
 4      1 +2.4041262e-06 9.11880000e+01 7.81860800e-03 1.13011600e-01
       25 -1    0    0    0    0 +0.0000000000e+00 +0.0000000000e+00 +9.9999998245e-15 1.2500000000e+02 1.2500000000e+02 0.0000e+00 0.0000e+00
      -13  1    1    0    0    0 +5.5477679414e+01 -2.8371682001e+01 +4.8490337392e+00 6.2499996359e+01 1.0566000000e-01 0.0000e+00 -1.0000e+00
       13  1    1    0    0    0 -5.4896632502e+01 +2.8072125789e+01 -4.8000743559e+00 6.1844453140e+01 1.0566000000e-01 0.0000e+00 -1.0000e+00
       22  1    1    0    0    0 -5.8104691167e-01 +2.9955621187e-01 -4.8959383327e-02 6.5555050061e-01 0.0000000000e+00 0.0000e+00 1.0000e+00
</event>
<event>
 4      1 +2.4041262e-06 9.11880000e+01 7.81860800e-03 1.13011600e-01
       25 -1    0    0    0    0 +0.0000000000e+00 +0.0000000000e+00 +9.9999998245e-15 1.2500000000e+02 1.2500000000e+02 0.0000e+00 0.0000e+00
      -13  1    1    0    0    0 -2.4313518295e+01 +3.0965709573e+00 +5.7493503219e+01 6.2500000000e+01 1.0566000000e-01 0.0000e+00 1.0000e+00
       13  1    1    0    0    0 +2.4313518295e+01 -3.0965709573e+00 -5.7493503219e+01 6.2500000000e+01 1.0566000000e-01 0.0000e+00 1.0000e+00
       22  1    1    0    0    0 +2.0395768374e-12 +4.2465993137e-12 -4.8750395414e-12 6.7793428837e-12 0.0000000000e+00 0.0000e+00 -1.0000e+00
</event>
<event>
 4      1 +2.4041262e-06 9.11880000e+01 7.81860800e-03 1.13011600e-01
       25 -1    0    0    0    0 +0.0000000000e+00 +0.0000000000e+00 +9.9999998245e-15 1.2500000000e+02 1.2500000000e+02 0.0000e+00 0.0000e+00
      -13  1    1    0    0    0 -3.8265845115e+01 -8.0537174413e+00 +4.8755527197e+01 6.2499998906e+01 1.0566000000e-01 0.0000e+00 -1.0000e+00
       13  1    1    0    0    0 +3.8265845784e+01 +8.0537175887e+00 -4.8755528050e+01 6.2500000000e+01 1.0566000000e-01 0.0000e+00 -1.0000e+00
       22  1    1    0    0    0 -6.6845600858e-07 -1.4739157383e-07 +8.5334404181e-07 1.0939624149e-06 0.0000000000e+00 0.0000e+00 1.0000e+00
</event>
<event>
 4      1 +2.4041262e-06 9.11880000e+01 7.81860800e-03 1.13011600e-01
       25 -1    0    0    0    0 +0.0000000000e+00 +0.0000000000e+00 +9.9999998245e-15 1.2500000000e+02 1.2500000000e+02 0.0000e+00 0.0000e+00
      -13  1    1    0    0    0 -5.7600551009e+01 -1.7445243046e+01 +1.6854063460e+01 6.2499844805e+01 1.0566000000e-01 0.0000e+00 -1.0000e+00
       13  1    1    0    0    0 +5.7600689304e+01 +1.7445289221e+01 -1.6854117472e+01 6.2499999713e+01 1.0566000000e-01 0.0000e+00 -1.0000e+00
       22  1    1    0    0    0 -1.3829472211e-04 -4.6175126788e-05 +5.4011846125e-05 1.5548264218e-04 0.0000000000e+00 0.0000e+00 -1.0000e+00
</event>
<event>
 4      1 +2.4041262e-06 9.11880000e+01 7.81860800e-03 1.13011600e-01
       25 -1    0    0    0    0 +0.0000000000e+00 +0.0000000000e+00 +9.9999998245e-15 1.2500000000e+02 1.2500000000e+02 0.0000e+00 0.0000e+00
      -13  1    1    0    0    0 -1.4517860420e+01 -6.0767387369e+01 -1.1836876571e+00 6.2488846359e+01 1.0566000000e-01 0.0000e+00 -1.0000e+00
       13  1    1    0    0    0 +1.4519234299e+01 +6.0778447811e+01 +1.1848855708e+00 6.2499944006e+01 1.0566000000e-01 0.0000e+00 -1.0000e+00
       22  1    1    0    0    0 -1.3738787594e-03 -1.1060441853e-02 -1.1979137290e-03 1.1209634879e-02 0.0000000000e+00 0.0000e+00 1.0000e+00
</event>
<event>
 5      1 +2.4041262e-06 9.11880000e+01 7.81860800e-03 1.13011600e-01
       25 -1    0    0    0    0 +0.0000000000e+00 +0.0000000000e+00 +9.9999998245e-15 1.2500000000e+02 1.2500000000e+02 0.0000e+00 0.0000e+00
       23  2    1    0    0    0 +1.8383924897e+00 +2.2731699443e+01 -1.7616360321e+01 9.6182540059e+01 9.1764018082e+01 0.0000e+00 0.0000e+00
      -13  1    2    2    0    0 +1.2625273316e+01 -2.9108368575e+01 +1.3815056285e+01 3.4605802860e+01 1.0566000000e-01 0.0000e+00 1.0000e+00
       13  1    2    2    0    0 -1.0786880826e+01 +5.1840068018e+01 -3.1431416606e+01 6.1576737198e+01 1.0566000000e-01 0.0000e+00 -1.0000e+00
       22  1    1    0    0    0 -1.8383924897e+00 -2.2731699443e+01 +1.7616360321e+01 2.8817459941e+01 0.0000000000e+00 0.0000e+00 -1.0000e+00
</event>
<event>
 4      1 +2.4041262e-06 9.11880000e+01 7.81860800e-03 1.13011600e-01
       25 -1    0    0    0    0 +0.0000000000e+00 +0.0000000000e+00 +9.9999998245e-15 1.2500000000e+02 1.2500000000e+02 0.0000e+00 0.0000e+00
      -13  1    1    0    0    0 +2.6260777473e+01 -3.7992233754e+01 -4.2109388227e+01 6.2500000000e+01 1.0566000000e-01 0.0000e+00 1.0000e+00
       13  1    1    0    0    0 -2.6260777473e+01 +3.7992233752e+01 +4.2109388225e+01 6.2499999998e+01 1.0566000000e-01 0.0000e+00 1.0000e+00
       22  1    1    0    0    0 -8.0446490426e-10 +1.4722991785e-09 +1.7846148129e-09 2.4494241535e-09 0.0000000000e+00 0.0000e+00 1.0000e+00
</event>
<event>
 5      1 +2.4041262e-06 9.11880000e+01 7.81860800e-03 1.13011600e-01
       25 -1    0    0    0    0 +0.0000000000e+00 +0.0000000000e+00 +9.9999998245e-15 1.2500000000e+02 1.2500000000e+02 0.0000e+00 0.0000e+00
       23  2    1    0    0    0 -3.0115214613e+01 -2.9398769514e+00 -4.2004471053e+00 9.4451468390e+01 8.9374868377e+01 0.0000e+00 0.0000e+00
      -11  1    2    2    0    0 -1.3992441818e+01 -4.5920185219e+01 +2.4512497088e+00 4.8067249391e+01 5.1100000000e-04 0.0000e+00 1.0000e+00
       11  1    2    2    0    0 -1.6122772794e+01 +4.2980308268e+01 -6.6516968141e+00 4.6384218999e+01 5.1100000000e-04 0.0000e+00 -1.0000e+00
       22  1    1    0    0    0 +3.0115214613e+01 +2.9398769514e+00 +4.2004471053e+00 3.0548531610e+01 0.0000000000e+00 0.0000e+00 1.0000e+00
</event>
<event>
 4      1 +2.4041262e-06 9.11880000e+01 7.81860800e-03 1.13011600e-01
       25 -1    0    0    0    0 +0.0000000000e+00 +0.0000000000e+00 +9.9999998245e-15 1.2500000000e+02 1.2500000000e+02 0.0000e+00 0.0000e+00
      -13  1    1    0    0    0 -2.5152314942e+00 +7.0055931707e+00 -1.3561279497e+01 1.5470106360e+01 1.0566000000e-01 0.0000e+00 -1.0000e+00
       13  1    1    0    0    0 -7.7869418455e+00 +2.1940819853e+01 -4.0863874607e+01 4.7030877634e+01 1.0566000000e-01 0.0000e+00 1.0000e+00
       22  1    1    0    0    0 +1.0302173340e+01 -2.8946413024e+01 +5.4425154104e+01 6.2499016006e+01 0.0000000000e+00 0.0000e+00 1.0000e+00
</event>
<event>
 4      1 +2.4041262e-06 9.11880000e+01 7.81860800e-03 1.13011600e-01
       25 -1    0    0    0    0 +0.0000000000e+00 +0.0000000000e+00 +9.9999998245e-15 1.2500000000e+02 1.2500000000e+02 0.0000e+00 0.0000e+00
      -13  1    1    0    0    0 -1.9083076746e+01 +4.1900504670e+01 -3.8047773532e+01 5.9728220671e+01 1.0566000000e-01 0.0000e+00 -1.0000e+00
       13  1    1    0    0    0 +1.9987425160e+01 -4.3844312539e+01 +3.9804686218e+01 6.2499960924e+01 1.0566000000e-01 0.0000e+00 -1.0000e+00
       22  1    1    0    0    0 -9.0434841405e-01 +1.9438078687e+00 -1.7569126863e+00 2.7718184053e+00 0.0000000000e+00 0.0000e+00 1.0000e+00
</event>
<event>
 4      1 +2.4041262e-06 9.11880000e+01 7.81860800e-03 1.13011600e-01
       25 -1    0    0    0    0 +0.0000000000e+00 +0.0000000000e+00 +9.9999998245e-15 1.2500000000e+02 1.2500000000e+02 0.0000e+00 0.0000e+00
      -13  1    1    0    0    0 +5.1619510721e+01 +3.1314443158e+01 +1.6157679234e+01 6.2499999997e+01 1.0566000000e-01 0.0000e+00 1.0000e+00
       13  1    1    0    0    0 -5.1619510724e+01 -3.1314443158e+01 -1.6157679235e+01 6.2500000000e+01 1.0566000000e-01 0.0000e+00 1.0000e+00
       22  1    1    0    0    0 +2.6223069404e-09 -1.7880219666e-10 +8.9832321002e-10 2.7776696177e-09 0.0000000000e+00 0.0000e+00 -1.0000e+00
</event>
<event>
 4      1 +2.4041262e-06 9.11880000e+01 7.81860800e-03 1.13011600e-01
       25 -1    0    0    0    0 +0.0000000000e+00 +0.0000000000e+00 +9.9999998245e-15 1.2500000000e+02 1.2500000000e+02 0.0000e+00 0.0000e+00
      -13  1    1    0    0    0 +4.2268501180e+01 -3.4565365732e+01 +3.0411315916e+01 6.2500000000e+01 1.0566000000e-01 0.0000e+00 1.0000e+00
       13  1    1    0    0    0 -4.2268495308e+01 +3.4565360893e+01 -3.0411311693e+01 6.2499991297e+01 1.0566000000e-01 0.0000e+00 1.0000e+00
       22  1    1    0    0    0 -5.8716176065e-06 +4.8392714194e-06 -4.2238598365e-06 8.7026107063e-06 0.0000000000e+00 0.0000e+00 -1.0000e+00
</event>
<event>
 5      1 +2.4041262e-06 9.11880000e+01 7.81860800e-03 1.13011600e-01
       25 -1    0    0    0    0 +0.0000000000e+00 +0.0000000000e+00 +9.9999998245e-15 1.2500000000e+02 1.2500000000e+02 0.0000e+00 0.0000e+00
       23  2    1    0    0    0 -1.6228411253e+01 +2.6036048389e+01 -6.2283595448e+00 9.3694575388e+01 8.8309930625e+01 0.0000e+00 0.0000e+00
      -11  1    2    2    0    0 -6.5429243040e+00 +2.4612633986e+01 +3.9462472733e+01 4.6966779373e+01 5.1100000000e-04 0.0000e+00 1.0000e+00
       11  1    2    2    0    0 -9.6854869491e+00 +1.4234144027e+00 -4.5690832278e+01 4.6727796016e+01 5.1100000000e-04 0.0000e+00 -1.0000e+00
       22  1    1    0    0    0 +1.6228411253e+01 -2.6036048389e+01 +6.2283595448e+00 3.1305424612e+01 0.0000000000e+00 0.0000e+00 1.0000e+00
</event>
<event>
 4      1 +2.4041262e-06 9.11880000e+01 7.81860800e-03 1.13011600e-01
       25 -1    0    0    0    0 +0.0000000000e+00 +0.0000000000e+00 +9.9999998245e-15 1.2500000000e+02 1.2500000000e+02 0.0000e+00 0.0000e+00
      -13  1    1    0    0    0 -2.2341365869e+01 -5.2357070785e+01 -2.5803849207e+01 6.2499994305e+01 1.0566000000e-01 0.0000e+00 1.0000e+00
       13  1    1    0    0    0 +2.2341249429e+01 +5.2356955825e+01 +2.5803786022e+01 6.2499830291e+01 1.0566000000e-01 0.0000e+00 1.0000e+00
       22  1    1    0    0    0 +1.1644080163e-04 +1.1496047494e-04 +6.3185433035e-05 1.7540458954e-04 0.0000000000e+00 0.0000e+00 -1.0000e+00
</event>
<event>
 4      1 +2.4041262e-06 9.11880000e+01 7.81860800e-03 1.13011600e-01
       25 -1    0    0    0    0 +0.0000000000e+00 +0.0000000000e+00 +9.9999998245e-15 1.2500000000e+02 1.2500000000e+02 0.0000e+00 0.0000e+00
      -13  1    1    0    0    0 -2.5606562238e+01 -4.3459366177e+01 +3.6902930748e+01 6.2500000000e+01 1.0566000000e-01 0.0000e+00 -1.0000e+00
       13  1    1    0    0    0 +2.5606562237e+01 +4.3459366177e+01 -3.6902930748e+01 6.2500000000e+01 1.0566000000e-01 0.0000e+00 -1.0000e+00
       22  1    1    0    0    0 +2.0163073498e-10 -4.7988333846e-11 -2.7659997116e-10 3.4563763906e-10 0.0000000000e+00 0.0000e+00 -1.0000e+00
</event>
<event>
 4      1 +2.4041262e-06 9.11880000e+01 7.81860800e-03 1.13011600e-01
       25 -1    0    0    0    0 +0.0000000000e+00 +0.0000000000e+00 +9.9999998245e-15 1.2500000000e+02 1.2500000000e+02 0.0000e+00 0.0000e+00
      -13  1    1    0    0    0 -2.6001058630e+01 -5.5507620304e+01 +1.2210154361e+01 6.2499999962e+01 1.0566000000e-01 0.0000e+00 1.0000e+00
       13  1    1    0    0    0 +2.6001058651e+01 +5.5507620335e+01 -1.2210154367e+01 6.2500000000e+01 1.0566000000e-01 0.0000e+00 1.0000e+00
       22  1    1    0    0    0 -2.1748059923e-08 -3.0640376204e-08 +6.3289684402e-09 3.8103367382e-08 0.0000000000e+00 0.0000e+00 1.0000e+00
</event>
<event>
 4      1 +2.4041262e-06 9.11880000e+01 7.81860800e-03 1.13011600e-01
       25 -1    0    0    0    0 +0.0000000000e+00 +0.0000000000e+00 +9.9999998245e-15 1.2500000000e+02 1.2500000000e+02 0.0000e+00 0.0000e+00
      -13  1    1    0    0    0 -3.0129733722e+01 +6.9639762996e+00 -5.4313359461e+01 6.2500000000e+01 1.0566000000e-01 0.0000e+00 1.0000e+00
       13  1    1    0    0    0 +3.0129733721e+01 -6.9639762995e+00 +5.4313359459e+01 6.2499999999e+01 1.0566000000e-01 0.0000e+00 1.0000e+00
       22  1    1    0    0    0 +6.0905800768e-10 -6.3186553941e-11 +1.2975902902e-09 1.4348117502e-09 0.0000000000e+00 0.0000e+00 1.0000e+00
</event>
<event>
 4      1 +2.4041262e-06 9.11880000e+01 7.81860800e-03 1.13011600e-01
       25 -1    0    0    0    0 +0.0000000000e+00 +0.0000000000e+00 +9.9999998245e-15 1.2500000000e+02 1.2500000000e+02 0.0000e+00 0.0000e+00
      -11  1    1    0    0    0 +2.6862233694e-01 +1.4908219354e+00 -6.3791290247e-01 1.6436669782e+00 5.1100000000e-04 0.0000e+00 1.0000e+00
       11  1    1    0    0    0 +4.1670715285e+01 +3.0889643742e+01 -3.2169429826e+01 6.1036798888e+01 5.1100000000e-04 0.0000e+00 -1.0000e+00
       22  1    1    0    0    0 -4.1939337622e+01 -3.2380465678e+01 +3.2807342728e+01 6.2319534134e+01 0.0000000000e+00 0.0000e+00 -1.0000e+00
</event>
<event>
 4      1 +2.4041262e-06 9.11880000e+01 7.81860800e-03 1.13011600e-01
       25 -1    0    0    0    0 +0.0000000000e+00 +0.0000000000e+00 +9.9999998245e-15 1.2500000000e+02 1.2500000000e+02 0.0000e+00 0.0000e+00
      -13  1    1    0    0    0 -4.5582094870e+01 +1.3213782420e+01 +4.0663643124e+01 6.2496995566e+01 1.0566000000e-01 0.0000e+00 1.0000e+00
       13  1    1    0    0    0 +1.2318228729e+01 -3.2118174350e+00 -1.0709295964e+01 1.6635946451e+01 1.0566000000e-01 0.0000e+00 1.0000e+00
       22  1    1    0    0    0 +3.3263866141e+01 -1.0001964985e+01 -2.9954347160e+01 4.5867057983e+01 0.0000000000e+00 0.0000e+00 1.0000e+00
</event>
<event>
 4      1 +2.4041262e-06 9.11880000e+01 7.81860800e-03 1.13011600e-01
       25 -1    0    0    0    0 +0.0000000000e+00 +0.0000000000e+00 +9.9999998245e-15 1.2500000000e+02 1.2500000000e+02 0.0000e+00 0.0000e+00
      -13  1    1    0    0    0 +5.7763897972e+01 -5.5217256502e+00 -2.3179258174e+01 6.2485570627e+01 1.0566000000e-01 0.0000e+00 -1.0000e+00
       13  1    1    0    0    0 -5.7777240240e+01 +5.5228300313e+00 +2.3184642075e+01 6.2499999468e+01 1.0566000000e-01 0.0000e+00 -1.0000e+00
       22  1    1    0    0    0 +1.3342267747e-02 -1.1043811233e-03 -5.3839008782e-03 1.4429904884e-02 0.0000000000e+00 0.0000e+00 -1.0000e+00
</event>
<event>
 4      1 +2.4041262e-06 9.11880000e+01 7.81860800e-03 1.13011600e-01
       25 -1    0    0    0    0 +0.0000000000e+00 +0.0000000000e+00 +9.9999998245e-15 1.2500000000e+02 1.2500000000e+02 0.0000e+00 0.0000e+00
      -13  1    1    0    0    0 +4.9221041766e+01 -7.3179940908e+00 -1.7532932913e+01 5.2760580841e+01 1.0566000000e-01 0.0000e+00 -1.0000e+00
       13  1    1    0    0    0 -5.8274991897e+01 +8.8101235086e+00 +2.0798694714e+01 6.2499518579e+01 1.0566000000e-01 0.0000e+00 -1.0000e+00
       22  1    1    0    0    0 +9.0539501303e+00 -1.4921294179e+00 -3.2657618011e+00 9.7399005798e+00 0.0000000000e+00 0.0000e+00 1.0000e+00
</event>
<event>
 4      1 +2.4041262e-06 9.11880000e+01 7.81860800e-03 1.13011600e-01
       25 -1    0    0    0    0 +0.0000000000e+00 +0.0000000000e+00 +9.9999998245e-15 1.2500000000e+02 1.2500000000e+02 0.0000e+00 0.0000e+00
      -13  1    1    0    0    0 -2.7061522726e+01 +3.7307262305e+00 -5.6213798403e+01 6.2499973003e+01 1.0566000000e-01 0.0000e+00 1.0000e+00
       13  1    1    0    0    0 +2.7061534784e+01 -3.7307272239e+00 +5.6213822543e+01 6.2499999995e+01 1.0566000000e-01 0.0000e+00 1.0000e+00
       22  1    1    0    0    0 -1.2057271092e-05 +9.9340456970e-07 -2.4140208022e-05 2.7002116254e-05 0.0000000000e+00 0.0000e+00 -1.0000e+00
</event>
<event>
 4      1 +2.4041262e-06 9.11880000e+01 7.81860800e-03 1.13011600e-01
       25 -1    0    0    0    0 +0.0000000000e+00 +0.0000000000e+00 +9.9999998245e-15 1.2500000000e+02 1.2500000000e+02 0.0000e+00 0.0000e+00
      -13  1    1    0    0    0 +4.7510534550e+01 -1.0533972869e+01 +3.9217640898e+01 6.2499999995e+01 1.0566000000e-01 0.0000e+00 1.0000e+00
       13  1    1    0    0    0 -4.7510534555e+01 +1.0533972870e+01 -3.9217640901e+01 6.2500000000e+01 1.0566000000e-01 0.0000e+00 1.0000e+00
       22  1    1    0    0    0 +4.4529671054e-09 -6.5534185683e-10 +2.8398911669e-09 5.3219705778e-09 0.0000000000e+00 0.0000e+00 1.0000e+00
</event>
<event>
 4      1 +2.4041262e-06 9.11880000e+01 7.81860800e-03 1.13011600e-01
       25 -1    0    0    0    0 +0.0000000000e+00 +0.0000000000e+00 +9.9999998245e-15 1.2500000000e+02 1.2500000000e+02 0.0000e+00 0.0000e+00
      -13  1    1    0    0    0 -3.4663302848e+01 +3.0137277694e+01 -2.1165561517e+00 4.5981420651e+01 1.0566000000e-01 0.0000e+00 -1.0000e+00
       13  1    1    0    0    0 -1.2678828432e+01 +1.0587533771e+01 -3.4059829254e-01 1.6521977273e+01 1.0566000000e-01 0.0000e+00 1.0000e+00
       22  1    1    0    0    0 +4.7342131280e+01 -4.0724811465e+01 +2.4571544442e+00 6.2496602076e+01 0.0000000000e+00 0.0000e+00 -1.0000e+00
</event>
<event>
 4      1 +2.4041262e-06 9.11880000e+01 7.81860800e-03 1.13011600e-01
       25 -1    0    0    0    0 +0.0000000000e+00 +0.0000000000e+00 +9.9999998245e-15 1.2500000000e+02 1.2500000000e+02 0.0000e+00 0.0000e+00
      -13  1    1    0    0    0 -3.2114291765e+01 +4.5390980572e+01 +2.8540672435e+01 6.2500000000e+01 1.0566000000e-01 0.0000e+00 1.0000e+00
       13  1    1    0    0    0 +3.2114281669e+01 -4.5390966346e+01 -2.8540663475e+01 6.2499980388e+01 1.0566000000e-01 0.0000e+00 1.0000e+00
       22  1    1    0    0    0 +1.0095811062e-05 -1.4226925527e-05 -8.9607827199e-06 1.9611895316e-05 0.0000000000e+00 0.0000e+00 -1.0000e+00
</event>
<event>
 4      1 +2.4041262e-06 9.11880000e+01 7.81860800e-03 1.13011600e-01
       25 -1    0    0    0    0 +0.0000000000e+00 +0.0000000000e+00 +9.9999998245e-15 1.2500000000e+02 1.2500000000e+02 0.0000e+00 0.0000e+00
      -13  1    1    0    0    0 -1.7422142713e+01 +2.3655399777e+01 +5.5088959133e+01 6.2433273001e+01 1.0566000000e-01 0.0000e+00 1.0000e+00
       13  1    1    0    0    0 +1.7439532727e+01 -2.3680237318e+01 -5.5148408276e+01 6.2499992325e+01 1.0566000000e-01 0.0000e+00 1.0000e+00
       22  1    1    0    0    0 -1.7390013871e-02 +2.4837541782e-02 +5.9449143443e-02 6.6734674049e-02 0.0000000000e+00 0.0000e+00 1.0000e+00
</event>
<event>
 4      1 +2.4041262e-06 9.11880000e+01 7.81860800e-03 1.13011600e-01
       25 -1    0    0    0    0 +0.0000000000e+00 +0.0000000000e+00 +9.9999998245e-15 1.2500000000e+02 1.2500000000e+02 0.0000e+00 0.0000e+00
      -11  1    1    0    0    0 +4.3438375229e+01 -2.6997013334e+01 +7.4133618877e+00 5.1678710377e+01 5.1100000000e-04 0.0000e+00 -1.0000e+00
       11  1    1    0    0    0 +9.0906163079e+00 -5.6593866330e+00 +1.5596142936e+00 1.0821291925e+01 5.1100000000e-04 0.0000e+00 1.0000e+00
       22  1    1    0    0    0 -5.2528991537e+01 +3.2656399967e+01 -8.9729761813e+00 6.2499997698e+01 0.0000000000e+00 0.0000e+00 -1.0000e+00
</event>
<event>
 4      1 +2.4041262e-06 9.11880000e+01 7.81860800e-03 1.13011600e-01
       25 -1    0    0    0    0 +0.0000000000e+00 +0.0000000000e+00 +9.9999998245e-15 1.2500000000e+02 1.2500000000e+02 0.0000e+00 0.0000e+00
      -13  1    1    0    0    0 -2.2766065792e+01 +5.4809099834e+01 +1.9590632936e+01 6.2499081907e+01 1.0566000000e-01 0.0000e+00 -1.0000e+00
       13  1    1    0    0    0 +2.1159738286e+01 -5.0957486344e+01 -1.8341182282e+01 5.8144733814e+01 1.0566000000e-01 0.0000e+00 -1.0000e+00
       22  1    1    0    0    0 +1.6063275057e+00 -3.8516134907e+00 -1.2494506541e+00 4.3561842791e+00 0.0000000000e+00 0.0000e+00 -1.0000e+00
</event>
<event>
 4      1 +2.4041262e-06 9.11880000e+01 7.81860800e-03 1.13011600e-01
       25 -1    0    0    0    0 +0.0000000000e+00 +0.0000000000e+00 +9.9999998245e-15 1.2500000000e+02 1.2500000000e+02 0.0000e+00 0.0000e+00
      -11  1    1    0    0    0 -1.4758896190e+01 +1.2066205107e+01 +2.3813712196e+01 3.0504281852e+01 5.1100000000e-04 0.0000e+00 -1.0000e+00
       11  1    1    0    0    0 -2.6891153493e+00 +3.5839451812e+01 +4.4282691697e+00 3.6211976135e+01 5.1100000000e-04 0.0000e+00 1.0000e+00
       22  1    1    0    0    0 +1.7448011540e+01 -4.7905656919e+01 -2.8241981366e+01 5.8283742013e+01 0.0000000000e+00 0.0000e+00 1.0000e+00
</event>
<event>
 4      1 +2.4041262e-06 9.11880000e+01 7.81860800e-03 1.13011600e-01
       25 -1    0    0    0    0 +0.0000000000e+00 +0.0000000000e+00 +9.9999998245e-15 1.2500000000e+02 1.2500000000e+02 0.0000e+00 0.0000e+00
      -11  1    1    0    0    0 +9.8183601362e+00 -1.0994588203e+01 -1.0719817625e+01 1.8226235368e+01 5.1100000000e-04 0.0000e+00 -1.0000e+00
       11  1    1    0    0    0 +2.3857283626e+01 -2.6647512563e+01 -2.6094200248e+01 4.4273775474e+01 5.1100000000e-04 0.0000e+00 1.0000e+00
       22  1    1    0    0    0 -3.3675643763e+01 +3.7642100766e+01 +3.6814017873e+01 6.2499989159e+01 0.0000000000e+00 0.0000e+00 1.0000e+00
</event>
<event>
 4      1 +2.4041262e-06 9.11880000e+01 7.81860800e-03 1.13011600e-01
       25 -1    0    0    0    0 +0.0000000000e+00 +0.0000000000e+00 +9.9999998245e-15 1.2500000000e+02 1.2500000000e+02 0.0000e+00 0.0000e+00
      -13  1    1    0    0    0 -5.7645124639e+01 +3.3297735314e+00 -2.3920515130e+01 6.2499999956e+01 1.0566000000e-01 0.0000e+00 -1.0000e+00
       13  1    1    0    0    0 +5.7645124088e+01 -3.3297732445e+00 +2.3920514609e+01 6.2499999234e+01 1.0566000000e-01 0.0000e+00 -1.0000e+00
       22  1    1    0    0    0 +5.5046700403e-07 -2.8690518004e-07 +5.2102163125e-07 8.1042707574e-07 0.0000000000e+00 0.0000e+00 -1.0000e+00
</event>
<event>
 4      1 +2.4041262e-06 9.11880000e+01 7.81860800e-03 1.13011600e-01
       25 -1    0    0    0    0 +0.0000000000e+00 +0.0000000000e+00 +9.9999998245e-15 1.2500000000e+02 1.2500000000e+02 0.0000e+00 0.0000e+00
      -13  1    1    0    0    0 +4.8821118166e+01 +1.4826017709e+01 +3.6083440068e+01 6.2492705105e+01 1.0566000000e-01 0.0000e+00 -1.0000e+00
       13  1    1    0    0    0 -4.1554717561e+01 -1.2113654903e+01 -3.0626728546e+01 5.3023983745e+01 1.0566000000e-01 0.0000e+00 -1.0000e+00
       22  1    1    0    0    0 -7.2664006049e+00 -2.7123628060e+00 -5.4567115226e+00 9.4833111509e+00 0.0000000000e+00 0.0000e+00 1.0000e+00
</event>
<event>
 4      1 +2.4041262e-06 9.11880000e+01 7.81860800e-03 1.13011600e-01
       25 -1    0    0    0    0 +0.0000000000e+00 +0.0000000000e+00 +9.9999998245e-15 1.2500000000e+02 1.2500000000e+02 0.0000e+00 0.0000e+00
      -11  1    1    0    0    0 +2.0828973276e+01 -1.0237545747e+00 -2.5719875929e+01 3.3112025297e+01 5.1100000000e-04 0.0000e+00 -1.0000e+00
       11  1    1    0    0    0 +2.1882273669e+01 +4.4655745447e+00 -1.9458404601e+01 2.9621019004e+01 5.1100000000e-04 0.0000e+00 1.0000e+00
       22  1    1    0    0    0 -4.2711246946e+01 -3.4418199700e+00 +4.5178280530e+01 6.2266955699e+01 0.0000000000e+00 0.0000e+00 1.0000e+00
</event>
<event>
 4      1 +2.4041262e-06 9.11880000e+01 7.81860800e-03 1.13011600e-01
       25 -1    0    0    0    0 +0.0000000000e+00 +0.0000000000e+00 +9.9999998245e-15 1.2500000000e+02 1.2500000000e+02 0.0000e+00 0.0000e+00
      -13  1    1    0    0    0 +2.6431896928e+01 -3.8513971567e+01 +1.7409884681e+01 4.9850641217e+01 1.0566000000e-01 0.0000e+00 1.0000e+00
       13  1    1    0    0    0 +7.4451756631e+00 -3.8891399474e+00 +1.1038486476e+01 1.3871387742e+01 1.0566000000e-01 0.0000e+00 -1.0000e+00
       22  1    1    0    0    0 -3.3877072591e+01 +4.2403111515e+01 -2.8448371156e+01 6.1277971041e+01 0.0000000000e+00 0.0000e+00 1.0000e+00
</event>
<event>
 4      1 +2.4041262e-06 9.11880000e+01 7.81860800e-03 1.13011600e-01
       25 -1    0    0    0    0 +0.0000000000e+00 +0.0000000000e+00 +9.9999998245e-15 1.2500000000e+02 1.2500000000e+02 0.0000e+00 0.0000e+00
      -11  1    1    0    0    0 -7.8631453897e+00 -5.3872814013e+00 -1.2827383707e+01 1.5981039682e+01 5.1100000000e-04 0.0000e+00 -1.0000e+00
       11  1    1    0    0    0 -2.2568209434e+01 -1.4997611294e+01 -3.7813529397e+01 4.6520054034e+01 5.1100000000e-04 0.0000e+00 1.0000e+00
       22  1    1    0    0    0 +3.0431354824e+01 +2.0384892695e+01 +5.0640913104e+01 6.2498906283e+01 0.0000000000e+00 0.0000e+00 1.0000e+00
</event>
<event>
 4      1 +2.4041262e-06 9.11880000e+01 7.81860800e-03 1.13011600e-01
       25 -1    0    0    0    0 +0.0000000000e+00 +0.0000000000e+00 +9.9999998245e-15 1.2500000000e+02 1.2500000000e+02 0.0000e+00 0.0000e+00
      -11  1    1    0    0    0 -1.1477829988e+01 +2.2362086396e+01 +2.0082546897e+01 3.2173159301e+01 5.1100000000e-04 0.0000e+00 -1.0000e+00
       11  1    1    0    0    0 -5.4146874375e+00 +1.7954435375e+01 +2.4191995949e+01 3.0609365526e+01 5.1100000000e-04 0.0000e+00 1.0000e+00
       22  1    1    0    0    0 +1.6892517426e+01 -4.0316521771e+01 -4.4274542846e+01 6.2217475173e+01 0.0000000000e+00 0.0000e+00 1.0000e+00
</event>
<event>
 4      1 +2.4041262e-06 9.11880000e+01 7.81860800e-03 1.13011600e-01
       25 -1    0    0    0    0 +0.0000000000e+00 +0.0000000000e+00 +9.9999998245e-15 1.2500000000e+02 1.2500000000e+02 0.0000e+00 0.0000e+00
      -13  1    1    0    0    0 -5.5994345604e+01 -2.7073145544e+01 -6.1576689112e+00 6.2499999998e+01 1.0566000000e-01 0.0000e+00 1.0000e+00
       13  1    1    0    0    0 +5.5994345604e+01 +2.7073145546e+01 +6.1576689135e+00 6.2499999999e+01 1.0566000000e-01 0.0000e+00 1.0000e+00
       22  1    1    0    0    0 +7.4042162172e-10 -2.3461092191e-09 -2.3710046368e-09 3.4167404987e-09 0.0000000000e+00 0.0000e+00 1.0000e+00
</event>
<event>
 4      1 +2.4041262e-06 9.11880000e+01 7.81860800e-03 1.13011600e-01
       25 -1    0    0    0    0 +0.0000000000e+00 +0.0000000000e+00 +9.9999998245e-15 1.2500000000e+02 1.2500000000e+02 0.0000e+00 0.0000e+00
      -13  1    1    0    0    0 -5.6642221229e+00 +1.9836736003e+01 +1.1885240952e+01 2.3808603992e+01 1.0566000000e-01 0.0000e+00 1.0000e+00
       13  1    1    0    0    0 -9.3077576882e+00 +3.2269262986e+01 +1.9211771442e+01 3.8691640089e+01 1.0566000000e-01 0.0000e+00 1.0000e+00
       22  1    1    0    0    0 +1.4971979811e+01 -5.2105998989e+01 -3.1097012394e+01 6.2499755919e+01 0.0000000000e+00 0.0000e+00 1.0000e+00
</event>
<event>
 4      1 +2.4041262e-06 9.11880000e+01 7.81860800e-03 1.13011600e-01
       25 -1    0    0    0    0 +0.0000000000e+00 +0.0000000000e+00 +9.9999998245e-15 1.2500000000e+02 1.2500000000e+02 0.0000e+00 0.0000e+00
      -13  1    1    0    0    0 -9.6566785020e+00 +4.8680180621e+01 -3.7989787803e+01 6.2499972530e+01 1.0566000000e-01 0.0000e+00 -1.0000e+00
       13  1    1    0    0    0 +8.2509140790e+00 -4.1603477756e+01 +3.2498051911e+01 5.3432775396e+01 1.0566000000e-01 0.0000e+00 -1.0000e+00
       22  1    1    0    0    0 +1.4057644230e+00 -7.0767028654e+00 +5.4917358920e+00 9.0672520735e+00 0.0000000000e+00 0.0000e+00 1.0000e+00
</event>
<event>
 4      1 +2.4041262e-06 9.11880000e+01 7.81860800e-03 1.13011600e-01
       25 -1    0    0    0    0 +0.0000000000e+00 +0.0000000000e+00 +9.9999998245e-15 1.2500000000e+02 1.2500000000e+02 0.0000e+00 0.0000e+00
      -13  1    1    0    0    0 -7.6796049093e+00 +2.4961424954e+00 +6.1976041753e+01 6.2499983794e+01 1.0566000000e-01 0.0000e+00 -1.0000e+00
       13  1    1    0    0    0 +7.6796227843e+00 -2.4960914379e+00 -6.1976012037e+01 6.2499954485e+01 1.0566000000e-01 0.0000e+00 -1.0000e+00
       22  1    1    0    0    0 -1.7875001402e-05 -5.1057532147e-05 -2.9715273613e-05 6.1720213464e-05 0.0000000000e+00 0.0000e+00 1.0000e+00
</event>
<event>
 4      1 +2.4041262e-06 9.11880000e+01 7.81860800e-03 1.13011600e-01
       25 -1    0    0    0    0 +0.0000000000e+00 +0.0000000000e+00 +9.9999998245e-15 1.2500000000e+02 1.2500000000e+02 0.0000e+00 0.0000e+00
      -13  1    1    0    0    0 -3.5209547752e+01 -3.5780021800e+01 +3.7233273064e+01 6.2500000000e+01 1.0566000000e-01 0.0000e+00 1.0000e+00
       13  1    1    0    0    0 +3.5209547660e+01 +3.5780021707e+01 -3.7233272968e+01 6.2499999838e+01 1.0566000000e-01 0.0000e+00 1.0000e+00
       22  1    1    0    0    0 +9.1957683651e-08 +9.2626139231e-08 -9.5968641384e-08 1.6200554738e-07 0.0000000000e+00 0.0000e+00 -1.0000e+00
</event>
<event>
 4      1 +2.4041262e-06 9.11880000e+01 7.81860800e-03 1.13011600e-01
       25 -1    0    0    0    0 +0.0000000000e+00 +0.0000000000e+00 +9.9999998245e-15 1.2500000000e+02 1.2500000000e+02 0.0000e+00 0.0000e+00
      -13  1    1    0    0    0 +9.7992252917e+00 +5.2690296319e+01 +2.8353995758e+01 6.0632106857e+01 1.0566000000e-01 0.0000e+00 -1.0000e+00
       13  1    1    0    0    0 -1.0175256134e+01 -5.4219929277e+01 -2.9365963839e+01 6.2495660364e+01 1.0566000000e-01 0.0000e+00 -1.0000e+00
       22  1    1    0    0    0 +3.7603084193e-01 +1.5296329583e+00 +1.0119680808e+00 1.8722327787e+00 0.0000000000e+00 0.0000e+00 1.0000e+00
</event>
<event>
 5      1 +2.4041262e-06 9.11880000e+01 7.81860800e-03 1.13011600e-01
       25 -1    0    0    0    0 +0.0000000000e+00 +0.0000000000e+00 +9.9999998245e-15 1.2500000000e+02 1.2500000000e+02 0.0000e+00 0.0000e+00
       23  2    1    0    0    0 -2.1488618630e+01 -8.3658500054e+00 -1.8320355517e+01 9.5548623068e+01 9.0896401287e+01 0.0000e+00 0.0000e+00
      -11  1    2    2    0    0 -5.1846810799e+01 -1.9176246260e+01 +5.3880843516e+00 5.5541440960e+01 5.1100000000e-04 0.0000e+00 1.0000e+00
       11  1    2    2    0    0 +3.0358192169e+01 +1.0810396255e+01 -2.3708439868e+01 4.0007182108e+01 5.1100000000e-04 0.0000e+00 -1.0000e+00
       22  1    1    0    0    0 +2.1488618630e+01 +8.3658500054e+00 +1.8320355517e+01 2.9451376932e+01 0.0000000000e+00 0.0000e+00 1.0000e+00
</event>
<event>
 4      1 +2.4041262e-06 9.11880000e+01 7.81860800e-03 1.13011600e-01
       25 -1    0    0    0    0 +0.0000000000e+00 +0.0000000000e+00 +9.9999998245e-15 1.2500000000e+02 1.2500000000e+02 0.0000e+00 0.0000e+00
      -13  1    1    0    0    0 +1.9146862855e+01 -1.0926440692e+01 +5.8482898120e+01 6.2499999999e+01 1.0566000000e-01 0.0000e+00 1.0000e+00
       13  1    1    0    0    0 -1.9146862855e+01 +1.0926440692e+01 -5.8482898120e+01 6.2500000000e+01 1.0566000000e-01 0.0000e+00 1.0000e+00
       22  1    1    0    0    0 +1.2736795197e-10 -5.0894149088e-11 +5.0901741504e-10 5.2717315790e-10 0.0000000000e+00 0.0000e+00 1.0000e+00
</event>
<event>
 4      1 +2.4041262e-06 9.11880000e+01 7.81860800e-03 1.13011600e-01
       25 -1    0    0    0    0 +0.0000000000e+00 +0.0000000000e+00 +9.9999998245e-15 1.2500000000e+02 1.2500000000e+02 0.0000e+00 0.0000e+00
      -13  1    1    0    0    0 +4.6563170907e+01 -5.5366525948e+00 -4.1321259460e+01 6.2499928434e+01 1.0566000000e-01 0.0000e+00 -1.0000e+00
       13  1    1    0    0    0 -4.6561668747e+01 +5.5360609555e+00 +4.1318807475e+01 6.2497135795e+01 1.0566000000e-01 0.0000e+00 -1.0000e+00
       22  1    1    0    0    0 -1.5021602462e-03 +5.9163926083e-04 +2.4519849935e-03 2.9357712493e-03 0.0000000000e+00 0.0000e+00 -1.0000e+00
</event>
<event>
 4      1 +2.4041262e-06 9.11880000e+01 7.81860800e-03 1.13011600e-01
       25 -1    0    0    0    0 +0.0000000000e+00 +0.0000000000e+00 +9.9999998245e-15 1.2500000000e+02 1.2500000000e+02 0.0000e+00 0.0000e+00
      -13  1    1    0    0    0 -3.8701812988e+00 +5.8004247102e+01 -2.2951423721e+01 6.2500000000e+01 1.0566000000e-01 0.0000e+00 1.0000e+00
       13  1    1    0    0    0 +3.8701812947e+00 -5.8004247033e+01 +2.2951423692e+01 6.2499999925e+01 1.0566000000e-01 0.0000e+00 1.0000e+00
       22  1    1    0    0    0 +4.0954183076e-09 -6.9163786320e-08 +2.8907662472e-08 7.5073662085e-08 0.0000000000e+00 0.0000e+00 -1.0000e+00
</event>
<event>
 4      1 +2.4041262e-06 9.11880000e+01 7.81860800e-03 1.13011600e-01
       25 -1    0    0    0    0 +0.0000000000e+00 +0.0000000000e+00 +9.9999998245e-15 1.2500000000e+02 1.2500000000e+02 0.0000e+00 0.0000e+00
      -13  1    1    0    0    0 +2.5403196315e+01 -2.3606537150e+01 -5.1996357905e+01 6.2499787029e+01 1.0566000000e-01 0.0000e+00 -1.0000e+00
       13  1    1    0    0    0 -2.5403282257e+01 +2.3606618537e+01 +5.1996534957e+01 6.2499999998e+01 1.0566000000e-01 0.0000e+00 -1.0000e+00
       22  1    1    0    0    0 +8.5942224547e-05 -8.1387756227e-05 -1.7705178428e-04 2.1297269106e-04 0.0000000000e+00 0.0000e+00 -1.0000e+00
</event>
<event>
 5      1 +2.4041262e-06 9.11880000e+01 7.81860800e-03 1.13011600e-01
       25 -1    0    0    0    0 +0.0000000000e+00 +0.0000000000e+00 +9.9999998245e-15 1.2500000000e+02 1.2500000000e+02 0.0000e+00 0.0000e+00
       23  2    1    0    0    0 -1.9809899487e+01 +1.9696911367e+01 +9.5101384679e+00 9.5489948004e+01 9.0815675966e+01 0.0000e+00 0.0000e+00
      -11  1    2    2    0    0 +1.4655456611e+00 -5.7896044262e+00 +4.5867778113e+01 4.6254950144e+01 5.1100000000e-04 0.0000e+00 1.0000e+00
       11  1    2    2    0    0 -2.1275445148e+01 +2.5486515794e+01 -3.6357639645e+01 4.9234997861e+01 5.1100000000e-04 0.0000e+00 -1.0000e+00
       22  1    1    0    0    0 +1.9809899487e+01 -1.9696911367e+01 -9.5101384679e+00 2.9510051996e+01 0.0000000000e+00 0.0000e+00 -1.0000e+00
</event>
<event>
 4      1 +2.4041262e-06 9.11880000e+01 7.81860800e-03 1.13011600e-01
       25 -1    0    0    0    0 +0.0000000000e+00 +0.0000000000e+00 +9.9999998245e-15 1.2500000000e+02 1.2500000000e+02 0.0000e+00 0.0000e+00
      -13  1    1    0    0    0 -3.4352690233e+01 -3.3862946068e+01 -3.9708005921e+01 6.2478342975e+01 1.0566000000e-01 0.0000e+00 1.0000e+00
       13  1    1    0    0    0 +3.4359760767e+01 +3.3869704068e+01 +3.9728519204e+01 6.2498931317e+01 1.0566000000e-01 0.0000e+00 1.0000e+00
       22  1    1    0    0    0 -7.0705342862e-03 -6.7580003289e-03 -2.0513282685e-02 2.2725707691e-02 0.0000000000e+00 0.0000e+00 1.0000e+00
</event>
<event>
 5      1 +2.4041262e-06 9.11880000e+01 7.81860800e-03 1.13011600e-01
       25 -1    0    0    0    0 +0.0000000000e+00 +0.0000000000e+00 +9.9999998245e-15 1.2500000000e+02 1.2500000000e+02 0.0000e+00 0.0000e+00
       23  2    1    0    0    0 +2.6364607752e+01 -4.2147383242e-01 +1.3336948188e+01 9.5450983619e+01 9.0762028981e+01 0.0000e+00 0.0000e+00
      -11  1    2    2    0    0 -9.2669479350e+00 +7.2633066042e+00 -3.3841703241e+01 3.5831450227e+01 5.1100000000e-04 0.0000e+00 -1.0000e+00
       11  1    2    2    0    0 +3.5631555687e+01 -7.6847804366e+00 +4.7178651429e+01 5.9619533392e+01 5.1100000000e-04 0.0000e+00 1.0000e+00
       22  1    1    0    0    0 -2.6364607752e+01 +4.2147383242e-01 -1.3336948188e+01 2.9549016381e+01 0.0000000000e+00 0.0000e+00 1.0000e+00
</event>
<event>
 4      1 +2.4041262e-06 9.11880000e+01 7.81860800e-03 1.13011600e-01
       25 -1    0    0    0    0 +0.0000000000e+00 +0.0000000000e+00 +9.9999998245e-15 1.2500000000e+02 1.2500000000e+02 0.0000e+00 0.0000e+00
      -13  1    1    0    0    0 -1.0427643916e+00 +3.4116138280e+00 +3.5914139673e+00 5.0631891934e+00 1.0566000000e-01 0.0000e+00 -1.0000e+00
       13  1    1    0    0    0 -1.9739384755e+00 +4.2073697546e+01 +3.9108269675e+01 5.7476607236e+01 1.0566000000e-01 0.0000e+00 1.0000e+00
       22  1    1    0    0    0 +3.0167028671e+00 -4.5485311374e+01 -4.2699683643e+01 6.2460203571e+01 0.0000000000e+00 0.0000e+00 1.0000e+00
</event>
<event>
 4      1 +2.4041262e-06 9.11880000e+01 7.81860800e-03 1.13011600e-01
       25 -1    0    0    0    0 +0.0000000000e+00 +0.0000000000e+00 +9.9999998245e-15 1.2500000000e+02 1.2500000000e+02 0.0000e+00 0.0000e+00
      -13  1    1    0    0    0 -4.9464923105e+01 +3.6687525119e+01 -1.0652967601e+01 6.2500000000e+01 1.0566000000e-01 0.0000e+00 1.0000e+00
       13  1    1    0    0    0 +4.9464923095e+01 -3.6687525116e+01 +1.0652967601e+01 6.2499999989e+01 1.0566000000e-01 0.0000e+00 1.0000e+00
       22  1    1    0    0    0 +1.0765557427e-08 -3.3702932252e-09 +3.5529272207e-10 1.1286378341e-08 0.0000000000e+00 0.0000e+00 1.0000e+00
</event>
<event>
 4      1 +2.4041262e-06 9.11880000e+01 7.81860800e-03 1.13011600e-01
       25 -1    0    0    0    0 +0.0000000000e+00 +0.0000000000e+00 +9.9999998245e-15 1.2500000000e+02 1.2500000000e+02 0.0000e+00 0.0000e+00
      -13  1    1    0    0    0 +2.9344975353e+01 +5.4319302280e+01 +9.7223565281e+00 6.2499996473e+01 1.0566000000e-01 0.0000e+00 1.0000e+00
       13  1    1    0    0    0 -2.9344976891e+01 -5.4319305388e+01 -9.7223571808e+00 6.2499999998e+01 1.0566000000e-01 0.0000e+00 1.0000e+00
       22  1    1    0    0    0 +1.5375469335e-06 +3.1083448413e-06 +6.5276296672e-07 3.5287331602e-06 0.0000000000e+00 0.0000e+00 1.0000e+00
</event>
<event>
 5      1 +2.4041262e-06 9.11880000e+01 7.81860800e-03 1.13011600e-01
       25 -1    0    0    0    0 +0.0000000000e+00 +0.0000000000e+00 +9.9999998245e-15 1.2500000000e+02 1.2500000000e+02 0.0000e+00 0.0000e+00
       23  2    1    0    0    0 -1.4113758011e+01 +1.4740438314e+00 -2.6109201717e+01 9.5283651222e+01 9.0531280812e+01 0.0000e+00 0.0000e+00
      -13  1    2    2    0    0 -4.6240334421e+01 +2.3697397160e+00 +9.5527361878e+00 4.7276316760e+01 1.0566000000e-01 0.0000e+00 -1.0000e+00
       13  1    2    2    0    0 +3.2126576410e+01 -8.9569588468e-01 -3.5661937904e+01 4.8007334462e+01 1.0566000000e-01 0.0000e+00 -1.0000e+00
       22  1    1    0    0    0 +1.4113758011e+01 -1.4740438314e+00 +2.6109201717e+01 2.9716348778e+01 0.0000000000e+00 0.0000e+00 -1.0000e+00
</event>
<event>
 4      1 +2.4041262e-06 9.11880000e+01 7.81860800e-03 1.13011600e-01
       25 -1    0    0    0    0 +0.0000000000e+00 +0.0000000000e+00 +9.9999998245e-15 1.2500000000e+02 1.2500000000e+02 0.0000e+00 0.0000e+00
      -13  1    1    0    0    0 -6.0552644248e+01 +1.0386974624e+01 -1.1477232614e+01 6.2499999998e+01 1.0566000000e-01 0.0000e+00 -1.0000e+00
       13  1    1    0    0    0 +6.0552642398e+01 -1.0386974292e+01 +1.1477232138e+01 6.2499998063e+01 1.0566000000e-01 0.0000e+00 -1.0000e+00
       22  1    1    0    0    0 +1.8501526905e-06 -3.3200918859e-07 +4.7608378680e-07 1.9390592698e-06 0.0000000000e+00 0.0000e+00 -1.0000e+00
</event>
<event>
 5      1 +2.4041262e-06 9.11880000e+01 7.81860800e-03 1.13011600e-01
       25 -1    0    0    0    0 +0.0000000000e+00 +0.0000000000e+00 +9.9999998245e-15 1.2500000000e+02 1.2500000000e+02 0.0000e+00 0.0000e+00
       23  2    1    0    0    0 -1.2259626184e+01 +9.1697724868e+00 +3.5434099556e+01 8.6400018485e+01 7.7298154060e+01 0.0000e+00 0.0000e+00
      -13  1    2    2    0    0 -5.9250875166e+00 +4.0033637817e+01 +3.7026693887e+01 5.4852402346e+01 1.0566000000e-01 0.0000e+00 -1.0000e+00
       13  1    2    2    0    0 -6.3345386679e+00 -3.0863865330e+01 -1.5925943304e+00 3.1547616138e+01 1.0566000000e-01 0.0000e+00 1.0000e+00
       22  1    1    0    0    0 +1.2259626184e+01 -9.1697724868e+00 -3.5434099556e+01 3.8599981515e+01 0.0000000000e+00 0.0000e+00 -1.0000e+00
</event>
<event>
 4      1 +2.4041262e-06 9.11880000e+01 7.81860800e-03 1.13011600e-01
       25 -1    0    0    0    0 +0.0000000000e+00 +0.0000000000e+00 +9.9999998245e-15 1.2500000000e+02 1.2500000000e+02 0.0000e+00 0.0000e+00
      -13  1    1    0    0    0 -1.2584693099e+01 -2.3334631627e+01 -5.6598134945e+01 6.2499916614e+01 1.0566000000e-01 0.0000e+00 -1.0000e+00
       13  1    1    0    0    0 +1.2584709846e+01 +2.3334663207e+01 +5.6598210281e+01 6.2499999999e+01 1.0566000000e-01 0.0000e+00 -1.0000e+00
       22  1    1    0    0    0 -1.6746988543e-05 -3.1579591069e-05 -7.5336199790e-05 8.3386301010e-05 0.0000000000e+00 0.0000e+00 1.0000e+00
</event>
<event>
 4      1 +2.4041262e-06 9.11880000e+01 7.81860800e-03 1.13011600e-01
       25 -1    0    0    0    0 +0.0000000000e+00 +0.0000000000e+00 +9.9999998245e-15 1.2500000000e+02 1.2500000000e+02 0.0000e+00 0.0000e+00
      -13  1    1    0    0    0 +5.5680445653e+01 -8.4344278216e+00 +2.7106944337e+01 6.2499993569e+01 1.0566000000e-01 0.0000e+00 -1.0000e+00
       13  1    1    0    0    0 -5.5679862560e+01 +8.4343957478e+00 -2.7106527728e+01 6.2499289083e+01 1.0566000000e-01 0.0000e+00 -1.0000e+00
       22  1    1    0    0    0 -5.8309298197e-04 +3.2073818878e-05 -4.1660895831e-04 7.1734871550e-04 0.0000000000e+00 0.0000e+00 -1.0000e+00
</event>
<event>
 4      1 +2.4041262e-06 9.11880000e+01 7.81860800e-03 1.13011600e-01
       25 -1    0    0    0    0 +0.0000000000e+00 +0.0000000000e+00 +9.9999998245e-15 1.2500000000e+02 1.2500000000e+02 0.0000e+00 0.0000e+00
      -13  1    1    0    0    0 -3.4546007762e+01 -4.0951465396e+01 -3.2183686323e+01 6.2499999999e+01 1.0566000000e-01 0.0000e+00 1.0000e+00
       13  1    1    0    0    0 +3.4546007763e+01 +4.0951465396e+01 +3.2183686325e+01 6.2500000000e+01 1.0566000000e-01 0.0000e+00 1.0000e+00
       22  1    1    0    0    0 -7.9529381704e-10 +1.1641449523e-10 -1.4074015393e-09 1.6207478777e-09 0.0000000000e+00 0.0000e+00 -1.0000e+00
</event>
<event>
 4      1 +2.4041262e-06 9.11880000e+01 7.81860800e-03 1.13011600e-01
       25 -1    0    0    0    0 +0.0000000000e+00 +0.0000000000e+00 +9.9999998245e-15 1.2500000000e+02 1.2500000000e+02 0.0000e+00 0.0000e+00
      -13  1    1    0    0    0 +3.3678161476e+01 -2.4950270583e+01 -4.6361773041e+01 6.2499277804e+01 1.0566000000e-01 0.0000e+00 -1.0000e+00
       13  1    1    0    0    0 -3.3678587953e+01 +2.4950566007e+01 +4.6362276674e+01 6.2499999144e+01 1.0566000000e-01 0.0000e+00 -1.0000e+00
       22  1    1    0    0    0 +4.2647689548e-04 -2.9542424625e-04 -5.0363270176e-04 7.2305181414e-04 0.0000000000e+00 0.0000e+00 1.0000e+00
</event>
<event>
 4      1 +2.4041262e-06 9.11880000e+01 7.81860800e-03 1.13011600e-01
       25 -1    0    0    0    0 +0.0000000000e+00 +0.0000000000e+00 +9.9999998245e-15 1.2500000000e+02 1.2500000000e+02 0.0000e+00 0.0000e+00
      -13  1    1    0    0    0 -4.0214396022e+01 -4.3120365537e+01 -2.0728609728e+01 6.2499999974e+01 1.0566000000e-01 0.0000e+00 -1.0000e+00
       13  1    1    0    0    0 +4.0214396040e+01 +4.3120365554e+01 +2.0728609737e+01 6.2500000000e+01 1.0566000000e-01 0.0000e+00 -1.0000e+00
       22  1    1    0    0    0 -1.7307721702e-08 -1.6789990000e-08 -9.8415423976e-09 2.6044518646e-08 0.0000000000e+00 0.0000e+00 -1.0000e+00
</event>
<event>
 4      1 +2.4041262e-06 9.11880000e+01 7.81860800e-03 1.13011600e-01
       25 -1    0    0    0    0 +0.0000000000e+00 +0.0000000000e+00 +9.9999998245e-15 1.2500000000e+02 1.2500000000e+02 0.0000e+00 0.0000e+00
      -13  1    1    0    0    0 +1.1705294977e+00 +4.2755206367e+01 +3.5476286365e+01 5.5569378880e+01 1.0566000000e-01 0.0000e+00 1.0000e+00
       13  1    1    0    0    0 -4.2465318698e-01 +5.1757942719e+00 +4.6076126852e+00 6.9433734861e+00 1.0566000000e-01 0.0000e+00 -1.0000e+00
       22  1    1    0    0    0 -7.4587631075e-01 -4.7931000639e+01 -4.0083899051e+01 6.2487247634e+01 0.0000000000e+00 0.0000e+00 1.0000e+00
</event>
<event>
 4      1 +2.4041262e-06 9.11880000e+01 7.81860800e-03 1.13011600e-01
       25 -1    0    0    0    0 +0.0000000000e+00 +0.0000000000e+00 +9.9999998245e-15 1.2500000000e+02 1.2500000000e+02 0.0000e+00 0.0000e+00
      -11  1    1    0    0    0 +2.6508980817e+01 +1.3782320580e+01 -1.7270415734e+01 3.4510080910e+01 5.1100000000e-04 0.0000e+00 1.0000e+00
       11  1    1    0    0    0 +2.1371869476e+01 +1.0005472765e+01 -1.5075432351e+01 2.8002409736e+01 5.1100000000e-04 0.0000e+00 -1.0000e+00
       22  1    1    0    0    0 -4.7880850293e+01 -2.3787793345e+01 +3.2345848085e+01 6.2487509355e+01 0.0000000000e+00 0.0000e+00 -1.0000e+00
</event>
<event>
 4      1 +2.4041262e-06 9.11880000e+01 7.81860800e-03 1.13011600e-01
       25 -1    0    0    0    0 +0.0000000000e+00 +0.0000000000e+00 +9.9999998245e-15 1.2500000000e+02 1.2500000000e+02 0.0000e+00 0.0000e+00
      -11  1    1    0    0    0 -4.9762458880e+01 -2.8146662442e+01 +1.0211984846e+01 5.8075998098e+01 5.1100000000e-04 0.0000e+00 1.0000e+00
       11  1    1    0    0    0 -3.7800900127e+00 -2.1584139126e+00 +7.9004911845e-01 4.4240263327e+00 5.1100000000e-04 0.0000e+00 -1.0000e+00
       22  1    1    0    0    0 +5.3542548892e+01 +3.0305076354e+01 -1.1002033965e+01 6.2499975569e+01 0.0000000000e+00 0.0000e+00 1.0000e+00
</event>
<event>
 4      1 +2.4041262e-06 9.11880000e+01 7.81860800e-03 1.13011600e-01
       25 -1    0    0    0    0 +0.0000000000e+00 +0.0000000000e+00 +9.9999998245e-15 1.2500000000e+02 1.2500000000e+02 0.0000e+00 0.0000e+00
      -13  1    1    0    0    0 +3.9738550552e+01 -4.5284759663e+01 -1.6624589566e+01 6.2500000000e+01 1.0566000000e-01 0.0000e+00 1.0000e+00
       13  1    1    0    0    0 -3.9738547690e+01 +4.5284756379e+01 +1.6624588365e+01 6.2499995482e+01 1.0566000000e-01 0.0000e+00 1.0000e+00
       22  1    1    0    0    0 -2.8616966910e-06 +3.2840889583e-06 +1.2007326210e-06 4.5184407780e-06 0.0000000000e+00 0.0000e+00 1.0000e+00
</event>
<event>
 4      1 +2.4041262e-06 9.11880000e+01 7.81860800e-03 1.13011600e-01
       25 -1    0    0    0    0 +0.0000000000e+00 +0.0000000000e+00 +9.9999998245e-15 1.2500000000e+02 1.2500000000e+02 0.0000e+00 0.0000e+00
      -13  1    1    0    0    0 +2.6155163308e+01 +3.3564643848e+01 +1.4876864725e+01 4.5077823288e+01 1.0566000000e-01 0.0000e+00 -1.0000e+00
       13  1    1    0    0    0 +1.0124235405e+01 +1.2893518298e+01 +5.8988308146e+00 1.7422695705e+01 1.0566000000e-01 0.0000e+00 -1.0000e+00
       22  1    1    0    0    0 -3.6279398713e+01 -4.6458162146e+01 -2.0775695540e+01 6.2499481007e+01 0.0000000000e+00 0.0000e+00 -1.0000e+00
</event>
<event>
 4      1 +2.4041262e-06 9.11880000e+01 7.81860800e-03 1.13011600e-01
       25 -1    0    0    0    0 +0.0000000000e+00 +0.0000000000e+00 +9.9999998245e-15 1.2500000000e+02 1.2500000000e+02 0.0000e+00 0.0000e+00
      -13  1    1    0    0    0 +1.0228721382e+01 -2.9467168986e+00 +1.5532682020e+01 1.8830434311e+01 1.0566000000e-01 0.0000e+00 1.0000e+00
       13  1    1    0    0    0 -2.3912913911e+01 +1.9980768500e+01 -5.3759874509e+01 6.2138505235e+01 1.0566000000e-01 0.0000e+00 1.0000e+00
       22  1    1    0    0    0 +1.3684192529e+01 -1.7034051601e+01 +3.8227192489e+01 4.4031060454e+01 0.0000000000e+00 0.0000e+00 1.0000e+00
</event>
<event>
 4      1 +2.4041262e-06 9.11880000e+01 7.81860800e-03 1.13011600e-01
       25 -1    0    0    0    0 +0.0000000000e+00 +0.0000000000e+00 +9.9999998245e-15 1.2500000000e+02 1.2500000000e+02 0.0000e+00 0.0000e+00
      -13  1    1    0    0    0 -4.6573117083e+01 +1.6912890008e+01 -3.8093802025e+01 6.2500000000e+01 1.0566000000e-01 0.0000e+00 -1.0000e+00
       13  1    1    0    0    0 +4.6573117083e+01 -1.6912890007e+01 +3.8093802025e+01 6.2499999999e+01 1.0566000000e-01 0.0000e+00 -1.0000e+00
       22  1    1    0    0    0 +5.8338413323e-10 -9.8135465689e-11 +2.6366720423e-10 6.4767894139e-10 0.0000000000e+00 0.0000e+00 -1.0000e+00
</event>
<event>
 4      1 +2.4041262e-06 9.11880000e+01 7.81860800e-03 1.13011600e-01
       25 -1    0    0    0    0 +0.0000000000e+00 +0.0000000000e+00 +9.9999998245e-15 1.2500000000e+02 1.2500000000e+02 0.0000e+00 0.0000e+00
      -13  1    1    0    0    0 -4.1518653224e+01 -4.6118016459e+01 +7.4520748994e+00 6.2499716735e+01 1.0566000000e-01 0.0000e+00 -1.0000e+00
       13  1    1    0    0    0 +4.1518840359e+01 +4.6118226380e+01 -7.4521088627e+00 6.2499999998e+01 1.0566000000e-01 0.0000e+00 -1.0000e+00
       22  1    1    0    0    0 -1.8713571608e-04 -2.0992084509e-04 +3.3963377834e-05 2.8326674438e-04 0.0000000000e+00 0.0000e+00 -1.0000e+00
</event>
<event>
 4      1 +2.4041262e-06 9.11880000e+01 7.81860800e-03 1.13011600e-01
       25 -1    0    0    0    0 +0.0000000000e+00 +0.0000000000e+00 +9.9999998245e-15 1.2500000000e+02 1.2500000000e+02 0.0000e+00 0.0000e+00
      -13  1    1    0    0    0 -1.2383391451e+01 -5.7055302875e+01 -1.9444305983e+00 5.8416161671e+01 1.0566000000e-01 0.0000e+00 -1.0000e+00
       13  1    1    0    0    0 +1.5019303197e+01 +6.0378310673e+01 +9.4229590880e-01 6.2225549044e+01 1.0566000000e-01 0.0000e+00 -1.0000e+00
       22  1    1    0    0    0 -2.6359117461e+00 -3.3230077979e+00 +1.0021346895e+00 4.3582892853e+00 0.0000000000e+00 0.0000e+00 1.0000e+00
</event>
<event>
 4      1 +2.4041262e-06 9.11880000e+01 7.81860800e-03 1.13011600e-01
       25 -1    0    0    0    0 +0.0000000000e+00 +0.0000000000e+00 +9.9999998245e-15 1.2500000000e+02 1.2500000000e+02 0.0000e+00 0.0000e+00
      -13  1    1    0    0    0 +5.8219482441e+01 +3.2298541081e+00 -2.2500529680e+01 6.2499800745e+01 1.0566000000e-01 0.0000e+00 1.0000e+00
       13  1    1    0    0    0 -5.8219667469e+01 -3.2298637385e+00 +2.2500603002e+01 6.2499999996e+01 1.0566000000e-01 0.0000e+00 1.0000e+00
       22  1    1    0    0    0 +1.8502798121e-04 +9.6303859382e-06 -7.3321707060e-05 1.9925905473e-04 0.0000000000e+00 0.0000e+00 1.0000e+00
</event>
<event>
 4      1 +2.4041262e-06 9.11880000e+01 7.81860800e-03 1.13011600e-01
       25 -1    0    0    0    0 +0.0000000000e+00 +0.0000000000e+00 +9.9999998245e-15 1.2500000000e+02 1.2500000000e+02 0.0000e+00 0.0000e+00
      -13  1    1    0    0    0 -2.0336775966e+01 -3.4631937477e+01 -4.7869666638e+01 6.2485771966e+01 1.0566000000e-01 0.0000e+00 -1.0000e+00
       13  1    1    0    0    0 +2.0347418098e+01 +3.4641995208e+01 +4.7874771086e+01 6.2498720993e+01 1.0566000000e-01 0.0000e+00 -1.0000e+00
       22  1    1    0    0    0 -1.0642131994e-02 -1.0057730967e-02 -5.1044475024e-03 1.5507040655e-02 0.0000000000e+00 0.0000e+00 -1.0000e+00
</event>
<event>
 5      1 +2.4041262e-06 9.11880000e+01 7.81860800e-03 1.13011600e-01
       25 -1    0    0    0    0 +0.0000000000e+00 +0.0000000000e+00 +9.9999998245e-15 1.2500000000e+02 1.2500000000e+02 0.0000e+00 0.0000e+00
       23  2    1    0    0    0 -2.1720799727e+01 -2.1363373804e+01 -9.7471850742e+00 9.3012588446e+01 8.7339264432e+01 0.0000e+00 0.0000e+00
      -13  1    2    2    0    0 +2.0309879846e+01 -4.1137483321e+01 -2.0056137521e+00 4.5921861938e+01 1.0566000000e-01 0.0000e+00 -1.0000e+00
       13  1    2    2    0    0 -4.2030679572e+01 +1.9774109517e+01 -7.7415713221e+00 4.7090726508e+01 1.0566000000e-01 0.0000e+00 1.0000e+00
       22  1    1    0    0    0 +2.1720799727e+01 +2.1363373804e+01 +9.7471850742e+00 3.1987411554e+01 0.0000000000e+00 0.0000e+00 -1.0000e+00
</event>
<event>
 5      1 +2.4041262e-06 9.11880000e+01 7.81860800e-03 1.13011600e-01
       25 -1    0    0    0    0 +0.0000000000e+00 +0.0000000000e+00 +9.9999998245e-15 1.2500000000e+02 1.2500000000e+02 0.0000e+00 0.0000e+00
       23  2    1    0    0    0 -1.8286813494e+01 +2.0966003432e+01 -1.4320330975e+00 9.7142656867e+01 9.3062689713e+01 0.0000e+00 0.0000e+00
      -13  1    2    2    0    0 -3.0631138970e+01 -2.1653088907e+01 +2.5388270892e+01 4.5295677462e+01 1.0566000000e-01 0.0000e+00 1.0000e+00
       13  1    2    2    0    0 +1.2344325476e+01 +4.2619092339e+01 -2.6820303989e+01 5.1846979405e+01 1.0566000000e-01 0.0000e+00 -1.0000e+00
       22  1    1    0    0    0 +1.8286813494e+01 -2.0966003432e+01 +1.4320330975e+00 2.7857343133e+01 0.0000000000e+00 0.0000e+00 -1.0000e+00
</event>
<event>
 4      1 +2.4041262e-06 9.11880000e+01 7.81860800e-03 1.13011600e-01
       25 -1    0    0    0    0 +0.0000000000e+00 +0.0000000000e+00 +9.9999998245e-15 1.2500000000e+02 1.2500000000e+02 0.0000e+00 0.0000e+00
      -13  1    1    0    0    0 +3.6025008560e+01 +4.8616699676e+00 +4.9991159599e+01 6.1810713300e+01 1.0566000000e-01 0.0000e+00 -1.0000e+00
       13  1    1    0    0    0 -3.6429487910e+01 -4.9087291965e+00 -5.0547332787e+01 6.2499977821e+01 1.0566000000e-01 0.0000e+00 -1.0000e+00
       22  1    1    0    0    0 +4.0447934973e-01 +4.7059228876e-02 +5.5617318789e-01 6.8930887874e-01 0.0000000000e+00 0.0000e+00 1.0000e+00
</event>
<event>
 4      1 +2.4041262e-06 9.11880000e+01 7.81860800e-03 1.13011600e-01
       25 -1    0    0    0    0 +0.0000000000e+00 +0.0000000000e+00 +9.9999998245e-15 1.2500000000e+02 1.2500000000e+02 0.0000e+00 0.0000e+00
      -13  1    1    0    0    0 -2.6093493061e+01 +4.2927197645e+01 -3.7183653375e+01 6.2499999361e+01 1.0566000000e-01 0.0000e+00 -1.0000e+00
       13  1    1    0    0    0 +2.6093493364e+01 -4.2927197336e+01 +3.7183654160e+01 6.2499999743e+01 1.0566000000e-01 0.0000e+00 -1.0000e+00
       22  1    1    0    0    0 -3.0329258771e-07 -3.0863922887e-07 -7.8490743634e-07 8.9628357731e-07 0.0000000000e+00 0.0000e+00 -1.0000e+00
</event>
<event>
 4      1 +2.4041262e-06 9.11880000e+01 7.81860800e-03 1.13011600e-01
       25 -1    0    0    0    0 +0.0000000000e+00 +0.0000000000e+00 +9.9999998245e-15 1.2500000000e+02 1.2500000000e+02 0.0000e+00 0.0000e+00
      -11  1    1    0    0    0 -1.0824291712e+00 +2.3015462076e+01 +5.1573929968e+01 5.6486754200e+01 5.1100000000e-04 0.0000e+00 1.0000e+00
       11  1    1    0    0    0 -2.0781899905e+00 +2.3024873828e+00 +5.3211354410e+00 6.1591236737e+00 5.1100000000e-04 0.0000e+00 -1.0000e+00
       22  1    1    0    0    0 +3.1606191617e+00 -2.5317949459e+01 -5.6895065409e+01 6.2354122126e+01 0.0000000000e+00 0.0000e+00 1.0000e+00
</event>
<event>
 4      1 +2.4041262e-06 9.11880000e+01 7.81860800e-03 1.13011600e-01
       25 -1    0    0    0    0 +0.0000000000e+00 +0.0000000000e+00 +9.9999998245e-15 1.2500000000e+02 1.2500000000e+02 0.0000e+00 0.0000e+00
      -13  1    1    0    0    0 +1.4723728069e+00 -3.6515143164e+01 -3.4959728916e+01 5.0573880332e+01 1.0566000000e-01 0.0000e+00 1.0000e+00
       13  1    1    0    0    0 -9.3282515137e-02 -5.2130591312e+00 -1.1097483156e+01 1.2261728409e+01 1.0566000000e-01 0.0000e+00 -1.0000e+00
       22  1    1    0    0    0 -1.3790902918e+00 +4.1728202295e+01 +4.6057212072e+01 6.2164391259e+01 0.0000000000e+00 0.0000e+00 1.0000e+00
</event>
<event>
 4      1 +2.4041262e-06 9.11880000e+01 7.81860800e-03 1.13011600e-01
       25 -1    0    0    0    0 +0.0000000000e+00 +0.0000000000e+00 +9.9999998245e-15 1.2500000000e+02 1.2500000000e+02 0.0000e+00 0.0000e+00
      -11  1    1    0    0    0 +2.9206865891e+01 +3.0777739565e+01 -4.5475631044e+01 6.2196007002e+01 5.1100000000e-04 0.0000e+00 -1.0000e+00
       11  1    1    0    0    0 +1.4174228264e-01 +1.4866110715e-01 -2.2410792633e-01 3.0399938031e-01 5.1100000000e-04 0.0000e+00 1.0000e+00
       22  1    1    0    0    0 -2.9348608173e+01 -3.0926400673e+01 +4.5699738970e+01 6.2499993618e+01 0.0000000000e+00 0.0000e+00 -1.0000e+00
</event>
<event>
 4      1 +2.4041262e-06 9.11880000e+01 7.81860800e-03 1.13011600e-01
       25 -1    0    0    0    0 +0.0000000000e+00 +0.0000000000e+00 +9.9999998245e-15 1.2500000000e+02 1.2500000000e+02 0.0000e+00 0.0000e+00
      -13  1    1    0    0    0 -5.9247470026e+01 +1.1031301431e+01 +1.6561597755e+01 6.2500000000e+01 1.0566000000e-01 0.0000e+00 -1.0000e+00
       13  1    1    0    0    0 +5.9247470026e+01 -1.1031301431e+01 -1.6561597755e+01 6.2500000000e+01 1.0566000000e-01 0.0000e+00 -1.0000e+00
       22  1    1    0    0    0 +3.1255553151e-10 +1.4727387177e-12 +9.5095139348e-11 3.2670508837e-10 0.0000000000e+00 0.0000e+00 1.0000e+00
</event>
<event>
 4      1 +2.4041262e-06 9.11880000e+01 7.81860800e-03 1.13011600e-01
       25 -1    0    0    0    0 +0.0000000000e+00 +0.0000000000e+00 +9.9999998245e-15 1.2500000000e+02 1.2500000000e+02 0.0000e+00 0.0000e+00
      -11  1    1    0    0    0 +2.8731337794e+01 -8.3598442889e+00 +5.2873933136e+00 3.0386399857e+01 5.1100000000e-04 0.0000e+00 -1.0000e+00
       11  1    1    0    0    0 +3.0400855389e+01 -8.6763289342e+00 +5.6391225575e+00 3.2113710400e+01 5.1100000000e-04 0.0000e+00 1.0000e+00
       22  1    1    0    0    0 -5.9132193183e+01 +1.7036173223e+01 -1.0926515871e+01 6.2499889743e+01 0.0000000000e+00 0.0000e+00 -1.0000e+00
</event>
<event>
 4      1 +2.4041262e-06 9.11880000e+01 7.81860800e-03 1.13011600e-01
       25 -1    0    0    0    0 +0.0000000000e+00 +0.0000000000e+00 +9.9999998245e-15 1.2500000000e+02 1.2500000000e+02 0.0000e+00 0.0000e+00
      -11  1    1    0    0    0 +9.4397478860e+00 -1.8717953562e+01 -1.3429973868e+01 2.4896482162e+01 5.1100000000e-04 0.0000e+00 -1.0000e+00
       11  1    1    0    0    0 +1.4253141633e+01 -2.8271643507e+01 -2.0287599338e+01 3.7603517923e+01 5.1100000000e-04 0.0000e+00 1.0000e+00
       22  1    1    0    0    0 -2.3692889519e+01 +4.6989597069e+01 +3.3717573206e+01 6.2499999915e+01 0.0000000000e+00 0.0000e+00 1.0000e+00
</event>
<event>
 5      1 +2.4041262e-06 9.11880000e+01 7.81860800e-03 1.13011600e-01
       25 -1    0    0    0    0 +0.0000000000e+00 +0.0000000000e+00 +9.9999998245e-15 1.2500000000e+02 1.2500000000e+02 0.0000e+00 0.0000e+00
       23  2    1    0    0    0 -1.2067273041e+01 +2.5037847326e+01 -5.5386639657e+00 9.6659398808e+01 9.2411307220e+01 0.0000e+00 0.0000e+00
      -11  1    2    2    0    0 +3.1207739761e+01 -1.7506503944e+01 -8.4799985651e-01 3.5792733974e+01 5.1100000000e-04 0.0000e+00 -1.0000e+00
       11  1    2    2    0    0 -4.3275012801e+01 +4.2544351271e+01 -4.6906641092e+00 6.0866664834e+01 5.1100000000e-04 0.0000e+00 1.0000e+00
       22  1    1    0    0    0 +1.2067273041e+01 -2.5037847326e+01 +5.5386639657e+00 2.8340601192e+01 0.0000000000e+00 0.0000e+00 1.0000e+00
</event>
<event>
 4      1 +2.4041262e-06 9.11880000e+01 7.81860800e-03 1.13011600e-01
       25 -1    0    0    0    0 +0.0000000000e+00 +0.0000000000e+00 +9.9999998245e-15 1.2500000000e+02 1.2500000000e+02 0.0000e+00 0.0000e+00
      -13  1    1    0    0    0 +1.8554195281e+01 +5.9665127480e+01 -1.4329118106e+00 6.2500000000e+01 1.0566000000e-01 0.0000e+00 1.0000e+00
       13  1    1    0    0    0 -1.8554195281e+01 -5.9665127480e+01 +1.4329118106e+00 6.2500000000e+01 1.0566000000e-01 0.0000e+00 1.0000e+00
       22  1    1    0    0    0 -7.4641622399e-12 +2.5399853171e-11 -4.2463002027e-11 5.0039712229e-11 0.0000000000e+00 0.0000e+00 1.0000e+00
</event>
<event>
 4      1 +2.4041262e-06 9.11880000e+01 7.81860800e-03 1.13011600e-01
       25 -1    0    0    0    0 +0.0000000000e+00 +0.0000000000e+00 +9.9999998245e-15 1.2500000000e+02 1.2500000000e+02 0.0000e+00 0.0000e+00
      -13  1    1    0    0    0 -1.8174151912e+01 +5.9277791546e+01 +7.8792298378e+00 6.2499998361e+01 1.0566000000e-01 0.0000e+00 1.0000e+00
       13  1    1    0    0    0 +1.8174152381e+01 -5.9277793103e+01 -7.8792300452e+00 6.2500000000e+01 1.0566000000e-01 0.0000e+00 1.0000e+00
       22  1    1    0    0    0 -4.6824739911e-07 +1.5564691206e-06 +2.0740757374e-07 1.6385571860e-06 0.0000000000e+00 0.0000e+00 1.0000e+00
</event>
<event>
 4      1 +2.4041262e-06 9.11880000e+01 7.81860800e-03 1.13011600e-01
       25 -1    0    0    0    0 +0.0000000000e+00 +0.0000000000e+00 +9.9999998245e-15 1.2500000000e+02 1.2500000000e+02 0.0000e+00 0.0000e+00
      -11  1    1    0    0    0 -2.8831194791e+00 +1.5894625911e+01 -9.4955723797e+00 1.8738127064e+01 5.1100000000e-04 0.0000e+00 -1.0000e+00
       11  1    1    0    0    0 -7.9261175486e+00 +3.9025351955e+01 -1.8231587278e+01 4.3797171250e+01 5.1100000000e-04 0.0000e+00 1.0000e+00
       22  1    1    0    0    0 +1.0809237028e+01 -5.4919977866e+01 +2.7727159658e+01 6.2464701685e+01 0.0000000000e+00 0.0000e+00 1.0000e+00
</event>
<event>
 4      1 +2.4041262e-06 9.11880000e+01 7.81860800e-03 1.13011600e-01
       25 -1    0    0    0    0 +0.0000000000e+00 +0.0000000000e+00 +9.9999998245e-15 1.2500000000e+02 1.2500000000e+02 0.0000e+00 0.0000e+00
      -13  1    1    0    0    0 -5.6805553594e+01 +1.1496603082e+01 -2.3392217314e+01 6.2499998371e+01 1.0566000000e-01 0.0000e+00 1.0000e+00
       13  1    1    0    0    0 +5.6805555075e+01 -1.1496603428e+01 +2.3392217898e+01 6.2500000000e+01 1.0566000000e-01 0.0000e+00 1.0000e+00
       22  1    1    0    0    0 -1.4813121959e-06 +3.4592807626e-07 -5.8368091513e-07 1.6293052097e-06 0.0000000000e+00 0.0000e+00 -1.0000e+00
</event>
<event>
 5      1 +2.4041262e-06 9.11880000e+01 7.81860800e-03 1.13011600e-01
       25 -1    0    0    0    0 +0.0000000000e+00 +0.0000000000e+00 +9.9999998245e-15 1.2500000000e+02 1.2500000000e+02 0.0000e+00 0.0000e+00
       23  2    1    0    0    0 -1.0827104435e+01 -5.2813227152e-01 -3.8917518766e+01 8.4601010148e+01 7.4332042466e+01 0.0000e+00 0.0000e+00
      -13  1    2    2    0    0 +2.0389169991e+00 +2.9924565715e+00 +2.1971394471e+01 2.2268033543e+01 1.0566000000e-01 0.0000e+00 -1.0000e+00
       13  1    2    2    0    0 -1.2866021434e+01 -3.5205888430e+00 -6.0888913236e+01 6.2332976605e+01 1.0566000000e-01 0.0000e+00 -1.0000e+00
       22  1    1    0    0    0 +1.0827104435e+01 +5.2813227152e-01 +3.8917518766e+01 4.0398989852e+01 0.0000000000e+00 0.0000e+00 -1.0000e+00
</event>
<event>
 4      1 +2.4041262e-06 9.11880000e+01 7.81860800e-03 1.13011600e-01
       25 -1    0    0    0    0 +0.0000000000e+00 +0.0000000000e+00 +9.9999998245e-15 1.2500000000e+02 1.2500000000e+02 0.0000e+00 0.0000e+00
      -13  1    1    0    0    0 -3.0706219665e+01 +1.8017916503e+01 +5.1019264468e+01 6.2213292407e+01 1.0566000000e-01 0.0000e+00 1.0000e+00
       13  1    1    0    0    0 +2.6330848988e+01 -1.7644892415e+01 -4.7748137151e+01 5.7311007688e+01 1.0566000000e-01 0.0000e+00 1.0000e+00
       22  1    1    0    0    0 +4.3753706771e+00 -3.7302408844e-01 -3.2711273170e+00 5.4756999056e+00 0.0000000000e+00 0.0000e+00 -1.0000e+00
</event>
<event>
 5      1 +2.4041262e-06 9.11880000e+01 7.81860800e-03 1.13011600e-01
       25 -1    0    0    0    0 +0.0000000000e+00 +0.0000000000e+00 +9.9999998245e-15 1.2500000000e+02 1.2500000000e+02 0.0000e+00 0.0000e+00
       23  2    1    0    0    0 -2.4776828652e+01 -1.1145263330e+01 +1.0780981286e+01 9.5770944418e+01 9.1201623366e+01 0.0000e+00 0.0000e+00
      -11  1    2    2    0    0 +2.8323097916e+01 -7.8326864493e+00 +2.7250803695e+01 4.0076865581e+01 5.1100000000e-04 0.0000e+00 1.0000e+00
       11  1    2    2    0    0 -5.3099926567e+01 -3.3125768803e+00 -1.6469822409e+01 5.5694078837e+01 5.1100000000e-04 0.0000e+00 -1.0000e+00
       22  1    1    0    0    0 +2.4776828652e+01 +1.1145263330e+01 -1.0780981286e+01 2.9229055582e+01 0.0000000000e+00 0.0000e+00 -1.0000e+00
</event>
<event>
 4      1 +2.4041262e-06 9.11880000e+01 7.81860800e-03 1.13011600e-01
       25 -1    0    0    0    0 +0.0000000000e+00 +0.0000000000e+00 +9.9999998245e-15 1.2500000000e+02 1.2500000000e+02 0.0000e+00 0.0000e+00
      -13  1    1    0    0    0 -3.3978340082e+00 -5.0501224283e+01 -3.6664968374e+01 6.2500000000e+01 1.0566000000e-01 0.0000e+00 -1.0000e+00
       13  1    1    0    0    0 +3.3978340082e+00 +5.0501224283e+01 +3.6664968374e+01 6.2500000000e+01 1.0566000000e-01 0.0000e+00 -1.0000e+00
       22  1    1    0    0    0 +1.4752612328e-11 -1.2022512027e-12 -6.9544600501e-11 7.1102295587e-11 0.0000000000e+00 0.0000e+00 -1.0000e+00
</event>
<event>
 4      1 +2.4041262e-06 9.11880000e+01 7.81860800e-03 1.13011600e-01
       25 -1    0    0    0    0 +0.0000000000e+00 +0.0000000000e+00 +9.9999998245e-15 1.2500000000e+02 1.2500000000e+02 0.0000e+00 0.0000e+00
      -11  1    1    0    0    0 +4.8759670560e-01 +4.0164472342e+01 -3.3812351764e+01 5.2504263837e+01 5.1100000000e-04 0.0000e+00 1.0000e+00
       11  1    1    0    0    0 +2.8896192608e-02 +7.6883093718e+00 -6.3880568410e+00 9.9959094859e+00 5.1100000000e-04 0.0000e+00 -1.0000e+00
       22  1    1    0    0    0 -5.1649289821e-01 -4.7852781714e+01 +4.0200408605e+01 6.2499826677e+01 0.0000000000e+00 0.0000e+00 1.0000e+00
</event>
<event>
 4      1 +2.4041262e-06 9.11880000e+01 7.81860800e-03 1.13011600e-01
       25 -1    0    0    0    0 +0.0000000000e+00 +0.0000000000e+00 +9.9999998245e-15 1.2500000000e+02 1.2500000000e+02 0.0000e+00 0.0000e+00
      -13  1    1    0    0    0 +3.2894021655e+01 +3.6573561904e+01 -3.8556409907e+01 6.2499999999e+01 1.0566000000e-01 0.0000e+00 1.0000e+00
       13  1    1    0    0    0 -3.2894021655e+01 -3.6573561904e+01 +3.8556409908e+01 6.2500000000e+01 1.0566000000e-01 0.0000e+00 1.0000e+00
       22  1    1    0    0    0 +3.1204275937e-10 +4.1262778664e-10 -4.4139772954e-10 6.8004729955e-10 0.0000000000e+00 0.0000e+00 -1.0000e+00
</event>
<event>
 4      1 +2.4041262e-06 9.11880000e+01 7.81860800e-03 1.13011600e-01
       25 -1    0    0    0    0 +0.0000000000e+00 +0.0000000000e+00 +9.9999998245e-15 1.2500000000e+02 1.2500000000e+02 0.0000e+00 0.0000e+00
      -13  1    1    0    0    0 -3.6649970412e+01 -1.0001765021e+01 -4.9064109180e+01 6.2052829173e+01 1.0566000000e-01 0.0000e+00 1.0000e+00
       13  1    1    0    0    0 +3.6913110888e+01 +1.0074406080e+01 +4.9418288813e+01 6.2499998772e+01 1.0566000000e-01 0.0000e+00 1.0000e+00
       22  1    1    0    0    0 -2.6314047639e-01 -7.2641059481e-02 -3.5417963292e-01 4.4717205437e-01 0.0000000000e+00 0.0000e+00 1.0000e+00
</event>
<event>
 4      1 +2.4041262e-06 9.11880000e+01 7.81860800e-03 1.13011600e-01
       25 -1    0    0    0    0 +0.0000000000e+00 +0.0000000000e+00 +9.9999998245e-15 1.2500000000e+02 1.2500000000e+02 0.0000e+00 0.0000e+00
      -13  1    1    0    0    0 -1.4290079623e+01 +4.0029211438e+01 -4.5822425567e+01 6.2499999943e+01 1.0566000000e-01 0.0000e+00 1.0000e+00
       13  1    1    0    0    0 +1.4289640426e+01 -4.0028023760e+01 +4.5821081510e+01 6.2498153448e+01 1.0566000000e-01 0.0000e+00 1.0000e+00
       22  1    1    0    0    0 +4.3919698636e-04 -1.1876782485e-03 +1.3440578867e-03 1.8466091134e-03 0.0000000000e+00 0.0000e+00 1.0000e+00
</event>
<event>
 4      1 +2.4041262e-06 9.11880000e+01 7.81860800e-03 1.13011600e-01
       25 -1    0    0    0    0 +0.0000000000e+00 +0.0000000000e+00 +9.9999998245e-15 1.2500000000e+02 1.2500000000e+02 0.0000e+00 0.0000e+00
      -13  1    1    0    0    0 +2.2872548950e+01 +2.8865105587e+01 +4.9766847435e+01 6.1912018896e+01 1.0566000000e-01 0.0000e+00 -1.0000e+00
       13  1    1    0    0    0 -2.3089472281e+01 -2.9140114773e+01 -5.0239115353e+01 6.2499999158e+01 1.0566000000e-01 0.0000e+00 -1.0000e+00
       22  1    1    0    0    0 +2.1692333043e-01 +2.7500918549e-01 +4.7226791816e-01 5.8798194692e-01 0.0000000000e+00 0.0000e+00 1.0000e+00
</event>
<event>
 5      1 +2.4041262e-06 9.11880000e+01 7.81860800e-03 1.13011600e-01
       25 -1    0    0    0    0 +0.0000000000e+00 +0.0000000000e+00 +9.9999998245e-15 1.2500000000e+02 1.2500000000e+02 0.0000e+00 0.0000e+00
       23  2    1    0    0    0 +1.6367524468e+01 +1.8309634280e+00 -2.3257893151e+01 9.6501265325e+01 9.2197160104e+01 0.0000e+00 0.0000e+00
      -13  1    2    2    0    0 -2.1436424868e+01 -1.9776066055e+01 -4.0296004898e+01 4.9743263610e+01 1.0566000000e-01 0.0000e+00 -1.0000e+00
       13  1    2    2    0    0 +3.7803949336e+01 +2.1607029483e+01 +1.7038111748e+01 4.6758001715e+01 1.0566000000e-01 0.0000e+00 1.0000e+00
       22  1    1    0    0    0 -1.6367524468e+01 -1.8309634280e+00 +2.3257893151e+01 2.8498734675e+01 0.0000000000e+00 0.0000e+00 1.0000e+00
</event>
<event>
 4      1 +2.4041262e-06 9.11880000e+01 7.81860800e-03 1.13011600e-01
       25 -1    0    0    0    0 +0.0000000000e+00 +0.0000000000e+00 +9.9999998245e-15 1.2500000000e+02 1.2500000000e+02 0.0000e+00 0.0000e+00
      -13  1    1    0    0    0 -1.0704892911e+01 +5.4035431229e+01 -2.8658972440e+01 6.2094850235e+01 1.0566000000e-01 0.0000e+00 1.0000e+00
       13  1    1    0    0    0 +1.0829367132e+01 -5.4386809993e+01 +2.8823080005e+01 6.2497851152e+01 1.0566000000e-01 0.0000e+00 1.0000e+00
       22  1    1    0    0    0 -1.2447422169e-01 +3.5137876363e-01 -1.6410756479e-01 4.0729861308e-01 0.0000000000e+00 0.0000e+00 1.0000e+00
</event>
<event>
 5      1 +2.4041262e-06 9.11880000e+01 7.81860800e-03 1.13011600e-01
       25 -1    0    0    0    0 +0.0000000000e+00 +0.0000000000e+00 +9.9999998245e-15 1.2500000000e+02 1.2500000000e+02 0.0000e+00 0.0000e+00
       23  2    1    0    0    0 -2.4647061919e+01 -1.1248772612e+01 -2.5256221925e+00 9.7789867439e+01 9.3927987628e+01 0.0000e+00 0.0000e+00
      -11  1    2    2    0    0 -3.0072752052e+01 +3.3069029072e+01 -2.1104378025e+01 4.9430009830e+01 5.1100000000e-04 0.0000e+00 -1.0000e+00
       11  1    2    2    0    0 +5.4256901324e+00 -4.4317801683e+01 +1.8578755832e+01 4.8359857609e+01 5.1100000000e-04 0.0000e+00 1.0000e+00
       22  1    1    0    0    0 +2.4647061919e+01 +1.1248772612e+01 +2.5256221925e+00 2.7210132561e+01 0.0000000000e+00 0.0000e+00 -1.0000e+00
</event>
<event>
 4      1 +2.4041262e-06 9.11880000e+01 7.81860800e-03 1.13011600e-01
       25 -1    0    0    0    0 +0.0000000000e+00 +0.0000000000e+00 +9.9999998245e-15 1.2500000000e+02 1.2500000000e+02 0.0000e+00 0.0000e+00
      -13  1    1    0    0    0 -4.1594395986e+01 +3.2744091751e+01 +3.3226036685e+01 6.2499999999e+01 1.0566000000e-01 0.0000e+00 -1.0000e+00
       13  1    1    0    0    0 +4.1594395524e+01 -3.2744091438e+01 -3.3226036304e+01 6.2499999325e+01 1.0566000000e-01 0.0000e+00 -1.0000e+00
       22  1    1    0    0    0 +4.6178661119e-07 -3.1305703829e-07 -3.8126599985e-07 6.7573319154e-07 0.0000000000e+00 0.0000e+00 1.0000e+00
</event>
<event>
 4      1 +2.4041262e-06 9.11880000e+01 7.81860800e-03 1.13011600e-01
       25 -1    0    0    0    0 +0.0000000000e+00 +0.0000000000e+00 +9.9999998245e-15 1.2500000000e+02 1.2500000000e+02 0.0000e+00 0.0000e+00
      -13  1    1    0    0    0 +4.0113963583e+01 +1.1661273603e+01 +4.6487885055e+01 6.2499999979e+01 1.0566000000e-01 0.0000e+00 -1.0000e+00
       13  1    1    0    0    0 -4.0113963602e+01 -1.1661273612e+01 -4.6487885064e+01 6.2499999999e+01 1.0566000000e-01 0.0000e+00 -1.0000e+00
       22  1    1    0    0    0 +1.8783005183e-08 +8.8448308245e-09 +8.9163555178e-09 2.2594993068e-08 0.0000000000e+00 0.0000e+00 -1.0000e+00
</event>
<event>
 4      1 +2.4041262e-06 9.11880000e+01 7.81860800e-03 1.13011600e-01
       25 -1    0    0    0    0 +0.0000000000e+00 +0.0000000000e+00 +9.9999998245e-15 1.2500000000e+02 1.2500000000e+02 0.0000e+00 0.0000e+00
      -13  1    1    0    0    0 +3.1171121353e+01 +5.2688906160e+01 +1.0486304408e+00 6.1228019963e+01 1.0566000000e-01 0.0000e+00 -1.0000e+00
       13  1    1    0    0    0 -8.9445530561e+00 -6.5366465421e+00 -5.4705079522e+00 1.2355986350e+01 1.0566000000e-01 0.0000e+00 1.0000e+00
       22  1    1    0    0    0 -2.2226568297e+01 -4.6152259618e+01 +4.4218775114e+00 5.1415993687e+01 0.0000000000e+00 0.0000e+00 -1.0000e+00
</event>
<event>
 4      1 +2.4041262e-06 9.11880000e+01 7.81860800e-03 1.13011600e-01
       25 -1    0    0    0    0 +0.0000000000e+00 +0.0000000000e+00 +9.9999998245e-15 1.2500000000e+02 1.2500000000e+02 0.0000e+00 0.0000e+00
      -13  1    1    0    0    0 +3.4378203199e+01 -1.0886072818e+00 -5.2184220938e+01 6.2499999999e+01 1.0566000000e-01 0.0000e+00 1.0000e+00
       13  1    1    0    0    0 -3.4378199268e+01 +1.0886072087e+00 +5.2184215170e+01 6.2499993020e+01 1.0566000000e-01 0.0000e+00 1.0000e+00
       22  1    1    0    0    0 -3.9309078602e-06 +7.3047115083e-08 +5.7682561419e-06 6.9806984898e-06 0.0000000000e+00 0.0000e+00 1.0000e+00
</event>
<event>
 4      1 +2.4041262e-06 9.11880000e+01 7.81860800e-03 1.13011600e-01
       25 -1    0    0    0    0 +0.0000000000e+00 +0.0000000000e+00 +9.9999998245e-15 1.2500000000e+02 1.2500000000e+02 0.0000e+00 0.0000e+00
      -13  1    1    0    0    0 +2.6935713954e+01 +4.0806722525e+01 -1.9875553683e+01 5.2780394918e+01 1.0566000000e-01 0.0000e+00 -1.0000e+00
       13  1    1    0    0    0 +2.8978744197e+00 +8.8728732099e+00 -3.1668959782e+00 9.8572790020e+00 1.0566000000e-01 0.0000e+00 1.0000e+00
       22  1    1    0    0    0 -2.9833588374e+01 -4.9679595735e+01 +2.3042449661e+01 6.2362326080e+01 0.0000000000e+00 0.0000e+00 -1.0000e+00
</event>
<event>
 5      1 +2.4041262e-06 9.11880000e+01 7.81860800e-03 1.13011600e-01
       25 -1    0    0    0    0 +0.0000000000e+00 +0.0000000000e+00 +9.9999998245e-15 1.2500000000e+02 1.2500000000e+02 0.0000e+00 0.0000e+00
       23  2    1    0    0    0 -4.2477816718e+00 +1.8998633195e+01 +2.2223613896e+01 9.5455445053e+01 9.0768173184e+01 0.0000e+00 0.0000e+00
      -11  1    2    2    0    0 -4.6674881135e+01 +6.7284564100e+00 +2.8972648798e+00 4.7246278147e+01 5.1100000000e-04 0.0000e+00 -1.0000e+00
       11  1    2    2    0    0 +4.2427099463e+01 +1.2270176785e+01 +1.9326349017e+01 4.8209166906e+01 5.1100000000e-04 0.0000e+00 1.0000e+00
       22  1    1    0    0    0 +4.2477816718e+00 -1.8998633195e+01 -2.2223613896e+01 2.9544554947e+01 0.0000000000e+00 0.0000e+00 -1.0000e+00
</event>
<event>
 4      1 +2.4041262e-06 9.11880000e+01 7.81860800e-03 1.13011600e-01
       25 -1    0    0    0    0 +0.0000000000e+00 +0.0000000000e+00 +9.9999998245e-15 1.2500000000e+02 1.2500000000e+02 0.0000e+00 0.0000e+00
      -11  1    1    0    0    0 +4.1939723695e+00 +1.3073355337e+01 +2.3088442219e+00 1.3922384347e+01 5.1100000000e-04 0.0000e+00 1.0000e+00
       11  1    1    0    0    0 +1.4635121995e+01 +4.5614302655e+01 +8.0581226899e+00 4.8577615668e+01 5.1100000000e-04 0.0000e+00 1.0000e+00
       22  1    1    0    0    0 -1.8829094364e+01 -5.8687657992e+01 -1.0366966912e+01 6.2499999985e+01 0.0000000000e+00 0.0000e+00 1.0000e+00
</event>
<event>
 4      1 +2.4041262e-06 9.11880000e+01 7.81860800e-03 1.13011600e-01
       25 -1    0    0    0    0 +0.0000000000e+00 +0.0000000000e+00 +9.9999998245e-15 1.2500000000e+02 1.2500000000e+02 0.0000e+00 0.0000e+00
      -13  1    1    0    0    0 +5.4603183376e+01 -1.5670603545e+00 -3.0368989495e+01 6.2499999999e+01 1.0566000000e-01 0.0000e+00 1.0000e+00
       13  1    1    0    0    0 -5.4603047884e+01 +1.5670560015e+00 +3.0368913610e+01 6.2499844645e+01 1.0566000000e-01 0.0000e+00 1.0000e+00
       22  1    1    0    0    0 -1.3549112756e-04 +4.3529046354e-06 +7.5885713932e-05 1.5535583351e-04 0.0000000000e+00 0.0000e+00 1.0000e+00
</event>
<event>
 4      1 +2.4041262e-06 9.11880000e+01 7.81860800e-03 1.13011600e-01
       25 -1    0    0    0    0 +0.0000000000e+00 +0.0000000000e+00 +9.9999998245e-15 1.2500000000e+02 1.2500000000e+02 0.0000e+00 0.0000e+00
      -13  1    1    0    0    0 -1.1520306516e+01 +6.0748180807e+01 +9.1203016588e+00 6.2500000000e+01 1.0566000000e-01 0.0000e+00 -1.0000e+00
       13  1    1    0    0    0 +1.1520306088e+01 -6.0748178572e+01 -9.1203013243e+00 6.2499997700e+01 1.0566000000e-01 0.0000e+00 -1.0000e+00
       22  1    1    0    0    0 +4.2725482672e-07 -2.2355202042e-06 -3.3450406197e-07 2.3004326197e-06 0.0000000000e+00 0.0000e+00 -1.0000e+00
</event>
<event>
 4      1 +2.4041262e-06 9.11880000e+01 7.81860800e-03 1.13011600e-01
       25 -1    0    0    0    0 +0.0000000000e+00 +0.0000000000e+00 +9.9999998245e-15 1.2500000000e+02 1.2500000000e+02 0.0000e+00 0.0000e+00
      -13  1    1    0    0    0 +6.8364298627e-01 -2.9244097446e+01 +1.9464762234e+01 3.5136487246e+01 1.0566000000e-01 0.0000e+00 -1.0000e+00
       13  1    1    0    0    0 +3.2711341320e+01 +4.0219471988e+00 +1.4460344410e+01 3.5990563134e+01 1.0566000000e-01 0.0000e+00 1.0000e+00
       22  1    1    0    0    0 -3.3394984306e+01 +2.5222150247e+01 -3.3925106644e+01 5.3872949620e+01 0.0000000000e+00 0.0000e+00 -1.0000e+00
</event>
<event>
 4      1 +2.4041262e-06 9.11880000e+01 7.81860800e-03 1.13011600e-01
       25 -1    0    0    0    0 +0.0000000000e+00 +0.0000000000e+00 +9.9999998245e-15 1.2500000000e+02 1.2500000000e+02 0.0000e+00 0.0000e+00
      -13  1    1    0    0    0 +5.3265489366e+01 -2.0885260181e+01 -2.5154912169e+01 6.2499497762e+01 1.0566000000e-01 0.0000e+00 1.0000e+00
       13  1    1    0    0    0 -5.3265912966e+01 +2.0885434917e+01 +2.5155117873e+01 6.2499999960e+01 1.0566000000e-01 0.0000e+00 1.0000e+00
       22  1    1    0    0    0 +4.2359929965e-04 -1.7473599740e-04 -2.0570372393e-04 5.0227786881e-04 0.0000000000e+00 0.0000e+00 1.0000e+00
</event>
<event>
 4      1 +2.4041262e-06 9.11880000e+01 7.81860800e-03 1.13011600e-01
       25 -1    0    0    0    0 +0.0000000000e+00 +0.0000000000e+00 +9.9999998245e-15 1.2500000000e+02 1.2500000000e+02 0.0000e+00 0.0000e+00
      -13  1    1    0    0    0 -5.4551266372e+01 +2.9722856757e+01 +6.8520040347e+00 6.2500000000e+01 1.0566000000e-01 0.0000e+00 1.0000e+00
       13  1    1    0    0    0 +5.4551266372e+01 -2.9722856757e+01 -6.8520040354e+00 6.2500000000e+01 1.0566000000e-01 0.0000e+00 1.0000e+00
       22  1    1    0    0    0 -8.4028902145e-11 +1.6388987819e-10 +6.6146544655e-10 6.8662747216e-10 0.0000000000e+00 0.0000e+00 -1.0000e+00
</event>
<event>
 4      1 +2.4041262e-06 9.11880000e+01 7.81860800e-03 1.13011600e-01
       25 -1    0    0    0    0 +0.0000000000e+00 +0.0000000000e+00 +9.9999998245e-15 1.2500000000e+02 1.2500000000e+02 0.0000e+00 0.0000e+00
      -13  1    1    0    0    0 -6.6100584700e+00 -5.0408037392e+01 -3.6353481208e+01 6.2499998933e+01 1.0566000000e-01 0.0000e+00 -1.0000e+00
       13  1    1    0    0    0 +6.5810873180e+00 +5.0191646140e+01 +3.6198307860e+01 6.2232151727e+01 1.0566000000e-01 0.0000e+00 -1.0000e+00
       22  1    1    0    0    0 +2.8971152053e-02 +2.1639125150e-01 +1.5517334777e-01 2.6784934055e-01 0.0000000000e+00 0.0000e+00 -1.0000e+00
</event>
<event>
 5      1 +2.4041262e-06 9.11880000e+01 7.81860800e-03 1.13011600e-01
       25 -1    0    0    0    0 +0.0000000000e+00 +0.0000000000e+00 +9.9999998245e-15 1.2500000000e+02 1.2500000000e+02 0.0000e+00 0.0000e+00
       23  2    1    0    0    0 -9.9114495240e-01 +1.6803957360e+01 -2.5304459386e+01 9.4608043563e+01 8.9593587330e+01 0.0000e+00 0.0000e+00
      -11  1    2    2    0    0 -6.3401764552e+00 +3.2992836183e+00 -5.8205798153e+01 5.8642971009e+01 5.1100000000e-04 0.0000e+00 -1.0000e+00
       11  1    2    2    0    0 +5.3490315028e+00 +1.3504673741e+01 +3.2901338767e+01 3.5965072554e+01 5.1100000000e-04 0.0000e+00 1.0000e+00
       22  1    1    0    0    0 +9.9114495240e-01 -1.6803957360e+01 +2.5304459386e+01 3.0391956437e+01 0.0000000000e+00 0.0000e+00 -1.0000e+00
</event>
<event>
 5      1 +2.4041262e-06 9.11880000e+01 7.81860800e-03 1.13011600e-01
       25 -1    0    0    0    0 +0.0000000000e+00 +0.0000000000e+00 +9.9999998245e-15 1.2500000000e+02 1.2500000000e+02 0.0000e+00 0.0000e+00
       23  2    1    0    0    0 +6.2271471871e+00 -2.1307997773e+01 -1.6388641586e+01 9.7406600351e+01 9.3416540760e+01 0.0000e+00 0.0000e+00
      -13  1    2    2    0    0 +3.5428457312e+01 +2.3376755183e+01 -4.2064836855e+00 4.2653885396e+01 1.0566000000e-01 0.0000e+00 1.0000e+00
       13  1    2    2    0    0 -2.9201310125e+01 -4.4684752955e+01 -1.2182157901e+01 5.4752714954e+01 1.0566000000e-01 0.0000e+00 -1.0000e+00
       22  1    1    0    0    0 -6.2271471871e+00 +2.1307997773e+01 +1.6388641586e+01 2.7593399649e+01 0.0000000000e+00 0.0000e+00 1.0000e+00
</event>
<event>
 4      1 +2.4041262e-06 9.11880000e+01 7.81860800e-03 1.13011600e-01
       25 -1    0    0    0    0 +0.0000000000e+00 +0.0000000000e+00 +9.9999998245e-15 1.2500000000e+02 1.2500000000e+02 0.0000e+00 0.0000e+00
      -13  1    1    0    0    0 -3.3229131215e+01 -3.3061500813e+01 +2.0741146555e+00 4.6920689604e+01 1.0566000000e-01 0.0000e+00 -1.0000e+00
       13  1    1    0    0    0 -1.0750452230e+01 -1.1282773168e+01 -9.6356556227e-01 1.5614506593e+01 1.0566000000e-01 0.0000e+00 1.0000e+00
       22  1    1    0    0    0 +4.3979583445e+01 +4.4344273980e+01 -1.1105490933e+00 6.2464803803e+01 0.0000000000e+00 0.0000e+00 -1.0000e+00
</event>
<event>
 4      1 +2.4041262e-06 9.11880000e+01 7.81860800e-03 1.13011600e-01
       25 -1    0    0    0    0 +0.0000000000e+00 +0.0000000000e+00 +9.9999998245e-15 1.2500000000e+02 1.2500000000e+02 0.0000e+00 0.0000e+00
      -13  1    1    0    0    0 -4.0741290511e+01 -1.9630039619e+01 -4.3139856982e+01 6.2499997059e+01 1.0566000000e-01 0.0000e+00 1.0000e+00
       13  1    1    0    0    0 +4.0741293341e+01 +1.9630039058e+01 +4.3139858417e+01 6.2499999718e+01 1.0566000000e-01 0.0000e+00 1.0000e+00
       22  1    1    0    0    0 -2.8307242483e-06 +5.6118106482e-07 -1.4347054453e-06 3.2227788742e-06 0.0000000000e+00 0.0000e+00 1.0000e+00
</event>
<event>
 4      1 +2.4041262e-06 9.11880000e+01 7.81860800e-03 1.13011600e-01
       25 -1    0    0    0    0 +0.0000000000e+00 +0.0000000000e+00 +9.9999998245e-15 1.2500000000e+02 1.2500000000e+02 0.0000e+00 0.0000e+00
      -11  1    1    0    0    0 -2.4133850507e+01 +2.7880028404e+01 +3.3577120519e+01 4.9871452221e+01 5.1100000000e-04 0.0000e+00 -1.0000e+00
       11  1    1    0    0    0 -6.0986925447e+00 +9.6137176171e+00 +5.9275545989e+00 1.2835634809e+01 5.1100000000e-04 0.0000e+00 1.0000e+00
       22  1    1    0    0    0 +3.0232543052e+01 -3.7493746021e+01 -3.9504675117e+01 6.2292912969e+01 0.0000000000e+00 0.0000e+00 -1.0000e+00
</event>
<event>
 5      1 +2.4041262e-06 9.11880000e+01 7.81860800e-03 1.13011600e-01
       25 -1    0    0    0    0 +0.0000000000e+00 +0.0000000000e+00 +9.9999998245e-15 1.2500000000e+02 1.2500000000e+02 0.0000e+00 0.0000e+00
       23  2    1    0    0    0 -2.6919610561e+01 -3.6171997058e+00 -1.0037146155e+01 9.6043241386e+01 9.1574070274e+01 0.0000e+00 0.0000e+00
      -13  1    2    2    0    0 +3.4002458062e+01 -1.1072978740e+00 -8.4239137280e+00 3.5048063418e+01 1.0566000000e-01 0.0000e+00 1.0000e+00
       13  1    2    2    0    0 -6.0922068623e+01 -2.5099018317e+00 -1.6132324271e+00 6.0995177968e+01 1.0566000000e-01 0.0000e+00 -1.0000e+00
       22  1    1    0    0    0 +2.6919610561e+01 +3.6171997058e+00 +1.0037146155e+01 2.8956758614e+01 0.0000000000e+00 0.0000e+00 -1.0000e+00
</event>
<event>
 5      1 +2.4041262e-06 9.11880000e+01 7.81860800e-03 1.13011600e-01
       25 -1    0    0    0    0 +0.0000000000e+00 +0.0000000000e+00 +9.9999998245e-15 1.2500000000e+02 1.2500000000e+02 0.0000e+00 0.0000e+00
       23  2    1    0    0    0 +1.9336151126e+01 +5.9897041563e+00 -2.2012291425e+01 9.5095079501e+01 9.0270537139e+01 0.0000e+00 0.0000e+00
      -11  1    2    2    0    0 -2.0564024864e+01 -1.8375464313e+01 -3.6867185270e+01 4.6040483896e+01 5.1100000000e-04 0.0000e+00 1.0000e+00
       11  1    2    2    0    0 +3.9900175990e+01 +2.4365168470e+01 +1.4854893845e+01 4.9054595606e+01 5.1100000000e-04 0.0000e+00 -1.0000e+00
       22  1    1    0    0    0 -1.9336151126e+01 -5.9897041563e+00 +2.2012291425e+01 2.9904920499e+01 0.0000000000e+00 0.0000e+00 1.0000e+00
</event>
<event>
 5      1 +2.4041262e-06 9.11880000e+01 7.81860800e-03 1.13011600e-01
       25 -1    0    0    0    0 +0.0000000000e+00 +0.0000000000e+00 +9.9999998245e-15 1.2500000000e+02 1.2500000000e+02 0.0000e+00 0.0000e+00
       23  2    1    0    0    0 +4.8494773433e+00 +2.3928862406e+01 -1.2330747606e+01 9.7647573726e+01 9.3738430921e+01 0.0000e+00 0.0000e+00
      -13  1    2    2    0    0 +1.1715269810e+00 +2.3736107768e+01 -5.2332819848e+01 5.7476173191e+01 1.0566000000e-01 0.0000e+00 -1.0000e+00
       13  1    2    2    0    0 +3.6779503623e+00 +1.9275463875e-01 +4.0002072242e+01 4.0171400535e+01 1.0566000000e-01 0.0000e+00 1.0000e+00
       22  1    1    0    0    0 -4.8494773433e+00 -2.3928862406e+01 +1.2330747606e+01 2.7352426274e+01 0.0000000000e+00 0.0000e+00 -1.0000e+00
</event>
<event>
 4      1 +2.4041262e-06 9.11880000e+01 7.81860800e-03 1.13011600e-01
       25 -1    0    0    0    0 +0.0000000000e+00 +0.0000000000e+00 +9.9999998245e-15 1.2500000000e+02 1.2500000000e+02 0.0000e+00 0.0000e+00
      -11  1    1    0    0    0 +2.5836644596e+01 -3.2745045964e+01 -3.5835136568e+01 5.4990246883e+01 5.1100000000e-04 0.0000e+00 1.0000e+00
       11  1    1    0    0    0 +3.7882286908e+00 -4.3594302238e+00 -4.8041529840e+00 7.5123361642e+00 5.1100000000e-04 0.0000e+00 -1.0000e+00
       22  1    1    0    0    0 -2.9624873287e+01 +3.7104476188e+01 +4.0639289552e+01 6.2497416952e+01 0.0000000000e+00 0.0000e+00 1.0000e+00
</event>
<event>
 4      1 +2.4041262e-06 9.11880000e+01 7.81860800e-03 1.13011600e-01
       25 -1    0    0    0    0 +0.0000000000e+00 +0.0000000000e+00 +9.9999998245e-15 1.2500000000e+02 1.2500000000e+02 0.0000e+00 0.0000e+00
      -11  1    1    0    0    0 -8.6509634657e+00 +3.9126844238e+00 -6.0865029812e+00 1.1278022304e+01 5.1100000000e-04 0.0000e+00 -1.0000e+00
       11  1    1    0    0    0 -4.0887697166e+01 +2.3183889396e+01 -2.0538452089e+01 5.1294488218e+01 5.1100000000e-04 0.0000e+00 1.0000e+00
       22  1    1    0    0    0 +4.9538660632e+01 -2.7096573820e+01 +2.6624955070e+01 6.2427489478e+01 0.0000000000e+00 0.0000e+00 1.0000e+00
</event>
<event>
 4      1 +2.4041262e-06 9.11880000e+01 7.81860800e-03 1.13011600e-01
       25 -1    0    0    0    0 +0.0000000000e+00 +0.0000000000e+00 +9.9999998245e-15 1.2500000000e+02 1.2500000000e+02 0.0000e+00 0.0000e+00
      -11  1    1    0    0    0 -3.2253837421e+00 +2.1908045008e+01 +4.0642949269e+00 2.2514085144e+01 5.1100000000e-04 0.0000e+00 1.0000e+00
       11  1    1    0    0    0 -5.6104509243e+00 +3.8938583577e+01 +7.1544622063e+00 3.9985957288e+01 5.1100000000e-04 0.0000e+00 -1.0000e+00
       22  1    1    0    0    0 +8.8358346664e+00 -6.0846628585e+01 -1.1218757133e+01 6.2499957568e+01 0.0000000000e+00 0.0000e+00 -1.0000e+00
</event>
<event>
 4      1 +2.4041262e-06 9.11880000e+01 7.81860800e-03 1.13011600e-01
       25 -1    0    0    0    0 +0.0000000000e+00 +0.0000000000e+00 +9.9999998245e-15 1.2500000000e+02 1.2500000000e+02 0.0000e+00 0.0000e+00
      -11  1    1    0    0    0 -1.5428192459e+01 +2.2032734298e+01 +2.0525470646e+01 3.3834382641e+01 5.1100000000e-04 0.0000e+00 -1.0000e+00
       11  1    1    0    0    0 -1.3071157777e+01 +1.8668523844e+01 +1.7388176210e+01 2.8665617390e+01 5.1100000000e-04 0.0000e+00 1.0000e+00
       22  1    1    0    0    0 +2.8499350236e+01 -4.0701258142e+01 -3.7913646856e+01 6.2499999969e+01 0.0000000000e+00 0.0000e+00 -1.0000e+00
</event>
<event>
 4      1 +2.4041262e-06 9.11880000e+01 7.81860800e-03 1.13011600e-01
       25 -1    0    0    0    0 +0.0000000000e+00 +0.0000000000e+00 +9.9999998245e-15 1.2500000000e+02 1.2500000000e+02 0.0000e+00 0.0000e+00
      -13  1    1    0    0    0 +2.3970416719e+01 -5.6249490069e+01 +1.2947164690e+01 6.2499809986e+01 1.0566000000e-01 0.0000e+00 1.0000e+00
       13  1    1    0    0    0 -2.3970467012e+01 +5.6249650999e+01 -1.2947263513e+01 6.2499994582e+01 1.0566000000e-01 0.0000e+00 1.0000e+00
       22  1    1    0    0    0 +5.0293183558e-05 -1.6092922114e-04 +9.8823176270e-05 1.9543192855e-04 0.0000000000e+00 0.0000e+00 1.0000e+00
</event>
<event>
 4      1 +2.4041262e-06 9.11880000e+01 7.81860800e-03 1.13011600e-01
       25 -1    0    0    0    0 +0.0000000000e+00 +0.0000000000e+00 +9.9999998245e-15 1.2500000000e+02 1.2500000000e+02 0.0000e+00 0.0000e+00
      -13  1    1    0    0    0 +4.0092816359e+01 +1.7189686310e+01 -4.4758454726e+01 6.2499997380e+01 1.0566000000e-01 0.0000e+00 -1.0000e+00
       13  1    1    0    0    0 -4.0092818039e+01 -1.7189687031e+01 +4.4758456603e+01 6.2500000000e+01 1.0566000000e-01 0.0000e+00 -1.0000e+00
       22  1    1    0    0    0 +1.6794460226e-06 +7.2143838966e-07 -1.8770968369e-06 2.6200200052e-06 0.0000000000e+00 0.0000e+00 1.0000e+00
</event>
<event>
 4      1 +2.4041262e-06 9.11880000e+01 7.81860800e-03 1.13011600e-01
       25 -1    0    0    0    0 +0.0000000000e+00 +0.0000000000e+00 +9.9999998245e-15 1.2500000000e+02 1.2500000000e+02 0.0000e+00 0.0000e+00
      -11  1    1    0    0    0 -2.2065235392e+00 -1.0877842645e+01 -5.1824439424e-01 1.1111470841e+01 5.1100000000e-04 0.0000e+00 1.0000e+00
       11  1    1    0    0    0 -3.2517301025e+01 -3.9826639784e+01 -7.3279360588e+00 5.1934908776e+01 5.1100000000e-04 0.0000e+00 -1.0000e+00
       22  1    1    0    0    0 +3.4723824565e+01 +5.0704482429e+01 +7.8461804531e+00 6.1953620382e+01 0.0000000000e+00 0.0000e+00 -1.0000e+00
</event>
<event>
 4      1 +2.4041262e-06 9.11880000e+01 7.81860800e-03 1.13011600e-01
       25 -1    0    0    0    0 +0.0000000000e+00 +0.0000000000e+00 +9.9999998245e-15 1.2500000000e+02 1.2500000000e+02 0.0000e+00 0.0000e+00
      -13  1    1    0    0    0 -3.0531945656e+01 -4.6617304603e+01 +2.8299576710e+01 6.2500000000e+01 1.0566000000e-01 0.0000e+00 1.0000e+00
       13  1    1    0    0    0 +3.0531945324e+01 +4.6617304086e+01 -2.8299576377e+01 6.2499999301e+01 1.0566000000e-01 0.0000e+00 1.0000e+00
       22  1    1    0    0    0 +3.3174783156e-07 +5.1724344742e-07 -3.3286990802e-07 6.9885605335e-07 0.0000000000e+00 0.0000e+00 -1.0000e+00
</event>
<event>
 4      1 +2.4041262e-06 9.11880000e+01 7.81860800e-03 1.13011600e-01
       25 -1    0    0    0    0 +0.0000000000e+00 +0.0000000000e+00 +9.9999998245e-15 1.2500000000e+02 1.2500000000e+02 0.0000e+00 0.0000e+00
      -11  1    1    0    0    0 -2.2645727575e+01 +3.4401151698e+01 -6.6391998100e+00 4.1717468643e+01 5.1100000000e-04 0.0000e+00 -1.0000e+00
       11  1    1    0    0    0 -1.1282016729e+01 +1.7136056823e+01 -3.3144051826e+00 2.0782531773e+01 5.1100000000e-04 0.0000e+00 1.0000e+00
       22  1    1    0    0    0 +3.3927744304e+01 -5.1537208521e+01 +9.9536049927e+00 6.2499999585e+01 0.0000000000e+00 0.0000e+00 -1.0000e+00
</event>
<event>
 4      1 +2.4041262e-06 9.11880000e+01 7.81860800e-03 1.13011600e-01
       25 -1    0    0    0    0 +0.0000000000e+00 +0.0000000000e+00 +9.9999998245e-15 1.2500000000e+02 1.2500000000e+02 0.0000e+00 0.0000e+00
      -13  1    1    0    0    0 -4.8851807866e-02 -6.0300849284e+01 +1.6430609109e+01 6.2499367122e+01 1.0566000000e-01 0.0000e+00 1.0000e+00
       13  1    1    0    0    0 +4.8793971696e-02 +6.0301481407e+01 -1.6430676142e+01 6.2499994586e+01 1.0566000000e-01 0.0000e+00 1.0000e+00
       22  1    1    0    0    0 +5.7836170480e-05 -6.3212224575e-04 +6.7032681833e-05 6.3829220317e-04 0.0000000000e+00 0.0000e+00 1.0000e+00
</event>
<event>
 4      1 +2.4041262e-06 9.11880000e+01 7.81860800e-03 1.13011600e-01
       25 -1    0    0    0    0 +0.0000000000e+00 +0.0000000000e+00 +9.9999998245e-15 1.2500000000e+02 1.2500000000e+02 0.0000e+00 0.0000e+00
      -13  1    1    0    0    0 -1.4802832079e+01 -1.3893252568e+01 -5.9110842890e+01 6.2499993726e+01 1.0566000000e-01 0.0000e+00 -1.0000e+00
       13  1    1    0    0    0 +1.4802833565e+01 +1.3893253986e+01 +5.9110848819e+01 6.2500000000e+01 1.0566000000e-01 0.0000e+00 -1.0000e+00
       22  1    1    0    0    0 -1.4864249345e-06 -1.4176639388e-06 -5.9285178359e-06 6.2742771584e-06 0.0000000000e+00 0.0000e+00 1.0000e+00
</event>
<event>
 5      1 +2.4041262e-06 9.11880000e+01 7.81860800e-03 1.13011600e-01
       25 -1    0    0    0    0 +0.0000000000e+00 +0.0000000000e+00 +9.9999998245e-15 1.2500000000e+02 1.2500000000e+02 0.0000e+00 0.0000e+00
       23  2    1    0    0    0 +2.2094972122e+01 +1.1401647881e+01 +1.5434645073e+01 9.5735454284e+01 9.1152967976e+01 0.0000e+00 0.0000e+00
      -11  1    2    2    0    0 +9.5028622637e+00 +4.6686120747e+01 -1.2201519889e+01 4.9181046649e+01 5.1100000000e-04 0.0000e+00 -1.0000e+00
       11  1    2    2    0    0 +1.2592109858e+01 -3.5284472866e+01 +2.7636164962e+01 4.6554407634e+01 5.1100000000e-04 0.0000e+00 1.0000e+00
       22  1    1    0    0    0 -2.2094972122e+01 -1.1401647881e+01 -1.5434645073e+01 2.9264545716e+01 0.0000000000e+00 0.0000e+00 -1.0000e+00
</event>
<event>
 4      1 +2.4041262e-06 9.11880000e+01 7.81860800e-03 1.13011600e-01
       25 -1    0    0    0    0 +0.0000000000e+00 +0.0000000000e+00 +9.9999998245e-15 1.2500000000e+02 1.2500000000e+02 0.0000e+00 0.0000e+00
      -13  1    1    0    0    0 +1.0437982266e+00 -1.2251633487e+01 +6.1278436609e+01 6.2499999961e+01 1.0566000000e-01 0.0000e+00 -1.0000e+00
       13  1    1    0    0    0 -1.0437982270e+00 +1.2251633495e+01 -6.1278436647e+01 6.2500000000e+01 1.0566000000e-01 0.0000e+00 -1.0000e+00
       22  1    1    0    0    0 +3.9852106204e-10 -7.6659425173e-09 +3.8290239165e-08 3.9052117856e-08 0.0000000000e+00 0.0000e+00 -1.0000e+00
</event>
<event>
 4      1 +2.4041262e-06 9.11880000e+01 7.81860800e-03 1.13011600e-01
       25 -1    0    0    0    0 +0.0000000000e+00 +0.0000000000e+00 +9.9999998245e-15 1.2500000000e+02 1.2500000000e+02 0.0000e+00 0.0000e+00
      -13  1    1    0    0    0 -4.0817012545e+00 -5.0577892405e+01 -3.6488796724e+01 6.2499815485e+01 1.0566000000e-01 0.0000e+00 -1.0000e+00
       13  1    1    0    0    0 +4.0816863651e+00 +5.0578055407e+01 +3.6488885555e+01 6.2499998283e+01 1.0566000000e-01 0.0000e+00 -1.0000e+00
       22  1    1    0    0    0 +1.4889436408e-05 -1.6300232435e-04 -8.8831054664e-05 1.8623213829e-04 0.0000000000e+00 0.0000e+00 1.0000e+00
</event>
<event>
 4      1 +2.4041262e-06 9.11880000e+01 7.81860800e-03 1.13011600e-01
       25 -1    0    0    0    0 +0.0000000000e+00 +0.0000000000e+00 +9.9999998245e-15 1.2500000000e+02 1.2500000000e+02 0.0000e+00 0.0000e+00
      -13  1    1    0    0    0 -2.6931002141e+01 +3.2546151778e+01 +3.3282214857e-01 4.2245151279e+01 1.0566000000e-01 0.0000e+00 -1.0000e+00
       13  1    1    0    0    0 +3.9451798398e+01 -4.8293223477e+01 -3.1580010597e+00 6.2439282230e+01 1.0566000000e-01 0.0000e+00 -1.0000e+00
       22  1    1    0    0    0 -1.2520796256e+01 +1.5747071699e+01 +2.8251789111e+00 2.0315566491e+01 0.0000000000e+00 0.0000e+00 -1.0000e+00
</event>
<event>
 4      1 +2.4041262e-06 9.11880000e+01 7.81860800e-03 1.13011600e-01
       25 -1    0    0    0    0 +0.0000000000e+00 +0.0000000000e+00 +9.9999998245e-15 1.2500000000e+02 1.2500000000e+02 0.0000e+00 0.0000e+00
      -13  1    1    0    0    0 +3.2113664554e+01 -2.1934051410e+01 -4.8836845577e+01 6.2429469903e+01 1.0566000000e-01 0.0000e+00 1.0000e+00
       13  1    1    0    0    0 -3.1713698638e+01 +2.2128373319e+01 +4.8264955974e+01 6.1846105183e+01 1.0566000000e-01 0.0000e+00 1.0000e+00
       22  1    1    0    0    0 -3.9996591608e-01 -1.9432190965e-01 +5.7188960357e-01 7.2442491486e-01 0.0000000000e+00 0.0000e+00 -1.0000e+00
</event>
<event>
 4      1 +2.4041262e-06 9.11880000e+01 7.81860800e-03 1.13011600e-01
       25 -1    0    0    0    0 +0.0000000000e+00 +0.0000000000e+00 +9.9999998245e-15 1.2500000000e+02 1.2500000000e+02 0.0000e+00 0.0000e+00
      -13  1    1    0    0    0 +2.2245420257e-01 -2.8770003998e+01 +1.6978847480e+01 3.3407409982e+01 1.0566000000e-01 0.0000e+00 1.0000e+00
       13  1    1    0    0    0 -3.7453982727e-01 +5.2401706115e+01 -3.4001773339e+01 6.2467678348e+01 1.0566000000e-01 0.0000e+00 -1.0000e+00
       22  1    1    0    0    0 +1.5208562470e-01 -2.3631702118e+01 +1.7022925860e+01 2.9124911671e+01 0.0000000000e+00 0.0000e+00 -1.0000e+00
</event>
<event>
 5      1 +2.4041262e-06 9.11880000e+01 7.81860800e-03 1.13011600e-01
       25 -1    0    0    0    0 +0.0000000000e+00 +0.0000000000e+00 +9.9999998245e-15 1.2500000000e+02 1.2500000000e+02 0.0000e+00 0.0000e+00
       23  2    1    0    0    0 +2.9724728777e+01 -5.8808450494e+00 +2.9618187604e+00 9.4554701352e+01 8.9519133921e+01 0.0000e+00 0.0000e+00
      -11  1    2    2    0    0 +2.5464392234e+01 -2.7979418049e+01 +3.7540608038e+01 5.3297095214e+01 5.1100000000e-04 0.0000e+00 1.0000e+00
       11  1    2    2    0    0 +4.2603365439e+00 +2.2098573000e+01 -3.4578789277e+01 4.1257606138e+01 5.1100000000e-04 0.0000e+00 -1.0000e+00
       22  1    1    0    0    0 -2.9724728777e+01 +5.8808450494e+00 -2.9618187604e+00 3.0445298648e+01 0.0000000000e+00 0.0000e+00 1.0000e+00
</event>
<event>
 4      1 +2.4041262e-06 9.11880000e+01 7.81860800e-03 1.13011600e-01
       25 -1    0    0    0    0 +0.0000000000e+00 +0.0000000000e+00 +9.9999998245e-15 1.2500000000e+02 1.2500000000e+02 0.0000e+00 0.0000e+00
      -13  1    1    0    0    0 -4.9801879352e+01 +3.0662552142e+01 -2.2041314505e+01 6.2500000000e+01 1.0566000000e-01 0.0000e+00 -1.0000e+00
       13  1    1    0    0    0 +4.9801763126e+01 -3.0662480407e+01 +2.2041263241e+01 6.2499854116e+01 1.0566000000e-01 0.0000e+00 -1.0000e+00
       22  1    1    0    0    0 +1.1622591652e-04 -7.1734655241e-05 +5.1263937151e-05 1.4588459715e-04 0.0000000000e+00 0.0000e+00 1.0000e+00
</event>
<event>
 5      1 +2.4041262e-06 9.11880000e+01 7.81860800e-03 1.13011600e-01
       25 -1    0    0    0    0 +0.0000000000e+00 +0.0000000000e+00 +9.9999998245e-15 1.2500000000e+02 1.2500000000e+02 0.0000e+00 0.0000e+00
       23  2    1    0    0    0 +1.9207506727e+01 -4.0752669684e+00 +2.1766100429e+01 9.5686193638e+01 9.1085390758e+01 0.0000e+00 0.0000e+00
      -13  1    2    2    0    0 +5.4850220377e+01 -7.1492932629e+00 +3.2658714336e+00 5.5410614053e+01 1.0566000000e-01 0.0000e+00 1.0000e+00
       13  1    2    2    0    0 -3.5642713650e+01 +3.0740262945e+00 +1.8500228996e+01 4.0275579585e+01 1.0566000000e-01 0.0000e+00 -1.0000e+00
       22  1    1    0    0    0 -1.9207506727e+01 +4.0752669684e+00 -2.1766100429e+01 2.9313806362e+01 0.0000000000e+00 0.0000e+00 1.0000e+00
</event>
<event>
 4      1 +2.4041262e-06 9.11880000e+01 7.81860800e-03 1.13011600e-01
       25 -1    0    0    0    0 +0.0000000000e+00 +0.0000000000e+00 +9.9999998245e-15 1.2500000000e+02 1.2500000000e+02 0.0000e+00 0.0000e+00
      -13  1    1    0    0    0 +3.3990283427e+01 +5.0411146152e+01 +1.4454566121e+01 6.2494549119e+01 1.0566000000e-01 0.0000e+00 -1.0000e+00
       13  1    1    0    0    0 -3.3959042336e+01 -5.0346527781e+01 -1.4476273436e+01 6.2430465901e+01 1.0566000000e-01 0.0000e+00 -1.0000e+00
       22  1    1    0    0    0 -3.1241090364e-02 -6.4618371436e-02 +2.1707315378e-02 7.4984979797e-02 0.0000000000e+00 0.0000e+00 -1.0000e+00
</event>
<event>
 4      1 +2.4041262e-06 9.11880000e+01 7.81860800e-03 1.13011600e-01
       25 -1    0    0    0    0 +0.0000000000e+00 +0.0000000000e+00 +9.9999998245e-15 1.2500000000e+02 1.2500000000e+02 0.0000e+00 0.0000e+00
      -13  1    1    0    0    0 +4.1351112457e+01 -4.6764348705e+01 +3.0670629205e+00 6.2499894802e+01 1.0566000000e-01 0.0000e+00 -1.0000e+00
       13  1    1    0    0    0 -4.1351175139e+01 +4.6764433375e+01 -3.0670490912e+00 6.2499998947e+01 1.0566000000e-01 0.0000e+00 -1.0000e+00
       22  1    1    0    0    0 +6.2681725446e-05 -8.4670185187e-05 -1.3829347748e-05 1.0625106975e-04 0.0000000000e+00 0.0000e+00 1.0000e+00
</event>
<event>
 4      1 +2.4041262e-06 9.11880000e+01 7.81860800e-03 1.13011600e-01
       25 -1    0    0    0    0 +0.0000000000e+00 +0.0000000000e+00 +9.9999998245e-15 1.2500000000e+02 1.2500000000e+02 0.0000e+00 0.0000e+00
      -13  1    1    0    0    0 -5.9818707408e+01 -5.9475421376e-01 +1.8099926530e+01 6.2499999943e+01 1.0566000000e-01 0.0000e+00 1.0000e+00
       13  1    1    0    0    0 +5.9818707459e+01 +5.9475421597e-01 -1.8099926556e+01 6.2500000000e+01 1.0566000000e-01 0.0000e+00 1.0000e+00
       22  1    1    0    0    0 -5.0836403123e-08 -2.2083836166e-09 +2.5546678103e-08 5.6937242670e-08 0.0000000000e+00 0.0000e+00 1.0000e+00
</event>
<event>
 4      1 +2.4041262e-06 9.11880000e+01 7.81860800e-03 1.13011600e-01
       25 -1    0    0    0    0 +0.0000000000e+00 +0.0000000000e+00 +9.9999998245e-15 1.2500000000e+02 1.2500000000e+02 0.0000e+00 0.0000e+00
      -11  1    1    0    0    0 -7.8007369109e+00 +2.0043173532e+01 -1.3024604332e+00 2.1547081126e+01 5.1100000000e-04 0.0000e+00 1.0000e+00
       11  1    1    0    0    0 -1.4826140440e+01 +3.8094016407e+01 -2.4845628014e+00 4.0952919053e+01 5.1100000000e-04 0.0000e+00 -1.0000e+00
       22  1    1    0    0    0 +2.2626877351e+01 -5.8137189939e+01 +3.7870232346e+00 6.2499999821e+01 0.0000000000e+00 0.0000e+00 -1.0000e+00
</event>
<event>
 4      1 +2.4041262e-06 9.11880000e+01 7.81860800e-03 1.13011600e-01
       25 -1    0    0    0    0 +0.0000000000e+00 +0.0000000000e+00 +9.9999998245e-15 1.2500000000e+02 1.2500000000e+02 0.0000e+00 0.0000e+00
      -13  1    1    0    0    0 +3.3269363854e+01 +5.2178760266e+01 +8.7615775862e+00 6.2500000000e+01 1.0566000000e-01 0.0000e+00 1.0000e+00
       13  1    1    0    0    0 -3.3269363426e+01 -5.2178759602e+01 -8.7615774710e+00 6.2499999201e+01 1.0566000000e-01 0.0000e+00 1.0000e+00
       22  1    1    0    0    0 -4.2853341560e-07 -6.6417223062e-07 -1.1528534792e-07 7.9878429607e-07 0.0000000000e+00 0.0000e+00 -1.0000e+00
</event>
<event>
 4      1 +2.4041262e-06 9.11880000e+01 7.81860800e-03 1.13011600e-01
       25 -1    0    0    0    0 +0.0000000000e+00 +0.0000000000e+00 +9.9999998245e-15 1.2500000000e+02 1.2500000000e+02 0.0000e+00 0.0000e+00
      -13  1    1    0    0    0 -7.9227492347e+00 +5.9987805587e+01 +1.5646983008e+01 6.2499168121e+01 1.0566000000e-01 0.0000e+00 1.0000e+00
       13  1    1    0    0    0 +7.9245661695e+00 -5.9987134344e+01 -1.5647382343e+01 6.2498854181e+01 1.0566000000e-01 0.0000e+00 1.0000e+00
       22  1    1    0    0    0 -1.8169347499e-03 -6.7124326018e-04 +3.9933550793e-04 1.9776977139e-03 0.0000000000e+00 0.0000e+00 -1.0000e+00
</event>
<event>
 4      1 +2.4041262e-06 9.11880000e+01 7.81860800e-03 1.13011600e-01
       25 -1    0    0    0    0 +0.0000000000e+00 +0.0000000000e+00 +9.9999998245e-15 1.2500000000e+02 1.2500000000e+02 0.0000e+00 0.0000e+00
      -13  1    1    0    0    0 -2.3606112508e+01 +3.2859926808e+01 -4.7634381188e+01 6.2498550165e+01 1.0566000000e-01 0.0000e+00 -1.0000e+00
       13  1    1    0    0    0 +1.7831010111e+01 -2.4637365202e+01 +3.6166697809e+01 4.7254480001e+01 1.0566000000e-01 0.0000e+00 -1.0000e+00
       22  1    1    0    0    0 +5.7751023970e+00 -8.2225616058e+00 +1.1467683379e+01 1.5246969834e+01 0.0000000000e+00 0.0000e+00 1.0000e+00
</event>
<event>
 5      1 +2.4041262e-06 9.11880000e+01 7.81860800e-03 1.13011600e-01
       25 -1    0    0    0    0 +0.0000000000e+00 +0.0000000000e+00 +9.9999998245e-15 1.2500000000e+02 1.2500000000e+02 0.0000e+00 0.0000e+00
       23  2    1    0    0    0 +8.0506372171e+00 -2.2881876377e+01 +1.6266488718e+01 9.5793978680e+01 9.1233188423e+01 0.0000e+00 0.0000e+00
      -11  1    2    2    0    0 +3.1346409401e+01 +9.1672004869e+00 +3.8399582915e+01 5.0409948576e+01 5.1100000000e-04 0.0000e+00 1.0000e+00
       11  1    2    2    0    0 -2.3295772184e+01 -3.2049076864e+01 -2.2133094196e+01 4.5384030104e+01 5.1100000000e-04 0.0000e+00 -1.0000e+00
       22  1    1    0    0    0 -8.0506372171e+00 +2.2881876377e+01 -1.6266488718e+01 2.9206021320e+01 0.0000000000e+00 0.0000e+00 1.0000e+00
</event>
<event>
 4      1 +2.4041262e-06 9.11880000e+01 7.81860800e-03 1.13011600e-01
       25 -1    0    0    0    0 +0.0000000000e+00 +0.0000000000e+00 +9.9999998245e-15 1.2500000000e+02 1.2500000000e+02 0.0000e+00 0.0000e+00
      -13  1    1    0    0    0 -5.6937937733e+01 -2.3510811484e+01 +8.8710868620e+00 6.2236599811e+01 1.0566000000e-01 0.0000e+00 -1.0000e+00
       13  1    1    0    0    0 +7.9411637149e+00 +3.0519174934e+00 -4.1243488869e+00 9.4550356588e+00 1.0566000000e-01 0.0000e+00 1.0000e+00
       22  1    1    0    0    0 +4.8996774018e+01 +2.0458893991e+01 -4.7467379751e+00 5.3308364530e+01 0.0000000000e+00 0.0000e+00 -1.0000e+00
</event>
<event>
 4      1 +2.4041262e-06 9.11880000e+01 7.81860800e-03 1.13011600e-01
       25 -1    0    0    0    0 +0.0000000000e+00 +0.0000000000e+00 +9.9999998245e-15 1.2500000000e+02 1.2500000000e+02 0.0000e+00 0.0000e+00
      -13  1    1    0    0    0 -4.3025787884e+01 +2.0064958831e+01 +3.3326803931e+01 5.8004379319e+01 1.0566000000e-01 0.0000e+00 1.0000e+00
       13  1    1    0    0    0 +4.6015578241e+01 -2.2087112963e+01 -3.6037306015e+01 6.2481778054e+01 1.0566000000e-01 0.0000e+00 1.0000e+00
       22  1    1    0    0    0 -2.9897903574e+00 +2.0221541319e+00 +2.7105020840e+00 4.5138426271e+00 0.0000000000e+00 0.0000e+00 -1.0000e+00
</event>
<event>
 5      1 +2.4041262e-06 9.11880000e+01 7.81860800e-03 1.13011600e-01
       25 -1    0    0    0    0 +0.0000000000e+00 +0.0000000000e+00 +9.9999998245e-15 1.2500000000e+02 1.2500000000e+02 0.0000e+00 0.0000e+00
       23  2    1    0    0    0 -2.8712431940e+01 -5.0224118917e+00 -6.7063148622e+00 9.5090084785e+01 9.0263620558e+01 0.0000e+00 0.0000e+00
      -13  1    2    2    0    0 -6.0709684963e+01 +6.0099613722e+00 -4.1236964910e+00 6.1145740005e+01 1.0566000000e-01 0.0000e+00 -1.0000e+00
       13  1    2    2    0    0 +3.1997253023e+01 -1.1032373264e+01 -2.5826183712e+00 3.3944344780e+01 1.0566000000e-01 0.0000e+00 1.0000e+00
       22  1    1    0    0    0 +2.8712431940e+01 +5.0224118917e+00 +6.7063148622e+00 2.9909915215e+01 0.0000000000e+00 0.0000e+00 -1.0000e+00
</event>
<event>
 4      1 +2.4041262e-06 9.11880000e+01 7.81860800e-03 1.13011600e-01
       25 -1    0    0    0    0 +0.0000000000e+00 +0.0000000000e+00 +9.9999998245e-15 1.2500000000e+02 1.2500000000e+02 0.0000e+00 0.0000e+00
      -13  1    1    0    0    0 -1.5823167814e+01 +5.8097992505e+01 +1.6747819654e+01 6.2500000000e+01 1.0566000000e-01 0.0000e+00 1.0000e+00
       13  1    1    0    0    0 +1.5823167814e+01 -5.8097992505e+01 -1.6747819654e+01 6.2500000000e+01 1.0566000000e-01 0.0000e+00 1.0000e+00
       22  1    1    0    0    0 -7.9664511921e-11 +1.7591126789e-10 +4.9111051588e-11 1.9925637761e-10 0.0000000000e+00 0.0000e+00 -1.0000e+00
</event>
<event>
 4      1 +2.4041262e-06 9.11880000e+01 7.81860800e-03 1.13011600e-01
       25 -1    0    0    0    0 +0.0000000000e+00 +0.0000000000e+00 +9.9999998245e-15 1.2500000000e+02 1.2500000000e+02 0.0000e+00 0.0000e+00
      -13  1    1    0    0    0 -1.9494694064e+01 +5.9245425901e+01 -6.4038771519e-01 6.2373751268e+01 1.0566000000e-01 0.0000e+00 -1.0000e+00
       13  1    1    0    0    0 +1.9446259840e+01 -5.9352731544e+01 +7.5510577667e-01 6.2461869266e+01 1.0566000000e-01 0.0000e+00 -1.0000e+00
       22  1    1    0    0    0 +4.8434224311e-02 +1.0730564274e-01 -1.1471806148e-01 1.6437946550e-01 0.0000000000e+00 0.0000e+00 -1.0000e+00
</event>
<event>
 5      1 +2.4041262e-06 9.11880000e+01 7.81860800e-03 1.13011600e-01
       25 -1    0    0    0    0 +0.0000000000e+00 +0.0000000000e+00 +9.9999998245e-15 1.2500000000e+02 1.2500000000e+02 0.0000e+00 0.0000e+00
       23  2    1    0    0    0 +1.9496339254e+01 +1.7127753824e+01 -5.0753359728e+00 9.8557113800e+01 9.4943554020e+01 0.0000e+00 0.0000e+00
      -11  1    2    2    0    0 -3.6395695736e-01 -3.7853196179e+01 -1.1949866497e+01 3.9696300019e+01 5.1100000000e-04 0.0000e+00 -1.0000e+00
       11  1    2    2    0    0 +1.9860296211e+01 +5.4980950003e+01 +6.8745305240e+00 5.8860813781e+01 5.1100000000e-04 0.0000e+00 1.0000e+00
       22  1    1    0    0    0 -1.9496339254e+01 -1.7127753824e+01 +5.0753359728e+00 2.6442886200e+01 0.0000000000e+00 0.0000e+00 1.0000e+00
</event>
<event>
 4      1 +2.4041262e-06 9.11880000e+01 7.81860800e-03 1.13011600e-01
       25 -1    0    0    0    0 +0.0000000000e+00 +0.0000000000e+00 +9.9999998245e-15 1.2500000000e+02 1.2500000000e+02 0.0000e+00 0.0000e+00
      -13  1    1    0    0    0 -5.6615913455e+01 +1.9250889504e+00 -5.6121035839e+00 5.6926044079e+01 1.0566000000e-01 0.0000e+00 -1.0000e+00
       13  1    1    0    0    0 -5.2209347432e+00 -2.8549497071e+00 -2.2145533575e-01 5.9555943384e+00 1.0566000000e-01 0.0000e+00 1.0000e+00
       22  1    1    0    0    0 +6.1836848198e+01 +9.2986075669e-01 +5.8335589197e+00 6.2118361583e+01 0.0000000000e+00 0.0000e+00 -1.0000e+00
</event>
<event>
 4      1 +2.4041262e-06 9.11880000e+01 7.81860800e-03 1.13011600e-01
       25 -1    0    0    0    0 +0.0000000000e+00 +0.0000000000e+00 +9.9999998245e-15 1.2500000000e+02 1.2500000000e+02 0.0000e+00 0.0000e+00
      -13  1    1    0    0    0 -1.7599446756e+01 -4.8024157626e+01 -1.4627762523e+01 5.3198146981e+01 1.0566000000e-01 0.0000e+00 -1.0000e+00
       13  1    1    0    0    0 -2.9337724263e+00 -8.4460459964e+00 -2.5665091504e+00 9.3027333014e+00 1.0566000000e-01 0.0000e+00 1.0000e+00
       22  1    1    0    0    0 +2.0533219182e+01 +5.6470203622e+01 +1.7194271673e+01 6.2499119718e+01 0.0000000000e+00 0.0000e+00 -1.0000e+00
</event>
<event>
 4      1 +2.4041262e-06 9.11880000e+01 7.81860800e-03 1.13011600e-01
       25 -1    0    0    0    0 +0.0000000000e+00 +0.0000000000e+00 +9.9999998245e-15 1.2500000000e+02 1.2500000000e+02 0.0000e+00 0.0000e+00
      -13  1    1    0    0    0 +1.6855993910e+00 -3.7902721748e+01 +4.9666584205e+01 6.2499906495e+01 1.0566000000e-01 0.0000e+00 1.0000e+00
       13  1    1    0    0    0 -1.2852154451e+00 +2.9885713559e+01 -3.9095258076e+01 4.9226598722e+01 1.0566000000e-01 0.0000e+00 1.0000e+00
       22  1    1    0    0    0 -4.0038394589e-01 +8.0170081890e+00 -1.0571326129e+01 1.3273494782e+01 0.0000000000e+00 0.0000e+00 1.0000e+00
</event>
<event>
 4      1 +2.4041262e-06 9.11880000e+01 7.81860800e-03 1.13011600e-01
       25 -1    0    0    0    0 +0.0000000000e+00 +0.0000000000e+00 +9.9999998245e-15 1.2500000000e+02 1.2500000000e+02 0.0000e+00 0.0000e+00
      -13  1    1    0    0    0 +3.4596986226e+01 -2.5595901108e+01 +4.5322561586e+01 6.2499978898e+01 1.0566000000e-01 0.0000e+00 -1.0000e+00
       13  1    1    0    0    0 -3.4569273205e+01 +2.5575195228e+01 -4.5283087022e+01 6.2447533139e+01 1.0566000000e-01 0.0000e+00 -1.0000e+00
       22  1    1    0    0    0 -2.7713021644e-02 +2.0705879605e-02 -3.9474564302e-02 5.2487962865e-02 0.0000000000e+00 0.0000e+00 -1.0000e+00
</event>
<event>
 5      1 +2.4041262e-06 9.11880000e+01 7.81860800e-03 1.13011600e-01
       25 -1    0    0    0    0 +0.0000000000e+00 +0.0000000000e+00 +9.9999998245e-15 1.2500000000e+02 1.2500000000e+02 0.0000e+00 0.0000e+00
       23  2    1    0    0    0 -1.0740699428e+01 +1.0759152665e+01 -1.7304093031e+01 1.0196625029e+02 9.9330572189e+01 0.0000e+00 0.0000e+00
      -13  1    2    2    0    0 -4.9040565695e+01 +7.3463141748e+00 -3.3918626206e+01 6.0078530137e+01 1.0566000000e-01 0.0000e+00 1.0000e+00
       13  1    2    2    0    0 +3.8299866267e+01 +3.4128384903e+00 +1.6614533175e+01 4.1887720149e+01 1.0566000000e-01 0.0000e+00 -1.0000e+00
       22  1    1    0    0    0 +1.0740699428e+01 -1.0759152665e+01 +1.7304093031e+01 2.3033749714e+01 0.0000000000e+00 0.0000e+00 1.0000e+00
</event>
<event>
 4      1 +2.4041262e-06 9.11880000e+01 7.81860800e-03 1.13011600e-01
       25 -1    0    0    0    0 +0.0000000000e+00 +0.0000000000e+00 +9.9999998245e-15 1.2500000000e+02 1.2500000000e+02 0.0000e+00 0.0000e+00
      -13  1    1    0    0    0 -2.3689498397e+01 -4.0598086147e+01 -4.1192119652e+01 6.2499590547e+01 1.0566000000e-01 0.0000e+00 -1.0000e+00
       13  1    1    0    0    0 +2.3688546424e+01 +4.0598422001e+01 +4.1192042484e+01 6.2499397026e+01 1.0566000000e-01 0.0000e+00 -1.0000e+00
       22  1    1    0    0    0 +9.5197377132e-04 -3.3585372777e-04 +7.7167846666e-05 1.0124261278e-03 0.0000000000e+00 0.0000e+00 -1.0000e+00
</event>
<event>
 4      1 +2.4041262e-06 9.11880000e+01 7.81860800e-03 1.13011600e-01
       25 -1    0    0    0    0 +0.0000000000e+00 +0.0000000000e+00 +9.9999998245e-15 1.2500000000e+02 1.2500000000e+02 0.0000e+00 0.0000e+00
      -11  1    1    0    0    0 +4.2750283128e+00 -2.3513014878e+00 -9.6731912740e-01 4.9739513786e+00 5.1100000000e-04 0.0000e+00 1.0000e+00
       11  1    1    0    0    0 +5.1680203600e+01 -2.3953394899e+01 -8.1014684115e+00 5.7534705718e+01 5.1100000000e-04 0.0000e+00 -1.0000e+00
       22  1    1    0    0    0 -5.5955231913e+01 +2.6304696387e+01 +9.0687875389e+00 6.2491342903e+01 0.0000000000e+00 0.0000e+00 -1.0000e+00
</event>
<event>
 5      1 +2.4041262e-06 9.11880000e+01 7.81860800e-03 1.13011600e-01
       25 -1    0    0    0    0 +0.0000000000e+00 +0.0000000000e+00 +9.9999998245e-15 1.2500000000e+02 1.2500000000e+02 0.0000e+00 0.0000e+00
       23  2    1    0    0    0 +1.9860837677e+01 +1.7878540252e+01 +1.4322277277e+01 9.4681314324e+01 8.9695755646e+01 0.0000e+00 0.0000e+00
      -13  1    2    2    0    0 +3.5513110634e+01 +4.6706559040e+01 -5.1912156683e-01 5.8676778503e+01 1.0566000000e-01 0.0000e+00 1.0000e+00
       13  1    2    2    0    0 -1.5652272957e+01 -2.8828018788e+01 +1.4841398844e+01 3.6004535821e+01 1.0566000000e-01 0.0000e+00 -1.0000e+00
       22  1    1    0    0    0 -1.9860837677e+01 -1.7878540252e+01 -1.4322277277e+01 3.0318685676e+01 0.0000000000e+00 0.0000e+00 1.0000e+00
</event>
<event>
 5      1 +2.4041262e-06 9.11880000e+01 7.81860800e-03 1.13011600e-01
       25 -1    0    0    0    0 +0.0000000000e+00 +0.0000000000e+00 +9.9999998245e-15 1.2500000000e+02 1.2500000000e+02 0.0000e+00 0.0000e+00
       23  2    1    0    0    0 -3.9924031739e+00 +2.4258364655e+01 -1.5422479514e+01 9.5978276874e+01 9.1485349748e+01 0.0000e+00 0.0000e+00
      -11  1    2    2    0    0 -2.4189885677e+01 -2.6556630220e+01 -1.9983588145e+01 4.1106556327e+01 5.1100000000e-04 0.0000e+00 1.0000e+00
       11  1    2    2    0    0 +2.0197482503e+01 +5.0814994875e+01 +4.5611086307e+00 5.4871720547e+01 5.1100000000e-04 0.0000e+00 -1.0000e+00
       22  1    1    0    0    0 +3.9924031739e+00 -2.4258364655e+01 +1.5422479514e+01 2.9021723126e+01 0.0000000000e+00 0.0000e+00 1.0000e+00
</event>
<event>
 4      1 +2.4041262e-06 9.11880000e+01 7.81860800e-03 1.13011600e-01
       25 -1    0    0    0    0 +0.0000000000e+00 +0.0000000000e+00 +9.9999998245e-15 1.2500000000e+02 1.2500000000e+02 0.0000e+00 0.0000e+00
      -13  1    1    0    0    0 -3.6730512710e+01 -1.6671983006e+01 +4.6773441142e+01 6.1764484468e+01 1.0566000000e-01 0.0000e+00 1.0000e+00
       13  1    1    0    0    0 +3.7146554956e+01 +1.6889852848e+01 -4.7339903760e+01 6.2499690610e+01 1.0566000000e-01 0.0000e+00 1.0000e+00
       22  1    1    0    0    0 -4.1604224646e-01 -2.1786984243e-01 +5.6646261787e-01 7.3582492247e-01 0.0000000000e+00 0.0000e+00 -1.0000e+00
</event>
<event>
 4      1 +2.4041262e-06 9.11880000e+01 7.81860800e-03 1.13011600e-01
       25 -1    0    0    0    0 +0.0000000000e+00 +0.0000000000e+00 +9.9999998245e-15 1.2500000000e+02 1.2500000000e+02 0.0000e+00 0.0000e+00
      -13  1    1    0    0    0 -1.7041596516e+01 -5.8096381525e+01 -1.5512357548e+01 6.2499999671e+01 1.0566000000e-01 0.0000e+00 1.0000e+00
       13  1    1    0    0    0 +1.7041596809e+01 +5.8096381549e+01 +1.5512357912e+01 6.2499999863e+01 1.0566000000e-01 0.0000e+00 1.0000e+00
       22  1    1    0    0    0 -2.9221912364e-07 -2.3814586688e-08 -3.6303261411e-07 4.6663886430e-07 0.0000000000e+00 0.0000e+00 -1.0000e+00
</event>
<event>
 5      1 +2.4041262e-06 9.11880000e+01 7.81860800e-03 1.13011600e-01
       25 -1    0    0    0    0 +0.0000000000e+00 +0.0000000000e+00 +9.9999998245e-15 1.2500000000e+02 1.2500000000e+02 0.0000e+00 0.0000e+00
       23  2    1    0    0    0 +3.8771695661e+01 +4.9082006144e-01 -5.4064365625e+00 8.5850097765e+01 7.6403693897e+01 0.0000e+00 0.0000e+00
      -13  1    2    2    0    0 -1.1871234963e+01 +1.5347244682e+01 -2.3116947007e+01 3.0180598765e+01 1.0566000000e-01 0.0000e+00 -1.0000e+00
       13  1    2    2    0    0 +5.0642930623e+01 -1.4856424621e+01 +1.7710510444e+01 5.5669499000e+01 1.0566000000e-01 0.0000e+00 1.0000e+00
       22  1    1    0    0    0 -3.8771695661e+01 -4.9082006144e-01 +5.4064365625e+00 3.9149902235e+01 0.0000000000e+00 0.0000e+00 1.0000e+00
</event>
<event>
 4      1 +2.4041262e-06 9.11880000e+01 7.81860800e-03 1.13011600e-01
       25 -1    0    0    0    0 +0.0000000000e+00 +0.0000000000e+00 +9.9999998245e-15 1.2500000000e+02 1.2500000000e+02 0.0000e+00 0.0000e+00
      -11  1    1    0    0    0 -1.0813654206e+01 -6.4776894429e+00 +1.5376933833e+01 1.9883301340e+01 5.1100000000e-04 0.0000e+00 1.0000e+00
       11  1    1    0    0    0 -2.3173062435e+01 -1.4060293635e+01 +3.2886259995e+01 4.2616766377e+01 5.1100000000e-04 0.0000e+00 -1.0000e+00
       22  1    1    0    0    0 +3.3986716641e+01 +2.0537983078e+01 -4.8263193828e+01 6.2499932283e+01 0.0000000000e+00 0.0000e+00 -1.0000e+00
</event>
<event>
 5      1 +2.4041262e-06 9.11880000e+01 7.81860800e-03 1.13011600e-01
       25 -1    0    0    0    0 +0.0000000000e+00 +0.0000000000e+00 +9.9999998245e-15 1.2500000000e+02 1.2500000000e+02 0.0000e+00 0.0000e+00
       23  2    1    0    0    0 -1.6864710941e+01 -1.0380229156e+01 +2.0881095100e+01 9.6221748402e+01 9.1817411750e+01 0.0000e+00 0.0000e+00
      -13  1    2    2    0    0 -6.8899487442e+00 -4.5060464764e+01 +3.5000570177e+01 5.7471453394e+01 1.0566000000e-01 0.0000e+00 -1.0000e+00
       13  1    2    2    0    0 -9.9747621972e+00 +3.4680235608e+01 -1.4119475077e+01 3.8750295008e+01 1.0566000000e-01 0.0000e+00 1.0000e+00
       22  1    1    0    0    0 +1.6864710941e+01 +1.0380229156e+01 -2.0881095100e+01 2.8778251598e+01 0.0000000000e+00 0.0000e+00 -1.0000e+00
</event>
<event>
 5      1 +2.4041262e-06 9.11880000e+01 7.81860800e-03 1.13011600e-01
       25 -1    0    0    0    0 +0.0000000000e+00 +0.0000000000e+00 +9.9999998245e-15 1.2500000000e+02 1.2500000000e+02 0.0000e+00 0.0000e+00
       23  2    1    0    0    0 +2.1504442848e+01 +1.5237876694e+01 -1.2466109013e+01 9.5844591886e+01 9.1302508025e+01 0.0000e+00 0.0000e+00
      -11  1    2    2    0    0 -2.2882296544e+01 -2.5276395790e+01 +1.5670990500e+00 3.4131385541e+01 5.1100000000e-04 0.0000e+00 1.0000e+00
       11  1    2    2    0    0 +4.4386739392e+01 +4.0514272483e+01 -1.4033208063e+01 6.1713206346e+01 5.1100000000e-04 0.0000e+00 -1.0000e+00
       22  1    1    0    0    0 -2.1504442848e+01 -1.5237876694e+01 +1.2466109013e+01 2.9155408114e+01 0.0000000000e+00 0.0000e+00 -1.0000e+00
</event>
<event>
 4      1 +2.4041262e-06 9.11880000e+01 7.81860800e-03 1.13011600e-01
       25 -1    0    0    0    0 +0.0000000000e+00 +0.0000000000e+00 +9.9999998245e-15 1.2500000000e+02 1.2500000000e+02 0.0000e+00 0.0000e+00
      -13  1    1    0    0    0 +2.7235510420e+01 +4.4043598327e+01 -3.4994672978e+01 6.2499999059e+01 1.0566000000e-01 0.0000e+00 1.0000e+00
       13  1    1    0    0    0 -2.7235452679e+01 -4.4043540702e+01 +3.4994622050e+01 6.2499904773e+01 1.0566000000e-01 0.0000e+00 1.0000e+00
       22  1    1    0    0    0 -5.7740308832e-05 -5.7625588450e-05 +5.0927907089e-05 9.6168099849e-05 0.0000000000e+00 0.0000e+00 1.0000e+00
</event>
<event>
 4      1 +2.4041262e-06 9.11880000e+01 7.81860800e-03 1.13011600e-01
       25 -1    0    0    0    0 +0.0000000000e+00 +0.0000000000e+00 +9.9999998245e-15 1.2500000000e+02 1.2500000000e+02 0.0000e+00 0.0000e+00
      -13  1    1    0    0    0 +3.2187915910e+01 -4.2613677894e+01 -3.2469237157e+01 6.2499999999e+01 1.0566000000e-01 0.0000e+00 -1.0000e+00
       13  1    1    0    0    0 -3.2187915911e+01 +4.2613677894e+01 +3.2469237157e+01 6.2500000000e+01 1.0566000000e-01 0.0000e+00 -1.0000e+00
       22  1    1    0    0    0 +7.7287704919e-10 -6.3589425751e-10 -7.1626253520e-10 1.2307446767e-09 0.0000000000e+00 0.0000e+00 -1.0000e+00
</event>
<event>
 4      1 +2.4041262e-06 9.11880000e+01 7.81860800e-03 1.13011600e-01
       25 -1    0    0    0    0 +0.0000000000e+00 +0.0000000000e+00 +9.9999998245e-15 1.2500000000e+02 1.2500000000e+02 0.0000e+00 0.0000e+00
      -11  1    1    0    0    0 +2.5189483866e+01 +2.0368396978e+01 +2.6371383028e+01 4.1771180687e+01 5.1100000000e-04 0.0000e+00 -1.0000e+00
       11  1    1    0    0    0 -3.2388132031e+01 +5.6209392872e+00 +1.3131832291e+01 3.5398178972e+01 5.1100000000e-04 0.0000e+00 1.0000e+00
       22  1    1    0    0    0 +7.1986481651e+00 -2.5989336265e+01 -3.9503215319e+01 4.7830640341e+01 0.0000000000e+00 0.0000e+00 -1.0000e+00
</event>
<event>
 4      1 +2.4041262e-06 9.11880000e+01 7.81860800e-03 1.13011600e-01
       25 -1    0    0    0    0 +0.0000000000e+00 +0.0000000000e+00 +9.9999998245e-15 1.2500000000e+02 1.2500000000e+02 0.0000e+00 0.0000e+00
      -11  1    1    0    0    0 +7.0398049456e+00 +2.3486817099e+01 -1.1871825890e+01 2.7242057215e+01 5.1100000000e-04 0.0000e+00 -1.0000e+00
       11  1    1    0    0    0 +1.5178120049e+01 +2.7992976917e+01 -1.5441409823e+01 3.5389535494e+01 5.1100000000e-04 0.0000e+00 1.0000e+00
       22  1    1    0    0    0 -2.2217924994e+01 -5.1479794016e+01 +2.7313235712e+01 6.2368407291e+01 0.0000000000e+00 0.0000e+00 1.0000e+00
</event>
<event>
 4      1 +2.4041262e-06 9.11880000e+01 7.81860800e-03 1.13011600e-01
       25 -1    0    0    0    0 +0.0000000000e+00 +0.0000000000e+00 +9.9999998245e-15 1.2500000000e+02 1.2500000000e+02 0.0000e+00 0.0000e+00
      -11  1    1    0    0    0 +4.0272930678e+01 -7.4401418867e+00 -1.2979115647e+01 4.2961867975e+01 5.1100000000e-04 0.0000e+00 1.0000e+00
       11  1    1    0    0    0 +1.8315267666e+01 -3.3823587993e+00 -5.9033230424e+00 1.9538132048e+01 5.1100000000e-04 0.0000e+00 -1.0000e+00
       22  1    1    0    0    0 -5.8588198344e+01 +1.0822500686e+01 +1.8882438689e+01 6.2499999977e+01 0.0000000000e+00 0.0000e+00 1.0000e+00
</event>
<event>
 4      1 +2.4041262e-06 9.11880000e+01 7.81860800e-03 1.13011600e-01
       25 -1    0    0    0    0 +0.0000000000e+00 +0.0000000000e+00 +9.9999998245e-15 1.2500000000e+02 1.2500000000e+02 0.0000e+00 0.0000e+00
      -13  1    1    0    0    0 +5.2773813406e+01 +2.6363735239e+01 -2.0617449725e+01 6.2491697963e+01 1.0566000000e-01 0.0000e+00 1.0000e+00
       13  1    1    0    0    0 -5.2767713965e+01 -2.6364533817e+01 +2.0632652540e+01 6.2491901838e+01 1.0566000000e-01 0.0000e+00 1.0000e+00
       22  1    1    0    0    0 -6.0994411337e-03 +7.9857875276e-04 -1.5202815170e-02 1.6400198147e-02 0.0000000000e+00 0.0000e+00 -1.0000e+00
</event>
<event>
 4      1 +2.4041262e-06 9.11880000e+01 7.81860800e-03 1.13011600e-01
       25 -1    0    0    0    0 +0.0000000000e+00 +0.0000000000e+00 +9.9999998245e-15 1.2500000000e+02 1.2500000000e+02 0.0000e+00 0.0000e+00
      -13  1    1    0    0    0 -4.3808870660e+01 -3.1546262655e+00 -8.3863580257e+00 4.4715891810e+01 1.0566000000e-01 0.0000e+00 1.0000e+00
       13  1    1    0    0    0 -1.7421163499e+01 -1.2542136714e+00 -3.3468195847e+00 1.7784328915e+01 1.0566000000e-01 0.0000e+00 1.0000e+00
       22  1    1    0    0    0 +6.1230034159e+01 +4.4088399369e+00 +1.1733177610e+01 6.2499779275e+01 0.0000000000e+00 0.0000e+00 1.0000e+00
</event>
<event>
 4      1 +2.4041262e-06 9.11880000e+01 7.81860800e-03 1.13011600e-01
       25 -1    0    0    0    0 +0.0000000000e+00 +0.0000000000e+00 +9.9999998245e-15 1.2500000000e+02 1.2500000000e+02 0.0000e+00 0.0000e+00
      -13  1    1    0    0    0 +1.0258243780e+01 +6.1279915131e+00 +6.9663813291e+00 1.3832045340e+01 1.0566000000e-01 0.0000e+00 -1.0000e+00
       13  1    1    0    0    0 +3.6076887011e+01 +2.1587448632e+01 +2.4515796196e+01 4.8668214905e+01 1.0566000000e-01 0.0000e+00 -1.0000e+00
       22  1    1    0    0    0 -4.6335130791e+01 -2.7715440145e+01 -3.1482177525e+01 6.2499739756e+01 0.0000000000e+00 0.0000e+00 -1.0000e+00
</event>
<event>
 4      1 +2.4041262e-06 9.11880000e+01 7.81860800e-03 1.13011600e-01
       25 -1    0    0    0    0 +0.0000000000e+00 +0.0000000000e+00 +9.9999998245e-15 1.2500000000e+02 1.2500000000e+02 0.0000e+00 0.0000e+00
      -13  1    1    0    0    0 -5.7371618291e+01 +2.4305917443e+01 +4.8947508470e+00 6.2499999664e+01 1.0566000000e-01 0.0000e+00 1.0000e+00
       13  1    1    0    0    0 +5.7353295958e+01 -2.4298166018e+01 -4.8930274925e+00 6.2480031299e+01 1.0566000000e-01 0.0000e+00 1.0000e+00
       22  1    1    0    0    0 +1.8322333478e-02 -7.7514250849e-03 -1.7233545341e-03 1.9969037177e-02 0.0000000000e+00 0.0000e+00 -1.0000e+00
</event>
<event>
 5      1 +2.4041262e-06 9.11880000e+01 7.81860800e-03 1.13011600e-01
       25 -1    0    0    0    0 +0.0000000000e+00 +0.0000000000e+00 +9.9999998245e-15 1.2500000000e+02 1.2500000000e+02 0.0000e+00 0.0000e+00
       23  2    1    0    0    0 -2.3224638233e+01 -1.6214896253e+01 -1.1565911081e+01 9.4404624848e+01 8.9309328807e+01 0.0000e+00 0.0000e+00
      -13  1    2    2    0    0 -4.2939529174e+01 -3.0715812754e+01 -3.2672376657e+01 6.2086710972e+01 1.0566000000e-01 0.0000e+00 1.0000e+00
       13  1    2    2    0    0 +1.9714890941e+01 +1.4500916501e+01 +2.1106465576e+01 3.2317913876e+01 1.0566000000e-01 0.0000e+00 -1.0000e+00
       22  1    1    0    0    0 +2.3224638233e+01 +1.6214896253e+01 +1.1565911081e+01 3.0595375152e+01 0.0000000000e+00 0.0000e+00 1.0000e+00
</event>
<event>
 4      1 +2.4041262e-06 9.11880000e+01 7.81860800e-03 1.13011600e-01
       25 -1    0    0    0    0 +0.0000000000e+00 +0.0000000000e+00 +9.9999998245e-15 1.2500000000e+02 1.2500000000e+02 0.0000e+00 0.0000e+00
      -13  1    1    0    0    0 -3.8095506250e+01 +2.6678855331e+01 +2.9080193895e+01 5.4851597600e+01 1.0566000000e-01 0.0000e+00 1.0000e+00
       13  1    1    0    0    0 +3.5003445716e+01 -1.4617271561e+01 -3.8867834881e+01 5.4310455644e+01 1.0566000000e-01 0.0000e+00 -1.0000e+00
       22  1    1    0    0    0 +3.0920605341e+00 -1.2061583770e+01 +9.7876409858e+00 1.5837946756e+01 0.0000000000e+00 0.0000e+00 -1.0000e+00
</event>
<event>
 4      1 +2.4041262e-06 9.11880000e+01 7.81860800e-03 1.13011600e-01
       25 -1    0    0    0    0 +0.0000000000e+00 +0.0000000000e+00 +9.9999998245e-15 1.2500000000e+02 1.2500000000e+02 0.0000e+00 0.0000e+00
      -13  1    1    0    0    0 +3.6712787746e+01 +1.8195894944e+01 +4.7194485473e+01 6.2500000000e+01 1.0566000000e-01 0.0000e+00 -1.0000e+00
       13  1    1    0    0    0 -3.6712787538e+01 -1.8195894841e+01 -4.7194485215e+01 6.2499999653e+01 1.0566000000e-01 0.0000e+00 -1.0000e+00
       22  1    1    0    0    0 -2.0796199849e-07 -1.0237570524e-07 -2.5779447067e-07 3.4667992002e-07 0.0000000000e+00 0.0000e+00 1.0000e+00
</event>
<event>
 5      1 +2.4041262e-06 9.11880000e+01 7.81860800e-03 1.13011600e-01
       25 -1    0    0    0    0 +0.0000000000e+00 +0.0000000000e+00 +9.9999998245e-15 1.2500000000e+02 1.2500000000e+02 0.0000e+00 0.0000e+00
       23  2    1    0    0    0 -1.2877491063e+01 -1.8637457938e+01 -1.8894082800e+01 9.5501339364e+01 9.0831353844e+01 0.0000e+00 0.0000e+00
      -11  1    2    2    0    0 +7.4955061428e+00 -4.7887910101e+01 -3.1368202274e+01 5.7735592665e+01 5.1100000000e-04 0.0000e+00 1.0000e+00
       11  1    2    2    0    0 -2.0372997206e+01 +2.9250452163e+01 +1.2474119475e+01 3.7765746700e+01 5.1100000000e-04 0.0000e+00 -1.0000e+00
       22  1    1    0    0    0 +1.2877491063e+01 +1.8637457938e+01 +1.8894082800e+01 2.9498660636e+01 0.0000000000e+00 0.0000e+00 1.0000e+00
</event>
<event>
 4      1 +2.4041262e-06 9.11880000e+01 7.81860800e-03 1.13011600e-01
       25 -1    0    0    0    0 +0.0000000000e+00 +0.0000000000e+00 +9.9999998245e-15 1.2500000000e+02 1.2500000000e+02 0.0000e+00 0.0000e+00
      -11  1    1    0    0    0 -2.4377393902e+01 -3.0506502799e+01 -2.4094449656e+01 4.5885145211e+01 5.1100000000e-04 0.0000e+00 1.0000e+00
       11  1    1    0    0    0 -9.5541518046e+00 -1.1047489082e+01 -7.9461424706e+00 1.6627387412e+01 5.1100000000e-04 0.0000e+00 -1.0000e+00
       22  1    1    0    0    0 +3.3931545707e+01 +4.1553991882e+01 +3.2040592127e+01 6.2487467377e+01 0.0000000000e+00 0.0000e+00 1.0000e+00
</event>
<event>
 4      1 +2.4041262e-06 9.11880000e+01 7.81860800e-03 1.13011600e-01
       25 -1    0    0    0    0 +0.0000000000e+00 +0.0000000000e+00 +9.9999998245e-15 1.2500000000e+02 1.2500000000e+02 0.0000e+00 0.0000e+00
      -13  1    1    0    0    0 +4.1297863877e+01 -2.2864443705e+01 +4.0962696312e+01 6.2499999999e+01 1.0566000000e-01 0.0000e+00 -1.0000e+00
       13  1    1    0    0    0 -4.1297863854e+01 +2.2864443703e+01 -4.0962696293e+01 6.2499999970e+01 1.0566000000e-01 0.0000e+00 -1.0000e+00
       22  1    1    0    0    0 -2.3399615328e-08 +2.8499831736e-09 -1.8957499799e-08 3.0249813226e-08 0.0000000000e+00 0.0000e+00 -1.0000e+00
</event>
<event>
 4      1 +2.4041262e-06 9.11880000e+01 7.81860800e-03 1.13011600e-01
       25 -1    0    0    0    0 +0.0000000000e+00 +0.0000000000e+00 +9.9999998245e-15 1.2500000000e+02 1.2500000000e+02 0.0000e+00 0.0000e+00
      -13  1    1    0    0    0 +3.1714023679e+01 +4.0514967660e+01 -3.5482344913e+01 6.2499998935e+01 1.0566000000e-01 0.0000e+00 -1.0000e+00
       13  1    1    0    0    0 -3.1714024217e+01 -4.0514968348e+01 +3.5482345521e+01 6.2500000000e+01 1.0566000000e-01 0.0000e+00 -1.0000e+00
       22  1    1    0    0    0 +5.3764685574e-07 +6.8852978813e-07 -6.0860386169e-07 1.0646765101e-06 0.0000000000e+00 0.0000e+00 1.0000e+00
</event>
<event>
 4      1 +2.4041262e-06 9.11880000e+01 7.81860800e-03 1.13011600e-01
       25 -1    0    0    0    0 +0.0000000000e+00 +0.0000000000e+00 +9.9999998245e-15 1.2500000000e+02 1.2500000000e+02 0.0000e+00 0.0000e+00
      -13  1    1    0    0    0 -2.7642038477e+01 +1.9386490272e+01 +4.3655593430e+01 5.5188226082e+01 1.0566000000e-01 0.0000e+00 1.0000e+00
       13  1    1    0    0    0 -3.8048108381e+00 +2.5142553357e+00 +5.7158937862e+00 7.3130480114e+00 1.0566000000e-01 0.0000e+00 1.0000e+00
       22  1    1    0    0    0 +3.1446849315e+01 -2.1900745608e+01 -4.9371487217e+01 6.2498725907e+01 0.0000000000e+00 0.0000e+00 1.0000e+00
</event>
<event>
 4      1 +2.4041262e-06 9.11880000e+01 7.81860800e-03 1.13011600e-01
       25 -1    0    0    0    0 +0.0000000000e+00 +0.0000000000e+00 +9.9999998245e-15 1.2500000000e+02 1.2500000000e+02 0.0000e+00 0.0000e+00
      -13  1    1    0    0    0 +2.2046024345e+01 +1.9349573340e+01 +4.8410593912e+01 5.6604151303e+01 1.0566000000e-01 0.0000e+00 -1.0000e+00
       13  1    1    0    0    0 -9.5066854444e+00 +8.4776641693e+00 -2.0676977247e+00 1.2904820643e+01 1.0566000000e-01 0.0000e+00 1.0000e+00
       22  1    1    0    0    0 -1.2539338901e+01 -2.7827237509e+01 -4.6342896187e+01 5.5491028054e+01 0.0000000000e+00 0.0000e+00 -1.0000e+00
</event>
<event>
 4      1 +2.4041262e-06 9.11880000e+01 7.81860800e-03 1.13011600e-01
       25 -1    0    0    0    0 +0.0000000000e+00 +0.0000000000e+00 +9.9999998245e-15 1.2500000000e+02 1.2500000000e+02 0.0000e+00 0.0000e+00
      -13  1    1    0    0    0 +4.9222088490e+00 +1.1406760297e+01 -1.0855329396e+01 1.6498232050e+01 1.0566000000e-01 0.0000e+00 1.0000e+00
       13  1    1    0    0    0 -2.3311475688e+01 -3.5009305983e+01 +4.6010079915e+01 6.2337909990e+01 1.0566000000e-01 0.0000e+00 1.0000e+00
       22  1    1    0    0    0 +1.8389266839e+01 +2.3602545686e+01 -3.5154750519e+01 4.6163857960e+01 0.0000000000e+00 0.0000e+00 1.0000e+00
</event>
<event>
 4      1 +2.4041262e-06 9.11880000e+01 7.81860800e-03 1.13011600e-01
       25 -1    0    0    0    0 +0.0000000000e+00 +0.0000000000e+00 +9.9999998245e-15 1.2500000000e+02 1.2500000000e+02 0.0000e+00 0.0000e+00
      -11  1    1    0    0    0 +9.9553486204e-01 -3.1833713886e+00 +1.8909457508e+00 3.8341386455e+00 5.1100000000e-04 0.0000e+00 -1.0000e+00
       11  1    1    0    0    0 +1.3100957665e+01 -4.5378683354e+01 +3.4819039950e+01 5.8679004235e+01 5.1100000000e-04 0.0000e+00 1.0000e+00
       22  1    1    0    0    0 -1.4096492528e+01 +4.8562054743e+01 -3.6709985701e+01 6.2486857119e+01 0.0000000000e+00 0.0000e+00 1.0000e+00
</event>
<event>
 4      1 +2.4041262e-06 9.11880000e+01 7.81860800e-03 1.13011600e-01
       25 -1    0    0    0    0 +0.0000000000e+00 +0.0000000000e+00 +9.9999998245e-15 1.2500000000e+02 1.2500000000e+02 0.0000e+00 0.0000e+00
      -13  1    1    0    0    0 +3.5204673915e+01 -8.4970581505e+00 +5.0929375440e+01 6.2493051689e+01 1.0566000000e-01 0.0000e+00 1.0000e+00
       13  1    1    0    0    0 -3.5208494838e+01 +8.5072938551e+00 -5.0928640733e+01 6.2495998019e+01 1.0566000000e-01 0.0000e+00 1.0000e+00
       22  1    1    0    0    0 +3.8209226015e-03 -1.0235704659e-02 -7.3470692851e-04 1.0950291944e-02 0.0000000000e+00 0.0000e+00 -1.0000e+00
</event>
<event>
 4      1 +2.4041262e-06 9.11880000e+01 7.81860800e-03 1.13011600e-01
       25 -1    0    0    0    0 +0.0000000000e+00 +0.0000000000e+00 +9.9999998245e-15 1.2500000000e+02 1.2500000000e+02 0.0000e+00 0.0000e+00
      -13  1    1    0    0    0 -2.2618495476e+01 -4.8259669844e+01 -3.2644245080e+01 6.2499999775e+01 1.0566000000e-01 0.0000e+00 1.0000e+00
       13  1    1    0    0    0 +2.2618495557e+01 +4.8259670017e+01 +3.2644245199e+01 6.2500000000e+01 1.0566000000e-01 0.0000e+00 1.0000e+00
       22  1    1    0    0    0 -8.0350425666e-08 -1.7250103482e-07 -1.1918558766e-07 2.2453953377e-07 0.0000000000e+00 0.0000e+00 1.0000e+00
</event>
<event>
 4      1 +2.4041262e-06 9.11880000e+01 7.81860800e-03 1.13011600e-01
       25 -1    0    0    0    0 +0.0000000000e+00 +0.0000000000e+00 +9.9999998245e-15 1.2500000000e+02 1.2500000000e+02 0.0000e+00 0.0000e+00
      -13  1    1    0    0    0 -4.2006653600e+01 +1.3647833426e+01 -2.7959199131e+01 5.2273801124e+01 1.0566000000e-01 0.0000e+00 -1.0000e+00
       13  1    1    0    0    0 -1.1426897588e+01 -7.0396368628e-01 +9.9855652575e-01 1.1492512020e+01 1.0566000000e-01 0.0000e+00 1.0000e+00
       22  1    1    0    0    0 +5.3433551188e+01 -1.2943869740e+01 +2.6960642605e+01 6.1233686856e+01 0.0000000000e+00 0.0000e+00 -1.0000e+00
</event>
<event>
 5      1 +2.4041262e-06 9.11880000e+01 7.81860800e-03 1.13011600e-01
       25 -1    0    0    0    0 +0.0000000000e+00 +0.0000000000e+00 +9.9999998245e-15 1.2500000000e+02 1.2500000000e+02 0.0000e+00 0.0000e+00
       23  2    1    0    0    0 -2.4250491357e+01 -3.6633495474e+00 +1.4654390939e+01 9.6429777132e+01 9.2100186117e+01 0.0000e+00 0.0000e+00
      -13  1    2    2    0    0 -1.1659408761e+01 -3.4249441126e+01 -2.5606178613e+01 4.4324412881e+01 1.0566000000e-01 0.0000e+00 1.0000e+00
       13  1    2    2    0    0 -1.2591082596e+01 +3.0586091578e+01 +4.0260569552e+01 5.2105364250e+01 1.0566000000e-01 0.0000e+00 -1.0000e+00
       22  1    1    0    0    0 +2.4250491357e+01 +3.6633495474e+00 -1.4654390939e+01 2.8570222868e+01 0.0000000000e+00 0.0000e+00 1.0000e+00
</event>
<event>
 4      1 +2.4041262e-06 9.11880000e+01 7.81860800e-03 1.13011600e-01
       25 -1    0    0    0    0 +0.0000000000e+00 +0.0000000000e+00 +9.9999998245e-15 1.2500000000e+02 1.2500000000e+02 0.0000e+00 0.0000e+00
      -13  1    1    0    0    0 -5.6211308655e+01 -1.1597486719e+01 -2.4736152657e+01 6.2498810638e+01 1.0566000000e-01 0.0000e+00 1.0000e+00
       13  1    1    0    0    0 +5.6179860804e+01 +1.1603892329e+01 +2.4722307015e+01 6.2466236523e+01 1.0566000000e-01 0.0000e+00 1.0000e+00
       22  1    1    0    0    0 +3.1447850979e-02 -6.4056105731e-03 +1.3845641693e-02 3.4952839254e-02 0.0000000000e+00 0.0000e+00 1.0000e+00
</event>
<event>
 5      1 +2.4041262e-06 9.11880000e+01 7.81860800e-03 1.13011600e-01
       25 -1    0    0    0    0 +0.0000000000e+00 +0.0000000000e+00 +9.9999998245e-15 1.2500000000e+02 1.2500000000e+02 0.0000e+00 0.0000e+00
       23  2    1    0    0    0 +2.5380895379e+01 -3.6196549567e+00 -2.1109713717e+01 9.1789884591e+01 8.5571438856e+01 0.0000e+00 0.0000e+00
      -13  1    2    2    0    0 +2.1311091553e+01 -4.3910758701e+01 -1.2599302041e+01 5.0409036182e+01 1.0566000000e-01 0.0000e+00 1.0000e+00
       13  1    2    2    0    0 +4.0698038258e+00 +4.0291103744e+01 -8.5104116760e+00 4.1380848409e+01 1.0566000000e-01 0.0000e+00 -1.0000e+00
       22  1    1    0    0    0 -2.5380895379e+01 +3.6196549567e+00 +2.1109713717e+01 3.3210115409e+01 0.0000000000e+00 0.0000e+00 1.0000e+00
</event>
<event>
 4      1 +2.4041262e-06 9.11880000e+01 7.81860800e-03 1.13011600e-01
       25 -1    0    0    0    0 +0.0000000000e+00 +0.0000000000e+00 +9.9999998245e-15 1.2500000000e+02 1.2500000000e+02 0.0000e+00 0.0000e+00
      -13  1    1    0    0    0 -1.2460815329e+01 -3.9936856346e+01 -3.2499479986e+01 5.2975954704e+01 1.0566000000e-01 0.0000e+00 -1.0000e+00
       13  1    1    0    0    0 +1.4546687520e+01 +4.6928773846e+01 +3.8625564200e+01 6.2496890373e+01 1.0566000000e-01 0.0000e+00 -1.0000e+00
       22  1    1    0    0    0 -2.0858721916e+00 -6.9919174998e+00 -6.1260842142e+00 9.5271549228e+00 0.0000000000e+00 0.0000e+00 -1.0000e+00
</event>
<event>
 5      1 +2.4041262e-06 9.11880000e+01 7.81860800e-03 1.13011600e-01
       25 -1    0    0    0    0 +0.0000000000e+00 +0.0000000000e+00 +9.9999998245e-15 1.2500000000e+02 1.2500000000e+02 0.0000e+00 0.0000e+00
       23  2    1    0    0    0 +4.8984427043e+00 -9.2330603065e-01 -2.3768758898e+01 1.0071417832e+02 9.7742235400e+01 0.0000e+00 0.0000e+00
      -13  1    2    2    0    0 +3.7053780519e+01 +1.1557792500e+01 +2.1053104685e+01 4.4156648413e+01 1.0566000000e-01 0.0000e+00 -1.0000e+00
       13  1    2    2    0    0 -3.2155337814e+01 -1.2481098530e+01 -4.4821863583e+01 5.6557529910e+01 1.0566000000e-01 0.0000e+00 1.0000e+00
       22  1    1    0    0    0 -4.8984427043e+00 +9.2330603065e-01 +2.3768758898e+01 2.4285821676e+01 0.0000000000e+00 0.0000e+00 1.0000e+00
</event>
<event>
 4      1 +2.4041262e-06 9.11880000e+01 7.81860800e-03 1.13011600e-01
       25 -1    0    0    0    0 +0.0000000000e+00 +0.0000000000e+00 +9.9999998245e-15 1.2500000000e+02 1.2500000000e+02 0.0000e+00 0.0000e+00
      -13  1    1    0    0    0 -2.2014430429e+01 -1.6999025956e+01 +5.0858690601e+01 5.7967401221e+01 1.0566000000e-01 0.0000e+00 -1.0000e+00
       13  1    1    0    0    0 -1.8454884655e+00 +2.1722681438e+00 +4.2840991915e+00 5.1467704906e+00 1.0566000000e-01 0.0000e+00 1.0000e+00
       22  1    1    0    0    0 +2.3859918895e+01 +1.4826757812e+01 -5.5142789793e+01 6.1885828289e+01 0.0000000000e+00 0.0000e+00 -1.0000e+00
</event>
<event>
 5      1 +2.4041262e-06 9.11880000e+01 7.81860800e-03 1.13011600e-01
       25 -1    0    0    0    0 +0.0000000000e+00 +0.0000000000e+00 +9.9999998245e-15 1.2500000000e+02 1.2500000000e+02 0.0000e+00 0.0000e+00
       23  2    1    0    0    0 -4.8170856897e-01 -2.8258453875e+01 +3.6659347669e+00 9.6500678319e+01 9.2196364243e+01 0.0000e+00 0.0000e+00
      -11  1    2    2    0    0 -4.1702765148e+01 -3.3217246155e+01 -6.6273580790e+00 5.3725486861e+01 5.1100000000e-04 0.0000e+00 -1.0000e+00
       11  1    2    2    0    0 +4.1221056579e+01 +4.9587922797e+00 +1.0293292846e+01 4.2775191458e+01 5.1100000000e-04 0.0000e+00 1.0000e+00
       22  1    1    0    0    0 +4.8170856897e-01 +2.8258453875e+01 -3.6659347669e+00 2.8499321681e+01 0.0000000000e+00 0.0000e+00 -1.0000e+00
</event>
<event>
 4      1 +2.4041262e-06 9.11880000e+01 7.81860800e-03 1.13011600e-01
       25 -1    0    0    0    0 +0.0000000000e+00 +0.0000000000e+00 +9.9999998245e-15 1.2500000000e+02 1.2500000000e+02 0.0000e+00 0.0000e+00
      -11  1    1    0    0    0 -1.1227157531e+01 +1.3643583553e+01 +1.3183675614e+01 2.2045537901e+01 5.1100000000e-04 0.0000e+00 1.0000e+00
       11  1    1    0    0    0 -2.0600023608e+01 +2.5038357085e+01 +2.4192627123e+01 4.0454462122e+01 5.1100000000e-04 0.0000e+00 1.0000e+00
       22  1    1    0    0    0 +3.1827181139e+01 -3.8681940638e+01 -3.7376302737e+01 6.2499999977e+01 0.0000000000e+00 0.0000e+00 1.0000e+00
</event>
<event>
 5      1 +2.4041262e-06 9.11880000e+01 7.81860800e-03 1.13011600e-01
       25 -1    0    0    0    0 +0.0000000000e+00 +0.0000000000e+00 +9.9999998245e-15 1.2500000000e+02 1.2500000000e+02 0.0000e+00 0.0000e+00
       23  2    1    0    0    0 +9.6817221147e+00 -9.7401204693e+00 +2.4867678675e+01 9.6592129038e+01 9.2320270036e+01 0.0000e+00 0.0000e+00
      -13  1    2    2    0    0 -3.6624955565e+01 -3.3932769641e+00 -1.0188108530e+01 3.8166875929e+01 1.0566000000e-01 0.0000e+00 -1.0000e+00
       13  1    2    2    0    0 +4.6306677680e+01 -6.3468435052e+00 +3.5055787206e+01 5.8425253109e+01 1.0566000000e-01 0.0000e+00 1.0000e+00
       22  1    1    0    0    0 -9.6817221147e+00 +9.7401204693e+00 -2.4867678675e+01 2.8407870962e+01 0.0000000000e+00 0.0000e+00 1.0000e+00
</event>
<event>
 4      1 +2.4041262e-06 9.11880000e+01 7.81860800e-03 1.13011600e-01
       25 -1    0    0    0    0 +0.0000000000e+00 +0.0000000000e+00 +9.9999998245e-15 1.2500000000e+02 1.2500000000e+02 0.0000e+00 0.0000e+00
      -13  1    1    0    0    0 +4.3325366893e+01 +2.9106430158e+01 +3.4379749024e+01 6.2500000000e+01 1.0566000000e-01 0.0000e+00 -1.0000e+00
       13  1    1    0    0    0 -4.3325366890e+01 -2.9106430155e+01 -3.4379749020e+01 6.2499999994e+01 1.0566000000e-01 0.0000e+00 -1.0000e+00
       22  1    1    0    0    0 -3.8129297693e-09 -2.6736848698e-09 -4.1934853279e-09 6.2667649871e-09 0.0000000000e+00 0.0000e+00 -1.0000e+00
</event>
<event>
 4      1 +2.4041262e-06 9.11880000e+01 7.81860800e-03 1.13011600e-01
       25 -1    0    0    0    0 +0.0000000000e+00 +0.0000000000e+00 +9.9999998245e-15 1.2500000000e+02 1.2500000000e+02 0.0000e+00 0.0000e+00
      -13  1    1    0    0    0 -1.1701423070e+00 +4.2511745578e+01 -4.5799660790e+01 6.2499902701e+01 1.0566000000e-01 0.0000e+00 -1.0000e+00
       13  1    1    0    0    0 +1.1701436772e+00 -4.2511811917e+01 +4.5799731955e+01 6.2499999999e+01 1.0566000000e-01 0.0000e+00 -1.0000e+00
       22  1    1    0    0    0 -1.3701919320e-06 +6.6339647389e-05 -7.1164838439e-05 9.7299848261e-05 0.0000000000e+00 0.0000e+00 1.0000e+00
</event>
<event>
 4      1 +2.4041262e-06 9.11880000e+01 7.81860800e-03 1.13011600e-01
       25 -1    0    0    0    0 +0.0000000000e+00 +0.0000000000e+00 +9.9999998245e-15 1.2500000000e+02 1.2500000000e+02 0.0000e+00 0.0000e+00
      -11  1    1    0    0    0 +2.7062831889e+00 +1.4853782760e+01 +1.0164739576e+01 1.8201119797e+01 5.1100000000e-04 0.0000e+00 1.0000e+00
       11  1    1    0    0    0 +6.5852694876e+00 +3.6167198634e+01 +2.4717582007e+01 4.4298881383e+01 5.1100000000e-04 0.0000e+00 -1.0000e+00
       22  1    1    0    0    0 -9.2915526765e+00 -5.1020981393e+01 -3.4882321583e+01 6.2499998820e+01 0.0000000000e+00 0.0000e+00 -1.0000e+00
</event>
<event>
 5      1 +2.4041262e-06 9.11880000e+01 7.81860800e-03 1.13011600e-01
       25 -1    0    0    0    0 +0.0000000000e+00 +0.0000000000e+00 +9.9999998245e-15 1.2500000000e+02 1.2500000000e+02 0.0000e+00 0.0000e+00
       23  2    1    0    0    0 +2.2480260626e+01 +1.4680165315e+01 -1.2445685337e+01 9.5406682258e+01 9.0700995389e+01 0.0000e+00 0.0000e+00
      -13  1    2    2    0    0 -6.1112024112e+00 +1.8937452628e+01 +3.4760242451e+01 4.0053208688e+01 1.0566000000e-01 0.0000e+00 1.0000e+00
       13  1    2    2    0    0 +2.8591463037e+01 -4.2572873126e+00 -4.7205927788e+01 5.5353473570e+01 1.0566000000e-01 0.0000e+00 -1.0000e+00
       22  1    1    0    0    0 -2.2480260626e+01 -1.4680165315e+01 +1.2445685337e+01 2.9593317742e+01 0.0000000000e+00 0.0000e+00 -1.0000e+00
</event>
<event>
 4      1 +2.4041262e-06 9.11880000e+01 7.81860800e-03 1.13011600e-01
       25 -1    0    0    0    0 +0.0000000000e+00 +0.0000000000e+00 +9.9999998245e-15 1.2500000000e+02 1.2500000000e+02 0.0000e+00 0.0000e+00
      -13  1    1    0    0    0 +3.8483387611e+00 -2.7331504001e+01 +5.6075110418e+01 6.2499999957e+01 1.0566000000e-01 0.0000e+00 -1.0000e+00
       13  1    1    0    0    0 -3.8483387589e+00 +2.7331504025e+01 -5.6075110454e+01 6.2500000000e+01 1.0566000000e-01 0.0000e+00 -1.0000e+00
       22  1    1    0    0    0 -2.1514451600e-09 -2.3731650644e-08 +3.5965559744e-08 4.3143266523e-08 0.0000000000e+00 0.0000e+00 -1.0000e+00
</event>
<event>
 4      1 +2.4041262e-06 9.11880000e+01 7.81860800e-03 1.13011600e-01
       25 -1    0    0    0    0 +0.0000000000e+00 +0.0000000000e+00 +9.9999998245e-15 1.2500000000e+02 1.2500000000e+02 0.0000e+00 0.0000e+00
      -13  1    1    0    0    0 +4.8878045602e+00 +4.2536592097e+01 +4.4685651999e+01 6.1887567081e+01 1.0566000000e-01 0.0000e+00 -1.0000e+00
       13  1    1    0    0    0 -5.6701316485e+00 -4.2841435788e+01 -4.4821738642e+01 6.2261853749e+01 1.0566000000e-01 0.0000e+00 -1.0000e+00
       22  1    1    0    0    0 +7.8232708836e-01 +3.0484369153e-01 +1.3608664384e-01 8.5057916979e-01 0.0000000000e+00 0.0000e+00 1.0000e+00
</event>
<event>
 4      1 +2.4041262e-06 9.11880000e+01 7.81860800e-03 1.13011600e-01
       25 -1    0    0    0    0 +0.0000000000e+00 +0.0000000000e+00 +9.9999998245e-15 1.2500000000e+02 1.2500000000e+02 0.0000e+00 0.0000e+00
      -13  1    1    0    0    0 -1.5149848835e+00 +3.1947975351e-01 +6.2480729742e+01 6.2499999997e+01 1.0566000000e-01 0.0000e+00 -1.0000e+00
       13  1    1    0    0    0 +1.5149848862e+00 -3.1947975499e-01 -6.2480729744e+01 6.2499999999e+01 1.0566000000e-01 0.0000e+00 -1.0000e+00
       22  1    1    0    0    0 -2.7130930090e-09 +1.4866147791e-09 +2.6350469611e-09 4.0637876007e-09 0.0000000000e+00 0.0000e+00 -1.0000e+00
</event>
<event>
 4      1 +2.4041262e-06 9.11880000e+01 7.81860800e-03 1.13011600e-01
       25 -1    0    0    0    0 +0.0000000000e+00 +0.0000000000e+00 +9.9999998245e-15 1.2500000000e+02 1.2500000000e+02 0.0000e+00 0.0000e+00
      -11  1    1    0    0    0 +1.6987095526e+00 -6.1778214843e-01 +3.7794034385e-02 1.8079539754e+00 5.1100000000e-04 0.0000e+00 -1.0000e+00
       11  1    1    0    0    0 +5.7033674851e+01 -2.0718451632e+01 +1.1959237540e+00 6.0692046751e+01 5.1100000000e-04 0.0000e+00 1.0000e+00
       22  1    1    0    0    0 -5.8732384403e+01 +2.1336233780e+01 -1.2337177884e+00 6.2499999273e+01 0.0000000000e+00 0.0000e+00 1.0000e+00
</event>
<event>
 4      1 +2.4041262e-06 9.11880000e+01 7.81860800e-03 1.13011600e-01
       25 -1    0    0    0    0 +0.0000000000e+00 +0.0000000000e+00 +9.9999998245e-15 1.2500000000e+02 1.2500000000e+02 0.0000e+00 0.0000e+00
      -13  1    1    0    0    0 +6.0741788699e+01 +1.1258272688e+01 +9.4828814124e+00 6.2499998418e+01 1.0566000000e-01 0.0000e+00 1.0000e+00
       13  1    1    0    0    0 -6.0741650975e+01 -1.1258217287e+01 -9.4828675879e+00 6.2499852491e+01 1.0566000000e-01 0.0000e+00 1.0000e+00
       22  1    1    0    0    0 -1.3772396924e-04 -5.5401508843e-05 -1.3824486943e-05 1.4909170106e-04 0.0000000000e+00 0.0000e+00 1.0000e+00
</event>
<event>
 4      1 +2.4041262e-06 9.11880000e+01 7.81860800e-03 1.13011600e-01
       25 -1    0    0    0    0 +0.0000000000e+00 +0.0000000000e+00 +9.9999998245e-15 1.2500000000e+02 1.2500000000e+02 0.0000e+00 0.0000e+00
      -13  1    1    0    0    0 -1.5799708465e+01 +6.9249893189e+00 -6.0071985658e+01 6.2499927116e+01 1.0566000000e-01 0.0000e+00 1.0000e+00
       13  1    1    0    0    0 +1.5799726773e+01 -6.9249977043e+00 +6.0072055705e+01 6.2500000000e+01 1.0566000000e-01 0.0000e+00 1.0000e+00
       22  1    1    0    0    0 -1.8307853746e-05 +8.3854407608e-06 -7.0047080295e-05 7.2884062616e-05 0.0000000000e+00 0.0000e+00 1.0000e+00
</event>
<event>
 4      1 +2.4041262e-06 9.11880000e+01 7.81860800e-03 1.13011600e-01
       25 -1    0    0    0    0 +0.0000000000e+00 +0.0000000000e+00 +9.9999998245e-15 1.2500000000e+02 1.2500000000e+02 0.0000e+00 0.0000e+00
      -13  1    1    0    0    0 +5.7676323384e+01 -8.8752937800e+00 -2.2381012161e+01 6.2499999905e+01 1.0566000000e-01 0.0000e+00 -1.0000e+00
       13  1    1    0    0    0 -5.7676323472e+01 +8.8752937943e+00 +2.2381012194e+01 6.2500000000e+01 1.0566000000e-01 0.0000e+00 -1.0000e+00
       22  1    1    0    0    0 +8.7569856418e-08 -1.4327195538e-08 -3.3015772345e-08 9.4677291410e-08 0.0000000000e+00 0.0000e+00 1.0000e+00
</event>
<event>
 4      1 +2.4041262e-06 9.11880000e+01 7.81860800e-03 1.13011600e-01
       25 -1    0    0    0    0 +0.0000000000e+00 +0.0000000000e+00 +9.9999998245e-15 1.2500000000e+02 1.2500000000e+02 0.0000e+00 0.0000e+00
      -11  1    1    0    0    0 +1.7068868330e+01 -4.3243442756e+00 +5.5572838824e+01 5.8295682814e+01 5.1100000000e-04 0.0000e+00 -1.0000e+00
       11  1    1    0    0    0 +1.2776832835e+00 -2.9035424009e-01 +3.9950984121e+00 4.2044728256e+00 5.1100000000e-04 0.0000e+00 1.0000e+00
       22  1    1    0    0    0 -1.8346551613e+01 +4.6146985156e+00 -5.9567937237e+01 6.2499844361e+01 0.0000000000e+00 0.0000e+00 -1.0000e+00
</event>
<event>
 4      1 +2.4041262e-06 9.11880000e+01 7.81860800e-03 1.13011600e-01
       25 -1    0    0    0    0 +0.0000000000e+00 +0.0000000000e+00 +9.9999998245e-15 1.2500000000e+02 1.2500000000e+02 0.0000e+00 0.0000e+00
      -13  1    1    0    0    0 +1.6017376307e+01 -6.7744998187e+00 -6.0031563734e+01 6.2500000000e+01 1.0566000000e-01 0.0000e+00 1.0000e+00
       13  1    1    0    0    0 -1.6017376303e+01 +6.7744998176e+00 +6.0031563720e+01 6.2499999985e+01 1.0566000000e-01 0.0000e+00 1.0000e+00
       22  1    1    0    0    0 -4.3988510137e-09 +1.0964293260e-09 +1.4531095547e-08 1.5221852230e-08 0.0000000000e+00 0.0000e+00 1.0000e+00
</event>
<event>
 4      1 +2.4041262e-06 9.11880000e+01 7.81860800e-03 1.13011600e-01
       25 -1    0    0    0    0 +0.0000000000e+00 +0.0000000000e+00 +9.9999998245e-15 1.2500000000e+02 1.2500000000e+02 0.0000e+00 0.0000e+00
      -13  1    1    0    0    0 -5.0496162956e+01 -3.2905773635e+01 +1.6540446482e+01 6.2499999565e+01 1.0566000000e-01 0.0000e+00 -1.0000e+00
       13  1    1    0    0    0 +5.0496163093e+01 +3.2905772229e+01 -1.6540446729e+01 6.2499999001e+01 1.0566000000e-01 0.0000e+00 -1.0000e+00
       22  1    1    0    0    0 -1.3724561811e-07 +1.4063255913e-06 +2.4701860519e-07 1.4344358543e-06 0.0000000000e+00 0.0000e+00 -1.0000e+00
</event>
<event>
 4      1 +2.4041262e-06 9.11880000e+01 7.81860800e-03 1.13011600e-01
       25 -1    0    0    0    0 +0.0000000000e+00 +0.0000000000e+00 +9.9999998245e-15 1.2500000000e+02 1.2500000000e+02 0.0000e+00 0.0000e+00
      -11  1    1    0    0    0 +6.4546313104e+00 +2.2812216263e-01 -7.0864379856e+00 9.5881128831e+00 5.1100000000e-04 0.0000e+00 1.0000e+00
       11  1    1    0    0    0 +3.4672761074e+01 +2.0734165881e+00 -3.9916643448e+01 5.2913493943e+01 5.1100000000e-04 0.0000e+00 -1.0000e+00
       22  1    1    0    0    0 -4.1127392385e+01 -2.3015387508e+00 +4.7003081434e+01 6.2498393173e+01 0.0000000000e+00 0.0000e+00 -1.0000e+00
</event>
<event>
 4      1 +2.4041262e-06 9.11880000e+01 7.81860800e-03 1.13011600e-01
       25 -1    0    0    0    0 +0.0000000000e+00 +0.0000000000e+00 +9.9999998245e-15 1.2500000000e+02 1.2500000000e+02 0.0000e+00 0.0000e+00
      -13  1    1    0    0    0 -2.8543703350e+01 -1.7133023851e+01 -5.2895702130e+01 6.2499999800e+01 1.0566000000e-01 0.0000e+00 -1.0000e+00
       13  1    1    0    0    0 +2.8543703434e+01 +1.7133023905e+01 +5.2895702303e+01 6.2500000000e+01 1.0566000000e-01 0.0000e+00 -1.0000e+00
       22  1    1    0    0    0 -8.4135061994e-08 -5.4112413317e-08 -1.7270331697e-07 1.9958280894e-07 0.0000000000e+00 0.0000e+00 1.0000e+00
</event>
<event>
 4      1 +2.4041262e-06 9.11880000e+01 7.81860800e-03 1.13011600e-01
       25 -1    0    0    0    0 +0.0000000000e+00 +0.0000000000e+00 +9.9999998245e-15 1.2500000000e+02 1.2500000000e+02 0.0000e+00 0.0000e+00
      -11  1    1    0    0    0 +3.9124283999e-01 +2.7360517647e-01 -6.8564783159e-01 8.3549025279e-01 5.1100000000e-04 0.0000e+00 -1.0000e+00
       11  1    1    0    0    0 +2.8857910074e+01 +2.0202733129e+01 -5.0612077365e+01 6.1664509851e+01 5.1100000000e-04 0.0000e+00 1.0000e+00
       22  1    1    0    0    0 -2.9249152914e+01 -2.0476338306e+01 +5.1297725197e+01 6.2499999896e+01 0.0000000000e+00 0.0000e+00 1.0000e+00
</event>
<event>
 4      1 +2.4041262e-06 9.11880000e+01 7.81860800e-03 1.13011600e-01
       25 -1    0    0    0    0 +0.0000000000e+00 +0.0000000000e+00 +9.9999998245e-15 1.2500000000e+02 1.2500000000e+02 0.0000e+00 0.0000e+00
      -11  1    1    0    0    0 +3.9997240195e-01 -1.0443637932e-01 +1.0194869371e+00 1.1001085199e+00 5.1100000000e-04 0.0000e+00 -1.0000e+00
       11  1    1    0    0    0 +2.0050455464e+01 -4.1960308071e+00 +5.7882611139e+01 6.1400522078e+01 5.1100000000e-04 0.0000e+00 1.0000e+00
       22  1    1    0    0    0 -2.0450427866e+01 +4.3004671864e+00 -5.8902098076e+01 6.2499369402e+01 0.0000000000e+00 0.0000e+00 1.0000e+00
</event>
<event>
 4      1 +2.4041262e-06 9.11880000e+01 7.81860800e-03 1.13011600e-01
       25 -1    0    0    0    0 +0.0000000000e+00 +0.0000000000e+00 +9.9999998245e-15 1.2500000000e+02 1.2500000000e+02 0.0000e+00 0.0000e+00
      -13  1    1    0    0    0 +1.6844020472e+01 +2.6227330472e+01 +5.4145614504e+01 6.2476816688e+01 1.0566000000e-01 0.0000e+00 1.0000e+00
       13  1    1    0    0    0 -1.6862044568e+01 -2.6224948141e+01 -5.4164451702e+01 6.2497003482e+01 1.0566000000e-01 0.0000e+00 1.0000e+00
       22  1    1    0    0    0 +1.8024095376e-02 -2.3823316908e-03 +1.8837197907e-02 2.6179830851e-02 0.0000000000e+00 0.0000e+00 -1.0000e+00
</event>
<event>
 5      1 +2.4041262e-06 9.11880000e+01 7.81860800e-03 1.13011600e-01
       25 -1    0    0    0    0 +0.0000000000e+00 +0.0000000000e+00 +9.9999998245e-15 1.2500000000e+02 1.2500000000e+02 0.0000e+00 0.0000e+00
       23  2    1    0    0    0 +3.0260602758e+01 -6.6233886977e+00 -1.1371994895e+01 9.2001581477e+01 8.5880122085e+01 0.0000e+00 0.0000e+00
      -11  1    2    2    0    0 -2.4781871802e+00 -4.2588657636e+01 -5.4942266845e+00 4.3013041023e+01 5.1100000000e-04 0.0000e+00 1.0000e+00
       11  1    2    2    0    0 +3.2738789938e+01 +3.5965268938e+01 -5.8777682110e+00 4.8988540454e+01 5.1100000000e-04 0.0000e+00 -1.0000e+00
       22  1    1    0    0    0 -3.0260602758e+01 +6.6233886977e+00 +1.1371994895e+01 3.2998418523e+01 0.0000000000e+00 0.0000e+00 -1.0000e+00
</event>
<event>
 4      1 +2.4041262e-06 9.11880000e+01 7.81860800e-03 1.13011600e-01
       25 -1    0    0    0    0 +0.0000000000e+00 +0.0000000000e+00 +9.9999998245e-15 1.2500000000e+02 1.2500000000e+02 0.0000e+00 0.0000e+00
      -13  1    1    0    0    0 -2.0736707020e+01 +4.8520922673e+01 -3.3495472119e+01 6.2499990173e+01 1.0566000000e-01 0.0000e+00 1.0000e+00
       13  1    1    0    0    0 +2.0736735916e+01 -4.8520861605e+01 +3.3495438846e+01 6.2499934519e+01 1.0566000000e-01 0.0000e+00 1.0000e+00
       22  1    1    0    0    0 -2.8895974041e-05 -6.1067838328e-05 +3.3272865980e-05 7.5308311655e-05 0.0000000000e+00 0.0000e+00 -1.0000e+00
</event>
<event>
 4      1 +2.4041262e-06 9.11880000e+01 7.81860800e-03 1.13011600e-01
       25 -1    0    0    0    0 +0.0000000000e+00 +0.0000000000e+00 +9.9999998245e-15 1.2500000000e+02 1.2500000000e+02 0.0000e+00 0.0000e+00
      -13  1    1    0    0    0 +2.6552266808e+01 +8.5195867847e+00 +5.5934180887e+01 6.2499999897e+01 1.0566000000e-01 0.0000e+00 -1.0000e+00
       13  1    1    0    0    0 -2.6552266852e+01 -8.5195867992e+00 -5.5934180979e+01 6.2500000000e+01 1.0566000000e-01 0.0000e+00 -1.0000e+00
       22  1    1    0    0    0 +4.4022321805e-08 +1.4439280427e-08 +9.2094982589e-08 1.0309191750e-07 0.0000000000e+00 0.0000e+00 -1.0000e+00
</event>
<event>
 4      1 +2.4041262e-06 9.11880000e+01 7.81860800e-03 1.13011600e-01
       25 -1    0    0    0    0 +0.0000000000e+00 +0.0000000000e+00 +9.9999998245e-15 1.2500000000e+02 1.2500000000e+02 0.0000e+00 0.0000e+00
      -13  1    1    0    0    0 -6.2179875291e+01 -4.3629832276e+00 +4.5679175293e+00 6.2499996387e+01 1.0566000000e-01 0.0000e+00 -1.0000e+00
       13  1    1    0    0    0 +6.1460068516e+01 +4.3094994331e+00 -4.5148758822e+00 6.1776266281e+01 1.0566000000e-01 0.0000e+00 -1.0000e+00
       22  1    1    0    0    0 +7.1980677472e-01 +5.3483794490e-02 -5.3041647111e-02 7.2373733186e-01 0.0000000000e+00 0.0000e+00 1.0000e+00
</event>
<event>
 4      1 +2.4041262e-06 9.11880000e+01 7.81860800e-03 1.13011600e-01
       25 -1    0    0    0    0 +0.0000000000e+00 +0.0000000000e+00 +9.9999998245e-15 1.2500000000e+02 1.2500000000e+02 0.0000e+00 0.0000e+00
      -13  1    1    0    0    0 -4.6074062343e+01 +1.8474111230e+01 -3.7975337537e+01 6.2499995452e+01 1.0566000000e-01 0.0000e+00 -1.0000e+00
       13  1    1    0    0    0 +4.6074065683e+01 -1.8474112569e+01 +3.7975340317e+01 6.2500000000e+01 1.0566000000e-01 0.0000e+00 -1.0000e+00
       22  1    1    0    0    0 -3.3406484233e-06 +1.3387753622e-06 -2.7800563509e-06 4.5476328648e-06 0.0000000000e+00 0.0000e+00 1.0000e+00
</event>
<event>
 4      1 +2.4041262e-06 9.11880000e+01 7.81860800e-03 1.13011600e-01
       25 -1    0    0    0    0 +0.0000000000e+00 +0.0000000000e+00 +9.9999998245e-15 1.2500000000e+02 1.2500000000e+02 0.0000e+00 0.0000e+00
      -13  1    1    0    0    0 -3.3137787598e+01 +8.1638735228e+00 +4.9305770961e+01 5.9965256706e+01 1.0566000000e-01 0.0000e+00 -1.0000e+00
       13  1    1    0    0    0 +3.4925592725e+01 -8.4086959363e+00 -5.1117227170e+01 6.2477878263e+01 1.0566000000e-01 0.0000e+00 -1.0000e+00
       22  1    1    0    0    0 -1.7878051277e+00 +2.4482241349e-01 +1.8114562095e+00 2.5568650311e+00 0.0000000000e+00 0.0000e+00 1.0000e+00
</event>
<event>
 4      1 +2.4041262e-06 9.11880000e+01 7.81860800e-03 1.13011600e-01
       25 -1    0    0    0    0 +0.0000000000e+00 +0.0000000000e+00 +9.9999998245e-15 1.2500000000e+02 1.2500000000e+02 0.0000e+00 0.0000e+00
      -13  1    1    0    0    0 -1.9361694091e+01 -2.4686977593e+00 -5.9373977078e+01 6.2499999879e+01 1.0566000000e-01 0.0000e+00 -1.0000e+00
       13  1    1    0    0    0 +1.9361694125e+01 +2.4686977674e+00 +5.9373977195e+01 6.2500000000e+01 1.0566000000e-01 0.0000e+00 -1.0000e+00
       22  1    1    0    0    0 -3.4551689941e-08 -8.1216099949e-09 -1.1620001333e-07 1.2149988858e-07 0.0000000000e+00 0.0000e+00 -1.0000e+00
</event>
<event>
 4      1 +2.4041262e-06 9.11880000e+01 7.81860800e-03 1.13011600e-01
       25 -1    0    0    0    0 +0.0000000000e+00 +0.0000000000e+00 +9.9999998245e-15 1.2500000000e+02 1.2500000000e+02 0.0000e+00 0.0000e+00
      -13  1    1    0    0    0 -4.3513708323e+01 +2.0109875147e+01 +7.2115936473e+00 4.8475438497e+01 1.0566000000e-01 0.0000e+00 1.0000e+00
       13  1    1    0    0    0 +3.6404751901e+01 -3.9493487875e+01 +2.3667576974e+00 5.3764804952e+01 1.0566000000e-01 0.0000e+00 -1.0000e+00
       22  1    1    0    0    0 +7.1089564224e+00 +1.9383612728e+01 -9.5783513447e+00 2.2759756552e+01 0.0000000000e+00 0.0000e+00 -1.0000e+00
</event>
<event>
 4      1 +2.4041262e-06 9.11880000e+01 7.81860800e-03 1.13011600e-01
       25 -1    0    0    0    0 +0.0000000000e+00 +0.0000000000e+00 +9.9999998245e-15 1.2500000000e+02 1.2500000000e+02 0.0000e+00 0.0000e+00
      -13  1    1    0    0    0 -6.5723803608e+00 -5.1736664672e+01 -3.4443579636e+01 6.2499999978e+01 1.0566000000e-01 0.0000e+00 -1.0000e+00
       13  1    1    0    0    0 +6.5723803165e+00 +5.1736657591e+01 +3.4443574752e+01 6.2499991419e+01 1.0566000000e-01 0.0000e+00 -1.0000e+00
       22  1    1    0    0    0 +4.4289597091e-08 +7.0819203231e-06 +4.8843263311e-06 8.6030343914e-06 0.0000000000e+00 0.0000e+00 1.0000e+00
</event>
<event>
 4      1 +2.4041262e-06 9.11880000e+01 7.81860800e-03 1.13011600e-01
       25 -1    0    0    0    0 +0.0000000000e+00 +0.0000000000e+00 +9.9999998245e-15 1.2500000000e+02 1.2500000000e+02 0.0000e+00 0.0000e+00
      -13  1    1    0    0    0 -6.2869564439e+00 -3.0604400066e-01 +6.2182146567e+01 6.2499999999e+01 1.0566000000e-01 0.0000e+00 -1.0000e+00
       13  1    1    0    0    0 +6.2869564405e+00 +3.0604401090e-01 -6.2182146520e+01 6.2499999953e+01 1.0566000000e-01 0.0000e+00 -1.0000e+00
       22  1    1    0    0    0 +3.3493224100e-09 -1.0246899448e-08 -4.6371698147e-08 4.7608311227e-08 0.0000000000e+00 0.0000e+00 1.0000e+00
</event>
<event>
 4      1 +2.4041262e-06 9.11880000e+01 7.81860800e-03 1.13011600e-01
       25 -1    0    0    0    0 +0.0000000000e+00 +0.0000000000e+00 +9.9999998245e-15 1.2500000000e+02 1.2500000000e+02 0.0000e+00 0.0000e+00
      -13  1    1    0    0    0 +5.6671882239e-01 -2.3010383536e+01 +5.8107141689e+01 6.2500000000e+01 1.0566000000e-01 0.0000e+00 -1.0000e+00
       13  1    1    0    0    0 -5.6671882123e-01 +2.3010383535e+01 -5.8107141686e+01 6.2499999997e+01 1.0566000000e-01 0.0000e+00 -1.0000e+00
       22  1    1    0    0    0 -1.1584844387e-09 +1.0424712123e-09 -3.1757301083e-09 3.5375265573e-09 0.0000000000e+00 0.0000e+00 1.0000e+00
</event>
<event>
 4      1 +2.4041262e-06 9.11880000e+01 7.81860800e-03 1.13011600e-01
       25 -1    0    0    0    0 +0.0000000000e+00 +0.0000000000e+00 +9.9999998245e-15 1.2500000000e+02 1.2500000000e+02 0.0000e+00 0.0000e+00
      -13  1    1    0    0    0 +6.4918614349e+00 +5.0147435419e+01 +3.5299026366e+01 6.1667997944e+01 1.0566000000e-01 0.0000e+00 1.0000e+00
       13  1    1    0    0    0 -5.6713578977e+00 -4.9647322760e+01 -3.6435923902e+01 6.1843420606e+01 1.0566000000e-01 0.0000e+00 1.0000e+00
       22  1    1    0    0    0 -8.2050353718e-01 -5.0011265845e-01 +1.1368975356e+00 1.4885814496e+00 0.0000000000e+00 0.0000e+00 1.0000e+00
</event>
<event>
 4      1 +2.4041262e-06 9.11880000e+01 7.81860800e-03 1.13011600e-01
       25 -1    0    0    0    0 +0.0000000000e+00 +0.0000000000e+00 +9.9999998245e-15 1.2500000000e+02 1.2500000000e+02 0.0000e+00 0.0000e+00
      -13  1    1    0    0    0 -6.2233453885e+00 -1.8581684958e+01 +4.9160594004e+01 5.2922435796e+01 1.0566000000e-01 0.0000e+00 1.0000e+00
       13  1    1    0    0    0 +7.3706231366e+00 +2.2015808014e+01 -5.8027564204e+01 6.2499850076e+01 1.0566000000e-01 0.0000e+00 1.0000e+00
       22  1    1    0    0    0 -1.1472777481e+00 -3.4341230561e+00 +8.8669702002e+00 9.5777141285e+00 0.0000000000e+00 0.0000e+00 1.0000e+00
</event>
<event>
 5      1 +2.4041262e-06 9.11880000e+01 7.81860800e-03 1.13011600e-01
       25 -1    0    0    0    0 +0.0000000000e+00 +0.0000000000e+00 +9.9999998245e-15 1.2500000000e+02 1.2500000000e+02 0.0000e+00 0.0000e+00
       23  2    1    0    0    0 +1.5874753688e+01 +6.3400515938e+00 -2.4721639289e+01 9.4943993812e+01 9.0061081789e+01 0.0000e+00 0.0000e+00
      -11  1    2    2    0    0 -2.1458918008e+01 -3.0657201158e+01 -1.4151853985e+00 3.7447989197e+01 5.1100000000e-04 0.0000e+00 -1.0000e+00
       11  1    2    2    0    0 +3.7333671696e+01 +3.6997252752e+01 -2.3306453890e+01 5.7496004615e+01 5.1100000000e-04 0.0000e+00 1.0000e+00
       22  1    1    0    0    0 -1.5874753688e+01 -6.3400515938e+00 +2.4721639289e+01 3.0056006188e+01 0.0000000000e+00 0.0000e+00 1.0000e+00
</event>
<event>
 4      1 +2.4041262e-06 9.11880000e+01 7.81860800e-03 1.13011600e-01
       25 -1    0    0    0    0 +0.0000000000e+00 +0.0000000000e+00 +9.9999998245e-15 1.2500000000e+02 1.2500000000e+02 0.0000e+00 0.0000e+00
      -13  1    1    0    0    0 +7.3557330340e+00 +3.0931427645e+01 +3.7943575050e+01 4.9503394592e+01 1.0566000000e-01 0.0000e+00 -1.0000e+00
       13  1    1    0    0    0 +2.2814859322e+00 +5.7781137590e+00 +1.1556577119e+01 1.3120877082e+01 1.0566000000e-01 0.0000e+00 1.0000e+00
       22  1    1    0    0    0 -9.6372189662e+00 -3.6709541404e+01 -4.9500152168e+01 6.2375728325e+01 0.0000000000e+00 0.0000e+00 -1.0000e+00
</event>
<event>
 4      1 +2.4041262e-06 9.11880000e+01 7.81860800e-03 1.13011600e-01
       25 -1    0    0    0    0 +0.0000000000e+00 +0.0000000000e+00 +9.9999998245e-15 1.2500000000e+02 1.2500000000e+02 0.0000e+00 0.0000e+00
      -13  1    1    0    0    0 +4.7611309440e+01 +5.4461001780e+00 -4.0119746322e+01 6.2498816011e+01 1.0566000000e-01 0.0000e+00 -1.0000e+00
       13  1    1    0    0    0 -4.7232542182e+01 -5.4230928101e+00 +3.9857157721e+01 6.2039722455e+01 1.0566000000e-01 0.0000e+00 -1.0000e+00
       22  1    1    0    0    0 -3.7876725809e-01 -2.3007367961e-02 +2.6258860056e-01 4.6146153461e-01 0.0000000000e+00 0.0000e+00 1.0000e+00
</event>
<event>
 4      1 +2.4041262e-06 9.11880000e+01 7.81860800e-03 1.13011600e-01
       25 -1    0    0    0    0 +0.0000000000e+00 +0.0000000000e+00 +9.9999998245e-15 1.2500000000e+02 1.2500000000e+02 0.0000e+00 0.0000e+00
      -11  1    1    0    0    0 +3.7800740187e+01 +9.9297008782e+00 +3.7658721560e+01 5.4274065888e+01 5.1100000000e-04 0.0000e+00 1.0000e+00
       11  1    1    0    0    0 +5.3196663069e+00 +1.8951857395e+00 +5.9958713365e+00 8.2365679715e+00 5.1100000000e-04 0.0000e+00 -1.0000e+00
       22  1    1    0    0    0 -4.3120406493e+01 -1.1824886618e+01 -4.3654592897e+01 6.2489366141e+01 0.0000000000e+00 0.0000e+00 1.0000e+00
</event>
<event>
 5      1 +2.4041262e-06 9.11880000e+01 7.81860800e-03 1.13011600e-01
       25 -1    0    0    0    0 +0.0000000000e+00 +0.0000000000e+00 +9.9999998245e-15 1.2500000000e+02 1.2500000000e+02 0.0000e+00 0.0000e+00
       23  2    1    0    0    0 -2.6058190392e+01 -6.4213156502e+00 +4.6597625080e+00 9.7760764185e+01 9.3889248832e+01 0.0000e+00 0.0000e+00
      -13  1    2    2    0    0 -4.6984492974e+01 +2.9574277668e+01 -2.2090444974e+00 5.5561421159e+01 1.0566000000e-01 0.0000e+00 1.0000e+00
       13  1    2    2    0    0 +2.0926302582e+01 -3.5995593318e+01 +6.8688070054e+00 4.2199343026e+01 1.0566000000e-01 0.0000e+00 -1.0000e+00
       22  1    1    0    0    0 +2.6058190392e+01 +6.4213156502e+00 -4.6597625080e+00 2.7239235815e+01 0.0000000000e+00 0.0000e+00 1.0000e+00
</event>
<event>
 4      1 +2.4041262e-06 9.11880000e+01 7.81860800e-03 1.13011600e-01
       25 -1    0    0    0    0 +0.0000000000e+00 +0.0000000000e+00 +9.9999998245e-15 1.2500000000e+02 1.2500000000e+02 0.0000e+00 0.0000e+00
      -13  1    1    0    0    0 -4.4879067534e+01 -8.2494017882e+00 -4.2708962616e+01 6.2499999875e+01 1.0566000000e-01 0.0000e+00 1.0000e+00
       13  1    1    0    0    0 +4.4879067685e+01 +8.2494017154e+00 +4.2708962590e+01 6.2499999956e+01 1.0566000000e-01 0.0000e+00 1.0000e+00
       22  1    1    0    0    0 -1.5078214434e-07 +7.2802627151e-08 +2.5937287438e-08 1.6943500362e-07 0.0000000000e+00 0.0000e+00 -1.0000e+00
</event>
<event>
 4      1 +2.4041262e-06 9.11880000e+01 7.81860800e-03 1.13011600e-01
       25 -1    0    0    0    0 +0.0000000000e+00 +0.0000000000e+00 +9.9999998245e-15 1.2500000000e+02 1.2500000000e+02 0.0000e+00 0.0000e+00
      -13  1    1    0    0    0 -1.0088413800e+01 -4.4718338793e+01 -1.4778197419e+01 4.8165466886e+01 1.0566000000e-01 0.0000e+00 1.0000e+00
       13  1    1    0    0    0 -2.9330088425e+00 -1.3283219243e+01 -4.5206585279e+00 1.4335060931e+01 1.0566000000e-01 0.0000e+00 -1.0000e+00
       22  1    1    0    0    0 +1.3021422642e+01 +5.8001558036e+01 +1.9298855946e+01 6.2499472183e+01 0.0000000000e+00 0.0000e+00 -1.0000e+00
</event>
<event>
 4      1 +2.4041262e-06 9.11880000e+01 7.81860800e-03 1.13011600e-01
       25 -1    0    0    0    0 +0.0000000000e+00 +0.0000000000e+00 +9.9999998245e-15 1.2500000000e+02 1.2500000000e+02 0.0000e+00 0.0000e+00
      -13  1    1    0    0    0 +2.0950167633e+01 -5.8883781362e+01 -1.0517429521e-01 6.2499851656e+01 1.0566000000e-01 0.0000e+00 -1.0000e+00
       13  1    1    0    0    0 -2.0708979250e+01 +5.8239320016e+01 +1.2065548710e-01 6.1811859213e+01 1.0566000000e-01 0.0000e+00 -1.0000e+00
       22  1    1    0    0    0 -2.4118838292e-01 +6.4446134511e-01 -1.5481191894e-02 6.8828913162e-01 0.0000000000e+00 0.0000e+00 1.0000e+00
</event>
<event>
 4      1 +2.4041262e-06 9.11880000e+01 7.81860800e-03 1.13011600e-01
       25 -1    0    0    0    0 +0.0000000000e+00 +0.0000000000e+00 +9.9999998245e-15 1.2500000000e+02 1.2500000000e+02 0.0000e+00 0.0000e+00
      -11  1    1    0    0    0 -3.1644460907e+00 +3.4977671618e+01 +2.0255589322e+01 4.0543065127e+01 5.1100000000e-04 0.0000e+00 1.0000e+00
       11  1    1    0    0    0 -1.6727179838e+00 +1.8945932415e+01 +1.0970925140e+01 2.1956947403e+01 5.1100000000e-04 0.0000e+00 -1.0000e+00
       22  1    1    0    0    0 +4.8371640746e+00 -5.3923604034e+01 -3.1226514462e+01 6.2499987470e+01 0.0000000000e+00 0.0000e+00 1.0000e+00
</event>
<event>
 4      1 +2.4041262e-06 9.11880000e+01 7.81860800e-03 1.13011600e-01
       25 -1    0    0    0    0 +0.0000000000e+00 +0.0000000000e+00 +9.9999998245e-15 1.2500000000e+02 1.2500000000e+02 0.0000e+00 0.0000e+00
      -13  1    1    0    0    0 -4.5927694798e+01 -2.6689375853e+01 -3.2931997992e+01 6.2499628708e+01 1.0566000000e-01 0.0000e+00 1.0000e+00
       13  1    1    0    0    0 +4.5927958161e+01 +2.6689532550e+01 +3.2932207976e+01 6.2499999798e+01 1.0566000000e-01 0.0000e+00 1.0000e+00
       22  1    1    0    0    0 -2.6336242685e-04 -1.5669721388e-04 -2.0998490853e-04 3.7149353497e-04 0.0000000000e+00 0.0000e+00 1.0000e+00
</event>
<event>
 5      1 +2.4041262e-06 9.11880000e+01 7.81860800e-03 1.13011600e-01
       25 -1    0    0    0    0 +0.0000000000e+00 +0.0000000000e+00 +9.9999998245e-15 1.2500000000e+02 1.2500000000e+02 0.0000e+00 0.0000e+00
       23  2    1    0    0    0 -2.0177239056e+01 -1.7572283424e+01 -8.3965881973e+00 9.6957018453e+01 9.2813008858e+01 0.0000e+00 0.0000e+00
      -11  1    2    2    0    0 +3.2315605187e+01 -9.3894876903e+00 +1.7415717275e+01 3.7891529741e+01 5.1100000000e-04 0.0000e+00 1.0000e+00
       11  1    2    2    0    0 -5.2492844243e+01 -8.1827957333e+00 -2.5812305473e+01 5.9065488712e+01 5.1100000000e-04 0.0000e+00 -1.0000e+00
       22  1    1    0    0    0 +2.0177239056e+01 +1.7572283424e+01 +8.3965881973e+00 2.8042981547e+01 0.0000000000e+00 0.0000e+00 -1.0000e+00
</event>
<event>
 4      1 +2.4041262e-06 9.11880000e+01 7.81860800e-03 1.13011600e-01
       25 -1    0    0    0    0 +0.0000000000e+00 +0.0000000000e+00 +9.9999998245e-15 1.2500000000e+02 1.2500000000e+02 0.0000e+00 0.0000e+00
      -13  1    1    0    0    0 +3.8246693973e+01 +3.6581026525e+01 -3.3245416692e+01 6.2499999973e+01 1.0566000000e-01 0.0000e+00 1.0000e+00
       13  1    1    0    0    0 -3.8246686886e+01 -3.6581021048e+01 +3.3245410439e+01 6.2499989104e+01 1.0566000000e-01 0.0000e+00 1.0000e+00
       22  1    1    0    0    0 -7.0873405255e-06 -5.4767521492e-06 +6.2526551243e-06 1.0923410911e-05 0.0000000000e+00 0.0000e+00 1.0000e+00
</event>
<event>
 4      1 +2.4041262e-06 9.11880000e+01 7.81860800e-03 1.13011600e-01
       25 -1    0    0    0    0 +0.0000000000e+00 +0.0000000000e+00 +9.9999998245e-15 1.2500000000e+02 1.2500000000e+02 0.0000e+00 0.0000e+00
      -13  1    1    0    0    0 +1.8381690276e+01 -1.0242604439e+00 -7.9061229554e+00 2.0036306822e+01 1.0566000000e-01 0.0000e+00 -1.0000e+00
       13  1    1    0    0    0 +4.0365778114e+01 -1.3230541715e+01 -6.0879845812e+00 4.2912911776e+01 1.0566000000e-01 0.0000e+00 1.0000e+00
       22  1    1    0    0    0 -5.8747468390e+01 +1.4254802159e+01 +1.3994107537e+01 6.2050781402e+01 0.0000000000e+00 0.0000e+00 1.0000e+00
</event>
<event>
 5      1 +2.4041262e-06 9.11880000e+01 7.81860800e-03 1.13011600e-01
       25 -1    0    0    0    0 +0.0000000000e+00 +0.0000000000e+00 +9.9999998245e-15 1.2500000000e+02 1.2500000000e+02 0.0000e+00 0.0000e+00
       23  2    1    0    0    0 +1.7671429305e+01 -2.2930436123e+01 +1.0535081703e+01 9.4192983576e+01 8.9012616487e+01 0.0000e+00 0.0000e+00
      -13  1    2    2    0    0 +4.7349665300e+01 -4.5470777018e+00 -1.6168392057e+01 5.0240370076e+01 1.0566000000e-01 0.0000e+00 -1.0000e+00
       13  1    2    2    0    0 -2.9678235995e+01 -1.8383358422e+01 +2.6703473760e+01 4.3952613500e+01 1.0566000000e-01 0.0000e+00 1.0000e+00
       22  1    1    0    0    0 -1.7671429305e+01 +2.2930436123e+01 -1.0535081703e+01 3.0807016424e+01 0.0000000000e+00 0.0000e+00 -1.0000e+00
</event>
<event>
 4      1 +2.4041262e-06 9.11880000e+01 7.81860800e-03 1.13011600e-01
       25 -1    0    0    0    0 +0.0000000000e+00 +0.0000000000e+00 +9.9999998245e-15 1.2500000000e+02 1.2500000000e+02 0.0000e+00 0.0000e+00
      -11  1    1    0    0    0 +5.4637504291e+01 +6.1291035602e+00 +2.3689704640e+01 5.9866726082e+01 5.1100000000e-04 0.0000e+00 -1.0000e+00
       11  1    1    0    0    0 -1.0501514599e+01 +6.4958176981e+00 -1.3137922454e+01 1.8030043348e+01 5.1100000000e-04 0.0000e+00 1.0000e+00
       22  1    1    0    0    0 -4.4135989692e+01 -1.2624921258e+01 -1.0551782186e+01 4.7103230570e+01 0.0000000000e+00 0.0000e+00 -1.0000e+00
</event>
<event>
 4      1 +2.4041262e-06 9.11880000e+01 7.81860800e-03 1.13011600e-01
       25 -1    0    0    0    0 +0.0000000000e+00 +0.0000000000e+00 +9.9999998245e-15 1.2500000000e+02 1.2500000000e+02 0.0000e+00 0.0000e+00
      -13  1    1    0    0    0 +5.4926309977e+01 +2.5389338594e+01 +1.5643518825e+01 6.2499991097e+01 1.0566000000e-01 0.0000e+00 1.0000e+00
       13  1    1    0    0    0 -5.3828634734e+01 -2.4883081172e+01 -1.5337382104e+01 6.1253049719e+01 1.0566000000e-01 0.0000e+00 1.0000e+00
       22  1    1    0    0    0 -1.0976752424e+00 -5.0625742224e-01 -3.0613672046e-01 1.2469591841e+00 0.0000000000e+00 0.0000e+00 -1.0000e+00
</event>
<event>
 4      1 +2.4041262e-06 9.11880000e+01 7.81860800e-03 1.13011600e-01
       25 -1    0    0    0    0 +0.0000000000e+00 +0.0000000000e+00 +9.9999998245e-15 1.2500000000e+02 1.2500000000e+02 0.0000e+00 0.0000e+00
      -13  1    1    0    0    0 -4.4952356655e+00 -4.5488158930e+01 +4.2624339331e+01 6.2499801711e+01 1.0566000000e-01 0.0000e+00 -1.0000e+00
       13  1    1    0    0    0 +4.4952668244e+00 +4.5488287694e+01 -4.2624488068e+01 6.2499999106e+01 1.0566000000e-01 0.0000e+00 -1.0000e+00
       22  1    1    0    0    0 -3.1158888788e-05 -1.2876437362e-04 +1.4873663515e-04 1.9918264709e-04 0.0000000000e+00 0.0000e+00 -1.0000e+00
</event>
<event>
 4      1 +2.4041262e-06 9.11880000e+01 7.81860800e-03 1.13011600e-01
       25 -1    0    0    0    0 +0.0000000000e+00 +0.0000000000e+00 +9.9999998245e-15 1.2500000000e+02 1.2500000000e+02 0.0000e+00 0.0000e+00
      -11  1    1    0    0    0 -3.0392438231e+01 +9.2412540935e+00 -3.4703301577e+01 4.7047000111e+01 5.1100000000e-04 0.0000e+00 -1.0000e+00
       11  1    1    0    0    0 -9.9260520639e+00 +3.0728264578e+00 -1.1438039737e+01 1.5453074947e+01 5.1100000000e-04 0.0000e+00 1.0000e+00
       22  1    1    0    0    0 +4.0318490295e+01 -1.2314080551e+01 +4.6141341315e+01 6.2499924942e+01 0.0000000000e+00 0.0000e+00 -1.0000e+00
</event>
<event>
 4      1 +2.4041262e-06 9.11880000e+01 7.81860800e-03 1.13011600e-01
       25 -1    0    0    0    0 +0.0000000000e+00 +0.0000000000e+00 +9.9999998245e-15 1.2500000000e+02 1.2500000000e+02 0.0000e+00 0.0000e+00
      -11  1    1    0    0    0 -3.1089643887e+01 +4.6143005990e+01 -1.6009290683e+01 5.7896807746e+01 5.1100000000e-04 0.0000e+00 1.0000e+00
       11  1    1    0    0    0 -2.4713988020e+00 +3.6682123177e+00 -1.2750637724e+00 4.6031925368e+00 5.1100000000e-04 0.0000e+00 1.0000e+00
       22  1    1    0    0    0 +3.3561042689e+01 -4.9811218308e+01 +1.7284354455e+01 6.2499999717e+01 0.0000000000e+00 0.0000e+00 1.0000e+00
</event>
<event>
 4      1 +2.4041262e-06 9.11880000e+01 7.81860800e-03 1.13011600e-01
       25 -1    0    0    0    0 +0.0000000000e+00 +0.0000000000e+00 +9.9999998245e-15 1.2500000000e+02 1.2500000000e+02 0.0000e+00 0.0000e+00
      -13  1    1    0    0    0 -1.2042805357e+00 -2.7433102005e+00 +4.8436173751e+00 5.6963001831e+00 1.0566000000e-01 0.0000e+00 1.0000e+00
       13  1    1    0    0    0 -1.4608778733e+01 -2.4006182657e+01 +4.9374783613e+01 5.6811914619e+01 1.0566000000e-01 0.0000e+00 -1.0000e+00
       22  1    1    0    0    0 +1.5813059269e+01 +2.6749492857e+01 -5.4218400988e+01 6.2491785198e+01 0.0000000000e+00 0.0000e+00 -1.0000e+00
</event>
<event>
 4      1 +2.4041262e-06 9.11880000e+01 7.81860800e-03 1.13011600e-01
       25 -1    0    0    0    0 +0.0000000000e+00 +0.0000000000e+00 +9.9999998245e-15 1.2500000000e+02 1.2500000000e+02 0.0000e+00 0.0000e+00
      -13  1    1    0    0    0 +2.7803388182e+01 -4.8988120236e+01 +2.7080880282e+01 6.2499996477e+01 1.0566000000e-01 0.0000e+00 -1.0000e+00
       13  1    1    0    0    0 -2.7803389762e+01 +4.8988122997e+01 -2.7080881797e+01 6.2500000000e+01 1.0566000000e-01 0.0000e+00 -1.0000e+00
       22  1    1    0    0    0 +1.5801350199e-06 -2.7604772646e-06 +1.5151268228e-06 3.5231620313e-06 0.0000000000e+00 0.0000e+00 1.0000e+00
</event>
<event>
 5      1 +2.4041262e-06 9.11880000e+01 7.81860800e-03 1.13011600e-01
       25 -1    0    0    0    0 +0.0000000000e+00 +0.0000000000e+00 +9.9999998245e-15 1.2500000000e+02 1.2500000000e+02 0.0000e+00 0.0000e+00
       23  2    1    0    0    0 -6.4164753811e+00 -1.4220839670e+00 -2.7473516885e+01 9.6751325533e+01 9.2535568206e+01 0.0000e+00 0.0000e+00
      -11  1    2    2    0    0 -8.0838882414e+00 +2.7026949917e+01 -5.1995616869e+01 5.9155299380e+01 5.1100000000e-04 0.0000e+00 1.0000e+00
       11  1    2    2    0    0 +1.6674128603e+00 -2.8449033884e+01 +2.4522099984e+01 3.7596026153e+01 5.1100000000e-04 0.0000e+00 -1.0000e+00
       22  1    1    0    0    0 +6.4164753811e+00 +1.4220839670e+00 +2.7473516885e+01 2.8248674467e+01 0.0000000000e+00 0.0000e+00 1.0000e+00
</event>
<event>
 4      1 +2.4041262e-06 9.11880000e+01 7.81860800e-03 1.13011600e-01
       25 -1    0    0    0    0 +0.0000000000e+00 +0.0000000000e+00 +9.9999998245e-15 1.2500000000e+02 1.2500000000e+02 0.0000e+00 0.0000e+00
      -13  1    1    0    0    0 +2.0905455290e+01 +5.7524904838e+01 -1.2652513524e+01 6.2500000000e+01 1.0566000000e-01 0.0000e+00 1.0000e+00
       13  1    1    0    0    0 -2.0905455290e+01 -5.7524904838e+01 +1.2652513524e+01 6.2500000000e+01 1.0566000000e-01 0.0000e+00 1.0000e+00
       22  1    1    0    0    0 +5.8057984869e-11 +5.9515796895e-11 +1.3652095632e-11 8.4256984293e-11 0.0000000000e+00 0.0000e+00 1.0000e+00
</event>
<event>
 4      1 +2.4041262e-06 9.11880000e+01 7.81860800e-03 1.13011600e-01
       25 -1    0    0    0    0 +0.0000000000e+00 +0.0000000000e+00 +9.9999998245e-15 1.2500000000e+02 1.2500000000e+02 0.0000e+00 0.0000e+00
      -13  1    1    0    0    0 +5.4036195718e+01 +1.9234461612e+01 +2.4531970984e+01 6.2383521267e+01 1.0566000000e-01 0.0000e+00 -1.0000e+00
       13  1    1    0    0    0 -5.4136523000e+01 -1.9269945676e+01 -2.4579343026e+01 6.2499993573e+01 1.0566000000e-01 0.0000e+00 -1.0000e+00
       22  1    1    0    0    0 +1.0032728212e-01 +3.5484063862e-02 +4.7372042006e-02 1.1648516081e-01 0.0000000000e+00 0.0000e+00 1.0000e+00
</event>
<event>
 5      1 +2.4041262e-06 9.11880000e+01 7.81860800e-03 1.13011600e-01
       25 -1    0    0    0    0 +0.0000000000e+00 +0.0000000000e+00 +9.9999998245e-15 1.2500000000e+02 1.2500000000e+02 0.0000e+00 0.0000e+00
       23  2    1    0    0    0 -1.9524583469e+01 +2.9367654071e+00 -2.2208814673e+01 9.5283583664e+01 9.0531187532e+01 0.0000e+00 0.0000e+00
      -13  1    2    2    0    0 -1.6347343728e+00 +1.8359081379e+01 +3.1564071464e+01 3.6551744103e+01 1.0566000000e-01 0.0000e+00 -1.0000e+00
       13  1    2    2    0    0 -1.7889849096e+01 -1.5422315971e+01 -5.3772886137e+01 5.8731839561e+01 1.0566000000e-01 0.0000e+00 1.0000e+00
       22  1    1    0    0    0 +1.9524583469e+01 -2.9367654071e+00 +2.2208814673e+01 2.9716416336e+01 0.0000000000e+00 0.0000e+00 1.0000e+00
</event>
<event>
 4      1 +2.4041262e-06 9.11880000e+01 7.81860800e-03 1.13011600e-01
       25 -1    0    0    0    0 +0.0000000000e+00 +0.0000000000e+00 +9.9999998245e-15 1.2500000000e+02 1.2500000000e+02 0.0000e+00 0.0000e+00
      -13  1    1    0    0    0 +5.2554318065e+01 -3.1346551869e+01 -1.2713400432e+01 6.2499635007e+01 1.0566000000e-01 0.0000e+00 -1.0000e+00
       13  1    1    0    0    0 -5.2535340055e+01 +3.1337216724e+01 +1.2703358803e+01 6.2476952515e+01 1.0566000000e-01 0.0000e+00 -1.0000e+00
       22  1    1    0    0    0 -1.8978010373e-02 +9.3351451177e-03 +1.0041629174e-02 2.3412478052e-02 0.0000000000e+00 0.0000e+00 1.0000e+00
</event>
<event>
 4      1 +2.4041262e-06 9.11880000e+01 7.81860800e-03 1.13011600e-01
       25 -1    0    0    0    0 +0.0000000000e+00 +0.0000000000e+00 +9.9999998245e-15 1.2500000000e+02 1.2500000000e+02 0.0000e+00 0.0000e+00
      -13  1    1    0    0    0 +1.8977977839e+01 -2.3978805936e+01 -5.4507724003e+01 6.2499999336e+01 1.0566000000e-01 0.0000e+00 1.0000e+00
       13  1    1    0    0    0 -1.8977978040e+01 +2.3978806198e+01 +5.4507724579e+01 6.2500000000e+01 1.0566000000e-01 0.0000e+00 1.0000e+00
       22  1    1    0    0    0 +2.0156445832e-07 -2.6192326394e-07 -5.7560512972e-07 6.6374188689e-07 0.0000000000e+00 0.0000e+00 1.0000e+00
</event>
<event>
 4      1 +2.4041262e-06 9.11880000e+01 7.81860800e-03 1.13011600e-01
       25 -1    0    0    0    0 +0.0000000000e+00 +0.0000000000e+00 +9.9999998245e-15 1.2500000000e+02 1.2500000000e+02 0.0000e+00 0.0000e+00
      -11  1    1    0    0    0 -5.5023530872e-01 -7.7184344025e-02 -1.1976917684e+00 1.3202962361e+00 5.1100000000e-04 0.0000e+00 1.0000e+00
       11  1    1    0    0    0 -2.5495515080e+01 -3.5588183170e+00 -5.5500177341e+01 6.1179703842e+01 5.1100000000e-04 0.0000e+00 1.0000e+00
       22  1    1    0    0    0 +2.6045750389e+01 +3.6360026610e+00 +5.6697869109e+01 6.2499999922e+01 0.0000000000e+00 0.0000e+00 1.0000e+00
</event>
<event>
 4      1 +2.4041262e-06 9.11880000e+01 7.81860800e-03 1.13011600e-01
       25 -1    0    0    0    0 +0.0000000000e+00 +0.0000000000e+00 +9.9999998245e-15 1.2500000000e+02 1.2500000000e+02 0.0000e+00 0.0000e+00
      -11  1    1    0    0    0 +3.8529626108e+00 -1.0479501513e+01 -2.4886048334e+01 2.7276009144e+01 5.1100000000e-04 0.0000e+00 -1.0000e+00
       11  1    1    0    0    0 +1.2311536804e+01 -1.9797918422e+01 -2.6899815349e+01 3.5596791687e+01 5.1100000000e-04 0.0000e+00 1.0000e+00
       22  1    1    0    0    0 -1.6164499415e+01 +3.0277419935e+01 +5.1785863683e+01 6.2127199170e+01 0.0000000000e+00 0.0000e+00 -1.0000e+00
</event>
<event>
 4      1 +2.4041262e-06 9.11880000e+01 7.81860800e-03 1.13011600e-01
       25 -1    0    0    0    0 +0.0000000000e+00 +0.0000000000e+00 +9.9999998245e-15 1.2500000000e+02 1.2500000000e+02 0.0000e+00 0.0000e+00
      -13  1    1    0    0    0 +1.9265137730e+01 +3.9816039206e+01 -4.4156271617e+01 6.2499999975e+01 1.0566000000e-01 0.0000e+00 -1.0000e+00
       13  1    1    0    0    0 -1.9265137727e+01 -3.9816038695e+01 +4.4156271290e+01 6.2499999418e+01 1.0566000000e-01 0.0000e+00 -1.0000e+00
       22  1    1    0    0    0 -3.4890498548e-09 -5.1060715438e-07 +3.2671167010e-07 6.0619498098e-07 0.0000000000e+00 0.0000e+00 -1.0000e+00
</event>
<event>
 4      1 +2.4041262e-06 9.11880000e+01 7.81860800e-03 1.13011600e-01
       25 -1    0    0    0    0 +0.0000000000e+00 +0.0000000000e+00 +9.9999998245e-15 1.2500000000e+02 1.2500000000e+02 0.0000e+00 0.0000e+00
      -13  1    1    0    0    0 -3.4861599011e+01 -1.7986189978e+01 +4.8655979471e+01 6.2499996943e+01 1.0566000000e-01 0.0000e+00 1.0000e+00
       13  1    1    0    0    0 +3.4824216389e+01 +1.7967320558e+01 -4.8602731655e+01 6.2432262041e+01 1.0566000000e-01 0.0000e+00 1.0000e+00
       22  1    1    0    0    0 +3.7382621863e-02 +1.8869419881e-02 -5.3247816117e-02 6.7741016712e-02 0.0000000000e+00 0.0000e+00 1.0000e+00
</event>
<event>
 4      1 +2.4041262e-06 9.11880000e+01 7.81860800e-03 1.13011600e-01
       25 -1    0    0    0    0 +0.0000000000e+00 +0.0000000000e+00 +9.9999998245e-15 1.2500000000e+02 1.2500000000e+02 0.0000e+00 0.0000e+00
      -11  1    1    0    0    0 -2.6963509046e+01 +4.9666587737e+00 +1.9181447113e+01 3.3460819372e+01 5.1100000000e-04 0.0000e+00 1.0000e+00
       11  1    1    0    0    0 -2.3921842507e+01 +5.2936152006e+00 +1.5608249375e+01 2.9049859890e+01 5.1100000000e-04 0.0000e+00 -1.0000e+00
       22  1    1    0    0    0 +5.0885351552e+01 -1.0260273974e+01 -3.4789696488e+01 6.2489320738e+01 0.0000000000e+00 0.0000e+00 -1.0000e+00
</event>
<event>
 4      1 +2.4041262e-06 9.11880000e+01 7.81860800e-03 1.13011600e-01
       25 -1    0    0    0    0 +0.0000000000e+00 +0.0000000000e+00 +9.9999998245e-15 1.2500000000e+02 1.2500000000e+02 0.0000e+00 0.0000e+00
      -13  1    1    0    0    0 -1.6077630176e+01 +3.2103821936e+01 +5.1157533764e+01 6.2499999999e+01 1.0566000000e-01 0.0000e+00 -1.0000e+00
       13  1    1    0    0    0 +1.6077629945e+01 -3.2103821401e+01 -5.1157532826e+01 6.2499998896e+01 1.0566000000e-01 0.0000e+00 -1.0000e+00
       22  1    1    0    0    0 +2.3171284826e-07 -5.3561554342e-07 -9.3799095354e-07 1.1047180108e-06 0.0000000000e+00 0.0000e+00 -1.0000e+00
</event>
<event>
 4      1 +2.4041262e-06 9.11880000e+01 7.81860800e-03 1.13011600e-01
       25 -1    0    0    0    0 +0.0000000000e+00 +0.0000000000e+00 +9.9999998245e-15 1.2500000000e+02 1.2500000000e+02 0.0000e+00 0.0000e+00
      -13  1    1    0    0    0 -3.1041752877e+01 +5.3871396242e+01 -2.0568102038e+00 6.2208997637e+01 1.0566000000e-01 0.0000e+00 1.0000e+00
       13  1    1    0    0    0 +2.8167226247e+01 -5.2395682148e+01 +2.4404698386e+00 5.9537107750e+01 1.0566000000e-01 0.0000e+00 1.0000e+00
       22  1    1    0    0    0 +2.8745266308e+00 -1.4757140938e+00 -3.8365963482e-01 3.2538946131e+00 0.0000000000e+00 0.0000e+00 1.0000e+00
</event>
<event>
 4      1 +2.4041262e-06 9.11880000e+01 7.81860800e-03 1.13011600e-01
       25 -1    0    0    0    0 +0.0000000000e+00 +0.0000000000e+00 +9.9999998245e-15 1.2500000000e+02 1.2500000000e+02 0.0000e+00 0.0000e+00
      -13  1    1    0    0    0 +3.3035909749e+01 +5.2340179053e+01 +8.6817703929e+00 6.2499999819e+01 1.0566000000e-01 0.0000e+00 -1.0000e+00
       13  1    1    0    0    0 -3.3035909846e+01 -5.2340179203e+01 -8.6817704173e+00 6.2500000000e+01 1.0566000000e-01 0.0000e+00 -1.0000e+00
       22  1    1    0    0    0 +9.6933322145e-08 +1.5036089380e-07 +2.4414591451e-08 1.8055619513e-07 0.0000000000e+00 0.0000e+00 -1.0000e+00
</event>
<event>
 5      1 +2.4041262e-06 9.11880000e+01 7.81860800e-03 1.13011600e-01
       25 -1    0    0    0    0 +0.0000000000e+00 +0.0000000000e+00 +9.9999998245e-15 1.2500000000e+02 1.2500000000e+02 0.0000e+00 0.0000e+00
       23  2    1    0    0    0 +1.2656534534e+01 +1.6214100310e+01 -1.7862814757e+01 9.7757293337e+01 9.3884627784e+01 0.0000e+00 0.0000e+00
      -13  1    2    2    0    0 -3.2337753722e+01 +2.6629660568e+01 +1.0980179222e+01 4.3306404117e+01 1.0566000000e-01 0.0000e+00 -1.0000e+00
       13  1    2    2    0    0 +4.4994288256e+01 -1.0415560258e+01 -2.8842993979e+01 5.4450889220e+01 1.0566000000e-01 0.0000e+00 1.0000e+00
       22  1    1    0    0    0 -1.2656534534e+01 -1.6214100310e+01 +1.7862814757e+01 2.7242706663e+01 0.0000000000e+00 0.0000e+00 1.0000e+00
</event>
<event>
 4      1 +2.4041262e-06 9.11880000e+01 7.81860800e-03 1.13011600e-01
       25 -1    0    0    0    0 +0.0000000000e+00 +0.0000000000e+00 +9.9999998245e-15 1.2500000000e+02 1.2500000000e+02 0.0000e+00 0.0000e+00
      -13  1    1    0    0    0 +1.5409761039e+01 -1.2701585862e+01 -5.9223705445e+01 6.2499995755e+01 1.0566000000e-01 0.0000e+00 -1.0000e+00
       13  1    1    0    0    0 -1.5409763751e+01 +1.2701586464e+01 +5.9223708895e+01 6.2499999815e+01 1.0566000000e-01 0.0000e+00 -1.0000e+00
       22  1    1    0    0    0 +2.7124764799e-06 -6.0192614376e-07 -3.4502126727e-06 4.4298771115e-06 0.0000000000e+00 0.0000e+00 -1.0000e+00
</event>
<event>
 4      1 +2.4041262e-06 9.11880000e+01 7.81860800e-03 1.13011600e-01
       25 -1    0    0    0    0 +0.0000000000e+00 +0.0000000000e+00 +9.9999998245e-15 1.2500000000e+02 1.2500000000e+02 0.0000e+00 0.0000e+00
      -13  1    1    0    0    0 +5.5304909376e+01 +2.4291508156e+01 -1.6047689531e+01 6.2499998983e+01 1.0566000000e-01 0.0000e+00 1.0000e+00
       13  1    1    0    0    0 -5.5304910279e+01 -2.4291508542e+01 +1.6047689794e+01 6.2500000000e+01 1.0566000000e-01 0.0000e+00 1.0000e+00
       22  1    1    0    0    0 +9.0351317758e-07 +3.8556921734e-07 -2.6387923823e-07 1.0171685877e-06 0.0000000000e+00 0.0000e+00 1.0000e+00
</event>
<event>
 4      1 +2.4041262e-06 9.11880000e+01 7.81860800e-03 1.13011600e-01
       25 -1    0    0    0    0 +0.0000000000e+00 +0.0000000000e+00 +9.9999998245e-15 1.2500000000e+02 1.2500000000e+02 0.0000e+00 0.0000e+00
      -13  1    1    0    0    0 +4.5977455908e+01 +4.2330029117e+01 -6.9355507769e-01 6.2499999995e+01 1.0566000000e-01 0.0000e+00 -1.0000e+00
       13  1    1    0    0    0 -4.5977455362e+01 -4.2330028648e+01 +6.9355495781e-01 6.2499999275e+01 1.0566000000e-01 0.0000e+00 -1.0000e+00
       22  1    1    0    0    0 -5.4578556333e-07 -4.6911272007e-07 +1.1988048947e-07 7.2960260213e-07 0.0000000000e+00 0.0000e+00 -1.0000e+00
</event>
<event>
 4      1 +2.4041262e-06 9.11880000e+01 7.81860800e-03 1.13011600e-01
       25 -1    0    0    0    0 +0.0000000000e+00 +0.0000000000e+00 +9.9999998245e-15 1.2500000000e+02 1.2500000000e+02 0.0000e+00 0.0000e+00
      -13  1    1    0    0    0 +5.1967489846e+01 +3.2186245049e+01 -1.3025531263e+01 6.2500000000e+01 1.0566000000e-01 0.0000e+00 -1.0000e+00
       13  1    1    0    0    0 -5.1967489845e+01 -3.2186245049e+01 +1.3025531263e+01 6.2499999999e+01 1.0566000000e-01 0.0000e+00 -1.0000e+00
       22  1    1    0    0    0 -1.2647938857e-09 +3.6012422530e-10 +3.1855329769e-10 1.3530961660e-09 0.0000000000e+00 0.0000e+00 1.0000e+00
</event>
<event>
 4      1 +2.4041262e-06 9.11880000e+01 7.81860800e-03 1.13011600e-01
       25 -1    0    0    0    0 +0.0000000000e+00 +0.0000000000e+00 +9.9999998245e-15 1.2500000000e+02 1.2500000000e+02 0.0000e+00 0.0000e+00
      -13  1    1    0    0    0 +4.3908771766e+01 -3.9967556345e+01 -1.7660830719e+01 6.1945959545e+01 1.0566000000e-01 0.0000e+00 1.0000e+00
       13  1    1    0    0    0 -4.4348263473e+01 +4.0324900834e+01 +1.7658511836e+01 6.2487601207e+01 1.0566000000e-01 0.0000e+00 1.0000e+00
       22  1    1    0    0    0 +4.3949170710e-01 -3.5734448899e-01 +2.3188824879e-03 5.6643924797e-01 0.0000000000e+00 0.0000e+00 -1.0000e+00
</event>
<event>
 4      1 +2.4041262e-06 9.11880000e+01 7.81860800e-03 1.13011600e-01
       25 -1    0    0    0    0 +0.0000000000e+00 +0.0000000000e+00 +9.9999998245e-15 1.2500000000e+02 1.2500000000e+02 0.0000e+00 0.0000e+00
      -11  1    1    0    0    0 +3.8171169129e+00 +6.0959313647e+00 -1.0191845503e+01 1.2474152306e+01 5.1100000000e-04 0.0000e+00 1.0000e+00
       11  1    1    0    0    0 +1.5308769655e+01 +2.4445317873e+01 -4.0873627732e+01 5.0025847704e+01 5.1100000000e-04 0.0000e+00 1.0000e+00
       22  1    1    0    0    0 -1.9125886568e+01 -3.0541249238e+01 +5.1065473235e+01 6.2499999990e+01 0.0000000000e+00 0.0000e+00 1.0000e+00
</event>
<event>
 4      1 +2.4041262e-06 9.11880000e+01 7.81860800e-03 1.13011600e-01
       25 -1    0    0    0    0 +0.0000000000e+00 +0.0000000000e+00 +9.9999998245e-15 1.2500000000e+02 1.2500000000e+02 0.0000e+00 0.0000e+00
      -13  1    1    0    0    0 -2.3920511844e+01 +8.8203715028e+00 +5.7063274919e+01 6.2499746791e+01 1.0566000000e-01 0.0000e+00 -1.0000e+00
       13  1    1    0    0    0 +2.3626579070e+01 -8.6904298916e+00 -5.6390289495e+01 6.1754471285e+01 1.0566000000e-01 0.0000e+00 -1.0000e+00
       22  1    1    0    0    0 +2.9393277410e-01 -1.2994161116e-01 -6.7298542408e-01 7.4578192457e-01 0.0000000000e+00 0.0000e+00 -1.0000e+00
</event>
<event>
 4      1 +2.4041262e-06 9.11880000e+01 7.81860800e-03 1.13011600e-01
       25 -1    0    0    0    0 +0.0000000000e+00 +0.0000000000e+00 +9.9999998245e-15 1.2500000000e+02 1.2500000000e+02 0.0000e+00 0.0000e+00
      -11  1    1    0    0    0 +2.0554625204e+01 +3.3892999857e+01 +3.3251484016e+01 5.1738662972e+01 5.1100000000e-04 0.0000e+00 1.0000e+00
       11  1    1    0    0    0 +4.2854908134e+00 +7.0287360242e+00 +6.9309542488e+00 1.0761351619e+01 5.1100000000e-04 0.0000e+00 -1.0000e+00
       22  1    1    0    0    0 -2.4840116018e+01 -4.0921735881e+01 -4.0182438265e+01 6.2499985409e+01 0.0000000000e+00 0.0000e+00 1.0000e+00
</event>
<event>
 5      1 +2.4041262e-06 9.11880000e+01 7.81860800e-03 1.13011600e-01
       25 -1    0    0    0    0 +0.0000000000e+00 +0.0000000000e+00 +9.9999998245e-15 1.2500000000e+02 1.2500000000e+02 0.0000e+00 0.0000e+00
       23  2    1    0    0    0 +1.7560074368e+01 +1.8469141617e+01 +1.4336492314e+01 9.5759609856e+01 9.1186087009e+01 0.0000e+00 0.0000e+00
      -13  1    2    2    0    0 -3.6848109024e+01 +1.2712993237e+01 -8.1597637100e-01 3.8988207412e+01 1.0566000000e-01 0.0000e+00 1.0000e+00
       13  1    2    2    0    0 +5.4408183392e+01 +5.7561483800e+00 +1.5152468685e+01 5.6771402445e+01 1.0566000000e-01 0.0000e+00 -1.0000e+00
       22  1    1    0    0    0 -1.7560074368e+01 -1.8469141617e+01 -1.4336492314e+01 2.9240390144e+01 0.0000000000e+00 0.0000e+00 -1.0000e+00
</event>
<event>
 4      1 +2.4041262e-06 9.11880000e+01 7.81860800e-03 1.13011600e-01
       25 -1    0    0    0    0 +0.0000000000e+00 +0.0000000000e+00 +9.9999998245e-15 1.2500000000e+02 1.2500000000e+02 0.0000e+00 0.0000e+00
      -11  1    1    0    0    0 +9.4727056456e-01 -3.4979948226e+00 +1.4495947752e+00 3.9031544390e+00 5.1100000000e-04 0.0000e+00 1.0000e+00
       11  1    1    0    0    0 +1.4372282731e+01 -5.2454112000e+01 +2.1808136726e+01 5.8596853195e+01 5.1100000000e-04 0.0000e+00 -1.0000e+00
       22  1    1    0    0    0 -1.5319553295e+01 +5.5952106823e+01 -2.3257731502e+01 6.2499992366e+01 0.0000000000e+00 0.0000e+00 -1.0000e+00
</event>
<event>
 4      1 +2.4041262e-06 9.11880000e+01 7.81860800e-03 1.13011600e-01
       25 -1    0    0    0    0 +0.0000000000e+00 +0.0000000000e+00 +9.9999998245e-15 1.2500000000e+02 1.2500000000e+02 0.0000e+00 0.0000e+00
      -11  1    1    0    0    0 +9.0744854053e+00 +2.2206920679e+01 +1.3793382260e+01 2.7672206378e+01 5.1100000000e-04 0.0000e+00 1.0000e+00
       11  1    1    0    0    0 +1.1425883972e+01 +2.7954881249e+01 +1.7347882979e+01 3.4827794278e+01 5.1100000000e-04 0.0000e+00 -1.0000e+00
       22  1    1    0    0    0 -2.0500369377e+01 -5.0161801928e+01 -3.1141265238e+01 6.2499999343e+01 0.0000000000e+00 0.0000e+00 -1.0000e+00
</event>
<event>
 5      1 +2.4041262e-06 9.11880000e+01 7.81860800e-03 1.13011600e-01
       25 -1    0    0    0    0 +0.0000000000e+00 +0.0000000000e+00 +9.9999998245e-15 1.2500000000e+02 1.2500000000e+02 0.0000e+00 0.0000e+00
       23  2    1    0    0    0 +5.2682173809e-01 -2.5746391783e+01 +1.0168107934e+01 9.7313457241e+01 9.3291823384e+01 0.0000e+00 0.0000e+00
      -13  1    2    2    0    0 -1.4360374753e+01 -5.0743437830e+01 -1.9058052503e+01 5.6074391438e+01 1.0566000000e-01 0.0000e+00 1.0000e+00
       13  1    2    2    0    0 +1.4887196491e+01 +2.4997046047e+01 +2.9226160437e+01 4.1239065804e+01 1.0566000000e-01 0.0000e+00 -1.0000e+00
       22  1    1    0    0    0 -5.2682173809e-01 +2.5746391783e+01 -1.0168107934e+01 2.7686542759e+01 0.0000000000e+00 0.0000e+00 1.0000e+00
</event>
<event>
 5      1 +2.4041262e-06 9.11880000e+01 7.81860800e-03 1.13011600e-01
       25 -1    0    0    0    0 +0.0000000000e+00 +0.0000000000e+00 +9.9999998245e-15 1.2500000000e+02 1.2500000000e+02 0.0000e+00 0.0000e+00
       23  2    1    0    0    0 -2.5900774016e+01 +7.1915223519e+00 +1.2402826713e+01 9.5395976644e+01 9.0686240197e+01 0.0000e+00 0.0000e+00
      -11  1    2    2    0    0 -4.9188816107e+01 -2.4681865538e+01 +5.3139384373e+00 5.5289891105e+01 5.1100000000e-04 0.0000e+00 1.0000e+00
       11  1    2    2    0    0 +2.3288042091e+01 +3.1873387890e+01 +7.0888882759e+00 4.0106085539e+01 5.1100000000e-04 0.0000e+00 -1.0000e+00
       22  1    1    0    0    0 +2.5900774016e+01 -7.1915223519e+00 -1.2402826713e+01 2.9604023356e+01 0.0000000000e+00 0.0000e+00 1.0000e+00
</event>
<event>
 4      1 +2.4041262e-06 9.11880000e+01 7.81860800e-03 1.13011600e-01
       25 -1    0    0    0    0 +0.0000000000e+00 +0.0000000000e+00 +9.9999998245e-15 1.2500000000e+02 1.2500000000e+02 0.0000e+00 0.0000e+00
      -13  1    1    0    0    0 -3.7222043563e+01 +1.6377792880e+01 +1.4534619857e+01 4.3185402222e+01 1.0566000000e-01 0.0000e+00 -1.0000e+00
       13  1    1    0    0    0 -1.5792584486e+01 +8.9654084994e+00 +6.6677477384e+00 1.9345653213e+01 1.0566000000e-01 0.0000e+00 1.0000e+00
       22  1    1    0    0    0 +5.3014628049e+01 -2.5343201379e+01 -2.1202367596e+01 6.2468944565e+01 0.0000000000e+00 0.0000e+00 -1.0000e+00
</event>
<event>
 4      1 +2.4041262e-06 9.11880000e+01 7.81860800e-03 1.13011600e-01
       25 -1    0    0    0    0 +0.0000000000e+00 +0.0000000000e+00 +9.9999998245e-15 1.2500000000e+02 1.2500000000e+02 0.0000e+00 0.0000e+00
      -11  1    1    0    0    0 +2.0091869952e-01 +4.5775418354e-01 -8.5024171964e-01 9.8631559823e-01 5.1100000000e-04 0.0000e+00 -1.0000e+00
       11  1    1    0    0    0 +1.2678760297e+01 +2.8662362185e+01 -5.2930631549e+01 6.1513687299e+01 5.1100000000e-04 0.0000e+00 1.0000e+00
       22  1    1    0    0    0 -1.2879678997e+01 -2.9120116369e+01 +5.3780873268e+01 6.2499997103e+01 0.0000000000e+00 0.0000e+00 1.0000e+00
</event>
<event>
 4      1 +2.4041262e-06 9.11880000e+01 7.81860800e-03 1.13011600e-01
       25 -1    0    0    0    0 +0.0000000000e+00 +0.0000000000e+00 +9.9999998245e-15 1.2500000000e+02 1.2500000000e+02 0.0000e+00 0.0000e+00
      -13  1    1    0    0    0 +2.4984799673e+01 -5.4666676770e+01 +1.6756250910e+01 6.2397667202e+01 1.0566000000e-01 0.0000e+00 -1.0000e+00
       13  1    1    0    0    0 -2.5028000612e+01 +5.4754798515e+01 -1.6785322579e+01 6.2499975946e+01 1.0566000000e-01 0.0000e+00 -1.0000e+00
       22  1    1    0    0    0 +4.3200939796e-02 -8.8121745435e-02 +2.9071669094e-02 1.0235685205e-01 0.0000000000e+00 0.0000e+00 -1.0000e+00
</event>
<event>
 4      1 +2.4041262e-06 9.11880000e+01 7.81860800e-03 1.13011600e-01
       25 -1    0    0    0    0 +0.0000000000e+00 +0.0000000000e+00 +9.9999998245e-15 1.2500000000e+02 1.2500000000e+02 0.0000e+00 0.0000e+00
      -11  1    1    0    0    0 -8.0360073503e+00 +2.0862175887e+01 +4.1838291688e+01 4.7436804788e+01 5.1100000000e-04 0.0000e+00 -1.0000e+00
       11  1    1    0    0    0 -2.5163849048e+00 +6.6038176393e+00 +1.3302556159e+01 1.5063220141e+01 5.1100000000e-04 0.0000e+00 1.0000e+00
       22  1    1    0    0    0 +1.0552392255e+01 -2.7465993526e+01 -5.5140847847e+01 6.2499975071e+01 0.0000000000e+00 0.0000e+00 -1.0000e+00
</event>
<event>
 4      1 +2.4041262e-06 9.11880000e+01 7.81860800e-03 1.13011600e-01
       25 -1    0    0    0    0 +0.0000000000e+00 +0.0000000000e+00 +9.9999998245e-15 1.2500000000e+02 1.2500000000e+02 0.0000e+00 0.0000e+00
      -13  1    1    0    0    0 +2.5961977909e+01 -5.3010951702e+01 +2.0543941653e+01 6.2500000000e+01 1.0566000000e-01 0.0000e+00 -1.0000e+00
       13  1    1    0    0    0 -2.5961977738e+01 +5.3010951354e+01 -2.0543941497e+01 6.2499999582e+01 1.0566000000e-01 0.0000e+00 -1.0000e+00
       22  1    1    0    0    0 -1.7044997548e-07 +3.4851398997e-07 -1.5652828073e-07 4.1834949267e-07 0.0000000000e+00 0.0000e+00 1.0000e+00
</event>
<event>
 4      1 +2.4041262e-06 9.11880000e+01 7.81860800e-03 1.13011600e-01
       25 -1    0    0    0    0 +0.0000000000e+00 +0.0000000000e+00 +9.9999998245e-15 1.2500000000e+02 1.2500000000e+02 0.0000e+00 0.0000e+00
      -13  1    1    0    0    0 -1.3076093746e+01 -1.3315296479e+01 +5.9648616716e+01 6.2499999905e+01 1.0566000000e-01 0.0000e+00 -1.0000e+00
       13  1    1    0    0    0 +1.3074265023e+01 +1.3313512851e+01 -5.9640456470e+01 6.2491449353e+01 1.0566000000e-01 0.0000e+00 -1.0000e+00
       22  1    1    0    0    0 +1.8287233287e-03 +1.7836286640e-03 -8.1602461390e-03 8.5507413289e-03 0.0000000000e+00 0.0000e+00 -1.0000e+00
</event>
<event>
 5      1 +2.4041262e-06 9.11880000e+01 7.81860800e-03 1.13011600e-01
       25 -1    0    0    0    0 +0.0000000000e+00 +0.0000000000e+00 +9.9999998245e-15 1.2500000000e+02 1.2500000000e+02 0.0000e+00 0.0000e+00
       23  2    1    0    0    0 -6.8512397549e+00 +1.0790846227e+01 -2.6052633417e+01 9.5980669263e+01 9.1488618504e+01 0.0000e+00 0.0000e+00
      -11  1    2    2    0    0 +1.9779539721e+01 +4.4879152280e+01 -1.1910031171e+01 5.0469964768e+01 5.1100000000e-04 0.0000e+00 -1.0000e+00
       11  1    2    2    0    0 -2.6630779476e+01 -3.4088306053e+01 -1.4142602246e+01 4.5510704495e+01 5.1100000000e-04 0.0000e+00 1.0000e+00
       22  1    1    0    0    0 +6.8512397549e+00 -1.0790846227e+01 +2.6052633417e+01 2.9019330737e+01 0.0000000000e+00 0.0000e+00 1.0000e+00
</event>
<event>
 4      1 +2.4041262e-06 9.11880000e+01 7.81860800e-03 1.13011600e-01
       25 -1    0    0    0    0 +0.0000000000e+00 +0.0000000000e+00 +9.9999998245e-15 1.2500000000e+02 1.2500000000e+02 0.0000e+00 0.0000e+00
      -13  1    1    0    0    0 +1.6157414196e+01 -3.3587884181e+01 +5.0170019320e+01 6.2499999998e+01 1.0566000000e-01 0.0000e+00 -1.0000e+00
       13  1    1    0    0    0 -1.6157413999e+01 +3.3587883696e+01 -5.0170018493e+01 6.2499999023e+01 1.0566000000e-01 0.0000e+00 -1.0000e+00
       22  1    1    0    0    0 -1.9673473374e-07 +4.8511421013e-07 -8.2671719526e-07 9.7852014454e-07 0.0000000000e+00 0.0000e+00 1.0000e+00
</event>
<event>
 5      1 +2.4041262e-06 9.11880000e+01 7.81860800e-03 1.13011600e-01
       25 -1    0    0    0    0 +0.0000000000e+00 +0.0000000000e+00 +9.9999998245e-15 1.2500000000e+02 1.2500000000e+02 0.0000e+00 0.0000e+00
       23  2    1    0    0    0 -3.6183669053e+00 -2.3847066734e+01 -1.5731896144e+01 9.6202991003e+01 9.1791871921e+01 0.0000e+00 0.0000e+00
      -13  1    2    2    0    0 +8.1862499576e+00 -5.0646260583e+01 -3.4129881141e+01 6.1619139479e+01 1.0566000000e-01 0.0000e+00 1.0000e+00
       13  1    2    2    0    0 -1.1804616863e+01 +2.6799193849e+01 +1.8397984997e+01 3.4583851524e+01 1.0566000000e-01 0.0000e+00 -1.0000e+00
       22  1    1    0    0    0 +3.6183669053e+00 +2.3847066734e+01 +1.5731896144e+01 2.8797008997e+01 0.0000000000e+00 0.0000e+00 1.0000e+00
</event>
<event>
 4      1 +2.4041262e-06 9.11880000e+01 7.81860800e-03 1.13011600e-01
       25 -1    0    0    0    0 +0.0000000000e+00 +0.0000000000e+00 +9.9999998245e-15 1.2500000000e+02 1.2500000000e+02 0.0000e+00 0.0000e+00
      -13  1    1    0    0    0 -2.3349240407e+01 -5.7272016176e+01 +8.8464179925e+00 6.2478325360e+01 1.0566000000e-01 0.0000e+00 1.0000e+00
       13  1    1    0    0    0 +2.3358881201e+01 +5.7291096325e+01 -8.8502352353e+00 6.2499959015e+01 1.0566000000e-01 0.0000e+00 1.0000e+00
       22  1    1    0    0    0 -9.6407945134e-03 -1.9080149198e-02 +3.8172427763e-03 2.1715624667e-02 0.0000000000e+00 0.0000e+00 -1.0000e+00
</event>
<event>
 4      1 +2.4041262e-06 9.11880000e+01 7.81860800e-03 1.13011600e-01
       25 -1    0    0    0    0 +0.0000000000e+00 +0.0000000000e+00 +9.9999998245e-15 1.2500000000e+02 1.2500000000e+02 0.0000e+00 0.0000e+00
      -13  1    1    0    0    0 +3.1137068341e+01 -5.3880850364e+01 +1.3538909696e-02 6.2230815583e+01 1.0566000000e-01 0.0000e+00 1.0000e+00
       13  1    1    0    0    0 -3.1265470264e+01 +5.4117487126e+01 -1.5646555438e-02 6.2499947620e+01 1.0566000000e-01 0.0000e+00 1.0000e+00
       22  1    1    0    0    0 +1.2840192285e-01 -2.3663676133e-01 +2.1076457422e-03 2.6923679685e-01 0.0000000000e+00 0.0000e+00 -1.0000e+00
</event>
<event>
 4      1 +2.4041262e-06 9.11880000e+01 7.81860800e-03 1.13011600e-01
       25 -1    0    0    0    0 +0.0000000000e+00 +0.0000000000e+00 +9.9999998245e-15 1.2500000000e+02 1.2500000000e+02 0.0000e+00 0.0000e+00
      -13  1    1    0    0    0 +2.8133244217e+00 -4.9097582591e+01 +3.7585822503e+01 6.1896628566e+01 1.0566000000e-01 0.0000e+00 -1.0000e+00
       13  1    1    0    0    0 -9.5151612093e-01 +4.6218954533e+01 -3.7731222809e+01 5.9672049401e+01 1.0566000000e-01 0.0000e+00 -1.0000e+00
       22  1    1    0    0    0 -1.8618083008e+00 +2.8786280585e+00 +1.4540030598e-01 3.4313220334e+00 0.0000000000e+00 0.0000e+00 1.0000e+00
</event>
<event>
 4      1 +2.4041262e-06 9.11880000e+01 7.81860800e-03 1.13011600e-01
       25 -1    0    0    0    0 +0.0000000000e+00 +0.0000000000e+00 +9.9999998245e-15 1.2500000000e+02 1.2500000000e+02 0.0000e+00 0.0000e+00
      -13  1    1    0    0    0 +4.4544245525e+01 -3.6606519422e+01 -1.3471375465e+01 5.9209088784e+01 1.0566000000e-01 0.0000e+00 -1.0000e+00
       13  1    1    0    0    0 -1.5807331891e+01 +3.1432523107e+01 +8.0529554724e+00 3.6093441319e+01 1.0566000000e-01 0.0000e+00 1.0000e+00
       22  1    1    0    0    0 -2.8736913635e+01 +5.1739963155e+00 +5.4184199930e+00 2.9697469898e+01 0.0000000000e+00 0.0000e+00 -1.0000e+00
</event>
<event>
 4      1 +2.4041262e-06 9.11880000e+01 7.81860800e-03 1.13011600e-01
       25 -1    0    0    0    0 +0.0000000000e+00 +0.0000000000e+00 +9.9999998245e-15 1.2500000000e+02 1.2500000000e+02 0.0000e+00 0.0000e+00
      -13  1    1    0    0    0 +3.1891395650e+01 -4.1591950263e+01 -3.4048309690e+01 6.2500000000e+01 1.0566000000e-01 0.0000e+00 1.0000e+00
       13  1    1    0    0    0 -3.1891395581e+01 +4.1591950180e+01 +3.4048309621e+01 6.2499999872e+01 1.0566000000e-01 0.0000e+00 1.0000e+00
       22  1    1    0    0    0 -6.9019087033e-08 +8.3234146425e-08 +6.9394606649e-08 1.2848022781e-07 0.0000000000e+00 0.0000e+00 -1.0000e+00
</event>
<event>
 4      1 +2.4041262e-06 9.11880000e+01 7.81860800e-03 1.13011600e-01
       25 -1    0    0    0    0 +0.0000000000e+00 +0.0000000000e+00 +9.9999998245e-15 1.2500000000e+02 1.2500000000e+02 0.0000e+00 0.0000e+00
      -13  1    1    0    0    0 +4.4845264151e+00 -1.4538371356e+01 -6.0619828580e+01 6.2500000000e+01 1.0566000000e-01 0.0000e+00 -1.0000e+00
       13  1    1    0    0    0 -4.4845264152e+00 +1.4538371356e+01 +6.0619828580e+01 6.2499999999e+01 1.0566000000e-01 0.0000e+00 -1.0000e+00
       22  1    1    0    0    0 +8.7404315688e-11 +2.8420758322e-10 +5.5693713970e-10 6.3134177934e-10 0.0000000000e+00 0.0000e+00 -1.0000e+00
</event>
<event>
 4      1 +2.4041262e-06 9.11880000e+01 7.81860800e-03 1.13011600e-01
       25 -1    0    0    0    0 +0.0000000000e+00 +0.0000000000e+00 +9.9999998245e-15 1.2500000000e+02 1.2500000000e+02 0.0000e+00 0.0000e+00
      -11  1    1    0    0    0 -5.3235133728e+01 +2.9110049248e+01 -7.5756823191e+00 6.1145444582e+01 5.1100000000e-04 0.0000e+00 1.0000e+00
       11  1    1    0    0    0 -1.1785149563e+00 +6.5034127434e-01 -1.5203880527e-01 1.3546059703e+00 5.1100000000e-04 0.0000e+00 -1.0000e+00
       22  1    1    0    0    0 +5.4413648684e+01 -2.9760390523e+01 +7.7277211244e+00 6.2499949448e+01 0.0000000000e+00 0.0000e+00 1.0000e+00
</event>
<event>
 4      1 +2.4041262e-06 9.11880000e+01 7.81860800e-03 1.13011600e-01
       25 -1    0    0    0    0 +0.0000000000e+00 +0.0000000000e+00 +9.9999998245e-15 1.2500000000e+02 1.2500000000e+02 0.0000e+00 0.0000e+00
      -13  1    1    0    0    0 -3.8637910560e+01 +5.9024493327e+00 +4.8769988675e+01 6.2500000000e+01 1.0566000000e-01 0.0000e+00 -1.0000e+00
       13  1    1    0    0    0 +3.8637899259e+01 -5.9024475369e+00 -4.8769974585e+01 6.2499981850e+01 1.0566000000e-01 0.0000e+00 -1.0000e+00
       22  1    1    0    0    0 +1.1300295642e-05 -1.7958817248e-06 -1.4089857873e-05 1.8150646480e-05 0.0000000000e+00 0.0000e+00 1.0000e+00
</event>
<event>
 4      1 +2.4041262e-06 9.11880000e+01 7.81860800e-03 1.13011600e-01
       25 -1    0    0    0    0 +0.0000000000e+00 +0.0000000000e+00 +9.9999998245e-15 1.2500000000e+02 1.2500000000e+02 0.0000e+00 0.0000e+00
      -13  1    1    0    0    0 +6.1072184873e+01 +3.2882295564e+00 +1.2869030440e+01 6.2499978619e+01 1.0566000000e-01 0.0000e+00 1.0000e+00
       13  1    1    0    0    0 -6.1072190453e+01 -3.2882285988e+00 -1.2868983822e+01 6.2499974421e+01 1.0566000000e-01 0.0000e+00 1.0000e+00
       22  1    1    0    0    0 +5.5794364352e-06 -9.5759550404e-07 -4.6617489845e-05 4.6959955917e-05 0.0000000000e+00 0.0000e+00 -1.0000e+00
</event>
<event>
 4      1 +2.4041262e-06 9.11880000e+01 7.81860800e-03 1.13011600e-01
       25 -1    0    0    0    0 +0.0000000000e+00 +0.0000000000e+00 +9.9999998245e-15 1.2500000000e+02 1.2500000000e+02 0.0000e+00 0.0000e+00
      -13  1    1    0    0    0 -4.1276470127e+01 +2.2318944160e+01 -4.0889623891e+01 6.2240298526e+01 1.0566000000e-01 0.0000e+00 -1.0000e+00
       13  1    1    0    0    0 +4.1449230879e+01 -2.2411704051e+01 +4.1059901730e+01 6.2499999304e+01 1.0566000000e-01 0.0000e+00 -1.0000e+00
       22  1    1    0    0    0 -1.7276075211e-01 +9.2759891630e-02 -1.7027783838e-01 2.5970217020e-01 0.0000000000e+00 0.0000e+00 1.0000e+00
</event>
<event>
 4      1 +2.4041262e-06 9.11880000e+01 7.81860800e-03 1.13011600e-01
       25 -1    0    0    0    0 +0.0000000000e+00 +0.0000000000e+00 +9.9999998245e-15 1.2500000000e+02 1.2500000000e+02 0.0000e+00 0.0000e+00
      -11  1    1    0    0    0 -2.4185947799e+01 -2.8986878652e+01 +2.6013106822e+01 4.5846275003e+01 5.1100000000e-04 0.0000e+00 -1.0000e+00
       11  1    1    0    0    0 -8.7571029576e+00 -1.0577856173e+01 +9.4217882849e+00 1.6653767987e+01 5.1100000000e-04 0.0000e+00 1.0000e+00
       22  1    1    0    0    0 +3.2943050757e+01 +3.9564734825e+01 -3.5434895107e+01 6.2499957009e+01 0.0000000000e+00 0.0000e+00 -1.0000e+00
</event>
<event>
 5      1 +2.4041262e-06 9.11880000e+01 7.81860800e-03 1.13011600e-01
       25 -1    0    0    0    0 +0.0000000000e+00 +0.0000000000e+00 +9.9999998245e-15 1.2500000000e+02 1.2500000000e+02 0.0000e+00 0.0000e+00
       23  2    1    0    0    0 -1.7840831777e+01 -5.0619726873e+00 +1.8908172723e+01 9.8515328174e+01 9.4888524299e+01 0.0000e+00 0.0000e+00
      -11  1    2    2    0    0 -2.9661514131e+01 -2.2431117713e+00 +5.3850587678e+01 6.1520100491e+01 5.1100000000e-04 0.0000e+00 1.0000e+00
       11  1    2    2    0    0 +1.1820682353e+01 -2.8188609160e+00 -3.4942414955e+01 3.6995227683e+01 5.1100000000e-04 0.0000e+00 -1.0000e+00
       22  1    1    0    0    0 +1.7840831777e+01 +5.0619726873e+00 -1.8908172723e+01 2.6484671826e+01 0.0000000000e+00 0.0000e+00 1.0000e+00
</event>
<event>
 5      1 +2.4041262e-06 9.11880000e+01 7.81860800e-03 1.13011600e-01
       25 -1    0    0    0    0 +0.0000000000e+00 +0.0000000000e+00 +9.9999998245e-15 1.2500000000e+02 1.2500000000e+02 0.0000e+00 0.0000e+00
       23  2    1    0    0    0 -1.8207198077e+01 +2.2715893258e+01 -4.2857755328e+00 9.5574131444e+01 9.0931473435e+01 0.0000e+00 0.0000e+00
      -13  1    2    2    0    0 +2.1258730039e+01 -2.5104123490e+01 +3.5116780532e+00 3.3083132649e+01 1.0566000000e-01 0.0000e+00 1.0000e+00
       13  1    2    2    0    0 -3.9465928117e+01 +4.7820016748e+01 -7.7974535860e+00 6.2490998795e+01 1.0566000000e-01 0.0000e+00 -1.0000e+00
       22  1    1    0    0    0 +1.8207198077e+01 -2.2715893258e+01 +4.2857755328e+00 2.9425868556e+01 0.0000000000e+00 0.0000e+00 -1.0000e+00
</event>
<event>
 4      1 +2.4041262e-06 9.11880000e+01 7.81860800e-03 1.13011600e-01
       25 -1    0    0    0    0 +0.0000000000e+00 +0.0000000000e+00 +9.9999998245e-15 1.2500000000e+02 1.2500000000e+02 0.0000e+00 0.0000e+00
      -11  1    1    0    0    0 +3.6352465654e-01 -3.4920790153e-01 -3.1685250092e+00 3.2083714451e+00 5.1100000000e-04 0.0000e+00 -1.0000e+00
       11  1    1    0    0    0 +6.5124664289e+00 -6.5112149294e+00 -5.8572094531e+01 5.9291638507e+01 5.1100000000e-04 0.0000e+00 1.0000e+00
       22  1    1    0    0    0 -6.8759910854e+00 +6.8604228309e+00 +6.1740619540e+01 6.2499990048e+01 0.0000000000e+00 0.0000e+00 1.0000e+00
</event>
<event>
 4      1 +2.4041262e-06 9.11880000e+01 7.81860800e-03 1.13011600e-01
       25 -1    0    0    0    0 +0.0000000000e+00 +0.0000000000e+00 +9.9999998245e-15 1.2500000000e+02 1.2500000000e+02 0.0000e+00 0.0000e+00
      -11  1    1    0    0    0 +5.1747308465e+00 +1.0955044511e+01 +7.7029491954e+00 1.4357098110e+01 5.1100000000e-04 0.0000e+00 -1.0000e+00
       11  1    1    0    0    0 +1.7475282337e+01 +3.6907368554e+01 +2.5499359986e+01 4.8143085758e+01 5.1100000000e-04 0.0000e+00 1.0000e+00
       22  1    1    0    0    0 -2.2650013184e+01 -4.7862413065e+01 -3.3202309181e+01 6.2499816132e+01 0.0000000000e+00 0.0000e+00 1.0000e+00
</event>
<event>
 4      1 +2.4041262e-06 9.11880000e+01 7.81860800e-03 1.13011600e-01
       25 -1    0    0    0    0 +0.0000000000e+00 +0.0000000000e+00 +9.9999998245e-15 1.2500000000e+02 1.2500000000e+02 0.0000e+00 0.0000e+00
      -13  1    1    0    0    0 +9.6032494707e+00 +5.8527190009e+01 +1.9710571890e+01 6.2499377429e+01 1.0566000000e-01 0.0000e+00 1.0000e+00
       13  1    1    0    0    0 -9.6033562930e+00 -5.8527768270e+01 -1.9710776603e+01 6.2499999912e+01 1.0566000000e-01 0.0000e+00 1.0000e+00
       22  1    1    0    0    0 +1.0682222013e-04 +5.7826017415e-04 +2.0471310905e-04 6.2265823108e-04 0.0000000000e+00 0.0000e+00 -1.0000e+00
</event>
<event>
 4      1 +2.4041262e-06 9.11880000e+01 7.81860800e-03 1.13011600e-01
       25 -1    0    0    0    0 +0.0000000000e+00 +0.0000000000e+00 +9.9999998245e-15 1.2500000000e+02 1.2500000000e+02 0.0000e+00 0.0000e+00
      -13  1    1    0    0    0 -5.1656382263e+01 +1.3370914920e+01 +3.2543320306e+01 6.2499936440e+01 1.0566000000e-01 0.0000e+00 -1.0000e+00
       13  1    1    0    0    0 +5.0654908610e+01 -1.3116662675e+01 -3.1893668329e+01 6.1279554906e+01 1.0566000000e-01 0.0000e+00 -1.0000e+00
       22  1    1    0    0    0 +1.0014736539e+00 -2.5425224555e-01 -6.4965197766e-01 1.2205086546e+00 0.0000000000e+00 0.0000e+00 -1.0000e+00
</event>
<event>
 4      1 +2.4041262e-06 9.11880000e+01 7.81860800e-03 1.13011600e-01
       25 -1    0    0    0    0 +0.0000000000e+00 +0.0000000000e+00 +9.9999998245e-15 1.2500000000e+02 1.2500000000e+02 0.0000e+00 0.0000e+00
      -13  1    1    0    0    0 -2.8799737468e+01 -1.3567141342e+01 -5.3784260091e+01 6.2500000000e+01 1.0566000000e-01 0.0000e+00 1.0000e+00
       13  1    1    0    0    0 +2.8799736699e+01 +1.3567140978e+01 +5.3784258708e+01 6.2499998376e+01 1.0566000000e-01 0.0000e+00 1.0000e+00
       22  1    1    0    0    0 +7.6885054599e-07 +3.6430754162e-07 +1.3833628830e-06 1.6240517273e-06 0.0000000000e+00 0.0000e+00 -1.0000e+00
</event>
<event>
 4      1 +2.4041262e-06 9.11880000e+01 7.81860800e-03 1.13011600e-01
       25 -1    0    0    0    0 +0.0000000000e+00 +0.0000000000e+00 +9.9999998245e-15 1.2500000000e+02 1.2500000000e+02 0.0000e+00 0.0000e+00
      -13  1    1    0    0    0 +5.4847963230e+01 -2.9790584983e+01 +3.2342543190e+00 6.2499996714e+01 1.0566000000e-01 0.0000e+00 1.0000e+00
       13  1    1    0    0    0 -5.4847966607e+01 +2.9790585329e+01 -3.2342535212e+00 6.2499999800e+01 1.0566000000e-01 0.0000e+00 1.0000e+00
       22  1    1    0    0    0 +3.3763552941e-06 -3.4555286117e-07 -7.9779008992e-07 3.4864955012e-06 0.0000000000e+00 0.0000e+00 -1.0000e+00
</event>
<event>
 4      1 +2.4041262e-06 9.11880000e+01 7.81860800e-03 1.13011600e-01
       25 -1    0    0    0    0 +0.0000000000e+00 +0.0000000000e+00 +9.9999998245e-15 1.2500000000e+02 1.2500000000e+02 0.0000e+00 0.0000e+00
      -13  1    1    0    0    0 +2.7365846257e+01 -2.0829371286e+01 +5.2187034658e+01 6.2500000000e+01 1.0566000000e-01 0.0000e+00 -1.0000e+00
       13  1    1    0    0    0 -2.7365846049e+01 +2.0829371125e+01 -5.2187034259e+01 6.2499999522e+01 1.0566000000e-01 0.0000e+00 -1.0000e+00
       22  1    1    0    0    0 -2.0836381573e-07 +1.6076780259e-07 -3.9878403171e-07 4.7779751988e-07 0.0000000000e+00 0.0000e+00 1.0000e+00
</event>
<event>
 4      1 +2.4041262e-06 9.11880000e+01 7.81860800e-03 1.13011600e-01
       25 -1    0    0    0    0 +0.0000000000e+00 +0.0000000000e+00 +9.9999998245e-15 1.2500000000e+02 1.2500000000e+02 0.0000e+00 0.0000e+00
      -13  1    1    0    0    0 +4.7139438828e+00 -4.0839126115e+01 +3.0286069247e+01 5.1061851154e+01 1.0566000000e-01 0.0000e+00 -1.0000e+00
       13  1    1    0    0    0 +3.8103609757e+00 +8.9492451620e+00 +1.5012434292e+01 1.7888325443e+01 1.0566000000e-01 0.0000e+00 1.0000e+00
       22  1    1    0    0    0 -8.5243048585e+00 +3.1889880953e+01 -4.5298503540e+01 5.6049823403e+01 0.0000000000e+00 0.0000e+00 -1.0000e+00
</event>
<event>
 5      1 +2.4041262e-06 9.11880000e+01 7.81860800e-03 1.13011600e-01
       25 -1    0    0    0    0 +0.0000000000e+00 +0.0000000000e+00 +9.9999998245e-15 1.2500000000e+02 1.2500000000e+02 0.0000e+00 0.0000e+00
       23  2    1    0    0    0 +1.7041687545e+01 -3.9251045309e+00 -2.4124479159e+01 9.5203757709e+01 9.0420901496e+01 0.0000e+00 0.0000e+00
      -13  1    2    2    0    0 -3.0176124956e+01 +9.2679275559e+00 +1.2557453770e+01 3.3973427966e+01 1.0566000000e-01 0.0000e+00 1.0000e+00
       13  1    2    2    0    0 +4.7217812501e+01 -1.3193032087e+01 -3.6681932929e+01 6.1230329743e+01 1.0566000000e-01 0.0000e+00 -1.0000e+00
       22  1    1    0    0    0 -1.7041687545e+01 +3.9251045309e+00 +2.4124479159e+01 2.9796242291e+01 0.0000000000e+00 0.0000e+00 -1.0000e+00
</event>
<event>
 4      1 +2.4041262e-06 9.11880000e+01 7.81860800e-03 1.13011600e-01
       25 -1    0    0    0    0 +0.0000000000e+00 +0.0000000000e+00 +9.9999998245e-15 1.2500000000e+02 1.2500000000e+02 0.0000e+00 0.0000e+00
      -13  1    1    0    0    0 -2.7790039167e+01 -9.7026600135e-01 +5.5973307415e+01 6.2500000000e+01 1.0566000000e-01 0.0000e+00 -1.0000e+00
       13  1    1    0    0    0 +2.7790038247e+01 +9.7026596485e-01 -5.5973305485e+01 6.2499997862e+01 1.0566000000e-01 0.0000e+00 -1.0000e+00
       22  1    1    0    0    0 +9.1986706785e-07 +3.6502436194e-08 -1.9293434636e-06 2.1377216963e-06 0.0000000000e+00 0.0000e+00 -1.0000e+00
</event>
<event>
 5      1 +2.4041262e-06 9.11880000e+01 7.81860800e-03 1.13011600e-01
       25 -1    0    0    0    0 +0.0000000000e+00 +0.0000000000e+00 +9.9999998245e-15 1.2500000000e+02 1.2500000000e+02 0.0000e+00 0.0000e+00
       23  2    1    0    0    0 +7.4247702497e+00 -1.9657766246e+01 +1.9684310852e+01 9.6207169629e+01 9.1797562099e+01 0.0000e+00 0.0000e+00
      -13  1    2    2    0    0 -2.4673350318e+01 -4.6110048103e+00 +4.5765192930e+01 5.2196739642e+01 1.0566000000e-01 0.0000e+00 -1.0000e+00
       13  1    2    2    0    0 +3.2098120568e+01 -1.5046761436e+01 -2.6080882078e+01 4.4010429987e+01 1.0566000000e-01 0.0000e+00 1.0000e+00
       22  1    1    0    0    0 -7.4247702497e+00 +1.9657766246e+01 -1.9684310852e+01 2.8792830371e+01 0.0000000000e+00 0.0000e+00 -1.0000e+00
</event>
<event>
 4      1 +2.4041262e-06 9.11880000e+01 7.81860800e-03 1.13011600e-01
       25 -1    0    0    0    0 +0.0000000000e+00 +0.0000000000e+00 +9.9999998245e-15 1.2500000000e+02 1.2500000000e+02 0.0000e+00 0.0000e+00
      -13  1    1    0    0    0 +5.1266749836e+01 +3.5187188953e+01 -6.3103827674e+00 6.2499999999e+01 1.0566000000e-01 0.0000e+00 1.0000e+00
       13  1    1    0    0    0 -5.1266749837e+01 -3.5187188954e+01 +6.3103827674e+00 6.2500000000e+01 1.0566000000e-01 0.0000e+00 1.0000e+00
       22  1    1    0    0    0 +8.7731002266e-10 +5.9679179830e-10 +1.4078699091e-11 1.0611463312e-09 0.0000000000e+00 0.0000e+00 1.0000e+00
</event>
<event>
 5      1 +2.4041262e-06 9.11880000e+01 7.81860800e-03 1.13011600e-01
       25 -1    0    0    0    0 +0.0000000000e+00 +0.0000000000e+00 +9.9999998245e-15 1.2500000000e+02 1.2500000000e+02 0.0000e+00 0.0000e+00
       23  2    1    0    0    0 +9.4423250445e+00 -2.1183796640e+01 +1.6965434379e+01 9.6264365224e+01 9.1875411868e+01 0.0000e+00 0.0000e+00
      -11  1    2    2    0    0 -1.0901262403e+01 -5.4188710239e+01 +4.1484395209e+00 5.5429805971e+01 5.1100000000e-04 0.0000e+00 -1.0000e+00
       11  1    2    2    0    0 +2.0343587448e+01 +3.3004913599e+01 +1.2816994858e+01 4.0834559253e+01 5.1100000000e-04 0.0000e+00 1.0000e+00
       22  1    1    0    0    0 -9.4423250445e+00 +2.1183796640e+01 -1.6965434379e+01 2.8735634776e+01 0.0000000000e+00 0.0000e+00 -1.0000e+00
</event>
<event>
 4      1 +2.4041262e-06 9.11880000e+01 7.81860800e-03 1.13011600e-01
       25 -1    0    0    0    0 +0.0000000000e+00 +0.0000000000e+00 +9.9999998245e-15 1.2500000000e+02 1.2500000000e+02 0.0000e+00 0.0000e+00
      -13  1    1    0    0    0 -4.1243743196e+00 +6.8367053091e-01 -1.8994191736e-01 4.1863003823e+00 1.0566000000e-01 0.0000e+00 1.0000e+00
       13  1    1    0    0    0 -5.7554370530e+01 +7.6625584286e+00 -5.4515441561e+00 5.8317671991e+01 1.0566000000e-01 0.0000e+00 1.0000e+00
       22  1    1    0    0    0 +6.1678744849e+01 -8.3462289595e+00 +5.6414860735e+00 6.2496027627e+01 0.0000000000e+00 0.0000e+00 1.0000e+00
</event>
<event>
 5      1 +2.4041262e-06 9.11880000e+01 7.81860800e-03 1.13011600e-01
       25 -1    0    0    0    0 +0.0000000000e+00 +0.0000000000e+00 +9.9999998245e-15 1.2500000000e+02 1.2500000000e+02 0.0000e+00 0.0000e+00
       23  2    1    0    0    0 +2.8278999670e+01 +4.4472999146e+00 +1.6153787113e+00 9.6327892522e+01 9.1961802562e+01 0.0000e+00 0.0000e+00
      -13  1    2    2    0    0 +5.6261040744e+01 -6.5207343532e+00 +2.1177271940e+01 6.0467451517e+01 1.0566000000e-01 0.0000e+00 1.0000e+00
       13  1    2    2    0    0 -2.7982041074e+01 +1.0968034268e+01 -1.9561893229e+01 3.5860441005e+01 1.0566000000e-01 0.0000e+00 -1.0000e+00
       22  1    1    0    0    0 -2.8278999670e+01 -4.4472999146e+00 -1.6153787113e+00 2.8672107478e+01 0.0000000000e+00 0.0000e+00 1.0000e+00
</event>
<event>
 4      1 +2.4041262e-06 9.11880000e+01 7.81860800e-03 1.13011600e-01
       25 -1    0    0    0    0 +0.0000000000e+00 +0.0000000000e+00 +9.9999998245e-15 1.2500000000e+02 1.2500000000e+02 0.0000e+00 0.0000e+00
      -13  1    1    0    0    0 -4.5483376055e-03 +4.6793043380e+01 -4.1093393375e+01 6.2275734219e+01 1.0566000000e-01 0.0000e+00 -1.0000e+00
       13  1    1    0    0    0 -1.5047621587e-01 -4.6849766354e+01 +4.1303343812e+01 6.2457190335e+01 1.0566000000e-01 0.0000e+00 -1.0000e+00
       22  1    1    0    0    0 +1.5502455348e-01 +5.6722974000e-02 -2.0995043641e-01 2.6707544572e-01 0.0000000000e+00 0.0000e+00 -1.0000e+00
</event>
<event>
 5      1 +2.4041262e-06 9.11880000e+01 7.81860800e-03 1.13011600e-01
       25 -1    0    0    0    0 +0.0000000000e+00 +0.0000000000e+00 +9.9999998245e-15 1.2500000000e+02 1.2500000000e+02 0.0000e+00 0.0000e+00
       23  2    1    0    0    0 -3.1648216150e-01 -2.7282056011e+01 +1.0713784107e+01 9.5687956212e+01 9.1087809574e+01 0.0000e+00 0.0000e+00
      -13  1    2    2    0    0 +4.3789234763e+01 -1.6474466553e+01 -6.2722149935e+00 4.7204416894e+01 1.0566000000e-01 0.0000e+00 1.0000e+00
       13  1    2    2    0    0 -4.4105716924e+01 -1.0807589458e+01 +1.6985999100e+01 4.8483539318e+01 1.0566000000e-01 0.0000e+00 -1.0000e+00
       22  1    1    0    0    0 +3.1648216150e-01 +2.7282056011e+01 -1.0713784107e+01 2.9312043788e+01 0.0000000000e+00 0.0000e+00 -1.0000e+00
</event>
<event>
 4      1 +2.4041262e-06 9.11880000e+01 7.81860800e-03 1.13011600e-01
       25 -1    0    0    0    0 +0.0000000000e+00 +0.0000000000e+00 +9.9999998245e-15 1.2500000000e+02 1.2500000000e+02 0.0000e+00 0.0000e+00
      -13  1    1    0    0    0 -6.8757490414e+00 +4.1108754114e+00 -3.6988229868e-01 8.0201744668e+00 1.0566000000e-01 0.0000e+00 1.0000e+00
       13  1    1    0    0    0 -4.2998453809e+00 +2.3091780782e+00 -5.7492515668e+01 5.7699406371e+01 1.0566000000e-01 0.0000e+00 -1.0000e+00
       22  1    1    0    0    0 +1.1175594422e+01 -6.4200534896e+00 +5.7862397967e+01 5.9280419162e+01 0.0000000000e+00 0.0000e+00 -1.0000e+00
</event>
<event>
 5      1 +2.4041262e-06 9.11880000e+01 7.81860800e-03 1.13011600e-01
       25 -1    0    0    0    0 +0.0000000000e+00 +0.0000000000e+00 +9.9999998245e-15 1.2500000000e+02 1.2500000000e+02 0.0000e+00 0.0000e+00
       23  2    1    0    0    0 -2.2396962643e+01 +5.0462535745e+00 -1.8943236487e+01 9.5235342781e+01 9.0464554911e+01 0.0000e+00 0.0000e+00
      -13  1    2    2    0    0 -4.0984597996e+01 +3.6735406274e+00 -4.6420431848e+01 6.2033054339e+01 1.0566000000e-01 0.0000e+00 1.0000e+00
       13  1    2    2    0    0 +1.8587635352e+01 +1.3727129471e+00 +2.7477195361e+01 3.3202288442e+01 1.0566000000e-01 0.0000e+00 -1.0000e+00
       22  1    1    0    0    0 +2.2396962643e+01 -5.0462535745e+00 +1.8943236487e+01 2.9764657219e+01 0.0000000000e+00 0.0000e+00 1.0000e+00
</event>
<event>
 5      1 +2.4041262e-06 9.11880000e+01 7.81860800e-03 1.13011600e-01
       25 -1    0    0    0    0 +0.0000000000e+00 +0.0000000000e+00 +9.9999998245e-15 1.2500000000e+02 1.2500000000e+02 0.0000e+00 0.0000e+00
       23  2    1    0    0    0 +1.6242252953e+01 -2.4280531708e+01 +6.2776290956e+00 9.5120849610e+01 9.0306214639e+01 0.0000e+00 0.0000e+00
      -13  1    2    2    0    0 +5.3944730517e+01 -1.2152128907e+01 +2.9292756523e+00 5.5374181777e+01 1.0566000000e-01 0.0000e+00 -1.0000e+00
       13  1    2    2    0    0 -3.7702477564e+01 -1.2128402801e+01 +3.3483534433e+00 3.9746667833e+01 1.0566000000e-01 0.0000e+00 1.0000e+00
       22  1    1    0    0    0 -1.6242252953e+01 +2.4280531708e+01 -6.2776290956e+00 2.9879150390e+01 0.0000000000e+00 0.0000e+00 1.0000e+00
</event>
<event>
 4      1 +2.4041262e-06 9.11880000e+01 7.81860800e-03 1.13011600e-01
       25 -1    0    0    0    0 +0.0000000000e+00 +0.0000000000e+00 +9.9999998245e-15 1.2500000000e+02 1.2500000000e+02 0.0000e+00 0.0000e+00
      -13  1    1    0    0    0 -4.9750738005e+01 +1.8630817807e+01 +3.2924087410e+01 6.2500000000e+01 1.0566000000e-01 0.0000e+00 -1.0000e+00
       13  1    1    0    0    0 +4.9750726886e+01 -1.8630813708e+01 -3.2924080047e+01 6.2499986049e+01 1.0566000000e-01 0.0000e+00 -1.0000e+00
       22  1    1    0    0    0 +1.1118497171e-05 -4.0992088080e-06 -7.3627776804e-06 1.3951164373e-05 0.0000000000e+00 0.0000e+00 1.0000e+00
</event>
<event>
 4      1 +2.4041262e-06 9.11880000e+01 7.81860800e-03 1.13011600e-01
       25 -1    0    0    0    0 +0.0000000000e+00 +0.0000000000e+00 +9.9999998245e-15 1.2500000000e+02 1.2500000000e+02 0.0000e+00 0.0000e+00
      -13  1    1    0    0    0 -4.3517589290e+01 -4.3785126059e+01 +9.7632362402e+00 6.2499998300e+01 1.0566000000e-01 0.0000e+00 -1.0000e+00
       13  1    1    0    0    0 +4.3517590482e+01 +4.3785127243e+01 -9.7632364992e+00 6.2500000000e+01 1.0566000000e-01 0.0000e+00 -1.0000e+00
       22  1    1    0    0    0 -1.1920315832e-06 -1.1840711635e-06 +2.5904070871e-07 1.7000193836e-06 0.0000000000e+00 0.0000e+00 1.0000e+00
</event>
<event>
 4      1 +2.4041262e-06 9.11880000e+01 7.81860800e-03 1.13011600e-01
       25 -1    0    0    0    0 +0.0000000000e+00 +0.0000000000e+00 +9.9999998245e-15 1.2500000000e+02 1.2500000000e+02 0.0000e+00 0.0000e+00
      -13  1    1    0    0    0 +5.8898614157e+00 -7.9583437899e+00 +2.0253991245e+01 2.2544645234e+01 1.0566000000e-01 0.0000e+00 -1.0000e+00
       13  1    1    0    0    0 +1.0209689261e+01 -1.4304318178e+01 +3.5883144919e+01 3.9955757115e+01 1.0566000000e-01 0.0000e+00 -1.0000e+00
       22  1    1    0    0    0 -1.6099550677e+01 +2.2262661968e+01 -5.6137136163e+01 6.2499597651e+01 0.0000000000e+00 0.0000e+00 -1.0000e+00
</event>
<event>
 4      1 +2.4041262e-06 9.11880000e+01 7.81860800e-03 1.13011600e-01
       25 -1    0    0    0    0 +0.0000000000e+00 +0.0000000000e+00 +9.9999998245e-15 1.2500000000e+02 1.2500000000e+02 0.0000e+00 0.0000e+00
      -13  1    1    0    0    0 -3.3806237708e+01 +4.6363665406e+01 -2.4758782518e+01 6.2493676909e+01 1.0566000000e-01 0.0000e+00 -1.0000e+00
       13  1    1    0    0    0 +3.3806280975e+01 -4.6370347597e+01 +2.4760630337e+01 6.2499389983e+01 1.0566000000e-01 0.0000e+00 -1.0000e+00
       22  1    1    0    0    0 -4.3267156935e-05 +6.6821908597e-03 -1.8478192304e-03 6.9331077188e-03 0.0000000000e+00 0.0000e+00 1.0000e+00
</event>
<event>
 4      1 +2.4041262e-06 9.11880000e+01 7.81860800e-03 1.13011600e-01
       25 -1    0    0    0    0 +0.0000000000e+00 +0.0000000000e+00 +9.9999998245e-15 1.2500000000e+02 1.2500000000e+02 0.0000e+00 0.0000e+00
      -11  1    1    0    0    0 -1.1017704519e+01 +5.7523719563e-01 -1.6620015248e+01 1.9948574330e+01 5.1100000000e-04 0.0000e+00 -1.0000e+00
       11  1    1    0    0    0 -2.3499531362e+01 +1.2295504551e+00 -3.5452560696e+01 4.2551425695e+01 5.1100000000e-04 0.0000e+00 1.0000e+00
       22  1    1    0    0    0 +3.4517235881e+01 -1.8047876507e+00 +5.2072575944e+01 6.2499999974e+01 0.0000000000e+00 0.0000e+00 -1.0000e+00
</event>
<event>
 4      1 +2.4041262e-06 9.11880000e+01 7.81860800e-03 1.13011600e-01
       25 -1    0    0    0    0 +0.0000000000e+00 +0.0000000000e+00 +9.9999998245e-15 1.2500000000e+02 1.2500000000e+02 0.0000e+00 0.0000e+00
      -13  1    1    0    0    0 -4.0746384389e+01 -3.2736563204e+01 -3.4267892036e+01 6.2499999999e+01 1.0566000000e-01 0.0000e+00 1.0000e+00
       13  1    1    0    0    0 +4.0746384390e+01 +3.2736563205e+01 +3.4267892037e+01 6.2500000000e+01 1.0566000000e-01 0.0000e+00 1.0000e+00
       22  1    1    0    0    0 -8.2131221440e-10 -6.2959561999e-10 -7.4231740205e-10 1.2735695990e-09 0.0000000000e+00 0.0000e+00 1.0000e+00
</event>
<event>
 4      1 +2.4041262e-06 9.11880000e+01 7.81860800e-03 1.13011600e-01
       25 -1    0    0    0    0 +0.0000000000e+00 +0.0000000000e+00 +9.9999998245e-15 1.2500000000e+02 1.2500000000e+02 0.0000e+00 0.0000e+00
      -11  1    1    0    0    0 -4.5341995385e+01 +8.4639855218e+00 -6.9865497125e+00 4.6651339461e+01 5.1100000000e-04 0.0000e+00 -1.0000e+00
       11  1    1    0    0    0 -1.5405547050e+01 +2.8786607323e+00 -2.3585084728e+00 1.5848663351e+01 5.1100000000e-04 0.0000e+00 1.0000e+00
       22  1    1    0    0    0 +6.0747542435e+01 -1.1342646254e+01 +9.3450581854e+00 6.2499997188e+01 0.0000000000e+00 0.0000e+00 -1.0000e+00
</event>
<event>
 4      1 +2.4041262e-06 9.11880000e+01 7.81860800e-03 1.13011600e-01
       25 -1    0    0    0    0 +0.0000000000e+00 +0.0000000000e+00 +9.9999998245e-15 1.2500000000e+02 1.2500000000e+02 0.0000e+00 0.0000e+00
      -13  1    1    0    0    0 +1.4730749750e+01 -5.1837527563e+01 -3.1231611517e+01 6.2286025512e+01 1.0566000000e-01 0.0000e+00 1.0000e+00
       13  1    1    0    0    0 -1.4781017965e+01 +5.2014752853e+01 +3.1340474281e+01 6.2499995989e+01 1.0566000000e-01 0.0000e+00 1.0000e+00
       22  1    1    0    0    0 +5.0268214725e-02 -1.7722528966e-01 -1.0886276425e-01 2.1397849926e-01 0.0000000000e+00 0.0000e+00 1.0000e+00
</event>
<event>
 4      1 +2.4041262e-06 9.11880000e+01 7.81860800e-03 1.13011600e-01
       25 -1    0    0    0    0 +0.0000000000e+00 +0.0000000000e+00 +9.9999998245e-15 1.2500000000e+02 1.2500000000e+02 0.0000e+00 0.0000e+00
      -13  1    1    0    0    0 +1.2651419279e+01 +1.2376863557e+01 -5.9941585520e+01 6.2500000000e+01 1.0566000000e-01 0.0000e+00 1.0000e+00
       13  1    1    0    0    0 -1.2651419267e+01 -1.2376863545e+01 +5.9941585464e+01 6.2499999941e+01 1.0566000000e-01 0.0000e+00 1.0000e+00
       22  1    1    0    0    0 -1.2860232502e-08 -1.2231863271e-08 +5.5822170196e-08 5.8575752188e-08 0.0000000000e+00 0.0000e+00 -1.0000e+00
</event>
<event>
 4      1 +2.4041262e-06 9.11880000e+01 7.81860800e-03 1.13011600e-01
       25 -1    0    0    0    0 +0.0000000000e+00 +0.0000000000e+00 +9.9999998245e-15 1.2500000000e+02 1.2500000000e+02 0.0000e+00 0.0000e+00
      -13  1    1    0    0    0 +2.6419127474e+01 -4.7159232105e+01 -3.1373163122e+01 6.2499999980e+01 1.0566000000e-01 0.0000e+00 -1.0000e+00
       13  1    1    0    0    0 -2.6419035677e+01 +4.7159074605e+01 +3.1373054214e+01 6.2499787667e+01 1.0566000000e-01 0.0000e+00 -1.0000e+00
       22  1    1    0    0    0 -9.1797267855e-05 +1.5749988751e-04 +1.0890762872e-04 2.1235306578e-04 0.0000000000e+00 0.0000e+00 1.0000e+00
</event>
<event>
 4      1 +2.4041262e-06 9.11880000e+01 7.81860800e-03 1.13011600e-01
       25 -1    0    0    0    0 +0.0000000000e+00 +0.0000000000e+00 +9.9999998245e-15 1.2500000000e+02 1.2500000000e+02 0.0000e+00 0.0000e+00
      -11  1    1    0    0    0 +3.8201952036e+01 -1.0532742366e+01 -3.6009868366e+01 5.3544732897e+01 5.1100000000e-04 0.0000e+00 -1.0000e+00
       11  1    1    0    0    0 +6.3885352386e+00 -1.7565699400e+00 -6.0247739647e+00 8.9552678372e+00 5.1100000000e-04 0.0000e+00 1.0000e+00
       22  1    1    0    0    0 -4.4590487274e+01 +1.2289312306e+01 +4.2034642331e+01 6.2499999265e+01 0.0000000000e+00 0.0000e+00 -1.0000e+00
</event>
<event>
 4      1 +2.4041262e-06 9.11880000e+01 7.81860800e-03 1.13011600e-01
       25 -1    0    0    0    0 +0.0000000000e+00 +0.0000000000e+00 +9.9999998245e-15 1.2500000000e+02 1.2500000000e+02 0.0000e+00 0.0000e+00
      -13  1    1    0    0    0 +3.6505373904e+01 +5.0572849640e+01 +3.9979229286e+00 6.2499999971e+01 1.0566000000e-01 0.0000e+00 1.0000e+00
       13  1    1    0    0    0 -3.6499374601e+01 -5.0564525770e+01 -3.9972941483e+00 6.2489720252e+01 1.0566000000e-01 0.0000e+00 1.0000e+00
       22  1    1    0    0    0 -5.9993029468e-03 -8.3238701636e-03 -6.2878030029e-04 1.0279776992e-02 0.0000000000e+00 0.0000e+00 1.0000e+00
</event>
<event>
 4      1 +2.4041262e-06 9.11880000e+01 7.81860800e-03 1.13011600e-01
       25 -1    0    0    0    0 +0.0000000000e+00 +0.0000000000e+00 +9.9999998245e-15 1.2500000000e+02 1.2500000000e+02 0.0000e+00 0.0000e+00
      -11  1    1    0    0    0 -2.2225358518e+01 +3.0815352071e+01 -2.0267901062e+01 4.3062051719e+01 5.1100000000e-04 0.0000e+00 1.0000e+00
       11  1    1    0    0    0 -9.9710986229e+00 +1.3914667389e+01 -9.2084518089e+00 1.9438013306e+01 5.1100000000e-04 0.0000e+00 -1.0000e+00
       22  1    1    0    0    0 +3.2196457141e+01 -4.4730019460e+01 +2.9476352871e+01 6.2499934975e+01 0.0000000000e+00 0.0000e+00 1.0000e+00
</event>
<event>
 4      1 +2.4041262e-06 9.11880000e+01 7.81860800e-03 1.13011600e-01
       25 -1    0    0    0    0 +0.0000000000e+00 +0.0000000000e+00 +9.9999998245e-15 1.2500000000e+02 1.2500000000e+02 0.0000e+00 0.0000e+00
      -13  1    1    0    0    0 -5.7977908256e+01 +1.5754502601e+01 -1.7221391635e+01 6.2499837534e+01 1.0566000000e-01 0.0000e+00 -1.0000e+00
       13  1    1    0    0    0 +5.7978058078e+01 -1.5754544757e+01 +1.7221438264e+01 6.2499999991e+01 1.0566000000e-01 0.0000e+00 -1.0000e+00
       22  1    1    0    0    0 -1.4982176443e-04 +4.2155736566e-05 -4.6629318238e-05 1.6247449197e-04 0.0000000000e+00 0.0000e+00 1.0000e+00
</event>
<event>
 4      1 +2.4041262e-06 9.11880000e+01 7.81860800e-03 1.13011600e-01
       25 -1    0    0    0    0 +0.0000000000e+00 +0.0000000000e+00 +9.9999998245e-15 1.2500000000e+02 1.2500000000e+02 0.0000e+00 0.0000e+00
      -13  1    1    0    0    0 +2.9285190235e+01 -4.8118993542e+01 -2.7077246996e+01 6.2499987004e+01 1.0566000000e-01 0.0000e+00 1.0000e+00
       13  1    1    0    0    0 -2.9284762082e+01 +4.8118345088e+01 +2.7076625030e+01 6.2499017683e+01 1.0566000000e-01 0.0000e+00 1.0000e+00
       22  1    1    0    0    0 -4.2815239149e-04 +6.4845330734e-04 +6.2196654887e-04 9.9531329241e-04 0.0000000000e+00 0.0000e+00 1.0000e+00
</event>
<event>
 4      1 +2.4041262e-06 9.11880000e+01 7.81860800e-03 1.13011600e-01
       25 -1    0    0    0    0 +0.0000000000e+00 +0.0000000000e+00 +9.9999998245e-15 1.2500000000e+02 1.2500000000e+02 0.0000e+00 0.0000e+00
      -13  1    1    0    0    0 +3.9979501832e+01 -4.7905757888e+01 +3.5938513134e+00 6.2499993095e+01 1.0566000000e-01 0.0000e+00 -1.0000e+00
       13  1    1    0    0    0 -3.9602769620e+01 +4.7453443006e+01 -3.5560907433e+00 6.1910141012e+01 1.0566000000e-01 0.0000e+00 -1.0000e+00
       22  1    1    0    0    0 -3.7673221131e-01 +4.5231488240e-01 -3.7760570086e-02 5.8986589369e-01 0.0000000000e+00 0.0000e+00 1.0000e+00
</event>
<event>
 4      1 +2.4041262e-06 9.11880000e+01 7.81860800e-03 1.13011600e-01
       25 -1    0    0    0    0 +0.0000000000e+00 +0.0000000000e+00 +9.9999998245e-15 1.2500000000e+02 1.2500000000e+02 0.0000e+00 0.0000e+00
      -13  1    1    0    0    0 +3.2876132159e+01 +3.9855090882e+01 -3.5166170254e+01 6.2497512185e+01 1.0566000000e-01 0.0000e+00 1.0000e+00
       13  1    1    0    0    0 -3.2762387601e+01 -3.9634322642e+01 +3.5012312736e+01 6.2210343028e+01 1.0566000000e-01 0.0000e+00 1.0000e+00
       22  1    1    0    0    0 -1.1374455880e-01 -2.2076823995e-01 +1.5385751796e-01 2.9214478647e-01 0.0000000000e+00 0.0000e+00 1.0000e+00
</event>
<event>
 5      1 +2.4041262e-06 9.11880000e+01 7.81860800e-03 1.13011600e-01
       25 -1    0    0    0    0 +0.0000000000e+00 +0.0000000000e+00 +9.9999998245e-15 1.2500000000e+02 1.2500000000e+02 0.0000e+00 0.0000e+00
       23  2    1    0    0    0 -3.7862269984e+00 -2.0642282636e+01 +2.0237967384e+01 9.5844988919e+01 9.1303051590e+01 0.0000e+00 0.0000e+00
      -11  1    2    2    0    0 -6.0588184305e+00 +4.2167779035e+00 +5.3640068503e+01 5.4145613358e+01 5.1100000000e-04 0.0000e+00 -1.0000e+00
       11  1    2    2    0    0 +2.2725914322e+00 -2.4859060539e+01 -3.3402101119e+01 4.1699375560e+01 5.1100000000e-04 0.0000e+00 1.0000e+00
       22  1    1    0    0    0 +3.7862269984e+00 +2.0642282636e+01 -2.0237967384e+01 2.9155011081e+01 0.0000000000e+00 0.0000e+00 -1.0000e+00
</event>
<event>
 4      1 +2.4041262e-06 9.11880000e+01 7.81860800e-03 1.13011600e-01
       25 -1    0    0    0    0 +0.0000000000e+00 +0.0000000000e+00 +9.9999998245e-15 1.2500000000e+02 1.2500000000e+02 0.0000e+00 0.0000e+00
      -13  1    1    0    0    0 -2.0939536724e+01 -3.4415528629e+01 +4.7750765586e+01 6.2474311418e+01 1.0566000000e-01 0.0000e+00 -1.0000e+00
       13  1    1    0    0    0 +2.0822259050e+01 +3.3567156521e+01 -4.6902349773e+01 6.1320160201e+01 1.0566000000e-01 0.0000e+00 -1.0000e+00
       22  1    1    0    0    0 +1.1727767411e-01 +8.4837210734e-01 -8.4841581338e-01 1.2055283811e+00 0.0000000000e+00 0.0000e+00 -1.0000e+00
</event>
<event>
 4      1 +2.4041262e-06 9.11880000e+01 7.81860800e-03 1.13011600e-01
       25 -1    0    0    0    0 +0.0000000000e+00 +0.0000000000e+00 +9.9999998245e-15 1.2500000000e+02 1.2500000000e+02 0.0000e+00 0.0000e+00
      -13  1    1    0    0    0 -3.4345362446e+01 -3.9469380092e+01 -3.4176805284e+01 6.2494008271e+01 1.0566000000e-01 0.0000e+00 1.0000e+00
       13  1    1    0    0    0 +3.4349645681e+01 +3.9468675887e+01 +3.4182350008e+01 6.2498949998e+01 1.0566000000e-01 0.0000e+00 1.0000e+00
       22  1    1    0    0    0 -4.2832355605e-03 +7.0420504723e-04 -5.5447241748e-03 7.0417311643e-03 0.0000000000e+00 0.0000e+00 -1.0000e+00
</event>
<event>
 4      1 +2.4041262e-06 9.11880000e+01 7.81860800e-03 1.13011600e-01
       25 -1    0    0    0    0 +0.0000000000e+00 +0.0000000000e+00 +9.9999998245e-15 1.2500000000e+02 1.2500000000e+02 0.0000e+00 0.0000e+00
      -13  1    1    0    0    0 -2.6949522260e+01 +5.5370858683e+01 -1.0661739257e+01 6.2497140649e+01 1.0566000000e-01 0.0000e+00 -1.0000e+00
       13  1    1    0    0    0 +2.6952152768e+01 -5.5365691351e+01 +1.0667506527e+01 6.2494681191e+01 1.0566000000e-01 0.0000e+00 -1.0000e+00
       22  1    1    0    0    0 -2.6305089409e-03 -5.1673320487e-03 -5.7672700546e-03 8.1781600420e-03 0.0000000000e+00 0.0000e+00 -1.0000e+00
</event>
<event>
 4      1 +2.4041262e-06 9.11880000e+01 7.81860800e-03 1.13011600e-01
       25 -1    0    0    0    0 +0.0000000000e+00 +0.0000000000e+00 +9.9999998245e-15 1.2500000000e+02 1.2500000000e+02 0.0000e+00 0.0000e+00
      -13  1    1    0    0    0 +1.0232360459e+01 +2.0465267375e+01 -5.8161073466e+01 6.2500000000e+01 1.0566000000e-01 0.0000e+00 -1.0000e+00
       13  1    1    0    0    0 -1.0232360438e+01 -2.0465267332e+01 +5.8161073341e+01 6.2499999866e+01 1.0566000000e-01 0.0000e+00 -1.0000e+00
       22  1    1    0    0    0 -2.0765766877e-08 -4.2650029305e-08 +1.2500292172e-07 1.3370105651e-07 0.0000000000e+00 0.0000e+00 1.0000e+00
</event>
<event>
 4      1 +2.4041262e-06 9.11880000e+01 7.81860800e-03 1.13011600e-01
       25 -1    0    0    0    0 +0.0000000000e+00 +0.0000000000e+00 +9.9999998245e-15 1.2500000000e+02 1.2500000000e+02 0.0000e+00 0.0000e+00
      -13  1    1    0    0    0 +3.8516201347e+01 -4.1870367618e+01 -2.5876594721e+01 6.2499878152e+01 1.0566000000e-01 0.0000e+00 -1.0000e+00
       13  1    1    0    0    0 -2.0287108280e+01 +2.2101756561e+01 +1.3575844603e+01 3.2929760494e+01 1.0566000000e-01 0.0000e+00 -1.0000e+00
       22  1    1    0    0    0 -1.8229093067e+01 +1.9768611057e+01 +1.2300750118e+01 2.9570361354e+01 0.0000000000e+00 0.0000e+00 -1.0000e+00
</event>
<event>
 4      1 +2.4041262e-06 9.11880000e+01 7.81860800e-03 1.13011600e-01
       25 -1    0    0    0    0 +0.0000000000e+00 +0.0000000000e+00 +9.9999998245e-15 1.2500000000e+02 1.2500000000e+02 0.0000e+00 0.0000e+00
      -13  1    1    0    0    0 -6.1387768247e+01 +5.7012175281e+00 +1.0260451426e+01 6.2499999993e+01 1.0566000000e-01 0.0000e+00 -1.0000e+00
       13  1    1    0    0    0 +6.1387643438e+01 -5.7012069849e+00 -1.0260428990e+01 6.2499872760e+01 1.0566000000e-01 0.0000e+00 -1.0000e+00
       22  1    1    0    0    0 +1.2480918800e-04 -1.0543131976e-05 -2.2435613648e-05 1.2724719172e-04 0.0000000000e+00 0.0000e+00 -1.0000e+00
</event>
<event>
 4      1 +2.4041262e-06 9.11880000e+01 7.81860800e-03 1.13011600e-01
       25 -1    0    0    0    0 +0.0000000000e+00 +0.0000000000e+00 +9.9999998245e-15 1.2500000000e+02 1.2500000000e+02 0.0000e+00 0.0000e+00
      -11  1    1    0    0    0 +7.0966361931e+00 +2.4339726436e+01 +5.1944001373e+00 2.5879843919e+01 5.1100000000e-04 0.0000e+00 -1.0000e+00
       11  1    1    0    0    0 -1.9683959596e+00 +3.7153593937e+01 -1.3038370074e-01 3.7205928631e+01 5.1100000000e-04 0.0000e+00 1.0000e+00
       22  1    1    0    0    0 -5.1282402335e+00 -6.1493320373e+01 -5.0640164366e+00 6.1914227451e+01 0.0000000000e+00 0.0000e+00 -1.0000e+00
</event>
<event>
 4      1 +2.4041262e-06 9.11880000e+01 7.81860800e-03 1.13011600e-01
       25 -1    0    0    0    0 +0.0000000000e+00 +0.0000000000e+00 +9.9999998245e-15 1.2500000000e+02 1.2500000000e+02 0.0000e+00 0.0000e+00
      -13  1    1    0    0    0 -1.5016575204e+01 -2.7416149850e+01 +5.4121123718e+01 6.2500000000e+01 1.0566000000e-01 0.0000e+00 1.0000e+00
       13  1    1    0    0    0 +1.5016575204e+01 +2.7416149850e+01 -5.4121123718e+01 6.2500000000e+01 1.0566000000e-01 0.0000e+00 1.0000e+00
       22  1    1    0    0    0 -2.6915876359e-11 -6.0209042751e-13 -2.1901104601e-11 3.4705695437e-11 0.0000000000e+00 0.0000e+00 -1.0000e+00
</event>
<event>
 5      1 +2.4041262e-06 9.11880000e+01 7.81860800e-03 1.13011600e-01
       25 -1    0    0    0    0 +0.0000000000e+00 +0.0000000000e+00 +9.9999998245e-15 1.2500000000e+02 1.2500000000e+02 0.0000e+00 0.0000e+00
       23  2    1    0    0    0 -2.4553711454e+01 -4.8702983146e+00 -8.2891158280e-01 9.9954209011e+01 9.6765449685e+01 0.0000e+00 0.0000e+00
      -13  1    2    2    0    0 +1.8368259773e+01 +3.6128349566e+01 +1.4264846318e+00 4.0554859535e+01 1.0566000000e-01 0.0000e+00 -1.0000e+00
       13  1    2    2    0    0 -4.2921971227e+01 -4.0998647881e+01 -2.2553962146e+00 5.9399349476e+01 1.0566000000e-01 0.0000e+00 1.0000e+00
       22  1    1    0    0    0 +2.4553711454e+01 +4.8702983146e+00 +8.2891158280e-01 2.5045790989e+01 0.0000000000e+00 0.0000e+00 1.0000e+00
</event>
<event>
 4      1 +2.4041262e-06 9.11880000e+01 7.81860800e-03 1.13011600e-01
       25 -1    0    0    0    0 +0.0000000000e+00 +0.0000000000e+00 +9.9999998245e-15 1.2500000000e+02 1.2500000000e+02 0.0000e+00 0.0000e+00
      -13  1    1    0    0    0 +2.5840152635e+01 -1.4865230885e+01 +1.3502742532e+00 2.9841631692e+01 1.0566000000e-01 0.0000e+00 -1.0000e+00
       13  1    1    0    0    0 -5.6782848126e+01 +2.5406952735e+01 +2.4046069850e+00 6.2254304168e+01 1.0566000000e-01 0.0000e+00 1.0000e+00
       22  1    1    0    0    0 +3.0942695492e+01 -1.0541721849e+01 -3.7548812382e+00 3.2904064140e+01 0.0000000000e+00 0.0000e+00 1.0000e+00
</event>
<event>
 4      1 +2.4041262e-06 9.11880000e+01 7.81860800e-03 1.13011600e-01
       25 -1    0    0    0    0 +0.0000000000e+00 +0.0000000000e+00 +9.9999998245e-15 1.2500000000e+02 1.2500000000e+02 0.0000e+00 0.0000e+00
      -13  1    1    0    0    0 -3.3738688681e+01 -3.4698121576e+01 +2.4016456082e+01 5.4028326659e+01 1.0566000000e-01 0.0000e+00 -1.0000e+00
       13  1    1    0    0    0 -5.4204853985e+00 -5.4177945785e+00 +3.6122203196e+00 8.4731021310e+00 1.0566000000e-01 0.0000e+00 1.0000e+00
       22  1    1    0    0    0 +3.9159174079e+01 +4.0115916155e+01 -2.7628676402e+01 6.2498571210e+01 0.0000000000e+00 0.0000e+00 -1.0000e+00
</event>
<event>
 4      1 +2.4041262e-06 9.11880000e+01 7.81860800e-03 1.13011600e-01
       25 -1    0    0    0    0 +0.0000000000e+00 +0.0000000000e+00 +9.9999998245e-15 1.2500000000e+02 1.2500000000e+02 0.0000e+00 0.0000e+00
      -13  1    1    0    0    0 +3.3264973601e+01 -4.0920181439e+01 +3.3544285845e+01 6.2499999957e+01 1.0566000000e-01 0.0000e+00 1.0000e+00
       13  1    1    0    0    0 -3.3264952630e+01 +4.0920158360e+01 -3.3544263772e+01 6.2499961837e+01 1.0566000000e-01 0.0000e+00 1.0000e+00
       22  1    1    0    0    0 -2.0971820440e-05 +2.3079327876e-05 -2.2073229122e-05 3.8206021406e-05 0.0000000000e+00 0.0000e+00 1.0000e+00
</event>
<event>
 5      1 +2.4041262e-06 9.11880000e+01 7.81860800e-03 1.13011600e-01
       25 -1    0    0    0    0 +0.0000000000e+00 +0.0000000000e+00 +9.9999998245e-15 1.2500000000e+02 1.2500000000e+02 0.0000e+00 0.0000e+00
       23  2    1    0    0    0 +2.8580759207e+01 +5.1186420491e+00 -2.3748080269e+00 9.5867543762e+01 9.1333925463e+01 0.0000e+00 0.0000e+00
      -11  1    2    2    0    0 +5.7732566828e+01 +2.2124559909e+01 -4.9200921205e+00 6.2022195467e+01 5.1100000000e-04 0.0000e+00 -1.0000e+00
       11  1    2    2    0    0 -2.9151807621e+01 -1.7005917860e+01 +2.5452840937e+00 3.3845348295e+01 5.1100000000e-04 0.0000e+00 1.0000e+00
       22  1    1    0    0    0 -2.8580759207e+01 -5.1186420491e+00 +2.3748080269e+00 2.9132456238e+01 0.0000000000e+00 0.0000e+00 -1.0000e+00
</event>
<event>
 4      1 +2.4041262e-06 9.11880000e+01 7.81860800e-03 1.13011600e-01
       25 -1    0    0    0    0 +0.0000000000e+00 +0.0000000000e+00 +9.9999998245e-15 1.2500000000e+02 1.2500000000e+02 0.0000e+00 0.0000e+00
      -13  1    1    0    0    0 +1.2611573984e+01 +5.3135605511e+01 +3.0393903995e+01 6.2499959484e+01 1.0566000000e-01 0.0000e+00 -1.0000e+00
       13  1    1    0    0    0 -1.2611739093e+01 -5.3135319542e+01 -3.0393766595e+01 6.2499682861e+01 1.0566000000e-01 0.0000e+00 -1.0000e+00
       22  1    1    0    0    0 +1.6510899493e-04 -2.8596843360e-04 -1.3739967455e-04 3.5765569447e-04 0.0000000000e+00 0.0000e+00 1.0000e+00
</event>
<event>
 4      1 +2.4041262e-06 9.11880000e+01 7.81860800e-03 1.13011600e-01
       25 -1    0    0    0    0 +0.0000000000e+00 +0.0000000000e+00 +9.9999998245e-15 1.2500000000e+02 1.2500000000e+02 0.0000e+00 0.0000e+00
      -13  1    1    0    0    0 -5.5476587157e+00 -1.2228830724e+01 -2.0825007651e-01 1.3430389058e+01 1.0566000000e-01 0.0000e+00 -1.0000e+00
       13  1    1    0    0    0 +2.3498399771e+01 +5.7889670077e+01 -1.1588480173e+00 6.2487941126e+01 1.0566000000e-01 0.0000e+00 -1.0000e+00
       22  1    1    0    0    0 -1.7950741055e+01 -4.5660839352e+01 +1.3670980938e+00 4.9081669816e+01 0.0000000000e+00 0.0000e+00 -1.0000e+00
</event>
<event>
 4      1 +2.4041262e-06 9.11880000e+01 7.81860800e-03 1.13011600e-01
       25 -1    0    0    0    0 +0.0000000000e+00 +0.0000000000e+00 +9.9999998245e-15 1.2500000000e+02 1.2500000000e+02 0.0000e+00 0.0000e+00
      -13  1    1    0    0    0 -3.0340693765e+01 +8.4383086392e+00 -5.3809352440e+01 6.2347576736e+01 1.0566000000e-01 0.0000e+00 -1.0000e+00
       13  1    1    0    0    0 +3.0415256888e+01 -8.4593343537e+00 +5.3940620629e+01 6.2499999258e+01 1.0566000000e-01 0.0000e+00 -1.0000e+00
       22  1    1    0    0    0 -7.4563123476e-02 +2.1025714458e-02 -1.3126818972e-01 1.5242400625e-01 0.0000000000e+00 0.0000e+00 -1.0000e+00
</event>
<event>
 4      1 +2.4041262e-06 9.11880000e+01 7.81860800e-03 1.13011600e-01
       25 -1    0    0    0    0 +0.0000000000e+00 +0.0000000000e+00 +9.9999998245e-15 1.2500000000e+02 1.2500000000e+02 0.0000e+00 0.0000e+00
      -13  1    1    0    0    0 +4.4902504853e+01 -1.2253601365e+01 +2.0552949300e+01 5.0880453786e+01 1.0566000000e-01 0.0000e+00 -1.0000e+00
       13  1    1    0    0    0 +4.9575816029e+00 -2.0009143730e+00 -2.1599264695e+01 2.2251307222e+01 1.0566000000e-01 0.0000e+00 1.0000e+00
       22  1    1    0    0    0 -4.9860086456e+01 +1.4254515738e+01 +1.0463153946e+00 5.1868238993e+01 0.0000000000e+00 0.0000e+00 -1.0000e+00
</event>
<event>
 4      1 +2.4041262e-06 9.11880000e+01 7.81860800e-03 1.13011600e-01
       25 -1    0    0    0    0 +0.0000000000e+00 +0.0000000000e+00 +9.9999998245e-15 1.2500000000e+02 1.2500000000e+02 0.0000e+00 0.0000e+00
      -13  1    1    0    0    0 +4.5944077533e+01 -8.4433963537e+00 +4.1522157415e+01 6.2499999383e+01 1.0566000000e-01 0.0000e+00 1.0000e+00
       13  1    1    0    0    0 -4.5944077987e+01 +8.4433964366e+00 -4.1522157826e+01 6.2500000000e+01 1.0566000000e-01 0.0000e+00 1.0000e+00
       22  1    1    0    0    0 +4.5361472755e-07 -8.2951793399e-08 +4.1066200314e-07 6.1748732934e-07 0.0000000000e+00 0.0000e+00 -1.0000e+00
</event>
<event>
 4      1 +2.4041262e-06 9.11880000e+01 7.81860800e-03 1.13011600e-01
       25 -1    0    0    0    0 +0.0000000000e+00 +0.0000000000e+00 +9.9999998245e-15 1.2500000000e+02 1.2500000000e+02 0.0000e+00 0.0000e+00
      -11  1    1    0    0    0 +3.0373163027e+00 +2.2641236913e+00 -1.3057444569e+01 1.3595896637e+01 5.1100000000e-04 0.0000e+00 1.0000e+00
       11  1    1    0    0    0 +1.0108171275e+01 +1.7658074859e+01 -4.4588923938e+01 4.9011782996e+01 5.1100000000e-04 0.0000e+00 -1.0000e+00
       22  1    1    0    0    0 -1.3145487578e+01 -1.9922198551e+01 +5.7646368507e+01 6.2392320367e+01 0.0000000000e+00 0.0000e+00 -1.0000e+00
</event>
<event>
 4      1 +2.4041262e-06 9.11880000e+01 7.81860800e-03 1.13011600e-01
       25 -1    0    0    0    0 +0.0000000000e+00 +0.0000000000e+00 +9.9999998245e-15 1.2500000000e+02 1.2500000000e+02 0.0000e+00 0.0000e+00
      -13  1    1    0    0    0 +1.3967440471e+01 +2.4714178169e+01 -2.6207641057e+01 3.8635884999e+01 1.0566000000e-01 0.0000e+00 1.0000e+00
       13  1    1    0    0    0 -2.2462783858e+01 -4.0053833363e+01 +4.2394935863e+01 6.2499823813e+01 1.0566000000e-01 0.0000e+00 1.0000e+00
       22  1    1    0    0    0 +8.4953433866e+00 +1.5339655194e+01 -1.6187294807e+01 2.3864291188e+01 0.0000000000e+00 0.0000e+00 1.0000e+00
</event>
<event>
 4      1 +2.4041262e-06 9.11880000e+01 7.81860800e-03 1.13011600e-01
       25 -1    0    0    0    0 +0.0000000000e+00 +0.0000000000e+00 +9.9999998245e-15 1.2500000000e+02 1.2500000000e+02 0.0000e+00 0.0000e+00
      -13  1    1    0    0    0 +1.6058251290e+01 -4.0249739488e+01 +2.6636501814e+01 5.0866721501e+01 1.0566000000e-01 0.0000e+00 -1.0000e+00
       13  1    1    0    0    0 +5.2689318989e-01 -5.6413620654e+00 +1.1089922143e+01 1.2453919847e+01 1.0566000000e-01 0.0000e+00 1.0000e+00
       22  1    1    0    0    0 -1.6585144480e+01 +4.5891101554e+01 -3.7726423956e+01 6.1679358652e+01 0.0000000000e+00 0.0000e+00 -1.0000e+00
</event>
<event>
 4      1 +2.4041262e-06 9.11880000e+01 7.81860800e-03 1.13011600e-01
       25 -1    0    0    0    0 +0.0000000000e+00 +0.0000000000e+00 +9.9999998245e-15 1.2500000000e+02 1.2500000000e+02 0.0000e+00 0.0000e+00
      -13  1    1    0    0    0 -2.0566039327e+01 -1.5519586772e+01 +8.9713196137e+00 2.7282142270e+01 1.0566000000e-01 0.0000e+00 1.0000e+00
       13  1    1    0    0    0 +4.4682230353e+01 +3.9391980906e+01 -1.8671962449e+01 6.2425020742e+01 1.0566000000e-01 0.0000e+00 1.0000e+00
       22  1    1    0    0    0 -2.4116191026e+01 -2.3872394134e+01 +9.7006428348e+00 3.5292836988e+01 0.0000000000e+00 0.0000e+00 1.0000e+00
</event>
<event>
 4      1 +2.4041262e-06 9.11880000e+01 7.81860800e-03 1.13011600e-01
       25 -1    0    0    0    0 +0.0000000000e+00 +0.0000000000e+00 +9.9999998245e-15 1.2500000000e+02 1.2500000000e+02 0.0000e+00 0.0000e+00
      -13  1    1    0    0    0 -4.1184490804e+01 +3.4726126349e+01 +2.6100302353e+01 5.9860697298e+01 1.0566000000e-01 0.0000e+00 -1.0000e+00
       13  1    1    0    0    0 +4.2971688517e+01 -3.6278896362e+01 -2.7267135807e+01 6.2499857555e+01 1.0566000000e-01 0.0000e+00 -1.0000e+00
       22  1    1    0    0    0 -1.7871977125e+00 +1.5527700127e+00 +1.1668334537e+00 2.6394451472e+00 0.0000000000e+00 0.0000e+00 -1.0000e+00
</event>
<event>
 4      1 +2.4041262e-06 9.11880000e+01 7.81860800e-03 1.13011600e-01
       25 -1    0    0    0    0 +0.0000000000e+00 +0.0000000000e+00 +9.9999998245e-15 1.2500000000e+02 1.2500000000e+02 0.0000e+00 0.0000e+00
      -13  1    1    0    0    0 +4.5789811273e+01 -3.9631841610e+01 -1.5454745126e+01 6.2499999974e+01 1.0566000000e-01 0.0000e+00 -1.0000e+00
       13  1    1    0    0    0 -4.5789811291e+01 +3.9631841627e+01 +1.5454745132e+01 6.2500000000e+01 1.0566000000e-01 0.0000e+00 -1.0000e+00
       22  1    1    0    0    0 +1.8387420669e-08 -1.7331399615e-08 -6.1703376033e-09 2.6010530898e-08 0.0000000000e+00 0.0000e+00 1.0000e+00
</event>
<event>
 5      1 +2.4041262e-06 9.11880000e+01 7.81860800e-03 1.13011600e-01
       25 -1    0    0    0    0 +0.0000000000e+00 +0.0000000000e+00 +9.9999998245e-15 1.2500000000e+02 1.2500000000e+02 0.0000e+00 0.0000e+00
       23  2    1    0    0    0 +1.9990133396e+01 -2.3906222558e+00 +2.0239143214e+01 9.6452786020e+01 9.2131408895e+01 0.0000e+00 0.0000e+00
      -13  1    2    2    0    0 +1.6963434364e+01 -1.9151928593e+01 +5.3378121543e+01 5.9192816268e+01 1.0566000000e-01 0.0000e+00 -1.0000e+00
       13  1    2    2    0    0 +3.0266990321e+00 +1.6761306337e+01 -3.3138978329e+01 3.7259969751e+01 1.0566000000e-01 0.0000e+00 1.0000e+00
       22  1    1    0    0    0 -1.9990133396e+01 +2.3906222558e+00 -2.0239143214e+01 2.8547213980e+01 0.0000000000e+00 0.0000e+00 -1.0000e+00
</event>
<event>
 4      1 +2.4041262e-06 9.11880000e+01 7.81860800e-03 1.13011600e-01
       25 -1    0    0    0    0 +0.0000000000e+00 +0.0000000000e+00 +9.9999998245e-15 1.2500000000e+02 1.2500000000e+02 0.0000e+00 0.0000e+00
      -13  1    1    0    0    0 -9.9563798874e+00 +5.8357457337e+01 +2.0036703082e+01 6.2499623693e+01 1.0566000000e-01 0.0000e+00 1.0000e+00
       13  1    1    0    0    0 +9.9563577270e+00 -5.8357757536e+01 -2.0036957652e+01 6.2499982078e+01 1.0566000000e-01 0.0000e+00 1.0000e+00
       22  1    1    0    0    0 +2.2160367986e-05 +3.0019841231e-04 +2.5456989365e-04 3.9422835947e-04 0.0000000000e+00 0.0000e+00 1.0000e+00
</event>
<event>
 5      1 +2.4041262e-06 9.11880000e+01 7.81860800e-03 1.13011600e-01
       25 -1    0    0    0    0 +0.0000000000e+00 +0.0000000000e+00 +9.9999998245e-15 1.2500000000e+02 1.2500000000e+02 0.0000e+00 0.0000e+00
       23  2    1    0    0    0 +1.2435626853e+01 -2.6680771792e+01 -4.5184485753e+00 9.5218717688e+01 9.0441580161e+01 0.0000e+00 0.0000e+00
      -11  1    2    2    0    0 -2.3954195170e-01 -5.9565595654e+01 +8.3179921597e-01 5.9571884780e+01 5.1100000000e-04 0.0000e+00 1.0000e+00
       11  1    2    2    0    0 +1.2675168805e+01 +3.2884823863e+01 -5.3502477912e+00 3.5646832908e+01 5.1100000000e-04 0.0000e+00 -1.0000e+00
       22  1    1    0    0    0 -1.2435626853e+01 +2.6680771792e+01 +4.5184485753e+00 2.9781282312e+01 0.0000000000e+00 0.0000e+00 1.0000e+00
</event>
<event>
 4      1 +2.4041262e-06 9.11880000e+01 7.81860800e-03 1.13011600e-01
       25 -1    0    0    0    0 +0.0000000000e+00 +0.0000000000e+00 +9.9999998245e-15 1.2500000000e+02 1.2500000000e+02 0.0000e+00 0.0000e+00
      -13  1    1    0    0    0 -5.4626317434e+01 +1.1110888368e+01 -2.8261749667e+01 6.2499792439e+01 1.0566000000e-01 0.0000e+00 -1.0000e+00
       13  1    1    0    0    0 +5.4626494399e+01 -1.1110937903e+01 +2.8261846651e+01 6.2499999772e+01 1.0566000000e-01 0.0000e+00 -1.0000e+00
       22  1    1    0    0    0 -1.7696483112e-04 +4.9535723343e-05 -9.6983491816e-05 2.0778868358e-04 0.0000000000e+00 0.0000e+00 -1.0000e+00
</event>
<event>
 4      1 +2.4041262e-06 9.11880000e+01 7.81860800e-03 1.13011600e-01
       25 -1    0    0    0    0 +0.0000000000e+00 +0.0000000000e+00 +9.9999998245e-15 1.2500000000e+02 1.2500000000e+02 0.0000e+00 0.0000e+00
      -13  1    1    0    0    0 +3.3036440849e+01 -2.9364375014e+01 -4.4187847777e+01 6.2499999993e+01 1.0566000000e-01 0.0000e+00 -1.0000e+00
       13  1    1    0    0    0 -3.3036440853e+01 +2.9364375017e+01 +4.4187847782e+01 6.2500000000e+01 1.0566000000e-01 0.0000e+00 -1.0000e+00
       22  1    1    0    0    0 +3.4537030114e-09 -3.2064998933e-09 -4.8280753261e-09 6.7468524076e-09 0.0000000000e+00 0.0000e+00 1.0000e+00
</event>
<event>
 4      1 +2.4041262e-06 9.11880000e+01 7.81860800e-03 1.13011600e-01
       25 -1    0    0    0    0 +0.0000000000e+00 +0.0000000000e+00 +9.9999998245e-15 1.2500000000e+02 1.2500000000e+02 0.0000e+00 0.0000e+00
      -11  1    1    0    0    0 +9.4348220851e+00 -3.3234818332e+01 -1.7096599425e+01 3.8546890011e+01 5.1100000000e-04 0.0000e+00 1.0000e+00
       11  1    1    0    0    0 +1.2231053277e+01 -1.8955971544e+01 -8.8992071248e+00 2.4251255826e+01 5.1100000000e-04 0.0000e+00 -1.0000e+00
       22  1    1    0    0    0 -2.1665875362e+01 +5.2190789876e+01 +2.5995806550e+01 6.2201854163e+01 0.0000000000e+00 0.0000e+00 1.0000e+00
</event>
<event>
 5      1 +2.4041262e-06 9.11880000e+01 7.81860800e-03 1.13011600e-01
       25 -1    0    0    0    0 +0.0000000000e+00 +0.0000000000e+00 +9.9999998245e-15 1.2500000000e+02 1.2500000000e+02 0.0000e+00 0.0000e+00
       23  2    1    0    0    0 +6.6573903946e+00 -2.6997956644e+01 -4.8362215382e+00 9.6775904822e+01 9.2568764741e+01 0.0000e+00 0.0000e+00
      -13  1    2    2    0    0 -1.3357957580e+01 -4.7172997603e+01 +2.5453353700e+01 5.5241389484e+01 1.0566000000e-01 0.0000e+00 1.0000e+00
       13  1    2    2    0    0 +2.0015347975e+01 +2.0175040959e+01 -3.0289575238e+01 4.1534515338e+01 1.0566000000e-01 0.0000e+00 -1.0000e+00
       22  1    1    0    0    0 -6.6573903946e+00 +2.6997956644e+01 +4.8362215382e+00 2.8224095178e+01 0.0000000000e+00 0.0000e+00 1.0000e+00
</event>
<event>
 4      1 +2.4041262e-06 9.11880000e+01 7.81860800e-03 1.13011600e-01
       25 -1    0    0    0    0 +0.0000000000e+00 +0.0000000000e+00 +9.9999998245e-15 1.2500000000e+02 1.2500000000e+02 0.0000e+00 0.0000e+00
      -13  1    1    0    0    0 -5.7709291076e+01 +5.1253177183e+00 -2.3443712962e+01 6.2499999998e+01 1.0566000000e-01 0.0000e+00 1.0000e+00
       13  1    1    0    0    0 +5.7709291078e+01 -5.1253177181e+00 +2.3443712963e+01 6.2500000000e+01 1.0566000000e-01 0.0000e+00 1.0000e+00
       22  1    1    0    0    0 -2.1908808907e-09 -2.0903736587e-10 -8.5721107331e-10 2.3618777533e-09 0.0000000000e+00 0.0000e+00 -1.0000e+00
</event>
<event>
 5      1 +2.4041262e-06 9.11880000e+01 7.81860800e-03 1.13011600e-01
       25 -1    0    0    0    0 +0.0000000000e+00 +0.0000000000e+00 +9.9999998245e-15 1.2500000000e+02 1.2500000000e+02 0.0000e+00 0.0000e+00
       23  2    1    0    0    0 +2.4378978979e+01 -5.6141426019e+00 -1.0175215138e+01 9.7992811766e+01 9.4197680128e+01 0.0000e+00 0.0000e+00
      -13  1    2    2    0    0 +2.1042563556e+01 -4.1972598538e+01 -3.0709495085e+01 5.6103233075e+01 1.0566000000e-01 0.0000e+00 -1.0000e+00
       13  1    2    2    0    0 +3.3364154226e+00 +3.6358455936e+01 +2.0534279948e+01 4.1889578691e+01 1.0566000000e-01 0.0000e+00 1.0000e+00
       22  1    1    0    0    0 -2.4378978979e+01 +5.6141426019e+00 +1.0175215138e+01 2.7007188234e+01 0.0000000000e+00 0.0000e+00 1.0000e+00
</event>
<event>
 4      1 +2.4041262e-06 9.11880000e+01 7.81860800e-03 1.13011600e-01
       25 -1    0    0    0    0 +0.0000000000e+00 +0.0000000000e+00 +9.9999998245e-15 1.2500000000e+02 1.2500000000e+02 0.0000e+00 0.0000e+00
      -13  1    1    0    0    0 -3.4762876191e+01 +1.7282970991e+01 +4.8761410654e+01 6.2328524612e+01 1.0566000000e-01 0.0000e+00 -1.0000e+00
       13  1    1    0    0    0 +3.4858911500e+01 -1.7330053562e+01 -4.8895442350e+01 6.2499999312e+01 1.0566000000e-01 0.0000e+00 -1.0000e+00
       22  1    1    0    0    0 -9.6035309098e-02 +4.7082571599e-02 +1.3403169556e-01 1.7147607575e-01 0.0000000000e+00 0.0000e+00 1.0000e+00
</event>
<event>
 5      1 +2.4041262e-06 9.11880000e+01 7.81860800e-03 1.13011600e-01
       25 -1    0    0    0    0 +0.0000000000e+00 +0.0000000000e+00 +9.9999998245e-15 1.2500000000e+02 1.2500000000e+02 0.0000e+00 0.0000e+00
       23  2    1    0    0    0 +1.2776402998e+00 +7.1829211516e-01 -3.0912654216e+01 9.4052617252e+01 8.8815281978e+01 0.0000e+00 0.0000e+00
      -13  1    2    2    0    0 +6.9124240098e+00 +3.4779004858e+01 -4.4544530153e+01 5.6934937562e+01 1.0566000000e-01 0.0000e+00 -1.0000e+00
       13  1    2    2    0    0 -5.6347837100e+00 -3.4060712742e+01 +1.3631875937e+01 3.7117679690e+01 1.0566000000e-01 0.0000e+00 1.0000e+00
       22  1    1    0    0    0 -1.2776402998e+00 -7.1829211516e-01 +3.0912654216e+01 3.0947382748e+01 0.0000000000e+00 0.0000e+00 -1.0000e+00
</event>
<event>
 4      1 +2.4041262e-06 9.11880000e+01 7.81860800e-03 1.13011600e-01
       25 -1    0    0    0    0 +0.0000000000e+00 +0.0000000000e+00 +9.9999998245e-15 1.2500000000e+02 1.2500000000e+02 0.0000e+00 0.0000e+00
      -13  1    1    0    0    0 -6.4096989221e+00 +3.5721542814e+01 -5.0879614187e+01 6.2496873243e+01 1.0566000000e-01 0.0000e+00 -1.0000e+00
       13  1    1    0    0    0 +6.4020624893e+00 -3.5717399977e+01 +5.0880445278e+01 6.2494399276e+01 1.0566000000e-01 0.0000e+00 -1.0000e+00
       22  1    1    0    0    0 +7.6364328182e-03 -4.1428377343e-03 -8.3109084762e-04 8.7274808895e-03 0.0000000000e+00 0.0000e+00 -1.0000e+00
</event>
<event>
 4      1 +2.4041262e-06 9.11880000e+01 7.81860800e-03 1.13011600e-01
       25 -1    0    0    0    0 +0.0000000000e+00 +0.0000000000e+00 +9.9999998245e-15 1.2500000000e+02 1.2500000000e+02 0.0000e+00 0.0000e+00
      -13  1    1    0    0    0 -5.2837807529e+01 -5.6806522417e+00 -3.2895822250e+01 6.2500000000e+01 1.0566000000e-01 0.0000e+00 1.0000e+00
       13  1    1    0    0    0 +5.2837807530e+01 +5.6806522416e+00 +3.2895822250e+01 6.2500000000e+01 1.0566000000e-01 0.0000e+00 1.0000e+00
       22  1    1    0    0    0 -3.8644995048e-10 +5.3168391145e-11 -2.7833752379e-10 4.7920999488e-10 0.0000000000e+00 0.0000e+00 1.0000e+00
</event>
<event>
 4      1 +2.4041262e-06 9.11880000e+01 7.81860800e-03 1.13011600e-01
       25 -1    0    0    0    0 +0.0000000000e+00 +0.0000000000e+00 +9.9999998245e-15 1.2500000000e+02 1.2500000000e+02 0.0000e+00 0.0000e+00
      -13  1    1    0    0    0 -1.5086882081e+01 -9.7724786892e+00 +1.1049090101e+01 2.1099974093e+01 1.0566000000e-01 0.0000e+00 -1.0000e+00
       13  1    1    0    0    0 -1.6281221802e+01 -4.0659779781e+01 -7.1734058056e+00 4.4382032288e+01 1.0566000000e-01 0.0000e+00 1.0000e+00
       22  1    1    0    0    0 +3.1368103883e+01 +5.0432258470e+01 -3.8756842951e+00 5.9517993618e+01 0.0000000000e+00 0.0000e+00 -1.0000e+00
</event>
<event>
 4      1 +2.4041262e-06 9.11880000e+01 7.81860800e-03 1.13011600e-01
       25 -1    0    0    0    0 +0.0000000000e+00 +0.0000000000e+00 +9.9999998245e-15 1.2500000000e+02 1.2500000000e+02 0.0000e+00 0.0000e+00
      -11  1    1    0    0    0 -4.9212073494e+01 -2.0127438896e+01 -3.2024522037e+01 6.2068607090e+01 5.1100000000e-04 0.0000e+00 1.0000e+00
       11  1    1    0    0    0 -3.4820470518e-01 -1.5926935798e-01 -1.9987003734e-01 4.3192770003e-01 5.1100000000e-04 0.0000e+00 -1.0000e+00
       22  1    1    0    0    0 +4.9560278199e+01 +2.0286708254e+01 +3.2224392074e+01 6.2499465210e+01 0.0000000000e+00 0.0000e+00 1.0000e+00
</event>
<event>
 4      1 +2.4041262e-06 9.11880000e+01 7.81860800e-03 1.13011600e-01
       25 -1    0    0    0    0 +0.0000000000e+00 +0.0000000000e+00 +9.9999998245e-15 1.2500000000e+02 1.2500000000e+02 0.0000e+00 0.0000e+00
      -13  1    1    0    0    0 +5.2927257850e+01 -3.2874071120e+01 +4.7821816763e+00 6.2489035847e+01 1.0566000000e-01 0.0000e+00 -1.0000e+00
       13  1    1    0    0    0 -5.2936910658e+01 +3.2879285817e+01 -4.7825813976e+00 6.2499985558e+01 1.0566000000e-01 0.0000e+00 -1.0000e+00
       22  1    1    0    0    0 +9.6528082679e-03 -5.2146973662e-03 +3.9972135901e-04 1.0978595231e-02 0.0000000000e+00 0.0000e+00 1.0000e+00
</event>
<event>
 4      1 +2.4041262e-06 9.11880000e+01 7.81860800e-03 1.13011600e-01
       25 -1    0    0    0    0 +0.0000000000e+00 +0.0000000000e+00 +9.9999998245e-15 1.2500000000e+02 1.2500000000e+02 0.0000e+00 0.0000e+00
      -13  1    1    0    0    0 -5.4170558490e+01 -7.1758027904e+00 +3.0336401948e+01 6.2500000000e+01 1.0566000000e-01 0.0000e+00 1.0000e+00
       13  1    1    0    0    0 +5.4170558081e+01 +7.1758027319e+00 -3.0336401717e+01 6.2499999527e+01 1.0566000000e-01 0.0000e+00 1.0000e+00
       22  1    1    0    0    0 +4.0884035287e-07 +5.8515529313e-08 -2.3078858435e-07 4.7311507265e-07 0.0000000000e+00 0.0000e+00 -1.0000e+00
</event>
<event>
 4      1 +2.4041262e-06 9.11880000e+01 7.81860800e-03 1.13011600e-01
       25 -1    0    0    0    0 +0.0000000000e+00 +0.0000000000e+00 +9.9999998245e-15 1.2500000000e+02 1.2500000000e+02 0.0000e+00 0.0000e+00
      -11  1    1    0    0    0 +2.6158736834e+01 -4.3684255046e+01 +3.5958213775e+01 6.2334475131e+01 5.1100000000e-04 0.0000e+00 1.0000e+00
       11  1    1    0    0    0 +7.2108262913e-02 -1.1411060670e-01 +9.5827188599e-02 1.6554136443e-01 5.1100000000e-04 0.0000e+00 -1.0000e+00
       22  1    1    0    0    0 -2.6230845096e+01 +4.3798365653e+01 -3.6054040964e+01 6.2499983505e+01 0.0000000000e+00 0.0000e+00 1.0000e+00
</event>
<event>
 4      1 +2.4041262e-06 9.11880000e+01 7.81860800e-03 1.13011600e-01
       25 -1    0    0    0    0 +0.0000000000e+00 +0.0000000000e+00 +9.9999998245e-15 1.2500000000e+02 1.2500000000e+02 0.0000e+00 0.0000e+00
      -13  1    1    0    0    0 -6.1686668841e+01 -7.1027484096e+00 +7.1093416902e+00 6.2499984407e+01 1.0566000000e-01 0.0000e+00 -1.0000e+00
       13  1    1    0    0    0 +6.1686684224e+01 +7.1027501816e+00 -7.1093435149e+00 6.2500000000e+01 1.0566000000e-01 0.0000e+00 -1.0000e+00
       22  1    1    0    0    0 -1.5383863022e-05 -1.7719985534e-06 +1.8247178270e-06 1.5592716746e-05 0.0000000000e+00 0.0000e+00 1.0000e+00
</event>
<event>
 4      1 +2.4041262e-06 9.11880000e+01 7.81860800e-03 1.13011600e-01
       25 -1    0    0    0    0 +0.0000000000e+00 +0.0000000000e+00 +9.9999998245e-15 1.2500000000e+02 1.2500000000e+02 0.0000e+00 0.0000e+00
      -11  1    1    0    0    0 +4.2639519927e+01 +1.8438486569e+01 -2.8633756951e+01 5.4571040708e+01 5.1100000000e-04 0.0000e+00 1.0000e+00
       11  1    1    0    0    0 +6.2077490599e+00 +2.6859136202e+00 -4.1374427134e+00 7.9289793059e+00 5.1100000000e-04 0.0000e+00 -1.0000e+00
       22  1    1    0    0    0 -4.8847268987e+01 -2.1124400190e+01 +3.2771199664e+01 6.2499979986e+01 0.0000000000e+00 0.0000e+00 1.0000e+00
</event>
<event>
 4      1 +2.4041262e-06 9.11880000e+01 7.81860800e-03 1.13011600e-01
       25 -1    0    0    0    0 +0.0000000000e+00 +0.0000000000e+00 +9.9999998245e-15 1.2500000000e+02 1.2500000000e+02 0.0000e+00 0.0000e+00
      -13  1    1    0    0    0 -5.6813342057e+00 +6.0164431519e+01 +1.5943727789e+01 6.2499999986e+01 1.0566000000e-01 0.0000e+00 1.0000e+00
       13  1    1    0    0    0 +5.6812887535e+00 -6.0163998385e+01 -1.5943610619e+01 6.2499549016e+01 1.0566000000e-01 0.0000e+00 1.0000e+00
       22  1    1    0    0    0 +4.5452226691e-05 -4.3313411151e-04 -1.1716979928e-04 4.5099869770e-04 0.0000000000e+00 0.0000e+00 1.0000e+00
</event>
<event>
 5      1 +2.4041262e-06 9.11880000e+01 7.81860800e-03 1.13011600e-01
       25 -1    0    0    0    0 +0.0000000000e+00 +0.0000000000e+00 +9.9999998245e-15 1.2500000000e+02 1.2500000000e+02 0.0000e+00 0.0000e+00
       23  2    1    0    0    0 -6.6590104828e+00 -2.4145030719e+01 -2.1287517095e+01 9.2129293998e+01 8.6065809120e+01 0.0000e+00 0.0000e+00
      -11  1    2    2    0    0 -7.5885874100e+00 -3.2069379118e+01 -5.1355997924e+01 6.1020244664e+01 5.1100000000e-04 0.0000e+00 -1.0000e+00
       11  1    2    2    0    0 +9.2957692722e-01 +7.9243483997e+00 +3.0068480829e+01 3.1109049333e+01 5.1100000000e-04 0.0000e+00 1.0000e+00
       22  1    1    0    0    0 +6.6590104828e+00 +2.4145030719e+01 +2.1287517095e+01 3.2870706002e+01 0.0000000000e+00 0.0000e+00 -1.0000e+00
</event>
<event>
 4      1 +2.4041262e-06 9.11880000e+01 7.81860800e-03 1.13011600e-01
       25 -1    0    0    0    0 +0.0000000000e+00 +0.0000000000e+00 +9.9999998245e-15 1.2500000000e+02 1.2500000000e+02 0.0000e+00 0.0000e+00
      -13  1    1    0    0    0 -3.1950735405e+01 +2.3062739101e+01 -4.7276905648e+01 6.1545563605e+01 1.0566000000e-01 0.0000e+00 -1.0000e+00
       13  1    1    0    0    0 +3.2452420305e+01 -2.3394748574e+01 +4.8018125455e+01 6.2499803046e+01 1.0566000000e-01 0.0000e+00 -1.0000e+00
       22  1    1    0    0    0 -5.0168489968e-01 +3.3200947258e-01 -7.4121980747e-01 9.5463334921e-01 0.0000000000e+00 0.0000e+00 -1.0000e+00
</event>
<event>
 4      1 +2.4041262e-06 9.11880000e+01 7.81860800e-03 1.13011600e-01
       25 -1    0    0    0    0 +0.0000000000e+00 +0.0000000000e+00 +9.9999998245e-15 1.2500000000e+02 1.2500000000e+02 0.0000e+00 0.0000e+00
      -11  1    1    0    0    0 +3.5946385492e+01 -3.5747293172e+01 +3.0392658547e+01 5.9107743087e+01 5.1100000000e-04 0.0000e+00 1.0000e+00
       11  1    1    0    0    0 +2.0603684464e+00 -2.0671344906e+00 +1.7290088330e+00 3.3922905157e+00 5.1100000000e-04 0.0000e+00 -1.0000e+00
       22  1    1    0    0    0 -3.8006753938e+01 +3.7814427662e+01 -3.2121667380e+01 6.2499966397e+01 0.0000000000e+00 0.0000e+00 1.0000e+00
</event>
<event>
 4      1 +2.4041262e-06 9.11880000e+01 7.81860800e-03 1.13011600e-01
       25 -1    0    0    0    0 +0.0000000000e+00 +0.0000000000e+00 +9.9999998245e-15 1.2500000000e+02 1.2500000000e+02 0.0000e+00 0.0000e+00
      -11  1    1    0    0    0 -2.1577720826e+01 -3.6121021625e+00 +4.5464649316e+01 5.0454728775e+01 5.1100000000e-04 0.0000e+00 1.0000e+00
       11  1    1    0    0    0 -5.1534954770e+00 -8.5580706947e-01 +1.0853462885e+01 1.2045272028e+01 5.1100000000e-04 0.0000e+00 -1.0000e+00
       22  1    1    0    0    0 +2.6731216303e+01 +4.4679092319e+00 -5.6318112200e+01 6.2499999198e+01 0.0000000000e+00 0.0000e+00 -1.0000e+00
</event>
<event>
 4      1 +2.4041262e-06 9.11880000e+01 7.81860800e-03 1.13011600e-01
       25 -1    0    0    0    0 +0.0000000000e+00 +0.0000000000e+00 +9.9999998245e-15 1.2500000000e+02 1.2500000000e+02 0.0000e+00 0.0000e+00
      -13  1    1    0    0    0 +2.4016633788e+01 +3.1725375842e+01 -4.8196894693e+01 6.2499999943e+01 1.0566000000e-01 0.0000e+00 1.0000e+00
       13  1    1    0    0    0 -2.4016633559e+01 -3.1725375703e+01 +4.8196894698e+01 6.2499999789e+01 1.0566000000e-01 0.0000e+00 1.0000e+00
       22  1    1    0    0    0 -2.2882520416e-07 -1.3971121354e-07 -5.6630568179e-09 2.6816462754e-07 0.0000000000e+00 0.0000e+00 1.0000e+00
</event>
<event>
 4      1 +2.4041262e-06 9.11880000e+01 7.81860800e-03 1.13011600e-01
       25 -1    0    0    0    0 +0.0000000000e+00 +0.0000000000e+00 +9.9999998245e-15 1.2500000000e+02 1.2500000000e+02 0.0000e+00 0.0000e+00
      -13  1    1    0    0    0 +3.7618459975e+01 -1.3240103155e+01 -4.8122655496e+01 6.2499999987e+01 1.0566000000e-01 0.0000e+00 -1.0000e+00
       13  1    1    0    0    0 -3.7618425853e+01 +1.3240090122e+01 +4.8122609204e+01 6.2499941046e+01 1.0566000000e-01 0.0000e+00 -1.0000e+00
       22  1    1    0    0    0 -3.4121600377e-05 +1.3033724297e-05 +4.6291990891e-05 5.8967024700e-05 0.0000000000e+00 0.0000e+00 1.0000e+00
</event>
<event>
 5      1 +2.4041262e-06 9.11880000e+01 7.81860800e-03 1.13011600e-01
       25 -1    0    0    0    0 +0.0000000000e+00 +0.0000000000e+00 +9.9999998245e-15 1.2500000000e+02 1.2500000000e+02 0.0000e+00 0.0000e+00
       23  2    1    0    0    0 +2.7413485241e+01 +4.1663836685e+00 +9.2504966546e+00 9.5769371983e+01 9.1199468176e+01 0.0000e+00 0.0000e+00
      -13  1    2    2    0    0 +2.8820753579e+01 +4.0539598246e+01 -1.5091842454e+01 5.1979512652e+01 1.0566000000e-01 0.0000e+00 -1.0000e+00
       13  1    2    2    0    0 -1.4072683385e+00 -3.6373214578e+01 +2.4342339108e+01 4.3789859331e+01 1.0566000000e-01 0.0000e+00 1.0000e+00
       22  1    1    0    0    0 -2.7413485241e+01 -4.1663836685e+00 -9.2504966546e+00 2.9230628017e+01 0.0000000000e+00 0.0000e+00 -1.0000e+00
</event>
<event>
 4      1 +2.4041262e-06 9.11880000e+01 7.81860800e-03 1.13011600e-01
       25 -1    0    0    0    0 +0.0000000000e+00 +0.0000000000e+00 +9.9999998245e-15 1.2500000000e+02 1.2500000000e+02 0.0000e+00 0.0000e+00
      -13  1    1    0    0    0 +4.7524305199e+01 +3.1291875040e+01 -1.1327650958e+01 5.8017823713e+01 1.0566000000e-01 0.0000e+00 -1.0000e+00
       13  1    1    0    0    0 -5.0583369668e+01 -3.3815047917e+01 +1.3690126288e+01 6.2366380963e+01 1.0566000000e-01 0.0000e+00 -1.0000e+00
       22  1    1    0    0    0 +3.0590644688e+00 +2.5231728775e+00 -2.3624753292e+00 4.6157953242e+00 0.0000000000e+00 0.0000e+00 1.0000e+00
</event>
<event>
 4      1 +2.4041262e-06 9.11880000e+01 7.81860800e-03 1.13011600e-01
       25 -1    0    0    0    0 +0.0000000000e+00 +0.0000000000e+00 +9.9999998245e-15 1.2500000000e+02 1.2500000000e+02 0.0000e+00 0.0000e+00
      -13  1    1    0    0    0 -1.6730097881e+01 -3.4502843395e+01 +3.5805578644e+01 5.2463253841e+01 1.0566000000e-01 0.0000e+00 -1.0000e+00
       13  1    1    0    0    0 +2.0042339533e+01 +4.1060008007e+01 -4.2644815852e+01 6.2499688916e+01 1.0566000000e-01 0.0000e+00 -1.0000e+00
       22  1    1    0    0    0 -3.3122416512e+00 -6.5571646123e+00 +6.8392372082e+00 1.0037057243e+01 0.0000000000e+00 0.0000e+00 1.0000e+00
</event>
<event>
 4      1 +2.4041262e-06 9.11880000e+01 7.81860800e-03 1.13011600e-01
       25 -1    0    0    0    0 +0.0000000000e+00 +0.0000000000e+00 +9.9999998245e-15 1.2500000000e+02 1.2500000000e+02 0.0000e+00 0.0000e+00
      -13  1    1    0    0    0 +2.3408362786e+01 -3.4807736468e+01 +4.6332589714e+01 6.2500000000e+01 1.0566000000e-01 0.0000e+00 1.0000e+00
       13  1    1    0    0    0 -2.3408362786e+01 +3.4807736468e+01 -4.6332589714e+01 6.2500000000e+01 1.0566000000e-01 0.0000e+00 1.0000e+00
       22  1    1    0    0    0 -2.7569688618e-12 -2.3576985216e-11 -3.3544761386e-11 4.1094113026e-11 0.0000000000e+00 0.0000e+00 -1.0000e+00
</event>
<event>
 4      1 +2.4041262e-06 9.11880000e+01 7.81860800e-03 1.13011600e-01
       25 -1    0    0    0    0 +0.0000000000e+00 +0.0000000000e+00 +9.9999998245e-15 1.2500000000e+02 1.2500000000e+02 0.0000e+00 0.0000e+00
      -13  1    1    0    0    0 -9.3843808019e+00 -1.0999533849e+01 -6.0804461084e+01 6.2499999998e+01 1.0566000000e-01 0.0000e+00 -1.0000e+00
       13  1    1    0    0    0 +9.3841276100e+00 +1.0999240351e+01 +6.0802837518e+01 6.2498330807e+01 1.0566000000e-01 0.0000e+00 -1.0000e+00
       22  1    1    0    0    0 +2.5319192549e-04 +2.9349805607e-04 +1.6235660443e-03 1.6691956028e-03 0.0000000000e+00 0.0000e+00 -1.0000e+00
</event>
<event>
 4      1 +2.4041262e-06 9.11880000e+01 7.81860800e-03 1.13011600e-01
       25 -1    0    0    0    0 +0.0000000000e+00 +0.0000000000e+00 +9.9999998245e-15 1.2500000000e+02 1.2500000000e+02 0.0000e+00 0.0000e+00
      -13  1    1    0    0    0 -3.5369508818e+01 -4.8511641674e+01 +1.7107927892e+01 6.2426547981e+01 1.0566000000e-01 0.0000e+00 -1.0000e+00
       13  1    1    0    0    0 +3.5410774071e+01 +4.8569043345e+01 -1.7127866938e+01 6.2499999052e+01 1.0566000000e-01 0.0000e+00 -1.0000e+00
       22  1    1    0    0    0 -4.1265252537e-02 -5.7401670118e-02 +1.9939046168e-02 7.3452967001e-02 0.0000000000e+00 0.0000e+00 1.0000e+00
</event>
<event>
 4      1 +2.4041262e-06 9.11880000e+01 7.81860800e-03 1.13011600e-01
       25 -1    0    0    0    0 +0.0000000000e+00 +0.0000000000e+00 +9.9999998245e-15 1.2500000000e+02 1.2500000000e+02 0.0000e+00 0.0000e+00
      -13  1    1    0    0    0 -3.2346108628e+01 +1.3986390003e+01 -5.1612308838e+01 6.2495851352e+01 1.0566000000e-01 0.0000e+00 1.0000e+00
       13  1    1    0    0    0 +2.5937122056e+01 -1.1649001754e+01 +4.1718661627e+01 5.0486547063e+01 1.0566000000e-01 0.0000e+00 1.0000e+00
       22  1    1    0    0    0 +6.4089865724e+00 -2.3373882483e+00 +9.8936472106e+00 1.2017601584e+01 0.0000000000e+00 0.0000e+00 1.0000e+00
</event>
<event>
 4      1 +2.4041262e-06 9.11880000e+01 7.81860800e-03 1.13011600e-01
       25 -1    0    0    0    0 +0.0000000000e+00 +0.0000000000e+00 +9.9999998245e-15 1.2500000000e+02 1.2500000000e+02 0.0000e+00 0.0000e+00
      -13  1    1    0    0    0 +2.2041156231e+00 +4.8486909842e+01 -3.9370470224e+01 6.2497069063e+01 1.0566000000e-01 0.0000e+00 -1.0000e+00
       13  1    1    0    0    0 -2.2042122182e+00 -4.8489184616e+01 +3.9372315895e+01 6.2499999994e+01 1.0566000000e-01 0.0000e+00 -1.0000e+00
       22  1    1    0    0    0 +9.6595093509e-05 +2.2747740499e-03 -1.8456712802e-03 2.9309435451e-03 0.0000000000e+00 0.0000e+00 1.0000e+00
</event>
<event>
 4      1 +2.4041262e-06 9.11880000e+01 7.81860800e-03 1.13011600e-01
       25 -1    0    0    0    0 +0.0000000000e+00 +0.0000000000e+00 +9.9999998245e-15 1.2500000000e+02 1.2500000000e+02 0.0000e+00 0.0000e+00
      -11  1    1    0    0    0 -3.6148762221e+01 -1.5321955602e+01 -2.9848912568e+00 3.9375181392e+01 5.1100000000e-04 0.0000e+00 1.0000e+00
       11  1    1    0    0    0 -2.1230238997e+01 -8.9965581111e+00 -1.7595865182e+00 2.3124818933e+01 5.1100000000e-04 0.0000e+00 -1.0000e+00
       22  1    1    0    0    0 +5.7379001218e+01 +2.4318513713e+01 +4.7444777750e+00 6.2499999675e+01 0.0000000000e+00 0.0000e+00 1.0000e+00
</event>
<event>
 4      1 +2.4041262e-06 9.11880000e+01 7.81860800e-03 1.13011600e-01
       25 -1    0    0    0    0 +0.0000000000e+00 +0.0000000000e+00 +9.9999998245e-15 1.2500000000e+02 1.2500000000e+02 0.0000e+00 0.0000e+00
      -13  1    1    0    0    0 +1.2980533967e+01 +3.2801986627e+00 +5.7414019778e-01 1.3401297189e+01 1.0566000000e-01 0.0000e+00 -1.0000e+00
       13  1    1    0    0    0 +1.5978301830e+01 -1.1125473989e+01 +4.9518245430e+01 5.3208552841e+01 1.0566000000e-01 0.0000e+00 1.0000e+00
       22  1    1    0    0    0 -2.8958835797e+01 +7.8452753266e+00 -5.0092385628e+01 5.8390149971e+01 0.0000000000e+00 0.0000e+00 1.0000e+00
</event>
<event>
 4      1 +2.4041262e-06 9.11880000e+01 7.81860800e-03 1.13011600e-01
       25 -1    0    0    0    0 +0.0000000000e+00 +0.0000000000e+00 +9.9999998245e-15 1.2500000000e+02 1.2500000000e+02 0.0000e+00 0.0000e+00
      -11  1    1    0    0    0 -5.9289233622e+00 -1.3292278209e+01 -5.8784841389e+01 6.0559841228e+01 5.1100000000e-04 0.0000e+00 1.0000e+00
       11  1    1    0    0    0 -2.2848200675e-01 -4.5423130701e-01 -1.8726586786e+00 1.9404589394e+00 5.1100000000e-04 0.0000e+00 -1.0000e+00
       22  1    1    0    0    0 +6.1574053689e+00 +1.3746509516e+01 +6.0657500067e+01 6.2499699833e+01 0.0000000000e+00 0.0000e+00 1.0000e+00
</event>
<event>
 4      1 +2.4041262e-06 9.11880000e+01 7.81860800e-03 1.13011600e-01
       25 -1    0    0    0    0 +0.0000000000e+00 +0.0000000000e+00 +9.9999998245e-15 1.2500000000e+02 1.2500000000e+02 0.0000e+00 0.0000e+00
      -13  1    1    0    0    0 -8.7160522798e+00 -5.8840477252e+00 -1.3499029146e+01 1.7112175107e+01 1.0566000000e-01 0.0000e+00 1.0000e+00
       13  1    1    0    0    0 -2.3172768720e+01 -1.5826052942e+01 -3.5673968609e+01 4.5388152223e+01 1.0566000000e-01 0.0000e+00 -1.0000e+00
       22  1    1    0    0    0 +3.1888821000e+01 +2.1710100668e+01 +4.9172997754e+01 6.2499672670e+01 0.0000000000e+00 0.0000e+00 -1.0000e+00
</event>
<event>
 4      1 +2.4041262e-06 9.11880000e+01 7.81860800e-03 1.13011600e-01
       25 -1    0    0    0    0 +0.0000000000e+00 +0.0000000000e+00 +9.9999998245e-15 1.2500000000e+02 1.2500000000e+02 0.0000e+00 0.0000e+00
      -13  1    1    0    0    0 +1.7955536352e+01 -5.9865039907e+01 +1.2039945058e-01 6.2499999591e+01 1.0566000000e-01 0.0000e+00 -1.0000e+00
       13  1    1    0    0    0 -1.7935802639e+01 +5.9799047652e+01 -1.1995715528e-01 6.2431119405e+01 1.0566000000e-01 0.0000e+00 -1.0000e+00
       22  1    1    0    0    0 -1.9733713564e-02 +6.5992255234e-02 -4.4229529702e-04 6.8881004835e-02 0.0000000000e+00 0.0000e+00 1.0000e+00
</event>
<event>
 4      1 +2.4041262e-06 9.11880000e+01 7.81860800e-03 1.13011600e-01
       25 -1    0    0    0    0 +0.0000000000e+00 +0.0000000000e+00 +9.9999998245e-15 1.2500000000e+02 1.2500000000e+02 0.0000e+00 0.0000e+00
      -11  1    1    0    0    0 +1.1313023020e+01 -6.8812682318e+00 +4.1113455685e+00 1.3865046159e+01 5.1100000000e-04 0.0000e+00 -1.0000e+00
       11  1    1    0    0    0 +3.9684092117e+01 -2.4134341573e+01 +1.4424462813e+01 4.8634953871e+01 5.1100000000e-04 0.0000e+00 -1.0000e+00
       22  1    1    0    0    0 -5.0997115137e+01 +3.1015609805e+01 -1.8535808381e+01 6.2499999970e+01 0.0000000000e+00 0.0000e+00 -1.0000e+00
</event>
<event>
 4      1 +2.4041262e-06 9.11880000e+01 7.81860800e-03 1.13011600e-01
       25 -1    0    0    0    0 +0.0000000000e+00 +0.0000000000e+00 +9.9999998245e-15 1.2500000000e+02 1.2500000000e+02 0.0000e+00 0.0000e+00
      -13  1    1    0    0    0 +6.9185219846e+00 +5.4478138341e+00 +7.7454627760e+00 1.1728085081e+01 1.0566000000e-01 0.0000e+00 -1.0000e+00
       13  1    1    0    0    0 -1.8820799730e+01 +1.3895602548e+01 +4.7824365699e+01 5.3239941691e+01 1.0566000000e-01 0.0000e+00 1.0000e+00
       22  1    1    0    0    0 +1.1902277746e+01 -1.9343416382e+01 -5.5569828475e+01 6.0031973228e+01 0.0000000000e+00 0.0000e+00 1.0000e+00
</event>
<event>
 5      1 +2.4041262e-06 9.11880000e+01 7.81860800e-03 1.13011600e-01
       25 -1    0    0    0    0 +0.0000000000e+00 +0.0000000000e+00 +9.9999998245e-15 1.2500000000e+02 1.2500000000e+02 0.0000e+00 0.0000e+00
       23  2    1    0    0    0 +2.7641425460e+01 +6.1433575230e+00 -9.8742228688e+00 9.5011843665e+01 9.0155204598e+01 0.0000e+00 0.0000e+00
      -13  1    2    2    0    0 +1.8563967397e+01 +6.0075371415e+00 +3.9900480595e+01 4.4415885714e+01 1.0566000000e-01 0.0000e+00 -1.0000e+00
       13  1    2    2    0    0 +9.0774580634e+00 +1.3582038150e-01 -4.9774703463e+01 5.0595957951e+01 1.0566000000e-01 0.0000e+00 1.0000e+00
       22  1    1    0    0    0 -2.7641425460e+01 -6.1433575230e+00 +9.8742228688e+00 2.9988156335e+01 0.0000000000e+00 0.0000e+00 1.0000e+00
</event>
<event>
 4      1 +2.4041262e-06 9.11880000e+01 7.81860800e-03 1.13011600e-01
       25 -1    0    0    0    0 +0.0000000000e+00 +0.0000000000e+00 +9.9999998245e-15 1.2500000000e+02 1.2500000000e+02 0.0000e+00 0.0000e+00
      -13  1    1    0    0    0 +6.3233998156e-02 -3.8942969496e+01 +4.8821489450e+01 6.2450843612e+01 1.0566000000e-01 0.0000e+00 1.0000e+00
       13  1    1    0    0    0 -2.8254852356e-01 +3.8482490398e+01 -4.7502176851e+01 6.1134686313e+01 1.0566000000e-01 0.0000e+00 1.0000e+00
       22  1    1    0    0    0 +2.1931452540e-01 +4.6047909758e-01 -1.3193125990e+00 1.4144700754e+00 0.0000000000e+00 0.0000e+00 1.0000e+00
</event>
<event>
 4      1 +2.4041262e-06 9.11880000e+01 7.81860800e-03 1.13011600e-01
       25 -1    0    0    0    0 +0.0000000000e+00 +0.0000000000e+00 +9.9999998245e-15 1.2500000000e+02 1.2500000000e+02 0.0000e+00 0.0000e+00
      -13  1    1    0    0    0 -3.4369271270e+01 -3.6740538577e+01 -3.7082675876e+01 6.2499999974e+01 1.0566000000e-01 0.0000e+00 1.0000e+00
       13  1    1    0    0    0 +3.4369268952e+01 +3.6740535147e+01 +3.7082672397e+01 6.2499994618e+01 1.0566000000e-01 0.0000e+00 1.0000e+00
       22  1    1    0    0    0 +2.3187719304e-06 +3.4292584189e-06 +3.4796780725e-06 5.4078346921e-06 0.0000000000e+00 0.0000e+00 -1.0000e+00
</event>
<event>
 5      1 +2.4041262e-06 9.11880000e+01 7.81860800e-03 1.13011600e-01
       25 -1    0    0    0    0 +0.0000000000e+00 +0.0000000000e+00 +9.9999998245e-15 1.2500000000e+02 1.2500000000e+02 0.0000e+00 0.0000e+00
       23  2    1    0    0    0 -4.9409522845e+00 +2.1753530366e+01 -2.0366891499e+01 9.4793388767e+01 8.9851806836e+01 0.0000e+00 0.0000e+00
      -13  1    2    2    0    0 -3.6525383196e+01 +2.6754077401e+01 +1.4444101728e+01 4.7523967784e+01 1.0566000000e-01 0.0000e+00 1.0000e+00
       13  1    2    2    0    0 +3.1584430911e+01 -5.0005470349e+00 -3.4810993226e+01 4.7269420983e+01 1.0566000000e-01 0.0000e+00 -1.0000e+00
       22  1    1    0    0    0 +4.9409522845e+00 -2.1753530366e+01 +2.0366891499e+01 3.0206611233e+01 0.0000000000e+00 0.0000e+00 -1.0000e+00
</event>
<event>
 4      1 +2.4041262e-06 9.11880000e+01 7.81860800e-03 1.13011600e-01
       25 -1    0    0    0    0 +0.0000000000e+00 +0.0000000000e+00 +9.9999998245e-15 1.2500000000e+02 1.2500000000e+02 0.0000e+00 0.0000e+00
      -13  1    1    0    0    0 -2.1403242122e+01 +1.5837122456e+01 -2.4618548470e+01 3.6262891692e+01 1.0566000000e-01 0.0000e+00 1.0000e+00
       13  1    1    0    0    0 -1.5530510640e+01 +1.1462190853e+01 -1.7770953983e+01 2.6237312161e+01 1.0566000000e-01 0.0000e+00 1.0000e+00
       22  1    1    0    0    0 +3.6933752762e+01 -2.7299313310e+01 +4.2389502453e+01 6.2499796148e+01 0.0000000000e+00 0.0000e+00 1.0000e+00
</event>
<event>
 4      1 +2.4041262e-06 9.11880000e+01 7.81860800e-03 1.13011600e-01
       25 -1    0    0    0    0 +0.0000000000e+00 +0.0000000000e+00 +9.9999998245e-15 1.2500000000e+02 1.2500000000e+02 0.0000e+00 0.0000e+00
      -11  1    1    0    0    0 +1.7482130498e+01 +2.6296551800e+00 +4.9127748640e+01 5.2211834480e+01 5.1100000000e-04 0.0000e+00 1.0000e+00
       11  1    1    0    0    0 +1.2672229856e+01 +1.3298861548e-01 +2.5173474930e+00 1.2920531496e+01 5.1100000000e-04 0.0000e+00 -1.0000e+00
       22  1    1    0    0    0 -3.0154360353e+01 -2.7626437954e+00 -5.1645096133e+01 5.9867634024e+01 0.0000000000e+00 0.0000e+00 1.0000e+00
</event>
<event>
 4      1 +2.4041262e-06 9.11880000e+01 7.81860800e-03 1.13011600e-01
       25 -1    0    0    0    0 +0.0000000000e+00 +0.0000000000e+00 +9.9999998245e-15 1.2500000000e+02 1.2500000000e+02 0.0000e+00 0.0000e+00
      -13  1    1    0    0    0 -1.2580164167e+01 +1.7775650353e+01 -5.8583291471e+01 6.2499979837e+01 1.0566000000e-01 0.0000e+00 1.0000e+00
       13  1    1    0    0    0 +1.2580168365e+01 -1.7775655773e+01 +5.8583310435e+01 6.2499999998e+01 1.0566000000e-01 0.0000e+00 1.0000e+00
       22  1    1    0    0    0 -4.1982729092e-06 +5.4203947763e-06 -1.8963405329e-05 2.0164744398e-05 0.0000000000e+00 0.0000e+00 1.0000e+00
</event>
<event>
 4      1 +2.4041262e-06 9.11880000e+01 7.81860800e-03 1.13011600e-01
       25 -1    0    0    0    0 +0.0000000000e+00 +0.0000000000e+00 +9.9999998245e-15 1.2500000000e+02 1.2500000000e+02 0.0000e+00 0.0000e+00
      -13  1    1    0    0    0 -5.5584066370e+01 -5.5585798557e+00 -2.8029808646e+01 6.2499340644e+01 1.0566000000e-01 0.0000e+00 1.0000e+00
       13  1    1    0    0    0 +3.3029173724e+01 +3.3713477208e+00 +1.6863304585e+01 3.7238078736e+01 1.0566000000e-01 0.0000e+00 1.0000e+00
       22  1    1    0    0    0 +2.2554892646e+01 +2.1872321349e+00 +1.1166504060e+01 2.5262580620e+01 0.0000000000e+00 0.0000e+00 -1.0000e+00
</event>
<event>
 4      1 +2.4041262e-06 9.11880000e+01 7.81860800e-03 1.13011600e-01
       25 -1    0    0    0    0 +0.0000000000e+00 +0.0000000000e+00 +9.9999998245e-15 1.2500000000e+02 1.2500000000e+02 0.0000e+00 0.0000e+00
      -13  1    1    0    0    0 -1.4422370377e+01 -1.2409398310e+01 -1.7234523189e+01 2.5671733235e+01 1.0566000000e-01 0.0000e+00 -1.0000e+00
       13  1    1    0    0    0 -3.7024058828e+01 +2.5220446699e+01 +7.3404681616e+00 4.5395434800e+01 1.0566000000e-01 0.0000e+00 1.0000e+00
       22  1    1    0    0    0 +5.1446429206e+01 -1.2811048389e+01 +9.8940550271e+00 5.3932831965e+01 0.0000000000e+00 0.0000e+00 1.0000e+00
</event>
<event>
 4      1 +2.4041262e-06 9.11880000e+01 7.81860800e-03 1.13011600e-01
       25 -1    0    0    0    0 +0.0000000000e+00 +0.0000000000e+00 +9.9999998245e-15 1.2500000000e+02 1.2500000000e+02 0.0000e+00 0.0000e+00
      -13  1    1    0    0    0 +2.7807458006e+01 -6.3626529848e+00 +5.5610247970e+01 6.2499991337e+01 1.0566000000e-01 0.0000e+00 1.0000e+00
       13  1    1    0    0    0 -2.7807462189e+01 +6.3626541068e+00 -5.5610255480e+01 6.2499999994e+01 1.0566000000e-01 0.0000e+00 1.0000e+00
       22  1    1    0    0    0 +4.1834481540e-06 -1.1219613335e-06 +7.5096107504e-06 8.6691573590e-06 0.0000000000e+00 0.0000e+00 1.0000e+00
</event>
<event>
 4      1 +2.4041262e-06 9.11880000e+01 7.81860800e-03 1.13011600e-01
       25 -1    0    0    0    0 +0.0000000000e+00 +0.0000000000e+00 +9.9999998245e-15 1.2500000000e+02 1.2500000000e+02 0.0000e+00 0.0000e+00
      -11  1    1    0    0    0 +7.4148492827e+00 -6.2184439275e+00 +9.4526885029e-01 9.7233002743e+00 5.1100000000e-04 0.0000e+00 1.0000e+00
       11  1    1    0    0    0 +3.7899329071e+01 -3.6301206100e+01 -6.5410293064e+00 5.2885931711e+01 5.1100000000e-04 0.0000e+00 -1.0000e+00
       22  1    1    0    0    0 -4.5314178354e+01 +4.2519650027e+01 +5.5957604561e+00 6.2390768014e+01 0.0000000000e+00 0.0000e+00 -1.0000e+00
</event>
<event>
 4      1 +2.4041262e-06 9.11880000e+01 7.81860800e-03 1.13011600e-01
       25 -1    0    0    0    0 +0.0000000000e+00 +0.0000000000e+00 +9.9999998245e-15 1.2500000000e+02 1.2500000000e+02 0.0000e+00 0.0000e+00
      -13  1    1    0    0    0 +2.4420259422e+01 -9.3379033895e-01 +5.6093847336e+01 6.1186206841e+01 1.0566000000e-01 0.0000e+00 -1.0000e+00
       13  1    1    0    0    0 -2.4923362286e+01 +9.5252764226e-01 -5.7307459459e+01 6.2499898961e+01 1.0566000000e-01 0.0000e+00 -1.0000e+00
       22  1    1    0    0    0 +5.0310286406e-01 -1.8737303307e-02 +1.2136121226e+00 1.3138941976e+00 0.0000000000e+00 0.0000e+00 1.0000e+00
</event>
<event>
 4      1 +2.4041262e-06 9.11880000e+01 7.81860800e-03 1.13011600e-01
       25 -1    0    0    0    0 +0.0000000000e+00 +0.0000000000e+00 +9.9999998245e-15 1.2500000000e+02 1.2500000000e+02 0.0000e+00 0.0000e+00
      -13  1    1    0    0    0 -6.7749288986e+00 -1.7315004341e+01 -5.9670173885e+01 6.2499998819e+01 1.0566000000e-01 0.0000e+00 -1.0000e+00
       13  1    1    0    0    0 +6.7749374494e+00 +1.7314994075e+01 +5.9670145635e+01 6.2499969931e+01 1.0566000000e-01 0.0000e+00 -1.0000e+00
       22  1    1    0    0    0 -8.5508464142e-06 +1.0265872544e-05 +2.8250002815e-05 3.1250084361e-05 0.0000000000e+00 0.0000e+00 -1.0000e+00
</event>
<event>
 4      1 +2.4041262e-06 9.11880000e+01 7.81860800e-03 1.13011600e-01
       25 -1    0    0    0    0 +0.0000000000e+00 +0.0000000000e+00 +9.9999998245e-15 1.2500000000e+02 1.2500000000e+02 0.0000e+00 0.0000e+00
      -13  1    1    0    0    0 -1.4763753020e+01 -4.1852655305e+01 +4.4007109387e+01 6.2500000000e+01 1.0566000000e-01 0.0000e+00 -1.0000e+00
       13  1    1    0    0    0 +1.4763742461e+01 +4.1852624792e+01 -4.4007077528e+01 6.2499954640e+01 1.0566000000e-01 0.0000e+00 -1.0000e+00
       22  1    1    0    0    0 +1.0558259705e-05 +3.0512450495e-05 -3.1859788282e-05 4.5360032987e-05 0.0000000000e+00 0.0000e+00 -1.0000e+00
</event>
<event>
 4      1 +2.4041262e-06 9.11880000e+01 7.81860800e-03 1.13011600e-01
       25 -1    0    0    0    0 +0.0000000000e+00 +0.0000000000e+00 +9.9999998245e-15 1.2500000000e+02 1.2500000000e+02 0.0000e+00 0.0000e+00
      -13  1    1    0    0    0 -8.7819147390e+00 -2.6664985587e+01 +5.5839895101e+01 6.2499988254e+01 1.0566000000e-01 0.0000e+00 1.0000e+00
       13  1    1    0    0    0 +8.7819142091e+00 +2.6664994605e+01 -5.5839903424e+01 6.2499999463e+01 1.0566000000e-01 0.0000e+00 1.0000e+00
       22  1    1    0    0    0 +5.2987992599e-07 -9.0179616130e-06 +8.3233230572e-06 1.2283407960e-05 0.0000000000e+00 0.0000e+00 -1.0000e+00
</event>
<event>
 4      1 +2.4041262e-06 9.11880000e+01 7.81860800e-03 1.13011600e-01
       25 -1    0    0    0    0 +0.0000000000e+00 +0.0000000000e+00 +9.9999998245e-15 1.2500000000e+02 1.2500000000e+02 0.0000e+00 0.0000e+00
      -13  1    1    0    0    0 -4.3126939926e+01 -1.2453717262e+01 -4.3488006240e+01 6.2499966975e+01 1.0566000000e-01 0.0000e+00 1.0000e+00
       13  1    1    0    0    0 +4.3126961062e+01 +1.2453723385e+01 +4.3488030926e+01 6.2499999956e+01 1.0566000000e-01 0.0000e+00 1.0000e+00
       22  1    1    0    0    0 -2.1135197961e-05 -6.1231821620e-06 -2.4685989481e-05 3.3069442530e-05 0.0000000000e+00 0.0000e+00 1.0000e+00
</event>
<event>
 4      1 +2.4041262e-06 9.11880000e+01 7.81860800e-03 1.13011600e-01
       25 -1    0    0    0    0 +0.0000000000e+00 +0.0000000000e+00 +9.9999998245e-15 1.2500000000e+02 1.2500000000e+02 0.0000e+00 0.0000e+00
      -13  1    1    0    0    0 +5.9036185030e+00 -8.3183799050e+00 -6.1661896106e+01 6.2499990009e+01 1.0566000000e-01 0.0000e+00 1.0000e+00
       13  1    1    0    0    0 -5.9035403862e+00 +8.3176961336e+00 +6.1658913370e+01 6.2496948886e+01 1.0566000000e-01 0.0000e+00 1.0000e+00
       22  1    1    0    0    0 -7.8116804618e-05 +6.8377137674e-04 +2.9827361999e-03 3.0611045015e-03 0.0000000000e+00 0.0000e+00 1.0000e+00
</event>
<event>
 5      1 +2.4041262e-06 9.11880000e+01 7.81860800e-03 1.13011600e-01
       25 -1    0    0    0    0 +0.0000000000e+00 +0.0000000000e+00 +9.9999998245e-15 1.2500000000e+02 1.2500000000e+02 0.0000e+00 0.0000e+00
       23  2    1    0    0    0 -1.5064995163e+01 -5.3094678288e+00 +2.8693581230e+01 9.2159991905e+01 8.6110382511e+01 0.0000e+00 0.0000e+00
      -13  1    2    2    0    0 +9.6849852610e-01 -1.1960526475e+01 +5.7384928173e+01 5.8626217074e+01 1.0566000000e-01 0.0000e+00 1.0000e+00
       13  1    2    2    0    0 -1.6033493689e+01 +6.6510586462e+00 -2.8691346943e+01 3.3533774831e+01 1.0566000000e-01 0.0000e+00 -1.0000e+00
       22  1    1    0    0    0 +1.5064995163e+01 +5.3094678288e+00 -2.8693581230e+01 3.2840008095e+01 0.0000000000e+00 0.0000e+00 1.0000e+00
</event>
<event>
 4      1 +2.4041262e-06 9.11880000e+01 7.81860800e-03 1.13011600e-01
       25 -1    0    0    0    0 +0.0000000000e+00 +0.0000000000e+00 +9.9999998245e-15 1.2500000000e+02 1.2500000000e+02 0.0000e+00 0.0000e+00
      -13  1    1    0    0    0 -5.7298839709e+01 +5.0985779391e+00 -2.4435319122e+01 6.2499988109e+01 1.0566000000e-01 0.0000e+00 -1.0000e+00
       13  1    1    0    0    0 +5.7298844957e+01 -5.0985763601e+00 +2.4435332052e+01 6.2499997847e+01 1.0566000000e-01 0.0000e+00 -1.0000e+00
       22  1    1    0    0    0 -5.2486452695e-06 -1.5790333507e-06 -1.2930517704e-05 1.4044212743e-05 0.0000000000e+00 0.0000e+00 -1.0000e+00
</event>
<event>
 5      1 +2.4041262e-06 9.11880000e+01 7.81860800e-03 1.13011600e-01
       25 -1    0    0    0    0 +0.0000000000e+00 +0.0000000000e+00 +9.9999998245e-15 1.2500000000e+02 1.2500000000e+02 0.0000e+00 0.0000e+00
       23  2    1    0    0    0 -1.8711144562e+01 +1.9631181013e+01 -1.5464999259e+01 9.3780512482e+01 8.8431488287e+01 0.0000e+00 0.0000e+00
      -13  1    2    2    0    0 -3.9065453782e+01 +3.8282475070e+01 +1.0712425699e+01 5.5735310218e+01 1.0566000000e-01 0.0000e+00 1.0000e+00
       13  1    2    2    0    0 +2.0354309220e+01 -1.8651294057e+01 -2.6177424958e+01 3.8045202264e+01 1.0566000000e-01 0.0000e+00 -1.0000e+00
       22  1    1    0    0    0 +1.8711144562e+01 -1.9631181013e+01 +1.5464999259e+01 3.1219487518e+01 0.0000000000e+00 0.0000e+00 1.0000e+00
</event>
<event>
 5      1 +2.4041262e-06 9.11880000e+01 7.81860800e-03 1.13011600e-01
       25 -1    0    0    0    0 +0.0000000000e+00 +0.0000000000e+00 +9.9999998245e-15 1.2500000000e+02 1.2500000000e+02 0.0000e+00 0.0000e+00
       23  2    1    0    0    0 -2.3983916975e+01 -1.3008395005e+00 +1.5939904721e+01 9.6172911708e+01 9.1750901505e+01 0.0000e+00 0.0000e+00
      -11  1    2    2    0    0 +8.0699849632e+00 -1.4414172759e+01 -3.2598840468e+01 3.6545552859e+01 5.1100000000e-04 0.0000e+00 -1.0000e+00
       11  1    2    2    0    0 -3.2053901938e+01 +1.3113333258e+01 +4.8538745189e+01 5.9627358850e+01 5.1100000000e-04 0.0000e+00 1.0000e+00
       22  1    1    0    0    0 +2.3983916975e+01 +1.3008395005e+00 -1.5939904721e+01 2.8827088292e+01 0.0000000000e+00 0.0000e+00 1.0000e+00
</event>
<event>
 4      1 +2.4041262e-06 9.11880000e+01 7.81860800e-03 1.13011600e-01
       25 -1    0    0    0    0 +0.0000000000e+00 +0.0000000000e+00 +9.9999998245e-15 1.2500000000e+02 1.2500000000e+02 0.0000e+00 0.0000e+00
      -13  1    1    0    0    0 -2.0946242056e+01 +5.0533693882e+01 -3.0229770624e+01 6.2499995757e+01 1.0566000000e-01 0.0000e+00 -1.0000e+00
       13  1    1    0    0    0 +2.0946054856e+01 -5.0533393804e+01 +3.0229639971e+01 6.2499627200e+01 1.0566000000e-01 0.0000e+00 -1.0000e+00
       22  1    1    0    0    0 +1.8720052175e-04 -3.0007791798e-04 +1.3065360582e-04 3.7704264602e-04 0.0000000000e+00 0.0000e+00 -1.0000e+00
</event>
<event>
 4      1 +2.4041262e-06 9.11880000e+01 7.81860800e-03 1.13011600e-01
       25 -1    0    0    0    0 +0.0000000000e+00 +0.0000000000e+00 +9.9999998245e-15 1.2500000000e+02 1.2500000000e+02 0.0000e+00 0.0000e+00
      -13  1    1    0    0    0 -1.9996322847e+01 -1.7772843189e+00 +5.9188062209e+01 6.2499996313e+01 1.0566000000e-01 0.0000e+00 -1.0000e+00
       13  1    1    0    0    0 +1.9996324023e+01 +1.7772845036e+00 -5.9188065700e+01 6.2500000000e+01 1.0566000000e-01 0.0000e+00 -1.0000e+00
       22  1    1    0    0    0 -1.1757429162e-06 -1.8469956313e-07 +3.4902092197e-06 3.6875528106e-06 0.0000000000e+00 0.0000e+00 1.0000e+00
</event>
<event>
 4      1 +2.4041262e-06 9.11880000e+01 7.81860800e-03 1.13011600e-01
       25 -1    0    0    0    0 +0.0000000000e+00 +0.0000000000e+00 +9.9999998245e-15 1.2500000000e+02 1.2500000000e+02 0.0000e+00 0.0000e+00
      -11  1    1    0    0    0 -6.7413576335e+00 -4.5075152213e+01 -6.1192973566e+00 4.5985443894e+01 5.1100000000e-04 0.0000e+00 -1.0000e+00
       11  1    1    0    0    0 -5.0851918212e+00 -1.4505239946e+01 -6.9702952467e+00 1.6877386582e+01 5.1100000000e-04 0.0000e+00 1.0000e+00
       22  1    1    0    0    0 +1.1826549455e+01 +5.9580392159e+01 +1.3089592603e+01 6.2137169523e+01 0.0000000000e+00 0.0000e+00 -1.0000e+00
</event>
<event>
 4      1 +2.4041262e-06 9.11880000e+01 7.81860800e-03 1.13011600e-01
       25 -1    0    0    0    0 +0.0000000000e+00 +0.0000000000e+00 +9.9999998245e-15 1.2500000000e+02 1.2500000000e+02 0.0000e+00 0.0000e+00
      -13  1    1    0    0    0 -5.0416498701e+01 +1.3066924539e+01 +3.3781589589e+01 6.2078779123e+01 1.0566000000e-01 0.0000e+00 1.0000e+00
       13  1    1    0    0    0 +5.0401943820e+01 -1.1793902061e+01 -3.3351281766e+01 6.1577359688e+01 1.0566000000e-01 0.0000e+00 1.0000e+00
       22  1    1    0    0    0 +1.4554881370e-02 -1.2730224780e+00 -4.3030782313e-01 1.3438611895e+00 0.0000000000e+00 0.0000e+00 1.0000e+00
</event>
<event>
 4      1 +2.4041262e-06 9.11880000e+01 7.81860800e-03 1.13011600e-01
       25 -1    0    0    0    0 +0.0000000000e+00 +0.0000000000e+00 +9.9999998245e-15 1.2500000000e+02 1.2500000000e+02 0.0000e+00 0.0000e+00
      -13  1    1    0    0    0 -1.7852196711e+01 -1.4482431637e+01 -2.0663509139e+00 2.3080786894e+01 1.0566000000e-01 0.0000e+00 -1.0000e+00
       13  1    1    0    0    0 -3.0979781058e+01 -2.3542619058e+01 -6.4632271354e+00 3.9443455928e+01 1.0566000000e-01 0.0000e+00 1.0000e+00
       22  1    1    0    0    0 +4.8831977769e+01 +3.8025050695e+01 +8.5295780493e+00 6.2475757177e+01 0.0000000000e+00 0.0000e+00 -1.0000e+00
</event>
<event>
 5      1 +2.4041262e-06 9.11880000e+01 7.81860800e-03 1.13011600e-01
       25 -1    0    0    0    0 +0.0000000000e+00 +0.0000000000e+00 +9.9999998245e-15 1.2500000000e+02 1.2500000000e+02 0.0000e+00 0.0000e+00
       23  2    1    0    0    0 +9.1790897693e+00 -2.5688639775e+01 -8.2305163514e+00 9.6506083072e+01 9.2203691726e+01 0.0000e+00 0.0000e+00
      -11  1    2    2    0    0 -1.2068086150e+01 -1.5073427074e+00 +3.8154506608e+01 4.0045938123e+01 5.1100000000e-04 0.0000e+00 1.0000e+00
       11  1    2    2    0    0 +2.1247175919e+01 -2.4181297068e+01 -4.6385022960e+01 5.6460144949e+01 5.1100000000e-04 0.0000e+00 -1.0000e+00
       22  1    1    0    0    0 -9.1790897693e+00 +2.5688639775e+01 +8.2305163514e+00 2.8493916928e+01 0.0000000000e+00 0.0000e+00 -1.0000e+00
</event>
<event>
 4      1 +2.4041262e-06 9.11880000e+01 7.81860800e-03 1.13011600e-01
       25 -1    0    0    0    0 +0.0000000000e+00 +0.0000000000e+00 +9.9999998245e-15 1.2500000000e+02 1.2500000000e+02 0.0000e+00 0.0000e+00
      -13  1    1    0    0    0 +2.6426040548e+01 +2.1524842987e+01 -5.2388780750e+01 6.2499999978e+01 1.0566000000e-01 0.0000e+00 1.0000e+00
       13  1    1    0    0    0 -2.6426040558e+01 -2.1524842995e+01 +5.2388780769e+01 6.2500000000e+01 1.0566000000e-01 0.0000e+00 1.0000e+00
       22  1    1    0    0    0 +9.4313957675e-09 +7.5733514598e-09 -1.8921797077e-08 2.2457544013e-08 0.0000000000e+00 0.0000e+00 1.0000e+00
</event>
<event>
 4      1 +2.4041262e-06 9.11880000e+01 7.81860800e-03 1.13011600e-01
       25 -1    0    0    0    0 +0.0000000000e+00 +0.0000000000e+00 +9.9999998245e-15 1.2500000000e+02 1.2500000000e+02 0.0000e+00 0.0000e+00
      -13  1    1    0    0    0 -1.3972305652e+01 +1.1926594311e+01 -5.9739181648e+01 6.2499999721e+01 1.0566000000e-01 0.0000e+00 1.0000e+00
       13  1    1    0    0    0 +1.3969946249e+01 -1.1924442293e+01 +5.9728703541e+01 6.2489046344e+01 1.0566000000e-01 0.0000e+00 1.0000e+00
       22  1    1    0    0    0 +2.3594031105e-03 -2.1520183823e-03 +1.0478107223e-02 1.0953935235e-02 0.0000000000e+00 0.0000e+00 -1.0000e+00
</event>
<event>
 4      1 +2.4041262e-06 9.11880000e+01 7.81860800e-03 1.13011600e-01
       25 -1    0    0    0    0 +0.0000000000e+00 +0.0000000000e+00 +9.9999998245e-15 1.2500000000e+02 1.2500000000e+02 0.0000e+00 0.0000e+00
      -13  1    1    0    0    0 +5.4443363549e+01 -2.5451249237e+01 +1.7157729663e+01 6.2499958188e+01 1.0566000000e-01 0.0000e+00 1.0000e+00
       13  1    1    0    0    0 -5.4443317424e+01 +2.5451321572e+01 -1.7157751167e+01 6.2499953368e+01 1.0566000000e-01 0.0000e+00 1.0000e+00
       22  1    1    0    0    0 -4.6125060586e-05 -7.2334542930e-05 +2.1504288401e-05 8.8443438053e-05 0.0000000000e+00 0.0000e+00 -1.0000e+00
</event>
<event>
 4      1 +2.4041262e-06 9.11880000e+01 7.81860800e-03 1.13011600e-01
       25 -1    0    0    0    0 +0.0000000000e+00 +0.0000000000e+00 +9.9999998245e-15 1.2500000000e+02 1.2500000000e+02 0.0000e+00 0.0000e+00
      -13  1    1    0    0    0 +2.7887152323e+01 -2.1614112433e+01 -5.1573699738e+01 6.2487765120e+01 1.0566000000e-01 0.0000e+00 -1.0000e+00
       13  1    1    0    0    0 -2.7892530896e+01 +2.1618311222e+01 +5.1583855484e+01 6.2499999764e+01 1.0566000000e-01 0.0000e+00 -1.0000e+00
       22  1    1    0    0    0 +5.3785738846e-03 -4.1987892455e-03 -1.0155745793e-02 1.2235115887e-02 0.0000000000e+00 0.0000e+00 1.0000e+00
</event>
<event>
 4      1 +2.4041262e-06 9.11880000e+01 7.81860800e-03 1.13011600e-01
       25 -1    0    0    0    0 +0.0000000000e+00 +0.0000000000e+00 +9.9999998245e-15 1.2500000000e+02 1.2500000000e+02 0.0000e+00 0.0000e+00
      -13  1    1    0    0    0 +3.0954045013e+01 -3.7819846230e+01 -3.8958248991e+01 6.2500000000e+01 1.0566000000e-01 0.0000e+00 1.0000e+00
       13  1    1    0    0    0 -3.0954045013e+01 +3.7819846230e+01 +3.8958248990e+01 6.2500000000e+01 1.0566000000e-01 0.0000e+00 1.0000e+00
       22  1    1    0    0    0 -1.7474808258e-10 +5.3350919880e-11 +4.9450322072e-10 5.2717800439e-10 0.0000000000e+00 0.0000e+00 -1.0000e+00
</event>
<event>
 4      1 +2.4041262e-06 9.11880000e+01 7.81860800e-03 1.13011600e-01
       25 -1    0    0    0    0 +0.0000000000e+00 +0.0000000000e+00 +9.9999998245e-15 1.2500000000e+02 1.2500000000e+02 0.0000e+00 0.0000e+00
      -13  1    1    0    0    0 +2.4271305508e+01 -3.9320718502e+01 -4.2083531947e+01 6.2499999998e+01 1.0566000000e-01 0.0000e+00 -1.0000e+00
       13  1    1    0    0    0 -2.4271298081e+01 +3.9320705805e+01 +4.2083518257e+01 6.2499979908e+01 1.0566000000e-01 0.0000e+00 -1.0000e+00
       22  1    1    0    0    0 -7.4274910042e-06 +1.2696806724e-05 +1.3689862918e-05 2.0094498509e-05 0.0000000000e+00 0.0000e+00 1.0000e+00
</event>
<event>
 4      1 +2.4041262e-06 9.11880000e+01 7.81860800e-03 1.13011600e-01
       25 -1    0    0    0    0 +0.0000000000e+00 +0.0000000000e+00 +9.9999998245e-15 1.2500000000e+02 1.2500000000e+02 0.0000e+00 0.0000e+00
      -13  1    1    0    0    0 -5.4319981757e+01 -2.0081916324e+01 -2.3498426278e+01 6.2499047856e+01 1.0566000000e-01 0.0000e+00 -1.0000e+00
       13  1    1    0    0    0 +5.4248746624e+01 +2.0071190533e+01 +2.3459359909e+01 6.2419002965e+01 1.0566000000e-01 0.0000e+00 -1.0000e+00
       22  1    1    0    0    0 +7.1235132977e-02 +1.0725790912e-02 +3.9066368753e-02 8.1949178937e-02 0.0000000000e+00 0.0000e+00 1.0000e+00
</event>
<event>
 4      1 +2.4041262e-06 9.11880000e+01 7.81860800e-03 1.13011600e-01
       25 -1    0    0    0    0 +0.0000000000e+00 +0.0000000000e+00 +9.9999998245e-15 1.2500000000e+02 1.2500000000e+02 0.0000e+00 0.0000e+00
      -13  1    1    0    0    0 -2.7928533220e+00 +1.5872282957e+00 +5.3885969935e+00 6.2743497619e+00 1.0566000000e-01 0.0000e+00 -1.0000e+00
       13  1    1    0    0    0 -2.9075168585e+01 +9.2830770631e+00 +4.7243306114e+01 5.6244840516e+01 1.0566000000e-01 0.0000e+00 1.0000e+00
       22  1    1    0    0    0 +3.1868021907e+01 -1.0870305359e+01 -5.2631903107e+01 6.2480809722e+01 0.0000000000e+00 0.0000e+00 1.0000e+00
</event>
<event>
 5      1 +2.4041262e-06 9.11880000e+01 7.81860800e-03 1.13011600e-01
       25 -1    0    0    0    0 +0.0000000000e+00 +0.0000000000e+00 +9.9999998245e-15 1.2500000000e+02 1.2500000000e+02 0.0000e+00 0.0000e+00
       23  2    1    0    0    0 -2.4081141692e+01 +1.3193704574e+01 -1.0261269063e+01 9.5686711745e+01 9.1086101773e+01 0.0000e+00 0.0000e+00
      -11  1    2    2    0    0 -2.8202543221e+01 +1.6946185053e+01 -4.7638424184e+01 5.7896252823e+01 5.1100000000e-04 0.0000e+00 -1.0000e+00
       11  1    2    2    0    0 +4.1214015296e+00 -3.7524804793e+00 +3.7377155121e+01 3.7790458922e+01 5.1100000000e-04 0.0000e+00 1.0000e+00
       22  1    1    0    0    0 +2.4081141692e+01 -1.3193704574e+01 +1.0261269063e+01 2.9313288255e+01 0.0000000000e+00 0.0000e+00 -1.0000e+00
</event>
<event>
 4      1 +2.4041262e-06 9.11880000e+01 7.81860800e-03 1.13011600e-01
       25 -1    0    0    0    0 +0.0000000000e+00 +0.0000000000e+00 +9.9999998245e-15 1.2500000000e+02 1.2500000000e+02 0.0000e+00 0.0000e+00
      -13  1    1    0    0    0 +1.5914425678e+01 +3.0619029099e+01 +5.1894575725e+01 6.2320558738e+01 1.0566000000e-01 0.0000e+00 1.0000e+00
       13  1    1    0    0    0 -1.5959390297e+01 -3.0706817402e+01 -5.2044479570e+01 6.2499998331e+01 1.0566000000e-01 0.0000e+00 1.0000e+00
       22  1    1    0    0    0 +4.4964618654e-02 +8.7788303489e-02 +1.4990384421e-01 1.7944293151e-01 0.0000000000e+00 0.0000e+00 1.0000e+00
</event>
<event>
 4      1 +2.4041262e-06 9.11880000e+01 7.81860800e-03 1.13011600e-01
       25 -1    0    0    0    0 +0.0000000000e+00 +0.0000000000e+00 +9.9999998245e-15 1.2500000000e+02 1.2500000000e+02 0.0000e+00 0.0000e+00
      -13  1    1    0    0    0 -5.3528724972e+00 +2.3189840923e+01 -5.7786780116e+01 6.2495960560e+01 1.0566000000e-01 0.0000e+00 -1.0000e+00
       13  1    1    0    0    0 +5.3533503943e+00 -2.3191572129e+01 +5.7790404134e+01 6.2499994819e+01 1.0566000000e-01 0.0000e+00 -1.0000e+00
       22  1    1    0    0    0 -4.7789714649e-04 +1.7312057758e-03 -3.6240180780e-03 4.0446218798e-03 0.0000000000e+00 0.0000e+00 1.0000e+00
</event>
<event>
 4      1 +2.4041262e-06 9.11880000e+01 7.81860800e-03 1.13011600e-01
       25 -1    0    0    0    0 +0.0000000000e+00 +0.0000000000e+00 +9.9999998245e-15 1.2500000000e+02 1.2500000000e+02 0.0000e+00 0.0000e+00
      -11  1    1    0    0    0 -9.5060005793e+00 -1.4554733964e+00 -5.2237910036e+00 1.0943968317e+01 5.1100000000e-04 0.0000e+00 -1.0000e+00
       11  1    1    0    0    0 -4.4782438600e+01 -6.8542231609e+00 -2.4608478657e+01 5.1556031695e+01 5.1100000000e-04 0.0000e+00 -1.0000e+00
       22  1    1    0    0    0 +5.4288439179e+01 +8.3096965573e+00 +2.9832269661e+01 6.2499999988e+01 0.0000000000e+00 0.0000e+00 -1.0000e+00
</event>
<event>
 4      1 +2.4041262e-06 9.11880000e+01 7.81860800e-03 1.13011600e-01
       25 -1    0    0    0    0 +0.0000000000e+00 +0.0000000000e+00 +9.9999998245e-15 1.2500000000e+02 1.2500000000e+02 0.0000e+00 0.0000e+00
      -13  1    1    0    0    0 +3.5287972716e+01 -1.0058586847e+01 -2.6771444162e+01 4.5421774231e+01 1.0566000000e-01 0.0000e+00 -1.0000e+00
       13  1    1    0    0    0 -4.8509903359e+01 +1.3701809023e+01 +3.6949172976e+01 6.2499622735e+01 1.0566000000e-01 0.0000e+00 -1.0000e+00
       22  1    1    0    0    0 +1.3221930644e+01 -3.6432221756e+00 -1.0177728814e+01 1.7078603033e+01 0.0000000000e+00 0.0000e+00 1.0000e+00
</event>
<event>
 5      1 +2.4041262e-06 9.11880000e+01 7.81860800e-03 1.13011600e-01
       25 -1    0    0    0    0 +0.0000000000e+00 +0.0000000000e+00 +9.9999998245e-15 1.2500000000e+02 1.2500000000e+02 0.0000e+00 0.0000e+00
       23  2    1    0    0    0 -2.8453664632e+00 -2.2614937714e+01 -1.8628432236e+00 1.0213076951e+02 9.9537391862e+01 0.0000e+00 0.0000e+00
      -13  1    2    2    0    0 +3.5419730859e+00 -6.1104485248e+01 +8.4169571007e+00 6.1783169404e+01 1.0566000000e-01 0.0000e+00 -1.0000e+00
       13  1    2    2    0    0 -6.3873395491e+00 +3.8489547535e+01 -1.0279800324e+01 4.0347600110e+01 1.0566000000e-01 0.0000e+00 -1.0000e+00
       22  1    1    0    0    0 +2.8453664632e+00 +2.2614937714e+01 +1.8628432236e+00 2.2869230485e+01 0.0000000000e+00 0.0000e+00 -1.0000e+00
</event>
<event>
 5      1 +2.4041262e-06 9.11880000e+01 7.81860800e-03 1.13011600e-01
       25 -1    0    0    0    0 +0.0000000000e+00 +0.0000000000e+00 +9.9999998245e-15 1.2500000000e+02 1.2500000000e+02 0.0000e+00 0.0000e+00
       23  2    1    0    0    0 +1.1714679417e+01 +1.6611412469e+01 -2.3271720919e+01 9.4101039943e+01 8.8883406695e+01 0.0000e+00 0.0000e+00
      -13  1    2    2    0    0 +2.7518715398e+01 +4.7950530300e+01 -8.1503085033e+00 5.5883555237e+01 1.0566000000e-01 0.0000e+00 1.0000e+00
       13  1    2    2    0    0 -1.5804035981e+01 -3.1339117831e+01 -1.5121412416e+01 3.8217484706e+01 1.0566000000e-01 0.0000e+00 -1.0000e+00
       22  1    1    0    0    0 -1.1714679417e+01 -1.6611412469e+01 +2.3271720919e+01 3.0898960057e+01 0.0000000000e+00 0.0000e+00 -1.0000e+00
</event>
<event>
 5      1 +2.4041262e-06 9.11880000e+01 7.81860800e-03 1.13011600e-01
       25 -1    0    0    0    0 +0.0000000000e+00 +0.0000000000e+00 +9.9999998245e-15 1.2500000000e+02 1.2500000000e+02 0.0000e+00 0.0000e+00
       23  2    1    0    0    0 -6.6656138804e+00 -1.4602257384e+01 +2.5303371950e+01 9.5034737426e+01 9.0186941163e+01 0.0000e+00 0.0000e+00
      -13  1    2    2    0    0 +3.1208995154e+01 -8.5818077199e+00 +4.2152833969e+01 5.3146226375e+01 1.0566000000e-01 0.0000e+00 -1.0000e+00
       13  1    2    2    0    0 -3.7874609034e+01 -6.0204496639e+00 -1.6849462019e+01 4.1888511050e+01 1.0566000000e-01 0.0000e+00 1.0000e+00
       22  1    1    0    0    0 +6.6656138804e+00 +1.4602257384e+01 -2.5303371950e+01 2.9965262574e+01 0.0000000000e+00 0.0000e+00 -1.0000e+00
</event>
<event>
 4      1 +2.4041262e-06 9.11880000e+01 7.81860800e-03 1.13011600e-01
       25 -1    0    0    0    0 +0.0000000000e+00 +0.0000000000e+00 +9.9999998245e-15 1.2500000000e+02 1.2500000000e+02 0.0000e+00 0.0000e+00
      -13  1    1    0    0    0 +4.4842736259e+01 +1.8197218793e+01 -3.9550335890e+01 6.2500000000e+01 1.0566000000e-01 0.0000e+00 -1.0000e+00
       13  1    1    0    0    0 -4.4842736222e+01 -1.8197218776e+01 +3.9550335860e+01 6.2499999950e+01 1.0566000000e-01 0.0000e+00 -1.0000e+00
       22  1    1    0    0    0 -3.6549273361e-08 -1.6568832782e-08 +3.0035741699e-08 5.0125057430e-08 0.0000000000e+00 0.0000e+00 1.0000e+00
</event>
<event>
 4      1 +2.4041262e-06 9.11880000e+01 7.81860800e-03 1.13011600e-01
       25 -1    0    0    0    0 +0.0000000000e+00 +0.0000000000e+00 +9.9999998245e-15 1.2500000000e+02 1.2500000000e+02 0.0000e+00 0.0000e+00
      -13  1    1    0    0    0 +5.9618933335e+01 +1.7618132112e+01 +6.4360721968e+00 6.2499999844e+01 1.0566000000e-01 0.0000e+00 1.0000e+00
       13  1    1    0    0    0 -5.9618931276e+01 -1.7618131024e+01 -6.4360707715e+00 6.2499997426e+01 1.0566000000e-01 0.0000e+00 1.0000e+00
       22  1    1    0    0    0 -2.0585015983e-06 -1.0884244668e-06 -1.4252606570e-06 2.7301034030e-06 0.0000000000e+00 0.0000e+00 -1.0000e+00
</event>
<event>
 5      1 +2.4041262e-06 9.11880000e+01 7.81860800e-03 1.13011600e-01
       25 -1    0    0    0    0 +0.0000000000e+00 +0.0000000000e+00 +9.9999998245e-15 1.2500000000e+02 1.2500000000e+02 0.0000e+00 0.0000e+00
       23  2    1    0    0    0 -1.1100002911e+01 +2.3384567378e+01 +2.8542669384e+01 8.6467779305e+01 7.7407653538e+01 0.0000e+00 0.0000e+00
      -13  1    2    2    0    0 +2.4305833829e+01 -5.8271205165e+00 +3.1804712601e+01 4.0450955481e+01 1.0566000000e-01 0.0000e+00 -1.0000e+00
       13  1    2    2    0    0 -3.5405836740e+01 +2.9211687894e+01 -3.2620432161e+00 4.6016823825e+01 1.0566000000e-01 0.0000e+00 1.0000e+00
       22  1    1    0    0    0 +1.1100002911e+01 -2.3384567378e+01 -2.8542669384e+01 3.8532220695e+01 0.0000000000e+00 0.0000e+00 1.0000e+00
</event>
<event>
 4      1 +2.4041262e-06 9.11880000e+01 7.81860800e-03 1.13011600e-01
       25 -1    0    0    0    0 +0.0000000000e+00 +0.0000000000e+00 +9.9999998245e-15 1.2500000000e+02 1.2500000000e+02 0.0000e+00 0.0000e+00
      -13  1    1    0    0    0 +7.2765799948e-01 +1.1125257803e+01 +4.4524821926e+00 1.2005690694e+01 1.0566000000e-01 0.0000e+00 1.0000e+00
       13  1    1    0    0    0 +4.9085856183e+00 +4.5224289469e+01 +2.1952823570e+01 5.0510080157e+01 1.0566000000e-01 0.0000e+00 -1.0000e+00
       22  1    1    0    0    0 -5.6362436178e+00 -5.6349547272e+01 -2.6405305763e+01 6.2484229148e+01 0.0000000000e+00 0.0000e+00 -1.0000e+00
</event>
<event>
 4      1 +2.4041262e-06 9.11880000e+01 7.81860800e-03 1.13011600e-01
       25 -1    0    0    0    0 +0.0000000000e+00 +0.0000000000e+00 +9.9999998245e-15 1.2500000000e+02 1.2500000000e+02 0.0000e+00 0.0000e+00
      -13  1    1    0    0    0 -5.0835057548e+01 -2.5458324070e+01 -1.6922007991e+01 5.9318587802e+01 1.0566000000e-01 0.0000e+00 -1.0000e+00
       13  1    1    0    0    0 +5.3970502315e+01 +2.0781805155e+01 +1.5363543677e+01 5.9839353138e+01 1.0566000000e-01 0.0000e+00 -1.0000e+00
       22  1    1    0    0    0 -3.1354447670e+00 +4.6765189146e+00 +1.5584643147e+00 5.8420590604e+00 0.0000000000e+00 0.0000e+00 -1.0000e+00
</event>
<event>
 4      1 +2.4041262e-06 9.11880000e+01 7.81860800e-03 1.13011600e-01
       25 -1    0    0    0    0 +0.0000000000e+00 +0.0000000000e+00 +9.9999998245e-15 1.2500000000e+02 1.2500000000e+02 0.0000e+00 0.0000e+00
      -11  1    1    0    0    0 +1.1058326895e+00 +3.8711014929e+00 -3.7992567021e+00 5.5355798662e+00 5.1100000000e-04 0.0000e+00 1.0000e+00
       11  1    1    0    0    0 +1.1225548718e+01 +3.9821145678e+01 -3.9156222932e+01 5.6964430847e+01 5.1100000000e-04 0.0000e+00 -1.0000e+00
       22  1    1    0    0    0 -1.2331381408e+01 -4.3692247171e+01 +4.2955479634e+01 6.2499989287e+01 0.0000000000e+00 0.0000e+00 -1.0000e+00
</event>
<event>
 4      1 +2.4041262e-06 9.11880000e+01 7.81860800e-03 1.13011600e-01
       25 -1    0    0    0    0 +0.0000000000e+00 +0.0000000000e+00 +9.9999998245e-15 1.2500000000e+02 1.2500000000e+02 0.0000e+00 0.0000e+00
      -13  1    1    0    0    0 +3.0627387097e+01 -2.7411458740e+00 +1.0617593221e+01 3.2531448953e+01 1.0566000000e-01 0.0000e+00 -1.0000e+00
       13  1    1    0    0    0 +2.8463322748e+01 -9.4942726354e-01 +9.3679410863e+00 2.9980520980e+01 1.0566000000e-01 0.0000e+00 1.0000e+00
       22  1    1    0    0    0 -5.9090709846e+01 +3.6905731376e+00 -1.9985534308e+01 6.2488030067e+01 0.0000000000e+00 0.0000e+00 1.0000e+00
</event>
<event>
 4      1 +2.4041262e-06 9.11880000e+01 7.81860800e-03 1.13011600e-01
       25 -1    0    0    0    0 +0.0000000000e+00 +0.0000000000e+00 +9.9999998245e-15 1.2500000000e+02 1.2500000000e+02 0.0000e+00 0.0000e+00
      -13  1    1    0    0    0 -1.1863541647e+01 +3.8338947430e+01 -2.1223758770e+01 4.5399092621e+01 1.0566000000e-01 0.0000e+00 1.0000e+00
       13  1    1    0    0    0 +1.6286941521e+01 -5.2777087715e+01 +2.9249738896e+01 6.2499950730e+01 1.0566000000e-01 0.0000e+00 1.0000e+00
       22  1    1    0    0    0 -4.4233998749e+00 +1.4438140284e+01 -8.0259801255e+00 1.7100956649e+01 0.0000000000e+00 0.0000e+00 1.0000e+00
</event>
<event>
 4      1 +2.4041262e-06 9.11880000e+01 7.81860800e-03 1.13011600e-01
       25 -1    0    0    0    0 +0.0000000000e+00 +0.0000000000e+00 +9.9999998245e-15 1.2500000000e+02 1.2500000000e+02 0.0000e+00 0.0000e+00
      -13  1    1    0    0    0 +7.1630313726e+00 -1.2435850551e+01 -5.9525920453e+01 6.1231574920e+01 1.0566000000e-01 0.0000e+00 -1.0000e+00
       13  1    1    0    0    0 -7.3096856498e+00 +1.2700649230e+01 +6.0757710335e+01 6.2499988195e+01 1.0566000000e-01 0.0000e+00 -1.0000e+00
       22  1    1    0    0    0 +1.4665427720e-01 -2.6479867980e-01 -1.2317898823e+00 1.2684368853e+00 0.0000000000e+00 0.0000e+00 1.0000e+00
</event>
<event>
 4      1 +2.4041262e-06 9.11880000e+01 7.81860800e-03 1.13011600e-01
       25 -1    0    0    0    0 +0.0000000000e+00 +0.0000000000e+00 +9.9999998245e-15 1.2500000000e+02 1.2500000000e+02 0.0000e+00 0.0000e+00
      -13  1    1    0    0    0 +2.7979002618e+01 +3.2883634665e+01 -4.5189388324e+01 6.2499999979e+01 1.0566000000e-01 0.0000e+00 1.0000e+00
       13  1    1    0    0    0 -2.7979002614e+01 -3.2883634675e+01 +4.5189388344e+01 6.2499999998e+01 1.0566000000e-01 0.0000e+00 1.0000e+00
       22  1    1    0    0    0 -3.2627798619e-09 +1.0665061804e-08 -2.0497854863e-08 2.3335623619e-08 0.0000000000e+00 0.0000e+00 -1.0000e+00
</event>
<event>
 4      1 +2.4041262e-06 9.11880000e+01 7.81860800e-03 1.13011600e-01
       25 -1    0    0    0    0 +0.0000000000e+00 +0.0000000000e+00 +9.9999998245e-15 1.2500000000e+02 1.2500000000e+02 0.0000e+00 0.0000e+00
      -13  1    1    0    0    0 -6.0078859063e+00 +3.5936496612e+01 -3.5326506933e+01 5.0749381651e+01 1.0566000000e-01 0.0000e+00 1.0000e+00
       13  1    1    0    0    0 +8.2224919892e+00 -4.2325336465e+01 +4.5081631982e+01 6.2381152503e+01 1.0566000000e-01 0.0000e+00 1.0000e+00
       22  1    1    0    0    0 -2.2146060829e+00 +6.3888398529e+00 -9.7551250480e+00 1.1869465846e+01 0.0000000000e+00 0.0000e+00 -1.0000e+00
</event>
<event>
 4      1 +2.4041262e-06 9.11880000e+01 7.81860800e-03 1.13011600e-01
       25 -1    0    0    0    0 +0.0000000000e+00 +0.0000000000e+00 +9.9999998245e-15 1.2500000000e+02 1.2500000000e+02 0.0000e+00 0.0000e+00
      -13  1    1    0    0    0 +2.8892473764e+00 -2.6951416741e+01 +5.4953598785e+01 6.1275083013e+01 1.0566000000e-01 0.0000e+00 -1.0000e+00
       13  1    1    0    0    0 -9.4920506583e+00 +2.1976585490e+01 -4.2465266479e+01 4.8748121571e+01 1.0566000000e-01 0.0000e+00 -1.0000e+00
       22  1    1    0    0    0 +6.6028032819e+00 +4.9748312503e+00 -1.2488332306e+01 1.4976795416e+01 0.0000000000e+00 0.0000e+00 1.0000e+00
</event>
<event>
 4      1 +2.4041262e-06 9.11880000e+01 7.81860800e-03 1.13011600e-01
       25 -1    0    0    0    0 +0.0000000000e+00 +0.0000000000e+00 +9.9999998245e-15 1.2500000000e+02 1.2500000000e+02 0.0000e+00 0.0000e+00
      -13  1    1    0    0    0 +2.4208961105e+01 +3.4945384012e+01 -2.9132795659e+01 5.1536245580e+01 1.0566000000e-01 0.0000e+00 1.0000e+00
       13  1    1    0    0    0 +5.1387556646e+00 +7.4441905902e+00 -6.1949036369e+00 1.0964067604e+01 1.0566000000e-01 0.0000e+00 1.0000e+00
       22  1    1    0    0    0 -2.9347716769e+01 -4.2389574602e+01 +3.5327699296e+01 6.2499686816e+01 0.0000000000e+00 0.0000e+00 1.0000e+00
</event>
<event>
 4      1 +2.4041262e-06 9.11880000e+01 7.81860800e-03 1.13011600e-01
       25 -1    0    0    0    0 +0.0000000000e+00 +0.0000000000e+00 +9.9999998245e-15 1.2500000000e+02 1.2500000000e+02 0.0000e+00 0.0000e+00
      -13  1    1    0    0    0 -1.5636291751e+01 +6.0510694989e+01 -4.4832525172e-01 6.2499999898e+01 1.0566000000e-01 0.0000e+00 1.0000e+00
       13  1    1    0    0    0 +1.5636288748e+01 -6.0510687488e+01 +4.4832669060e-01 6.2499991895e+01 1.0566000000e-01 0.0000e+00 1.0000e+00
       22  1    1    0    0    0 +3.0027492654e-06 -7.5007962530e-06 -1.4388834898e-06 8.2066334923e-06 0.0000000000e+00 0.0000e+00 -1.0000e+00
</event>
<event>
 4      1 +2.4041262e-06 9.11880000e+01 7.81860800e-03 1.13011600e-01
       25 -1    0    0    0    0 +0.0000000000e+00 +0.0000000000e+00 +9.9999998245e-15 1.2500000000e+02 1.2500000000e+02 0.0000e+00 0.0000e+00
      -13  1    1    0    0    0 +5.7622531427e+01 +2.3729164084e+01 +4.7759271206e+00 6.2500000000e+01 1.0566000000e-01 0.0000e+00 -1.0000e+00
       13  1    1    0    0    0 -5.7622531409e+01 -2.3729164077e+01 -4.7759271195e+00 6.2499999981e+01 1.0566000000e-01 0.0000e+00 -1.0000e+00
       22  1    1    0    0    0 -1.7321894625e-08 -6.5923160980e-09 -1.1396348322e-09 1.8568937301e-08 0.0000000000e+00 0.0000e+00 -1.0000e+00
</event>
<event>
 4      1 +2.4041262e-06 9.11880000e+01 7.81860800e-03 1.13011600e-01
       25 -1    0    0    0    0 +0.0000000000e+00 +0.0000000000e+00 +9.9999998245e-15 1.2500000000e+02 1.2500000000e+02 0.0000e+00 0.0000e+00
      -13  1    1    0    0    0 -6.1083313686e+01 +9.0888399303e+00 -9.6154593158e+00 6.2499971552e+01 1.0566000000e-01 0.0000e+00 1.0000e+00
       13  1    1    0    0    0 +6.1083341426e+01 -9.0888439785e+00 +9.6154641616e+00 6.2499999998e+01 1.0566000000e-01 0.0000e+00 1.0000e+00
       22  1    1    0    0    0 -2.7740602873e-05 +4.0482197904e-06 -4.8458681697e-06 2.8450159394e-05 0.0000000000e+00 0.0000e+00 -1.0000e+00
</event>
<event>
 4      1 +2.4041262e-06 9.11880000e+01 7.81860800e-03 1.13011600e-01
       25 -1    0    0    0    0 +0.0000000000e+00 +0.0000000000e+00 +9.9999998245e-15 1.2500000000e+02 1.2500000000e+02 0.0000e+00 0.0000e+00
      -11  1    1    0    0    0 -1.0241345714e+01 -1.0598549006e+00 +9.8920162158e+00 1.4277970427e+01 5.1100000000e-04 0.0000e+00 1.0000e+00
       11  1    1    0    0    0 -3.4590289396e+01 -3.5746839051e+00 +3.3408047742e+01 4.8222029610e+01 5.1100000000e-04 0.0000e+00 -1.0000e+00
       22  1    1    0    0    0 +4.4831635110e+01 +4.6345388057e+00 -4.3300063958e+01 6.2499999963e+01 0.0000000000e+00 0.0000e+00 -1.0000e+00
</event>
<event>
 4      1 +2.4041262e-06 9.11880000e+01 7.81860800e-03 1.13011600e-01
       25 -1    0    0    0    0 +0.0000000000e+00 +0.0000000000e+00 +9.9999998245e-15 1.2500000000e+02 1.2500000000e+02 0.0000e+00 0.0000e+00
      -13  1    1    0    0    0 -1.0386136649e+01 +1.5350795346e+01 -5.9688525562e+01 6.2500000000e+01 1.0566000000e-01 0.0000e+00 -1.0000e+00
       13  1    1    0    0    0 +1.0386135780e+01 -1.5350794052e+01 +5.9688520544e+01 6.2499994746e+01 1.0566000000e-01 0.0000e+00 -1.0000e+00
       22  1    1    0    0    0 +8.6911771698e-07 -1.2932887977e-06 +5.0178898810e-06 5.2542535510e-06 0.0000000000e+00 0.0000e+00 1.0000e+00
</event>
<event>
 4      1 +2.4041262e-06 9.11880000e+01 7.81860800e-03 1.13011600e-01
       25 -1    0    0    0    0 +0.0000000000e+00 +0.0000000000e+00 +9.9999998245e-15 1.2500000000e+02 1.2500000000e+02 0.0000e+00 0.0000e+00
      -13  1    1    0    0    0 -2.7446004975e+01 -2.5266638968e+01 +5.0144334035e+01 6.2499213064e+01 1.0566000000e-01 0.0000e+00 -1.0000e+00
       13  1    1    0    0    0 +2.7446351219e+01 +2.5266954874e+01 -5.0144966166e+01 6.2499999998e+01 1.0566000000e-01 0.0000e+00 -1.0000e+00
       22  1    1    0    0    0 -3.4624394052e-04 -3.1590647101e-04 +6.3213129614e-04 7.8693820617e-04 0.0000000000e+00 0.0000e+00 1.0000e+00
</event>
<event>
 4      1 +2.4041262e-06 9.11880000e+01 7.81860800e-03 1.13011600e-01
       25 -1    0    0    0    0 +0.0000000000e+00 +0.0000000000e+00 +9.9999998245e-15 1.2500000000e+02 1.2500000000e+02 0.0000e+00 0.0000e+00
      -13  1    1    0    0    0 -7.4200599944e+00 +6.9506308660e+00 +6.1667416649e+01 6.2500000000e+01 1.0566000000e-01 0.0000e+00 -1.0000e+00
       13  1    1    0    0    0 +7.4200599944e+00 -6.9506308662e+00 -6.1667416649e+01 6.2500000000e+01 1.0566000000e-01 0.0000e+00 -1.0000e+00
       22  1    1    0    0    0 -6.6353917287e-11 +2.0493001895e-10 +3.8951200125e-10 4.4510532924e-10 0.0000000000e+00 0.0000e+00 -1.0000e+00
</event>
<event>
 4      1 +2.4041262e-06 9.11880000e+01 7.81860800e-03 1.13011600e-01
       25 -1    0    0    0    0 +0.0000000000e+00 +0.0000000000e+00 +9.9999998245e-15 1.2500000000e+02 1.2500000000e+02 0.0000e+00 0.0000e+00
      -11  1    1    0    0    0 -6.5491753180e+00 +2.6818319302e+01 -5.1219178193e+00 2.8077535326e+01 5.1100000000e-04 0.0000e+00 1.0000e+00
       11  1    1    0    0    0 -8.8354284798e+00 +3.3211131483e+01 -2.6457758885e+00 3.4468016785e+01 5.1100000000e-04 0.0000e+00 -1.0000e+00
       22  1    1    0    0    0 +1.5384603798e+01 -6.0029450785e+01 +7.7676937077e+00 6.2454447889e+01 0.0000000000e+00 0.0000e+00 -1.0000e+00
</event>
<event>
 4      1 +2.4041262e-06 9.11880000e+01 7.81860800e-03 1.13011600e-01
       25 -1    0    0    0    0 +0.0000000000e+00 +0.0000000000e+00 +9.9999998245e-15 1.2500000000e+02 1.2500000000e+02 0.0000e+00 0.0000e+00
      -13  1    1    0    0    0 -6.3215372711e+00 +2.2930348267e+00 +5.0414765735e+00 8.4052062594e+00 1.0566000000e-01 0.0000e+00 -1.0000e+00
       13  1    1    0    0    0 +2.0337051796e+01 -4.7066503236e+01 -3.3944426608e+01 6.1490541260e+01 1.0566000000e-01 0.0000e+00 1.0000e+00
       22  1    1    0    0    0 -1.4015514524e+01 +4.4773468410e+01 +2.8902950034e+01 5.5104252481e+01 0.0000000000e+00 0.0000e+00 1.0000e+00
</event>
<event>
 5      1 +2.4041262e-06 9.11880000e+01 7.81860800e-03 1.13011600e-01
       25 -1    0    0    0    0 +0.0000000000e+00 +0.0000000000e+00 +9.9999998245e-15 1.2500000000e+02 1.2500000000e+02 0.0000e+00 0.0000e+00
       23  2    1    0    0    0 +6.3198615419e+00 +9.6858971930e+00 +2.6387723670e+01 9.6189078202e+01 9.1772923842e+01 0.0000e+00 0.0000e+00
      -11  1    2    2    0    0 -1.2192569223e+01 -2.7911819968e+01 +4.1640679676e+01 5.1591420240e+01 5.1100000000e-04 0.0000e+00 -1.0000e+00
       11  1    2    2    0    0 +1.8512430765e+01 +3.7597717161e+01 -1.5252956006e+01 4.4597657962e+01 5.1100000000e-04 0.0000e+00 1.0000e+00
       22  1    1    0    0    0 -6.3198615419e+00 -9.6858971930e+00 -2.6387723670e+01 2.8810921798e+01 0.0000000000e+00 0.0000e+00 -1.0000e+00
</event>
<event>
 4      1 +2.4041262e-06 9.11880000e+01 7.81860800e-03 1.13011600e-01
       25 -1    0    0    0    0 +0.0000000000e+00 +0.0000000000e+00 +9.9999998245e-15 1.2500000000e+02 1.2500000000e+02 0.0000e+00 0.0000e+00
      -13  1    1    0    0    0 -5.0426467011e+01 -2.0331315567e+01 -3.0822826770e+01 6.2499990256e+01 1.0566000000e-01 0.0000e+00 1.0000e+00
       13  1    1    0    0    0 +5.0424457901e+01 +2.0330233259e+01 +3.0821303252e+01 6.2497265837e+01 1.0566000000e-01 0.0000e+00 1.0000e+00
       22  1    1    0    0    0 +2.0091098981e-03 +1.0823085401e-03 +1.5235180302e-03 2.7439062569e-03 0.0000000000e+00 0.0000e+00 1.0000e+00
</event>
<event>
 4      1 +2.4041262e-06 9.11880000e+01 7.81860800e-03 1.13011600e-01
       25 -1    0    0    0    0 +0.0000000000e+00 +0.0000000000e+00 +9.9999998245e-15 1.2500000000e+02 1.2500000000e+02 0.0000e+00 0.0000e+00
      -13  1    1    0    0    0 -1.4719152514e+01 +2.4839733642e-01 -6.0741425122e+01 6.2499976335e+01 1.0566000000e-01 0.0000e+00 -1.0000e+00
       13  1    1    0    0    0 +1.4719095720e+01 -2.4831560007e-01 +6.0741371675e+01 6.2499910691e+01 1.0566000000e-01 0.0000e+00 -1.0000e+00
       22  1    1    0    0    0 +5.6793948019e-05 -8.1736343916e-05 +5.3447823298e-05 1.1297367952e-04 0.0000000000e+00 0.0000e+00 -1.0000e+00
</event>
<event>
 4      1 +2.4041262e-06 9.11880000e+01 7.81860800e-03 1.13011600e-01
       25 -1    0    0    0    0 +0.0000000000e+00 +0.0000000000e+00 +9.9999998245e-15 1.2500000000e+02 1.2500000000e+02 0.0000e+00 0.0000e+00
      -13  1    1    0    0    0 +3.0114139409e+00 -5.6478431596e+01 +2.6596183652e+01 6.2499999987e+01 1.0566000000e-01 0.0000e+00 1.0000e+00
       13  1    1    0    0    0 -3.0114061294e+00 +5.6478302444e+01 -2.6596119973e+01 6.2499855804e+01 1.0566000000e-01 0.0000e+00 1.0000e+00
       22  1    1    0    0    0 -7.8115393098e-06 +1.2915208874e-04 -6.3678666405e-05 1.4420906604e-04 0.0000000000e+00 0.0000e+00 -1.0000e+00
</event>
<event>
 4      1 +2.4041262e-06 9.11880000e+01 7.81860800e-03 1.13011600e-01
       25 -1    0    0    0    0 +0.0000000000e+00 +0.0000000000e+00 +9.9999998245e-15 1.2500000000e+02 1.2500000000e+02 0.0000e+00 0.0000e+00
      -11  1    1    0    0    0 -6.7974810994e+00 +2.2840837837e+01 -4.5831727294e+00 2.4267572910e+01 5.1100000000e-04 0.0000e+00 1.0000e+00
       11  1    1    0    0    0 -1.4376363614e+01 +3.5640773798e+01 +1.8819567184e+00 3.8477088625e+01 5.1100000000e-04 0.0000e+00 -1.0000e+00
       22  1    1    0    0    0 +2.1173844713e+01 -5.8481611636e+01 +2.7012160110e+00 6.2255338465e+01 0.0000000000e+00 0.0000e+00 -1.0000e+00
</event>
<event>
 4      1 +2.4041262e-06 9.11880000e+01 7.81860800e-03 1.13011600e-01
       25 -1    0    0    0    0 +0.0000000000e+00 +0.0000000000e+00 +9.9999998245e-15 1.2500000000e+02 1.2500000000e+02 0.0000e+00 0.0000e+00
      -13  1    1    0    0    0 -5.0424759413e+01 +1.7669018479e+01 -3.2425117655e+01 6.2499999958e+01 1.0566000000e-01 0.0000e+00 1.0000e+00
       13  1    1    0    0    0 +5.0424398982e+01 -1.7668883595e+01 +3.2424880577e+01 6.2499548035e+01 1.0566000000e-01 0.0000e+00 1.0000e+00
       22  1    1    0    0    0 +3.6043086002e-04 -1.3488431076e-04 +2.3707714640e-04 4.5200636665e-04 0.0000000000e+00 0.0000e+00 -1.0000e+00
</event>
<event>
 4      1 +2.4041262e-06 9.11880000e+01 7.81860800e-03 1.13011600e-01
       25 -1    0    0    0    0 +0.0000000000e+00 +0.0000000000e+00 +9.9999998245e-15 1.2500000000e+02 1.2500000000e+02 0.0000e+00 0.0000e+00
      -13  1    1    0    0    0 +1.8958478379e+01 +4.5940076811e+01 +3.4812307293e+01 6.0678022899e+01 1.0566000000e-01 0.0000e+00 1.0000e+00
       13  1    1    0    0    0 -1.9578789581e+01 -4.7316205010e+01 -3.5833407374e+01 6.2499572047e+01 1.0566000000e-01 0.0000e+00 1.0000e+00
       22  1    1    0    0    0 +6.2031120150e-01 +1.3761281990e+00 +1.0211000809e+00 1.8224050543e+00 0.0000000000e+00 0.0000e+00 1.0000e+00
</event>
<event>
 4      1 +2.4041262e-06 9.11880000e+01 7.81860800e-03 1.13011600e-01
       25 -1    0    0    0    0 +0.0000000000e+00 +0.0000000000e+00 +9.9999998245e-15 1.2500000000e+02 1.2500000000e+02 0.0000e+00 0.0000e+00
      -11  1    1    0    0    0 +4.1179307739e+00 -8.2398650899e+00 -6.8152555298e+00 1.1458640354e+01 5.1100000000e-04 0.0000e+00 -1.0000e+00
       11  1    1    0    0    0 -4.0116872002e+01 -2.8566127159e+01 -2.2666108020e+01 5.4213831198e+01 5.1100000000e-04 0.0000e+00 1.0000e+00
       22  1    1    0    0    0 +3.5998941228e+01 +3.6805992249e+01 +2.9481363550e+01 5.9327528448e+01 0.0000000000e+00 0.0000e+00 1.0000e+00
</event>
<event>
 4      1 +2.4041262e-06 9.11880000e+01 7.81860800e-03 1.13011600e-01
       25 -1    0    0    0    0 +0.0000000000e+00 +0.0000000000e+00 +9.9999998245e-15 1.2500000000e+02 1.2500000000e+02 0.0000e+00 0.0000e+00
      -13  1    1    0    0    0 +3.0153159853e+00 +6.2353722466e+01 -2.7930011974e+00 6.2489125898e+01 1.0566000000e-01 0.0000e+00 1.0000e+00
       13  1    1    0    0    0 -3.0159377681e+00 -6.2364584655e+01 +2.7929915944e+00 6.2499994127e+01 1.0566000000e-01 0.0000e+00 1.0000e+00
       22  1    1    0    0    0 +6.2178275031e-04 +1.0862188907e-02 +9.6029965886e-06 1.0879974901e-02 0.0000000000e+00 0.0000e+00 -1.0000e+00
</event>
<event>
 4      1 +2.4041262e-06 9.11880000e+01 7.81860800e-03 1.13011600e-01
       25 -1    0    0    0    0 +0.0000000000e+00 +0.0000000000e+00 +9.9999998245e-15 1.2500000000e+02 1.2500000000e+02 0.0000e+00 0.0000e+00
      -13  1    1    0    0    0 +3.3293747159e+01 +4.4614892211e+01 +2.8412482921e+01 6.2499940453e+01 1.0566000000e-01 0.0000e+00 -1.0000e+00
       13  1    1    0    0    0 -2.9359366306e+01 -3.9348466004e+01 -2.5015512313e+01 5.5100464490e+01 1.0566000000e-01 0.0000e+00 -1.0000e+00
       22  1    1    0    0    0 -3.9343808535e+00 -5.2664262074e+00 -3.3969706075e+00 7.3995950569e+00 0.0000000000e+00 0.0000e+00 -1.0000e+00
</event>
<event>
 4      1 +2.4041262e-06 9.11880000e+01 7.81860800e-03 1.13011600e-01
       25 -1    0    0    0    0 +0.0000000000e+00 +0.0000000000e+00 +9.9999998245e-15 1.2500000000e+02 1.2500000000e+02 0.0000e+00 0.0000e+00
      -11  1    1    0    0    0 -3.5534108544e+00 +5.2440133931e-02 +8.9398708525e-01 3.6645179543e+00 5.1100000000e-04 0.0000e+00 -1.0000e+00
       11  1    1    0    0    0 -5.6750539475e+01 +8.4190910035e-01 +1.5502347157e+01 5.8835833547e+01 5.1100000000e-04 0.0000e+00 1.0000e+00
       22  1    1    0    0    0 +6.0303950329e+01 -8.9434923428e-01 -1.6396334242e+01 6.2499648498e+01 0.0000000000e+00 0.0000e+00 1.0000e+00
</event>
<event>
 4      1 +2.4041262e-06 9.11880000e+01 7.81860800e-03 1.13011600e-01
       25 -1    0    0    0    0 +0.0000000000e+00 +0.0000000000e+00 +9.9999998245e-15 1.2500000000e+02 1.2500000000e+02 0.0000e+00 0.0000e+00
      -13  1    1    0    0    0 +5.0819986553e+01 -2.1575383436e+01 +2.9292842675e+01 6.2499999998e+01 1.0566000000e-01 0.0000e+00 1.0000e+00
       13  1    1    0    0    0 -5.0819986018e+01 +2.1575383292e+01 -2.9292842397e+01 6.2499999382e+01 1.0566000000e-01 0.0000e+00 1.0000e+00
       22  1    1    0    0    0 -5.3524304145e-07 +1.4447404507e-07 -2.7829355338e-07 6.2032665989e-07 0.0000000000e+00 0.0000e+00 -1.0000e+00
</event>
<event>
 4      1 +2.4041262e-06 9.11880000e+01 7.81860800e-03 1.13011600e-01
       25 -1    0    0    0    0 +0.0000000000e+00 +0.0000000000e+00 +9.9999998245e-15 1.2500000000e+02 1.2500000000e+02 0.0000e+00 0.0000e+00
      -13  1    1    0    0    0 +4.8275744595e+01 +1.4845195146e+00 +3.7738855776e+01 6.1294238830e+01 1.0566000000e-01 0.0000e+00 -1.0000e+00
       13  1    1    0    0    0 -3.8458814231e+01 -6.0726392330e+00 -3.5394649088e+01 5.2618909979e+01 1.0566000000e-01 0.0000e+00 -1.0000e+00
       22  1    1    0    0    0 -9.8169303645e+00 +4.5881197184e+00 -2.3442066875e+00 1.1086851191e+01 0.0000000000e+00 0.0000e+00 -1.0000e+00
</event>
<event>
 4      1 +2.4041262e-06 9.11880000e+01 7.81860800e-03 1.13011600e-01
       25 -1    0    0    0    0 +0.0000000000e+00 +0.0000000000e+00 +9.9999998245e-15 1.2500000000e+02 1.2500000000e+02 0.0000e+00 0.0000e+00
      -13  1    1    0    0    0 -1.4732960612e+01 +4.6928817086e+01 +3.8559879185e+01 6.2499995587e+01 1.0566000000e-01 0.0000e+00 1.0000e+00
       13  1    1    0    0    0 +1.4732961776e+01 -4.6928820375e+01 -3.8559881890e+01 6.2499999999e+01 1.0566000000e-01 0.0000e+00 1.0000e+00
       22  1    1    0    0    0 -1.1638687744e-06 +3.2885165099e-06 +2.7050844177e-06 4.4143417479e-06 0.0000000000e+00 0.0000e+00 -1.0000e+00
</event>
<event>
 4      1 +2.4041262e-06 9.11880000e+01 7.81860800e-03 1.13011600e-01
       25 -1    0    0    0    0 +0.0000000000e+00 +0.0000000000e+00 +9.9999998245e-15 1.2500000000e+02 1.2500000000e+02 0.0000e+00 0.0000e+00
      -13  1    1    0    0    0 +2.7857955532e+00 +6.2155999575e+01 -5.9253604067e+00 6.2500000000e+01 1.0566000000e-01 0.0000e+00 1.0000e+00
       13  1    1    0    0    0 -2.7857954891e+00 -6.2155998192e+01 +5.9253602669e+00 6.2499998609e+01 1.0566000000e-01 0.0000e+00 1.0000e+00
       22  1    1    0    0    0 -6.4068501330e-08 -1.3824803705e-06 +1.3984738471e-07 1.3910118758e-06 0.0000000000e+00 0.0000e+00 -1.0000e+00
</event>
<event>
 5      1 +2.4041262e-06 9.11880000e+01 7.81860800e-03 1.13011600e-01
       25 -1    0    0    0    0 +0.0000000000e+00 +0.0000000000e+00 +9.9999998245e-15 1.2500000000e+02 1.2500000000e+02 0.0000e+00 0.0000e+00
       23  2    1    0    0    0 +5.4862320156e+00 +2.5930475576e+01 +6.3080571114e+00 9.7755186001e+01 9.3881821990e+01 0.0000e+00 0.0000e+00
      -13  1    2    2    0    0 +4.3637583055e+01 +3.5330632988e+01 +1.3650173199e+01 5.7782615678e+01 1.0566000000e-01 0.0000e+00 1.0000e+00
       13  1    2    2    0    0 -3.8151351040e+01 -9.4001574115e+00 -7.3421160876e+00 3.9972570322e+01 1.0566000000e-01 0.0000e+00 -1.0000e+00
       22  1    1    0    0    0 -5.4862320156e+00 -2.5930475576e+01 -6.3080571114e+00 2.7244813999e+01 0.0000000000e+00 0.0000e+00 1.0000e+00
</event>
<event>
 4      1 +2.4041262e-06 9.11880000e+01 7.81860800e-03 1.13011600e-01
       25 -1    0    0    0    0 +0.0000000000e+00 +0.0000000000e+00 +9.9999998245e-15 1.2500000000e+02 1.2500000000e+02 0.0000e+00 0.0000e+00
      -13  1    1    0    0    0 -3.3795601735e+01 -1.5576007803e+01 -3.2397436388e+01 4.9339231492e+01 1.0566000000e-01 0.0000e+00 1.0000e+00
       13  1    1    0    0    0 -9.8843121745e+00 +2.7972926734e+00 -9.3585985843e+00 1.3896726412e+01 1.0566000000e-01 0.0000e+00 -1.0000e+00
       22  1    1    0    0    0 +4.3679913909e+01 +1.2778715130e+01 +4.1756034972e+01 6.1764042096e+01 0.0000000000e+00 0.0000e+00 1.0000e+00
</event>
<event>
 5      1 +2.4041262e-06 9.11880000e+01 7.81860800e-03 1.13011600e-01
       25 -1    0    0    0    0 +0.0000000000e+00 +0.0000000000e+00 +9.9999998245e-15 1.2500000000e+02 1.2500000000e+02 0.0000e+00 0.0000e+00
       23  2    1    0    0    0 +7.3557088062e+00 -4.0980261135e+00 +2.6561451776e+01 9.7135847572e+01 9.3053543151e+01 0.0000e+00 0.0000e+00
      -11  1    2    2    0    0 -2.0041404479e+00 -3.8180988945e+01 -1.6315206217e+01 4.1569104512e+01 5.1100000000e-04 0.0000e+00 -1.0000e+00
       11  1    2    2    0    0 +9.3598492542e+00 +3.4082962831e+01 +4.2876657993e+01 5.5566743060e+01 5.1100000000e-04 0.0000e+00 1.0000e+00
       22  1    1    0    0    0 -7.3557088062e+00 +4.0980261135e+00 -2.6561451776e+01 2.7864152428e+01 0.0000000000e+00 0.0000e+00 1.0000e+00
</event>
<event>
 5      1 +2.4041262e-06 9.11880000e+01 7.81860800e-03 1.13011600e-01
       25 -1    0    0    0    0 +0.0000000000e+00 +0.0000000000e+00 +9.9999998245e-15 1.2500000000e+02 1.2500000000e+02 0.0000e+00 0.0000e+00
       23  2    1    0    0    0 -1.0220264489e+01 +2.2040059648e+00 -3.0399654565e+01 9.2852675910e+01 8.7110096874e+01 0.0000e+00 0.0000e+00
      -13  1    2    2    0    0 -1.4381112261e+01 -1.5893649646e+01 +2.5871120218e+01 3.3596882509e+01 1.0566000000e-01 0.0000e+00 -1.0000e+00
       13  1    2    2    0    0 +4.1608477728e+00 +1.8097655611e+01 -5.6270774783e+01 5.9255793401e+01 1.0566000000e-01 0.0000e+00 1.0000e+00
       22  1    1    0    0    0 +1.0220264489e+01 -2.2040059648e+00 +3.0399654565e+01 3.2147324090e+01 0.0000000000e+00 0.0000e+00 1.0000e+00
</event>
<event>
 5      1 +2.4041262e-06 9.11880000e+01 7.81860800e-03 1.13011600e-01
       25 -1    0    0    0    0 +0.0000000000e+00 +0.0000000000e+00 +9.9999998245e-15 1.2500000000e+02 1.2500000000e+02 0.0000e+00 0.0000e+00
       23  2    1    0    0    0 +1.6197407110e+01 +6.5744058210e+00 -2.3587160873e+01 9.5641305087e+01 9.1023767619e+01 0.0000e+00 0.0000e+00
      -13  1    2    2    0    0 -6.1784421582e+00 -2.3364889390e+01 -4.6069161767e+01 5.2023744902e+01 1.0566000000e-01 0.0000e+00 1.0000e+00
       13  1    2    2    0    0 +2.2375849268e+01 +2.9939295211e+01 +2.2482000894e+01 4.3617560185e+01 1.0566000000e-01 0.0000e+00 -1.0000e+00
       22  1    1    0    0    0 -1.6197407110e+01 -6.5744058210e+00 +2.3587160873e+01 2.9358694913e+01 0.0000000000e+00 0.0000e+00 -1.0000e+00
</event>
<event>
 4      1 +2.4041262e-06 9.11880000e+01 7.81860800e-03 1.13011600e-01
       25 -1    0    0    0    0 +0.0000000000e+00 +0.0000000000e+00 +9.9999998245e-15 1.2500000000e+02 1.2500000000e+02 0.0000e+00 0.0000e+00
      -11  1    1    0    0    0 +9.9804290720e+00 -1.6082886207e+01 -2.8920331622e+01 3.4563763895e+01 5.1100000000e-04 0.0000e+00 1.0000e+00
       11  1    1    0    0    0 +8.0676002718e+00 -1.3001917874e+01 -2.3373002561e+01 2.7936236173e+01 5.1100000000e-04 0.0000e+00 -1.0000e+00
       22  1    1    0    0    0 -1.8048029344e+01 +2.9084804081e+01 +5.2293334182e+01 6.2499999932e+01 0.0000000000e+00 0.0000e+00 -1.0000e+00
</event>
<event>
 4      1 +2.4041262e-06 9.11880000e+01 7.81860800e-03 1.13011600e-01
       25 -1    0    0    0    0 +0.0000000000e+00 +0.0000000000e+00 +9.9999998245e-15 1.2500000000e+02 1.2500000000e+02 0.0000e+00 0.0000e+00
      -13  1    1    0    0    0 -4.6709229561e+01 -2.5548222349e+01 -1.5646636083e+01 5.5491370285e+01 1.0566000000e-01 0.0000e+00 1.0000e+00
       13  1    1    0    0    0 -5.6793548776e+00 -4.2740151891e+00 -4.2352661470e-01 7.1212931755e+00 1.0566000000e-01 0.0000e+00 -1.0000e+00
       22  1    1    0    0    0 +5.2388584439e+01 +2.9822237539e+01 +1.6070162698e+01 6.2387336539e+01 0.0000000000e+00 0.0000e+00 1.0000e+00
</event>
<event>
 4      1 +2.4041262e-06 9.11880000e+01 7.81860800e-03 1.13011600e-01
       25 -1    0    0    0    0 +0.0000000000e+00 +0.0000000000e+00 +9.9999998245e-15 1.2500000000e+02 1.2500000000e+02 0.0000e+00 0.0000e+00
      -13  1    1    0    0    0 +1.3231820041e+01 -2.2725642471e+01 -5.6698350493e+01 6.2500000000e+01 1.0566000000e-01 0.0000e+00 1.0000e+00
       13  1    1    0    0    0 -1.3231820010e+01 +2.2725642417e+01 +5.6698350360e+01 6.2499999853e+01 1.0566000000e-01 0.0000e+00 1.0000e+00
       22  1    1    0    0    0 -3.1489666011e-08 +5.4322795749e-08 +1.3319626522e-07 1.4725423686e-07 0.0000000000e+00 0.0000e+00 -1.0000e+00
</event>
<event>
 4      1 +2.4041262e-06 9.11880000e+01 7.81860800e-03 1.13011600e-01
       25 -1    0    0    0    0 +0.0000000000e+00 +0.0000000000e+00 +9.9999998245e-15 1.2500000000e+02 1.2500000000e+02 0.0000e+00 0.0000e+00
      -13  1    1    0    0    0 +3.8181378264e+00 +2.6719785134e+01 +5.6371213767e+01 6.2499999997e+01 1.0566000000e-01 0.0000e+00 -1.0000e+00
       13  1    1    0    0    0 -3.8181377658e+00 -2.6719784955e+01 -5.6371213493e+01 6.2499999670e+01 1.0566000000e-01 0.0000e+00 -1.0000e+00
       22  1    1    0    0    0 -6.0536351735e-08 -1.7833020695e-07 -2.7445244295e-07 3.3285200320e-07 0.0000000000e+00 0.0000e+00 -1.0000e+00
</event>
<event>
 4      1 +2.4041262e-06 9.11880000e+01 7.81860800e-03 1.13011600e-01
       25 -1    0    0    0    0 +0.0000000000e+00 +0.0000000000e+00 +9.9999998245e-15 1.2500000000e+02 1.2500000000e+02 0.0000e+00 0.0000e+00
      -13  1    1    0    0    0 -3.1820906593e+01 +8.3717894661e+00 -5.3137386844e+01 6.2499999999e+01 1.0566000000e-01 0.0000e+00 -1.0000e+00
       13  1    1    0    0    0 +3.1820906594e+01 -8.3717894658e+00 +5.3137386844e+01 6.2500000000e+01 1.0566000000e-01 0.0000e+00 -1.0000e+00
       22  1    1    0    0    0 -8.5962181480e-10 -2.5900998798e-10 -8.1751703664e-10 1.2142363623e-09 0.0000000000e+00 0.0000e+00 -1.0000e+00
</event>
<event>
 4      1 +2.4041262e-06 9.11880000e+01 7.81860800e-03 1.13011600e-01
       25 -1    0    0    0    0 +0.0000000000e+00 +0.0000000000e+00 +9.9999998245e-15 1.2500000000e+02 1.2500000000e+02 0.0000e+00 0.0000e+00
      -13  1    1    0    0    0 -4.3361247638e+01 +4.2705711879e+01 -1.4087746257e+01 6.2469603668e+01 1.0566000000e-01 0.0000e+00 1.0000e+00
       13  1    1    0    0    0 +4.3381953974e+01 -4.2727137868e+01 +1.4093805542e+01 6.2499990078e+01 1.0566000000e-01 0.0000e+00 1.0000e+00
       22  1    1    0    0    0 -2.0706336505e-02 +2.1425988971e-02 -6.0592853486e-03 3.0406254518e-02 0.0000000000e+00 0.0000e+00 1.0000e+00
</event>
<event>
 4      1 +2.4041262e-06 9.11880000e+01 7.81860800e-03 1.13011600e-01
       25 -1    0    0    0    0 +0.0000000000e+00 +0.0000000000e+00 +9.9999998245e-15 1.2500000000e+02 1.2500000000e+02 0.0000e+00 0.0000e+00
      -13  1    1    0    0    0 +2.6280468633e+01 +1.2693204357e+00 -5.6691839067e+01 6.2499999894e+01 1.0566000000e-01 0.0000e+00 -1.0000e+00
       13  1    1    0    0    0 -2.6277466742e+01 -1.2691245645e+00 +5.6685398509e+01 6.2492891626e+01 1.0566000000e-01 0.0000e+00 -1.0000e+00
       22  1    1    0    0    0 -3.0018901970e-03 -1.9587116782e-04 +6.4405577865e-03 7.1084804896e-03 0.0000000000e+00 0.0000e+00 1.0000e+00
</event>
<event>
 4      1 +2.4041262e-06 9.11880000e+01 7.81860800e-03 1.13011600e-01
       25 -1    0    0    0    0 +0.0000000000e+00 +0.0000000000e+00 +9.9999998245e-15 1.2500000000e+02 1.2500000000e+02 0.0000e+00 0.0000e+00
      -11  1    1    0    0    0 -4.2079261518e-02 -2.1032099280e+00 -2.2904769547e+01 2.3001168034e+01 5.1100000000e-04 0.0000e+00 -1.0000e+00
       11  1    1    0    0    0 -7.2661881530e-02 -3.6115729407e+00 -3.9333306344e+01 3.9498831971e+01 5.1100000000e-04 0.0000e+00 -1.0000e+00
       22  1    1    0    0    0 +1.1474114305e-01 +5.7147828688e+00 +6.2238075891e+01 6.2499999995e+01 0.0000000000e+00 0.0000e+00 -1.0000e+00
</event>
<event>
 4      1 +2.4041262e-06 9.11880000e+01 7.81860800e-03 1.13011600e-01
       25 -1    0    0    0    0 +0.0000000000e+00 +0.0000000000e+00 +9.9999998245e-15 1.2500000000e+02 1.2500000000e+02 0.0000e+00 0.0000e+00
      -13  1    1    0    0    0 +5.0769410016e+01 +2.8369711537e+01 -2.2888104112e+01 6.2499999999e+01 1.0566000000e-01 0.0000e+00 1.0000e+00
       13  1    1    0    0    0 -5.0769409649e+01 -2.8369711292e+01 +2.2888103964e+01 6.2499999536e+01 1.0566000000e-01 0.0000e+00 1.0000e+00
       22  1    1    0    0    0 -3.6652086164e-07 -2.4450912887e-07 +1.4824124528e-07 4.6486312278e-07 0.0000000000e+00 0.0000e+00 -1.0000e+00
</event>
<event>
 4      1 +2.4041262e-06 9.11880000e+01 7.81860800e-03 1.13011600e-01
       25 -1    0    0    0    0 +0.0000000000e+00 +0.0000000000e+00 +9.9999998245e-15 1.2500000000e+02 1.2500000000e+02 0.0000e+00 0.0000e+00
      -13  1    1    0    0    0 -8.3072337400e+00 -5.3177697476e+01 -3.1770445220e+01 6.2499999958e+01 1.0566000000e-01 0.0000e+00 -1.0000e+00
       13  1    1    0    0    0 +8.3072337410e+00 +5.3177697500e+01 +3.1770445257e+01 6.2499999997e+01 1.0566000000e-01 0.0000e+00 -1.0000e+00
       22  1    1    0    0    0 -1.0418949672e-09 -2.3768062450e-08 -3.7647666838e-08 4.4534853274e-08 0.0000000000e+00 0.0000e+00 -1.0000e+00
</event>
<event>
 4      1 +2.4041262e-06 9.11880000e+01 7.81860800e-03 1.13011600e-01
       25 -1    0    0    0    0 +0.0000000000e+00 +0.0000000000e+00 +9.9999998245e-15 1.2500000000e+02 1.2500000000e+02 0.0000e+00 0.0000e+00
      -13  1    1    0    0    0 -9.8832591132e+00 +2.9679110017e+01 +5.3059869359e+01 6.1594555624e+01 1.0566000000e-01 0.0000e+00 1.0000e+00
       13  1    1    0    0    0 +9.9758122079e+00 -3.0110443934e+01 -5.3851491107e+01 6.2499199368e+01 1.0566000000e-01 0.0000e+00 1.0000e+00
       22  1    1    0    0    0 -9.2553094722e-02 +4.3133391714e-01 +7.9162174798e-01 9.0624500842e-01 0.0000000000e+00 0.0000e+00 -1.0000e+00
</event>
<event>
 4      1 +2.4041262e-06 9.11880000e+01 7.81860800e-03 1.13011600e-01
       25 -1    0    0    0    0 +0.0000000000e+00 +0.0000000000e+00 +9.9999998245e-15 1.2500000000e+02 1.2500000000e+02 0.0000e+00 0.0000e+00
      -13  1    1    0    0    0 -1.3962751079e+01 +3.1068414465e+01 +2.0704108204e+01 3.9860708168e+01 1.0566000000e-01 0.0000e+00 -1.0000e+00
       13  1    1    0    0    0 +2.2011986142e+01 -4.8524014011e+01 -3.2665698526e+01 6.2499331947e+01 1.0566000000e-01 0.0000e+00 -1.0000e+00
       22  1    1    0    0    0 -8.0492350627e+00 +1.7455599545e+01 +1.1961590322e+01 2.2639959885e+01 0.0000000000e+00 0.0000e+00 -1.0000e+00
</event>
<event>
 4      1 +2.4041262e-06 9.11880000e+01 7.81860800e-03 1.13011600e-01
       25 -1    0    0    0    0 +0.0000000000e+00 +0.0000000000e+00 +9.9999998245e-15 1.2500000000e+02 1.2500000000e+02 0.0000e+00 0.0000e+00
      -13  1    1    0    0    0 +6.2025450727e+01 -7.2420015763e+00 -2.5759224424e+00 6.2499997321e+01 1.0566000000e-01 0.0000e+00 1.0000e+00
       13  1    1    0    0    0 -6.2025453403e+01 +7.2420015684e+00 +2.5759219408e+00 6.2499999956e+01 1.0566000000e-01 0.0000e+00 1.0000e+00
       22  1    1    0    0    0 +2.6766688610e-06 +7.9275995899e-09 +5.0162904837e-07 2.7232794092e-06 0.0000000000e+00 0.0000e+00 -1.0000e+00
</event>
<event>
 5      1 +2.4041262e-06 9.11880000e+01 7.81860800e-03 1.13011600e-01
       25 -1    0    0    0    0 +0.0000000000e+00 +0.0000000000e+00 +9.9999998245e-15 1.2500000000e+02 1.2500000000e+02 0.0000e+00 0.0000e+00
       23  2    1    0    0    0 +7.4452498593e+00 +1.7404226639e+01 +2.2372995069e+01 9.5693178972e+01 9.1094976497e+01 0.0000e+00 0.0000e+00
      -13  1    2    2    0    0 -7.6582377868e+00 +5.1563633972e+01 +2.5841450187e+01 5.8182889806e+01 1.0566000000e-01 0.0000e+00 1.0000e+00
       13  1    2    2    0    0 +1.5103487646e+01 -3.4159407332e+01 -3.4684551177e+00 3.7510289166e+01 1.0566000000e-01 0.0000e+00 -1.0000e+00
       22  1    1    0    0    0 -7.4452498593e+00 -1.7404226639e+01 -2.2372995069e+01 2.9306821028e+01 0.0000000000e+00 0.0000e+00 1.0000e+00
</event>
<event>
 4      1 +2.4041262e-06 9.11880000e+01 7.81860800e-03 1.13011600e-01
       25 -1    0    0    0    0 +0.0000000000e+00 +0.0000000000e+00 +9.9999998245e-15 1.2500000000e+02 1.2500000000e+02 0.0000e+00 0.0000e+00
      -13  1    1    0    0    0 +7.8355249147e+00 +6.1034846439e+01 -1.0935713499e+01 6.2499991395e+01 1.0566000000e-01 0.0000e+00 -1.0000e+00
       13  1    1    0    0    0 -7.8355264438e+00 -6.1034854853e+01 +1.0935714561e+01 6.2499999988e+01 1.0566000000e-01 0.0000e+00 -1.0000e+00
       22  1    1    0    0    0 +1.5291455198e-06 +8.4133270102e-06 -1.0615806051e-06 8.6168039773e-06 0.0000000000e+00 0.0000e+00 -1.0000e+00
</event>
<event>
 4      1 +2.4041262e-06 9.11880000e+01 7.81860800e-03 1.13011600e-01
       25 -1    0    0    0    0 +0.0000000000e+00 +0.0000000000e+00 +9.9999998245e-15 1.2500000000e+02 1.2500000000e+02 0.0000e+00 0.0000e+00
      -13  1    1    0    0    0 -3.9208387119e+00 -1.7498516714e+01 +3.9595486121e+01 4.3467053599e+01 1.0566000000e-01 0.0000e+00 1.0000e+00
       13  1    1    0    0    0 -6.0380709126e+00 -7.0642152481e+00 +1.6811386808e+01 1.9209251101e+01 1.0566000000e-01 0.0000e+00 -1.0000e+00
       22  1    1    0    0    0 +9.9589096245e+00 +2.4562731962e+01 -5.6406872928e+01 6.2323695300e+01 0.0000000000e+00 0.0000e+00 1.0000e+00
</event>
<event>
 5      1 +2.4041262e-06 9.11880000e+01 7.81860800e-03 1.13011600e-01
       25 -1    0    0    0    0 +0.0000000000e+00 +0.0000000000e+00 +9.9999998245e-15 1.2500000000e+02 1.2500000000e+02 0.0000e+00 0.0000e+00
       23  2    1    0    0    0 +7.9941420239e+00 -2.1749724021e+00 -2.8510252475e+01 9.5310417520e+01 9.0568230522e+01 0.0000e+00 0.0000e+00
      -11  1    2    2    0    0 -1.0919985550e+01 +2.5593182550e+01 -4.8717504745e+01 5.6103942342e+01 5.1100000000e-04 0.0000e+00 -1.0000e+00
       11  1    2    2    0    0 +1.8914127574e+01 -2.7768154952e+01 +2.0207252269e+01 3.9206475178e+01 5.1100000000e-04 0.0000e+00 1.0000e+00
       22  1    1    0    0    0 -7.9941420239e+00 +2.1749724021e+00 +2.8510252475e+01 2.9689582480e+01 0.0000000000e+00 0.0000e+00 -1.0000e+00
</event>
<event>
 4      1 +2.4041262e-06 9.11880000e+01 7.81860800e-03 1.13011600e-01
       25 -1    0    0    0    0 +0.0000000000e+00 +0.0000000000e+00 +9.9999998245e-15 1.2500000000e+02 1.2500000000e+02 0.0000e+00 0.0000e+00
      -13  1    1    0    0    0 -6.2220981399e+01 -3.7584677142e-01 +5.7733980135e+00 6.2489479720e+01 1.0566000000e-01 0.0000e+00 -1.0000e+00
       13  1    1    0    0    0 +6.0613881942e+01 +1.0924818065e-01 -5.6477347605e+00 6.0876618592e+01 1.0566000000e-01 0.0000e+00 -1.0000e+00
       22  1    1    0    0    0 +1.6070994567e+00 +2.6659859078e-01 -1.2566325296e-01 1.6339016878e+00 0.0000000000e+00 0.0000e+00 -1.0000e+00
</event>
<event>
 4      1 +2.4041262e-06 9.11880000e+01 7.81860800e-03 1.13011600e-01
       25 -1    0    0    0    0 +0.0000000000e+00 +0.0000000000e+00 +9.9999998245e-15 1.2500000000e+02 1.2500000000e+02 0.0000e+00 0.0000e+00
      -13  1    1    0    0    0 -5.3589476938e+01 +2.8874288726e+00 -3.2032317326e+01 6.2499998410e+01 1.0566000000e-01 0.0000e+00 -1.0000e+00
       13  1    1    0    0    0 +5.3589478204e+01 -2.8874290852e+00 +3.2032318276e+01 6.2499999993e+01 1.0566000000e-01 0.0000e+00 -1.0000e+00
       22  1    1    0    0    0 -1.2663214945e-06 +2.1263237458e-07 -9.5003997028e-07 1.5972972796e-06 0.0000000000e+00 0.0000e+00 -1.0000e+00
</event>
<event>
 4      1 +2.4041262e-06 9.11880000e+01 7.81860800e-03 1.13011600e-01
       25 -1    0    0    0    0 +0.0000000000e+00 +0.0000000000e+00 +9.9999998245e-15 1.2500000000e+02 1.2500000000e+02 0.0000e+00 0.0000e+00
      -13  1    1    0    0    0 -4.4454202287e+01 +2.6070164228e+01 +3.5330034907e+01 6.2482414281e+01 1.0566000000e-01 0.0000e+00 -1.0000e+00
       13  1    1    0    0    0 +4.4466866886e+01 -2.6077432021e+01 -3.5339836401e+01 6.2499999299e+01 1.0566000000e-01 0.0000e+00 -1.0000e+00
       22  1    1    0    0    0 -1.2664599332e-02 +7.2677925225e-03 +9.8014939640e-03 1.7586419997e-02 0.0000000000e+00 0.0000e+00 1.0000e+00
</event>
<event>
 4      1 +2.4041262e-06 9.11880000e+01 7.81860800e-03 1.13011600e-01
       25 -1    0    0    0    0 +0.0000000000e+00 +0.0000000000e+00 +9.9999998245e-15 1.2500000000e+02 1.2500000000e+02 0.0000e+00 0.0000e+00
      -13  1    1    0    0    0 -3.6666190397e+01 +1.9125125664e+01 -4.6862126309e+01 6.2499999969e+01 1.0566000000e-01 0.0000e+00 1.0000e+00
       13  1    1    0    0    0 +3.6666190416e+01 -1.9125125675e+01 +4.6862126331e+01 6.2500000000e+01 1.0566000000e-01 0.0000e+00 1.0000e+00
       22  1    1    0    0    0 -1.8877077807e-08 +1.0801817641e-08 -2.2454906423e-08 3.1260936539e-08 0.0000000000e+00 0.0000e+00 -1.0000e+00
</event>
<event>
 4      1 +2.4041262e-06 9.11880000e+01 7.81860800e-03 1.13011600e-01
       25 -1    0    0    0    0 +0.0000000000e+00 +0.0000000000e+00 +9.9999998245e-15 1.2500000000e+02 1.2500000000e+02 0.0000e+00 0.0000e+00
      -13  1    1    0    0    0 -4.1828760108e+01 -1.8769375006e+01 +2.9969878864e+01 5.4773528401e+01 1.0566000000e-01 0.0000e+00 1.0000e+00
       13  1    1    0    0    0 +4.7873610550e+01 +2.1820078334e+01 -3.3716002141e+01 6.2488225851e+01 1.0566000000e-01 0.0000e+00 1.0000e+00
       22  1    1    0    0    0 -6.0448504417e+00 -3.0507033281e+00 +3.7461232766e+00 7.7382457484e+00 0.0000000000e+00 0.0000e+00 1.0000e+00
</event>
<event>
 4      1 +2.4041262e-06 9.11880000e+01 7.81860800e-03 1.13011600e-01
       25 -1    0    0    0    0 +0.0000000000e+00 +0.0000000000e+00 +9.9999998245e-15 1.2500000000e+02 1.2500000000e+02 0.0000e+00 0.0000e+00
      -11  1    1    0    0    0 +1.2970544334e+00 +5.3205885452e-01 -2.9703926803e+00 3.2846110522e+00 5.1100000000e-04 0.0000e+00 -1.0000e+00
       11  1    1    0    0    0 +2.2688710853e+01 +9.4869254648e+00 -5.3867416369e+01 5.9215520782e+01 5.1100000000e-04 0.0000e+00 1.0000e+00
       22  1    1    0    0    0 -2.3985765287e+01 -1.0018984319e+01 +5.6837809049e+01 6.2499868166e+01 0.0000000000e+00 0.0000e+00 1.0000e+00
</event>
<event>
 4      1 +2.4041262e-06 9.11880000e+01 7.81860800e-03 1.13011600e-01
       25 -1    0    0    0    0 +0.0000000000e+00 +0.0000000000e+00 +9.9999998245e-15 1.2500000000e+02 1.2500000000e+02 0.0000e+00 0.0000e+00
      -11  1    1    0    0    0 -5.1301393552e+01 +2.7286064897e+01 -1.4474493185e+00 5.8124499377e+01 5.1100000000e-04 0.0000e+00 -1.0000e+00
       11  1    1    0    0    0 -3.8826509463e+00 +2.0172686264e+00 +2.4338537906e-01 4.3821898391e+00 5.1100000000e-04 0.0000e+00 1.0000e+00
       22  1    1    0    0    0 +5.5184044499e+01 -2.9303333524e+01 +1.2040639395e+00 6.2493310784e+01 0.0000000000e+00 0.0000e+00 -1.0000e+00
</event>
<event>
 5      1 +2.4041262e-06 9.11880000e+01 7.81860800e-03 1.13011600e-01
       25 -1    0    0    0    0 +0.0000000000e+00 +0.0000000000e+00 +9.9999998245e-15 1.2500000000e+02 1.2500000000e+02 0.0000e+00 0.0000e+00
       23  2    1    0    0    0 -2.2444464272e+01 +1.9208317168e+01 +4.2400178306e+00 9.5155550330e+01 9.0354233893e+01 0.0000e+00 0.0000e+00
      -13  1    2    2    0    0 -2.6043824445e-01 +4.9784600001e+01 -1.6006985547e+01 5.2295401095e+01 1.0566000000e-01 0.0000e+00 1.0000e+00
       13  1    2    2    0    0 -2.2184026028e+01 -3.0576282833e+01 +2.0247003377e+01 4.2860149235e+01 1.0566000000e-01 0.0000e+00 -1.0000e+00
       22  1    1    0    0    0 +2.2444464272e+01 -1.9208317168e+01 -4.2400178306e+00 2.9844449670e+01 0.0000000000e+00 0.0000e+00 -1.0000e+00
</event>
<event>
 4      1 +2.4041262e-06 9.11880000e+01 7.81860800e-03 1.13011600e-01
       25 -1    0    0    0    0 +0.0000000000e+00 +0.0000000000e+00 +9.9999998245e-15 1.2500000000e+02 1.2500000000e+02 0.0000e+00 0.0000e+00
      -13  1    1    0    0    0 -3.4123315646e+01 +4.4230845118e+01 -2.7743585841e+01 6.2373760908e+01 1.0566000000e-01 0.0000e+00 1.0000e+00
       13  1    1    0    0    0 +3.1665849172e+01 -4.2392965883e+01 +2.7248319603e+01 5.9517826282e+01 1.0566000000e-01 0.0000e+00 1.0000e+00
       22  1    1    0    0    0 +2.4574664735e+00 -1.8378792348e+00 +4.9526623713e-01 3.1084128097e+00 0.0000000000e+00 0.0000e+00 -1.0000e+00
</event>
<event>
 4      1 +2.4041262e-06 9.11880000e+01 7.81860800e-03 1.13011600e-01
       25 -1    0    0    0    0 +0.0000000000e+00 +0.0000000000e+00 +9.9999998245e-15 1.2500000000e+02 1.2500000000e+02 0.0000e+00 0.0000e+00
      -13  1    1    0    0    0 +3.1797260665e+01 +4.5717964327e+01 -2.8372940019e+01 6.2499863498e+01 1.0566000000e-01 0.0000e+00 -1.0000e+00
       13  1    1    0    0    0 -3.1077609531e+01 -4.4708465505e+01 +2.7767027544e+01 6.1120239566e+01 1.0566000000e-01 0.0000e+00 -1.0000e+00
       22  1    1    0    0    0 -7.1965113392e-01 -1.0094988221e+00 +6.0591247480e-01 1.3798969358e+00 0.0000000000e+00 0.0000e+00 -1.0000e+00
</event>
<event>
 4      1 +2.4041262e-06 9.11880000e+01 7.81860800e-03 1.13011600e-01
       25 -1    0    0    0    0 +0.0000000000e+00 +0.0000000000e+00 +9.9999998245e-15 1.2500000000e+02 1.2500000000e+02 0.0000e+00 0.0000e+00
      -13  1    1    0    0    0 -4.0366761461e+01 -2.4626187797e+01 +4.0869344230e+01 6.2499912144e+01 1.0566000000e-01 0.0000e+00 -1.0000e+00
       13  1    1    0    0    0 +4.0366813089e+01 +2.4626220061e+01 -4.0869407846e+01 6.2499999802e+01 1.0566000000e-01 0.0000e+00 -1.0000e+00
       22  1    1    0    0    0 -5.1628247168e-05 -3.2263819761e-05 +6.3616504261e-05 8.8053901592e-05 0.0000000000e+00 0.0000e+00 1.0000e+00
</event>
<event>
 4      1 +2.4041262e-06 9.11880000e+01 7.81860800e-03 1.13011600e-01
       25 -1    0    0    0    0 +0.0000000000e+00 +0.0000000000e+00 +9.9999998245e-15 1.2500000000e+02 1.2500000000e+02 0.0000e+00 0.0000e+00
      -13  1    1    0    0    0 -3.0315059846e+01 -3.2641449967e+01 +4.3838015818e+01 6.2499999235e+01 1.0566000000e-01 0.0000e+00 -1.0000e+00
       13  1    1    0    0    0 +3.0315033025e+01 +3.2641435903e+01 -4.3837992703e+01 6.2499962667e+01 1.0566000000e-01 0.0000e+00 -1.0000e+00
       22  1    1    0    0    0 +2.6820972416e-05 +1.4063865216e-05 -2.3114854326e-05 3.8097944258e-05 0.0000000000e+00 0.0000e+00 -1.0000e+00
</event>
<event>
 5      1 +2.4041262e-06 9.11880000e+01 7.81860800e-03 1.13011600e-01
       25 -1    0    0    0    0 +0.0000000000e+00 +0.0000000000e+00 +9.9999998245e-15 1.2500000000e+02 1.2500000000e+02 0.0000e+00 0.0000e+00
       23  2    1    0    0    0 +2.5511651443e+01 +9.3361003203e+00 +1.7139865631e+00 9.7779697311e+01 9.3914452177e+01 0.0000e+00 0.0000e+00
      -11  1    2    2    0    0 +3.5416922244e+01 -3.4750275300e+01 -1.1034866609e+01 5.0830190792e+01 5.1100000000e-04 0.0000e+00 1.0000e+00
       11  1    2    2    0    0 -9.9052708004e+00 +4.4086375620e+01 +1.2748853172e+01 4.6949506519e+01 5.1100000000e-04 0.0000e+00 -1.0000e+00
       22  1    1    0    0    0 -2.5511651443e+01 -9.3361003203e+00 -1.7139865631e+00 2.7220302689e+01 0.0000000000e+00 0.0000e+00 1.0000e+00
</event>
<event>
 4      1 +2.4041262e-06 9.11880000e+01 7.81860800e-03 1.13011600e-01
       25 -1    0    0    0    0 +0.0000000000e+00 +0.0000000000e+00 +9.9999998245e-15 1.2500000000e+02 1.2500000000e+02 0.0000e+00 0.0000e+00
      -11  1    1    0    0    0 -1.1153619942e+01 +7.5438246326e+00 +4.5305898669e+00 1.4206997315e+01 5.1100000000e-04 0.0000e+00 1.0000e+00
       11  1    1    0    0    0 -3.7913931795e+01 +2.5643528227e+01 +1.5399913787e+01 4.8293002692e+01 5.1100000000e-04 0.0000e+00 1.0000e+00
       22  1    1    0    0    0 +4.9067551737e+01 -3.3187352860e+01 -1.9930503654e+01 6.2499999993e+01 0.0000000000e+00 0.0000e+00 1.0000e+00
</event>
<event>
 5      1 +2.4041262e-06 9.11880000e+01 7.81860800e-03 1.13011600e-01
       25 -1    0    0    0    0 +0.0000000000e+00 +0.0000000000e+00 +9.9999998245e-15 1.2500000000e+02 1.2500000000e+02 0.0000e+00 0.0000e+00
       23  2    1    0    0    0 +9.7441507037e+00 +2.2915094804e+01 -1.6497879630e+01 9.5129779460e+01 9.0318574308e+01 0.0000e+00 0.0000e+00
      -13  1    2    2    0    0 +2.6568580091e+00 +4.2729199666e+01 +2.4297751862e+01 4.9226368017e+01 1.0566000000e-01 0.0000e+00 -1.0000e+00
       13  1    2    2    0    0 +7.0872926946e+00 -1.9814104862e+01 -4.0795631492e+01 4.5903411443e+01 1.0566000000e-01 0.0000e+00 1.0000e+00
       22  1    1    0    0    0 -9.7441507037e+00 -2.2915094804e+01 +1.6497879630e+01 2.9870220540e+01 0.0000000000e+00 0.0000e+00 -1.0000e+00
</event>
<event>
 4      1 +2.4041262e-06 9.11880000e+01 7.81860800e-03 1.13011600e-01
       25 -1    0    0    0    0 +0.0000000000e+00 +0.0000000000e+00 +9.9999998245e-15 1.2500000000e+02 1.2500000000e+02 0.0000e+00 0.0000e+00
      -13  1    1    0    0    0 -3.2537640060e+01 +4.7188471890e+01 -2.4909326503e+01 6.2497484836e+01 1.0566000000e-01 0.0000e+00 -1.0000e+00
       13  1    1    0    0    0 +3.2537570576e+01 -4.7191458731e+01 +2.4908741671e+01 6.2499470813e+01 1.0566000000e-01 0.0000e+00 -1.0000e+00
       22  1    1    0    0    0 +6.9483554559e-05 +2.9868407469e-03 +5.8483172900e-04 3.0443511235e-03 0.0000000000e+00 0.0000e+00 -1.0000e+00
</event>
<event>
 5      1 +2.4041262e-06 9.11880000e+01 7.81860800e-03 1.13011600e-01
       25 -1    0    0    0    0 +0.0000000000e+00 +0.0000000000e+00 +9.9999998245e-15 1.2500000000e+02 1.2500000000e+02 0.0000e+00 0.0000e+00
       23  2    1    0    0    0 +1.0293405030e+01 -3.2544766044e+00 +2.7400910428e+01 9.5549096833e+01 9.0897052802e+01 0.0000e+00 0.0000e+00
      -13  1    2    2    0    0 -6.6718161324e+00 -3.6951678992e+01 -1.3502845778e+01 3.9903354734e+01 1.0566000000e-01 0.0000e+00 1.0000e+00
       13  1    2    2    0    0 +1.6965221163e+01 +3.3697202388e+01 +4.0903756207e+01 5.5645742099e+01 1.0566000000e-01 0.0000e+00 -1.0000e+00
       22  1    1    0    0    0 -1.0293405030e+01 +3.2544766044e+00 -2.7400910428e+01 2.9450903167e+01 0.0000000000e+00 0.0000e+00 -1.0000e+00
</event>
<event>
 4      1 +2.4041262e-06 9.11880000e+01 7.81860800e-03 1.13011600e-01
       25 -1    0    0    0    0 +0.0000000000e+00 +0.0000000000e+00 +9.9999998245e-15 1.2500000000e+02 1.2500000000e+02 0.0000e+00 0.0000e+00
      -13  1    1    0    0    0 +3.7322984642e+00 +6.1841472000e+01 +8.2426406554e+00 6.2500000000e+01 1.0566000000e-01 0.0000e+00 1.0000e+00
       13  1    1    0    0    0 -3.7322984438e+00 -6.1841471668e+01 -8.2426406241e+00 6.2499999665e+01 1.0566000000e-01 0.0000e+00 1.0000e+00
       22  1    1    0    0    0 -2.0411345537e-08 -3.3261025304e-07 -3.1218594079e-08 3.3469509120e-07 0.0000000000e+00 0.0000e+00 -1.0000e+00
</event>
<event>
 4      1 +2.4041262e-06 9.11880000e+01 7.81860800e-03 1.13011600e-01
       25 -1    0    0    0    0 +0.0000000000e+00 +0.0000000000e+00 +9.9999998245e-15 1.2500000000e+02 1.2500000000e+02 0.0000e+00 0.0000e+00
      -13  1    1    0    0    0 -4.5621854548e+00 -1.8680481501e+00 -7.8510952854e+00 9.2711380764e+00 1.0566000000e-01 0.0000e+00 -1.0000e+00
       13  1    1    0    0    0 -2.7824091068e+01 -2.7132976396e+01 -3.6719966009e+01 5.3467237815e+01 1.0566000000e-01 0.0000e+00 1.0000e+00
       22  1    1    0    0    0 +3.2386276523e+01 +2.9001024546e+01 +4.4571061294e+01 6.2261624108e+01 0.0000000000e+00 0.0000e+00 1.0000e+00
</event>
<event>
 4      1 +2.4041262e-06 9.11880000e+01 7.81860800e-03 1.13011600e-01
       25 -1    0    0    0    0 +0.0000000000e+00 +0.0000000000e+00 +9.9999998245e-15 1.2500000000e+02 1.2500000000e+02 0.0000e+00 0.0000e+00
      -13  1    1    0    0    0 -2.0791103243e+01 +2.1109362606e+01 +5.5030570303e+01 6.2499999965e+01 1.0566000000e-01 0.0000e+00 -1.0000e+00
       13  1    1    0    0    0 +2.0791101816e+01 -2.1109361344e+01 -5.5030564897e+01 6.2499994304e+01 1.0566000000e-01 0.0000e+00 -1.0000e+00
       22  1    1    0    0    0 +1.4271400965e-06 -1.2617290751e-06 -5.4061228590e-06 5.7319153414e-06 0.0000000000e+00 0.0000e+00 -1.0000e+00
</event>
<event>
 4      1 +2.4041262e-06 9.11880000e+01 7.81860800e-03 1.13011600e-01
       25 -1    0    0    0    0 +0.0000000000e+00 +0.0000000000e+00 +9.9999998245e-15 1.2500000000e+02 1.2500000000e+02 0.0000e+00 0.0000e+00
      -13  1    1    0    0    0 +1.5974932645e+01 +1.8056794052e+00 -6.0392215311e+01 6.2495518122e+01 1.0566000000e-01 0.0000e+00 -1.0000e+00
       13  1    1    0    0    0 -1.5976438307e+01 -1.8063759350e+00 +6.0396407051e+01 6.2499973790e+01 1.0566000000e-01 0.0000e+00 -1.0000e+00
       22  1    1    0    0    0 +1.5056620077e-03 +6.9652977447e-04 -4.1917402893e-03 4.5080881159e-03 0.0000000000e+00 0.0000e+00 1.0000e+00
</event>
<event>
 4      1 +2.4041262e-06 9.11880000e+01 7.81860800e-03 1.13011600e-01
       25 -1    0    0    0    0 +0.0000000000e+00 +0.0000000000e+00 +9.9999998245e-15 1.2500000000e+02 1.2500000000e+02 0.0000e+00 0.0000e+00
      -13  1    1    0    0    0 -3.4490166816e+01 +4.7009843313e+01 +2.2510927577e+01 6.2499999998e+01 1.0566000000e-01 0.0000e+00 1.0000e+00
       13  1    1    0    0    0 +3.4490166818e+01 -4.7009843315e+01 -2.2510927577e+01 6.2500000000e+01 1.0566000000e-01 0.0000e+00 1.0000e+00
       22  1    1    0    0    0 -1.5202761871e-09 +1.9467913987e-09 -6.2619757283e-10 2.5482071806e-09 0.0000000000e+00 0.0000e+00 -1.0000e+00
</event>
<event>
 4      1 +2.4041262e-06 9.11880000e+01 7.81860800e-03 1.13011600e-01
       25 -1    0    0    0    0 +0.0000000000e+00 +0.0000000000e+00 +9.9999998245e-15 1.2500000000e+02 1.2500000000e+02 0.0000e+00 0.0000e+00
      -13  1    1    0    0    0 +1.7718812106e+01 +4.0069161621e+01 +4.4572877649e+01 6.2499972811e+01 1.0566000000e-01 0.0000e+00 1.0000e+00
       13  1    1    0    0    0 -1.5091282411e+01 -3.4108430048e+01 -3.7979202462e+01 5.3231220058e+01 1.0566000000e-01 0.0000e+00 1.0000e+00
       22  1    1    0    0    0 -2.6275296951e+00 -5.9607315725e+00 -6.5936751868e+00 9.2688071318e+00 0.0000000000e+00 0.0000e+00 -1.0000e+00
</event>
<event>
 5      1 +2.4041262e-06 9.11880000e+01 7.81860800e-03 1.13011600e-01
       25 -1    0    0    0    0 +0.0000000000e+00 +0.0000000000e+00 +9.9999998245e-15 1.2500000000e+02 1.2500000000e+02 0.0000e+00 0.0000e+00
       23  2    1    0    0    0 +8.3093304185e+00 +4.5681041137e+00 -3.1218240972e+01 9.2373459935e+01 8.6419702521e+01 0.0000e+00 0.0000e+00
      -13  1    2    2    0    0 -3.5094279103e+01 -1.0742760781e+01 +1.0274246249e-01 3.6702003419e+01 1.0566000000e-01 0.0000e+00 1.0000e+00
       13  1    2    2    0    0 +4.3403609521e+01 +1.5310864895e+01 -3.1320983434e+01 5.5671456516e+01 1.0566000000e-01 0.0000e+00 -1.0000e+00
       22  1    1    0    0    0 -8.3093304185e+00 -4.5681041137e+00 +3.1218240972e+01 3.2626540065e+01 0.0000000000e+00 0.0000e+00 -1.0000e+00
</event>
<event>
 4      1 +2.4041262e-06 9.11880000e+01 7.81860800e-03 1.13011600e-01
       25 -1    0    0    0    0 +0.0000000000e+00 +0.0000000000e+00 +9.9999998245e-15 1.2500000000e+02 1.2500000000e+02 0.0000e+00 0.0000e+00
      -13  1    1    0    0    0 -4.0441681528e+01 +1.0776496367e+00 +4.7639772258e+01 6.2499999987e+01 1.0566000000e-01 0.0000e+00 -1.0000e+00
       13  1    1    0    0    0 +4.0441681536e+01 -1.0776496368e+00 -4.7639772268e+01 6.2500000000e+01 1.0566000000e-01 0.0000e+00 -1.0000e+00
       22  1    1    0    0    0 -7.8680383165e-09 +9.5427854261e-11 +1.0528947880e-08 1.3144347716e-08 0.0000000000e+00 0.0000e+00 -1.0000e+00
</event>
<event>
 4      1 +2.4041262e-06 9.11880000e+01 7.81860800e-03 1.13011600e-01
       25 -1    0    0    0    0 +0.0000000000e+00 +0.0000000000e+00 +9.9999998245e-15 1.2500000000e+02 1.2500000000e+02 0.0000e+00 0.0000e+00
      -13  1    1    0    0    0 +1.6233511450e+01 -5.9803635511e+01 +8.1386190453e+00 6.2499999986e+01 1.0566000000e-01 0.0000e+00 1.0000e+00
       13  1    1    0    0    0 -1.6233511450e+01 +5.9803635522e+01 -8.1386190562e+00 6.2499999998e+01 1.0566000000e-01 0.0000e+00 1.0000e+00
       22  1    1    0    0    0 -6.8006745836e-10 -1.0874129637e-08 +1.0858076460e-08 1.5382035350e-08 0.0000000000e+00 0.0000e+00 -1.0000e+00
</event>
<event>
 4      1 +2.4041262e-06 9.11880000e+01 7.81860800e-03 1.13011600e-01
       25 -1    0    0    0    0 +0.0000000000e+00 +0.0000000000e+00 +9.9999998245e-15 1.2500000000e+02 1.2500000000e+02 0.0000e+00 0.0000e+00
      -13  1    1    0    0    0 -8.2254143445e+00 +2.7121832202e+01 +5.8022059458e+00 2.8929707586e+01 1.0566000000e-01 0.0000e+00 -1.0000e+00
       13  1    1    0    0    0 +8.8152491290e-01 +3.1006880092e+01 +1.4259429906e+01 3.4140096726e+01 1.0566000000e-01 0.0000e+00 1.0000e+00
       22  1    1    0    0    0 +7.3438894316e+00 -5.8128712294e+01 -2.0061635852e+01 6.1930195688e+01 0.0000000000e+00 0.0000e+00 1.0000e+00
</event>
<event>
 4      1 +2.4041262e-06 9.11880000e+01 7.81860800e-03 1.13011600e-01
       25 -1    0    0    0    0 +0.0000000000e+00 +0.0000000000e+00 +9.9999998245e-15 1.2500000000e+02 1.2500000000e+02 0.0000e+00 0.0000e+00
      -13  1    1    0    0    0 +3.2915541489e+00 +3.9527931968e+00 +6.2287879505e+01 6.2500000000e+01 1.0566000000e-01 0.0000e+00 -1.0000e+00
       13  1    1    0    0    0 -3.2915541442e+00 -3.9527931888e+00 -6.2287879375e+01 6.2499999870e+01 1.0566000000e-01 0.0000e+00 -1.0000e+00
       22  1    1    0    0    0 -4.7177000008e-09 -7.9911831838e-09 -1.2991583263e-07 1.3024683977e-07 0.0000000000e+00 0.0000e+00 -1.0000e+00
</event>
<event>
 4      1 +2.4041262e-06 9.11880000e+01 7.81860800e-03 1.13011600e-01
       25 -1    0    0    0    0 +0.0000000000e+00 +0.0000000000e+00 +9.9999998245e-15 1.2500000000e+02 1.2500000000e+02 0.0000e+00 0.0000e+00
      -13  1    1    0    0    0 +3.9796528361e+01 +3.5538610692e+01 +1.8943020600e+01 5.6618068786e+01 1.0566000000e-01 0.0000e+00 -1.0000e+00
       13  1    1    0    0    0 +3.9743406887e+00 +3.9156526767e+00 +1.8715921564e+00 5.8857234925e+00 1.0566000000e-01 0.0000e+00 -1.0000e+00
       22  1    1    0    0    0 -4.3770869050e+01 -3.9454263369e+01 -2.0814612757e+01 6.2496207722e+01 0.0000000000e+00 0.0000e+00 -1.0000e+00
</event>
<event>
 4      1 +2.4041262e-06 9.11880000e+01 7.81860800e-03 1.13011600e-01
       25 -1    0    0    0    0 +0.0000000000e+00 +0.0000000000e+00 +9.9999998245e-15 1.2500000000e+02 1.2500000000e+02 0.0000e+00 0.0000e+00
      -13  1    1    0    0    0 +1.6628905848e+01 -2.7114631697e+01 -3.6322264740e+01 4.8280864135e+01 1.0566000000e-01 0.0000e+00 -1.0000e+00
       13  1    1    0    0    0 +4.7981135057e+00 -7.8297284917e+00 -1.0857089537e+01 1.4220200375e+01 1.0566000000e-01 0.0000e+00 -1.0000e+00
       22  1    1    0    0    0 -2.1427019353e+01 +3.4944360189e+01 +4.7179354277e+01 6.2498935490e+01 0.0000000000e+00 0.0000e+00 -1.0000e+00
</event>
<event>
 4      1 +2.4041262e-06 9.11880000e+01 7.81860800e-03 1.13011600e-01
       25 -1    0    0    0    0 +0.0000000000e+00 +0.0000000000e+00 +9.9999998245e-15 1.2500000000e+02 1.2500000000e+02 0.0000e+00 0.0000e+00
      -13  1    1    0    0    0 +8.4922310730e+00 -1.7808798570e+01 +5.7192161976e+01 6.0499800418e+01 1.0566000000e-01 0.0000e+00 -1.0000e+00
       13  1    1    0    0    0 -8.6844577177e+00 +1.5920176255e+01 -5.9093357947e+01 6.1813493150e+01 1.0566000000e-01 0.0000e+00 -1.0000e+00
       22  1    1    0    0    0 +1.9222664471e-01 +1.8886223150e+00 +1.9011959716e+00 2.6867064325e+00 0.0000000000e+00 0.0000e+00 -1.0000e+00
</event>
<event>
 4      1 +2.4041262e-06 9.11880000e+01 7.81860800e-03 1.13011600e-01
       25 -1    0    0    0    0 +0.0000000000e+00 +0.0000000000e+00 +9.9999998245e-15 1.2500000000e+02 1.2500000000e+02 0.0000e+00 0.0000e+00
      -11  1    1    0    0    0 +8.8664028212e+00 -2.4565765040e+00 +1.6598093708e+00 9.3489483107e+00 5.1100000000e-04 0.0000e+00 -1.0000e+00
       11  1    1    0    0    0 +5.0406057988e+01 -1.3969871517e+01 +9.4396136660e+00 5.3151051716e+01 5.1100000000e-04 0.0000e+00 -1.0000e+00
       22  1    1    0    0    0 -5.9272460809e+01 +1.6426448021e+01 -1.1099423037e+01 6.2499999974e+01 0.0000000000e+00 0.0000e+00 -1.0000e+00
</event>
<event>
 5      1 +2.4041262e-06 9.11880000e+01 7.81860800e-03 1.13011600e-01
       25 -1    0    0    0    0 +0.0000000000e+00 +0.0000000000e+00 +9.9999998245e-15 1.2500000000e+02 1.2500000000e+02 0.0000e+00 0.0000e+00
       23  2    1    0    0    0 +1.6236551445e+01 +1.7269100658e+01 -2.0342464919e+01 9.3764390204e+01 8.8408696128e+01 0.0000e+00 0.0000e+00
      -11  1    2    2    0    0 +2.9855400794e+00 +5.2506248191e+01 -4.0593397188e+00 5.2747490821e+01 5.1100000000e-04 0.0000e+00 -1.0000e+00
       11  1    2    2    0    0 +1.3251011365e+01 -3.5237147533e+01 -1.6283125200e+01 4.1016899383e+01 5.1100000000e-04 0.0000e+00 1.0000e+00
       22  1    1    0    0    0 -1.6236551445e+01 -1.7269100658e+01 +2.0342464919e+01 3.1235609796e+01 0.0000000000e+00 0.0000e+00 -1.0000e+00
</event>
<event>
 5      1 +2.4041262e-06 9.11880000e+01 7.81860800e-03 1.13011600e-01
       25 -1    0    0    0    0 +0.0000000000e+00 +0.0000000000e+00 +9.9999998245e-15 1.2500000000e+02 1.2500000000e+02 0.0000e+00 0.0000e+00
       23  2    1    0    0    0 +1.6032087134e+01 +1.7671120726e+01 +1.7753716127e+01 9.5259610596e+01 9.0498080913e+01 0.0000e+00 0.0000e+00
      -11  1    2    2    0    0 +6.6586613208e+00 -4.0812899035e-01 +5.3610162510e+01 5.4023641718e+01 5.1100000000e-04 0.0000e+00 -1.0000e+00
       11  1    2    2    0    0 +9.3734258135e+00 +1.8079249716e+01 -3.5856446383e+01 4.1235968878e+01 5.1100000000e-04 0.0000e+00 1.0000e+00
       22  1    1    0    0    0 -1.6032087134e+01 -1.7671120726e+01 -1.7753716127e+01 2.9740389404e+01 0.0000000000e+00 0.0000e+00 1.0000e+00
</event>
<event>
 4      1 +2.4041262e-06 9.11880000e+01 7.81860800e-03 1.13011600e-01
       25 -1    0    0    0    0 +0.0000000000e+00 +0.0000000000e+00 +9.9999998245e-15 1.2500000000e+02 1.2500000000e+02 0.0000e+00 0.0000e+00
      -13  1    1    0    0    0 +1.5027361871e+00 +1.3689287646e+00 +6.1042601103e+00 6.4346979370e+00 1.0566000000e-01 0.0000e+00 -1.0000e+00
       13  1    1    0    0    0 +9.8121098919e+00 +1.3676745154e+01 +5.3485948641e+01 5.6072174245e+01 1.0566000000e-01 0.0000e+00 1.0000e+00
       22  1    1    0    0    0 -1.1314846079e+01 -1.5045673918e+01 -5.9590208751e+01 6.2493127818e+01 0.0000000000e+00 0.0000e+00 1.0000e+00
</event>
<event>
 4      1 +2.4041262e-06 9.11880000e+01 7.81860800e-03 1.13011600e-01
       25 -1    0    0    0    0 +0.0000000000e+00 +0.0000000000e+00 +9.9999998245e-15 1.2500000000e+02 1.2500000000e+02 0.0000e+00 0.0000e+00
      -13  1    1    0    0    0 +4.0275583030e+00 -2.0476929227e+01 +5.8912757357e+01 6.2499999999e+01 1.0566000000e-01 0.0000e+00 1.0000e+00
       13  1    1    0    0    0 -4.0275582669e+00 +2.0476929001e+01 -5.8912756848e+01 6.2499999443e+01 1.0566000000e-01 0.0000e+00 1.0000e+00
       22  1    1    0    0    0 -3.6119159522e-08 +2.2646277181e-07 -5.0886131399e-07 5.5814856228e-07 0.0000000000e+00 0.0000e+00 1.0000e+00
</event>
<event>
 4      1 +2.4041262e-06 9.11880000e+01 7.81860800e-03 1.13011600e-01
       25 -1    0    0    0    0 +0.0000000000e+00 +0.0000000000e+00 +9.9999998245e-15 1.2500000000e+02 1.2500000000e+02 0.0000e+00 0.0000e+00
      -13  1    1    0    0    0 -4.3540902049e-01 +2.9060180605e+01 +5.5331275524e+01 6.2499959144e+01 1.0566000000e-01 0.0000e+00 -1.0000e+00
       13  1    1    0    0    0 +4.3545601740e-01 -2.9060175872e+01 -5.5331306275e+01 6.2499984494e+01 1.0566000000e-01 0.0000e+00 -1.0000e+00
       22  1    1    0    0    0 -4.6996902053e-05 -4.7330943514e-06 +3.0750730267e-05 5.6362384588e-05 0.0000000000e+00 0.0000e+00 -1.0000e+00
</event>
<event>
 5      1 +2.4041262e-06 9.11880000e+01 7.81860800e-03 1.13011600e-01
       25 -1    0    0    0    0 +0.0000000000e+00 +0.0000000000e+00 +9.9999998245e-15 1.2500000000e+02 1.2500000000e+02 0.0000e+00 0.0000e+00
       23  2    1    0    0    0 +3.6284844057e+00 -4.4205182616e+00 +5.0245827164e+00 1.1738729271e+02 1.1714018601e+02 0.0000e+00 0.0000e+00
      -13  1    2    2    0    0 -1.2841796655e+01 +3.8608932715e+01 -3.7022488292e+01 5.5011246396e+01 1.0566000000e-01 0.0000e+00 1.0000e+00
       13  1    2    2    0    0 +1.6470281061e+01 -4.3029450976e+01 +4.2047071008e+01 6.2376046316e+01 1.0566000000e-01 0.0000e+00 1.0000e+00
       22  1    1    0    0    0 -3.6284844057e+00 +4.4205182616e+00 -5.0245827164e+00 7.6127072883e+00 0.0000000000e+00 0.0000e+00 1.0000e+00
</event>
<event>
 4      1 +2.4041262e-06 9.11880000e+01 7.81860800e-03 1.13011600e-01
       25 -1    0    0    0    0 +0.0000000000e+00 +0.0000000000e+00 +9.9999998245e-15 1.2500000000e+02 1.2500000000e+02 0.0000e+00 0.0000e+00
      -13  1    1    0    0    0 -1.5331482484e+01 +5.6156234424e+01 +2.2704293758e+01 6.2482582684e+01 1.0566000000e-01 0.0000e+00 -1.0000e+00
       13  1    1    0    0    0 +1.5227757297e+01 -5.6061518466e+01 -2.2570673084e+01 6.2323550064e+01 1.0566000000e-01 0.0000e+00 -1.0000e+00
       22  1    1    0    0    0 +1.0372518629e-01 -9.4715957667e-02 -1.3362067401e-01 1.9386725208e-01 0.0000000000e+00 0.0000e+00 1.0000e+00
</event>
<event>
 4      1 +2.4041262e-06 9.11880000e+01 7.81860800e-03 1.13011600e-01
       25 -1    0    0    0    0 +0.0000000000e+00 +0.0000000000e+00 +9.9999998245e-15 1.2500000000e+02 1.2500000000e+02 0.0000e+00 0.0000e+00
      -13  1    1    0    0    0 +2.8794084559e+00 -2.4327727869e+01 +5.7498778245e+01 6.2500000000e+01 1.0566000000e-01 0.0000e+00 1.0000e+00
       13  1    1    0    0    0 -2.8794083947e+00 +2.4327727353e+01 -5.7498777029e+01 6.2499998678e+01 1.0566000000e-01 0.0000e+00 1.0000e+00
       22  1    1    0    0    0 -6.1216248465e-08 +5.1576430867e-07 -1.2153995602e-06 1.3217247603e-06 0.0000000000e+00 0.0000e+00 1.0000e+00
</event>
<event>
 4      1 +2.4041262e-06 9.11880000e+01 7.81860800e-03 1.13011600e-01
       25 -1    0    0    0    0 +0.0000000000e+00 +0.0000000000e+00 +9.9999998245e-15 1.2500000000e+02 1.2500000000e+02 0.0000e+00 0.0000e+00
      -13  1    1    0    0    0 +1.9710366074e+01 +5.8882364249e+01 +7.1138933138e+00 6.2499999939e+01 1.0566000000e-01 0.0000e+00 1.0000e+00
       13  1    1    0    0    0 -1.9710366093e+01 -5.8882364306e+01 -7.1138933213e+00 6.2500000000e+01 1.0566000000e-01 0.0000e+00 1.0000e+00
       22  1    1    0    0    0 +1.8920661547e-08 +5.7138641224e-08 +7.5085953170e-09 6.0656366178e-08 0.0000000000e+00 0.0000e+00 1.0000e+00
</event>
<event>
 4      1 +2.4041262e-06 9.11880000e+01 7.81860800e-03 1.13011600e-01
       25 -1    0    0    0    0 +0.0000000000e+00 +0.0000000000e+00 +9.9999998245e-15 1.2500000000e+02 1.2500000000e+02 0.0000e+00 0.0000e+00
      -13  1    1    0    0    0 -2.9244446992e+01 +4.9145687921e+01 -2.5213141709e+01 6.2500000000e+01 1.0566000000e-01 0.0000e+00 -1.0000e+00
       13  1    1    0    0    0 +2.9244428529e+01 -4.9145656755e+01 +2.5213125965e+01 6.2499960503e+01 1.0566000000e-01 0.0000e+00 -1.0000e+00
       22  1    1    0    0    0 +1.8462769344e-05 -3.1166281106e-05 +1.5743507937e-05 3.9497708440e-05 0.0000000000e+00 0.0000e+00 -1.0000e+00
</event>
<event>
 4      1 +2.4041262e-06 9.11880000e+01 7.81860800e-03 1.13011600e-01
       25 -1    0    0    0    0 +0.0000000000e+00 +0.0000000000e+00 +9.9999998245e-15 1.2500000000e+02 1.2500000000e+02 0.0000e+00 0.0000e+00
      -13  1    1    0    0    0 -5.1564992988e+01 +1.0195714299e+01 -3.3813277624e+01 6.2499999998e+01 1.0566000000e-01 0.0000e+00 1.0000e+00
       13  1    1    0    0    0 +5.1564992990e+01 -1.0195714301e+01 +3.3813277626e+01 6.2500000000e+01 1.0566000000e-01 0.0000e+00 1.0000e+00
       22  1    1    0    0    0 -1.5331858665e-09 +1.9767070838e-09 -1.1861848260e-09 2.7685852412e-09 0.0000000000e+00 0.0000e+00 -1.0000e+00
</event>
<event>
 4      1 +2.4041262e-06 9.11880000e+01 7.81860800e-03 1.13011600e-01
       25 -1    0    0    0    0 +0.0000000000e+00 +0.0000000000e+00 +9.9999998245e-15 1.2500000000e+02 1.2500000000e+02 0.0000e+00 0.0000e+00
      -13  1    1    0    0    0 +1.3650034951e+01 +3.8796281480e+01 -4.7050476680e+01 6.2491866916e+01 1.0566000000e-01 0.0000e+00 -1.0000e+00
       13  1    1    0    0    0 -1.3652005680e+01 -3.8801926326e+01 +4.7056023036e+01 6.2499977710e+01 1.0566000000e-01 0.0000e+00 -1.0000e+00
       22  1    1    0    0    0 +1.9707286542e-03 +5.6448462408e-03 -5.5463562367e-03 8.1553741799e-03 0.0000000000e+00 0.0000e+00 1.0000e+00
</event>
<event>
 4      1 +2.4041262e-06 9.11880000e+01 7.81860800e-03 1.13011600e-01
       25 -1    0    0    0    0 +0.0000000000e+00 +0.0000000000e+00 +9.9999998245e-15 1.2500000000e+02 1.2500000000e+02 0.0000e+00 0.0000e+00
      -13  1    1    0    0    0 -5.1842876959e+01 -3.0840086925e+01 +1.6353439391e+01 6.2499927975e+01 1.0566000000e-01 0.0000e+00 -1.0000e+00
       13  1    1    0    0    0 +5.1842936491e+01 +3.0840122750e+01 -1.6353458370e+01 6.2499999999e+01 1.0566000000e-01 0.0000e+00 -1.0000e+00
       22  1    1    0    0    0 -5.9532304239e-05 -3.5824697669e-05 +1.8978959545e-05 7.2025725380e-05 0.0000000000e+00 0.0000e+00 1.0000e+00
</event>
<event>
 4      1 +2.4041262e-06 9.11880000e+01 7.81860800e-03 1.13011600e-01
       25 -1    0    0    0    0 +0.0000000000e+00 +0.0000000000e+00 +9.9999998245e-15 1.2500000000e+02 1.2500000000e+02 0.0000e+00 0.0000e+00
      -11  1    1    0    0    0 -2.5747756526e-01 +1.9799539601e+01 +2.1011667554e+01 2.8871755000e+01 5.1100000000e-04 0.0000e+00 1.0000e+00
       11  1    1    0    0    0 -2.9373302220e-01 +2.3047883233e+01 +2.4486072579e+01 3.3628246329e+01 5.1100000000e-04 0.0000e+00 -1.0000e+00
       22  1    1    0    0    0 +5.5121058746e-01 -4.2847422834e+01 -4.5497740133e+01 6.2499998671e+01 0.0000000000e+00 0.0000e+00 1.0000e+00
</event>
<event>
 4      1 +2.4041262e-06 9.11880000e+01 7.81860800e-03 1.13011600e-01
       25 -1    0    0    0    0 +0.0000000000e+00 +0.0000000000e+00 +9.9999998245e-15 1.2500000000e+02 1.2500000000e+02 0.0000e+00 0.0000e+00
      -13  1    1    0    0    0 +7.9084705501e+00 +1.8851733197e+01 +3.0590845328e+01 3.6793243033e+01 1.0566000000e-01 0.0000e+00 -1.0000e+00
       13  1    1    0    0    0 -1.0081985250e+01 -3.3698119685e+01 -5.1564266404e+01 6.2418702571e+01 1.0566000000e-01 0.0000e+00 -1.0000e+00
       22  1    1    0    0    0 +2.1735147003e+00 +1.4846386488e+01 +2.0973421076e+01 2.5788054396e+01 0.0000000000e+00 0.0000e+00 1.0000e+00
</event>
<event>
 4      1 +2.4041262e-06 9.11880000e+01 7.81860800e-03 1.13011600e-01
       25 -1    0    0    0    0 +0.0000000000e+00 +0.0000000000e+00 +9.9999998245e-15 1.2500000000e+02 1.2500000000e+02 0.0000e+00 0.0000e+00
      -13  1    1    0    0    0 +2.1526216486e+01 -3.3711451692e+01 -4.8014456377e+01 6.2491912730e+01 1.0566000000e-01 0.0000e+00 -1.0000e+00
       13  1    1    0    0    0 -2.1528959899e+01 +3.3715804876e+01 +4.8020695670e+01 6.2499999916e+01 1.0566000000e-01 0.0000e+00 -1.0000e+00
       22  1    1    0    0    0 +2.7434130333e-03 -4.3531840461e-03 -6.2392930702e-03 8.0873546000e-03 0.0000000000e+00 0.0000e+00 1.0000e+00
</event>
<event>
 4      1 +2.4041262e-06 9.11880000e+01 7.81860800e-03 1.13011600e-01
       25 -1    0    0    0    0 +0.0000000000e+00 +0.0000000000e+00 +9.9999998245e-15 1.2500000000e+02 1.2500000000e+02 0.0000e+00 0.0000e+00
      -13  1    1    0    0    0 +1.3149242839e+01 -5.0743311377e+01 -2.6225698225e+01 5.8613860546e+01 1.0566000000e-01 0.0000e+00 -1.0000e+00
       13  1    1    0    0    0 +3.3261857000e-01 -3.2941966780e+00 -2.0804354245e+00 3.9117441708e+00 1.0566000000e-01 0.0000e+00 1.0000e+00
       22  1    1    0    0    0 -1.3481861409e+01 +5.4037508055e+01 +2.8306133650e+01 6.2474395283e+01 0.0000000000e+00 0.0000e+00 -1.0000e+00
</event>
<event>
 4      1 +2.4041262e-06 9.11880000e+01 7.81860800e-03 1.13011600e-01
       25 -1    0    0    0    0 +0.0000000000e+00 +0.0000000000e+00 +9.9999998245e-15 1.2500000000e+02 1.2500000000e+02 0.0000e+00 0.0000e+00
      -13  1    1    0    0    0 +1.6594358594e+01 -1.8243420799e+01 +2.0463522323e+00 2.4746592919e+01 1.0566000000e-01 0.0000e+00 1.0000e+00
       13  1    1    0    0    0 +2.5311208902e+01 -2.7849082428e+01 +3.0160030968e+00 3.7753624023e+01 1.0566000000e-01 0.0000e+00 1.0000e+00
       22  1    1    0    0    0 -4.1905567496e+01 +4.6092503227e+01 -5.0623553292e+00 6.2499783058e+01 0.0000000000e+00 0.0000e+00 1.0000e+00
</event>
<event>
 4      1 +2.4041262e-06 9.11880000e+01 7.81860800e-03 1.13011600e-01
       25 -1    0    0    0    0 +0.0000000000e+00 +0.0000000000e+00 +9.9999998245e-15 1.2500000000e+02 1.2500000000e+02 0.0000e+00 0.0000e+00
      -13  1    1    0    0    0 +4.8906942932e-01 +3.4913397841e+01 -5.1836804474e+01 6.2499999999e+01 1.0566000000e-01 0.0000e+00 -1.0000e+00
       13  1    1    0    0    0 -4.8906942934e-01 -3.4913397842e+01 +5.1836804475e+01 6.2500000000e+01 1.0566000000e-01 0.0000e+00 -1.0000e+00
       22  1    1    0    0    0 +2.2705217126e-11 +7.9468949439e-10 -8.3970750103e-10 1.1563544468e-09 0.0000000000e+00 0.0000e+00 1.0000e+00
</event>
<event>
 4      1 +2.4041262e-06 9.11880000e+01 7.81860800e-03 1.13011600e-01
       25 -1    0    0    0    0 +0.0000000000e+00 +0.0000000000e+00 +9.9999998245e-15 1.2500000000e+02 1.2500000000e+02 0.0000e+00 0.0000e+00
      -11  1    1    0    0    0 -1.1291824355e+01 -7.9233713594e+00 +1.2621985597e+01 1.8697583577e+01 5.1100000000e-04 0.0000e+00 -1.0000e+00
       11  1    1    0    0    0 -2.6034007818e+01 -1.8546321216e+01 +2.9949357465e+01 4.3802963445e+01 5.1100000000e-04 0.0000e+00 1.0000e+00
       22  1    1    0    0    0 +3.7325832173e+01 +2.6469692576e+01 -4.2571343062e+01 6.2499452978e+01 0.0000000000e+00 0.0000e+00 1.0000e+00
</event>
<event>
 4      1 +2.4041262e-06 9.11880000e+01 7.81860800e-03 1.13011600e-01
       25 -1    0    0    0    0 +0.0000000000e+00 +0.0000000000e+00 +9.9999998245e-15 1.2500000000e+02 1.2500000000e+02 0.0000e+00 0.0000e+00
      -13  1    1    0    0    0 -5.6804585445e+01 -2.2816771137e+01 +1.2604439271e+01 6.2499992208e+01 1.0566000000e-01 0.0000e+00 1.0000e+00
       13  1    1    0    0    0 +5.6651337118e+01 +2.2755817260e+01 -1.2568231349e+01 6.2331154487e+01 1.0566000000e-01 0.0000e+00 1.0000e+00
       22  1    1    0    0    0 +1.5324832665e-01 +6.0953876937e-02 -3.6207922441e-02 1.6885330433e-01 0.0000000000e+00 0.0000e+00 1.0000e+00
</event>
<event>
 4      1 +2.4041262e-06 9.11880000e+01 7.81860800e-03 1.13011600e-01
       25 -1    0    0    0    0 +0.0000000000e+00 +0.0000000000e+00 +9.9999998245e-15 1.2500000000e+02 1.2500000000e+02 0.0000e+00 0.0000e+00
      -13  1    1    0    0    0 +2.2446033289e+01 -1.3836041510e+01 -5.6665492746e+01 6.2499997498e+01 1.0566000000e-01 0.0000e+00 -1.0000e+00
       13  1    1    0    0    0 -2.2445938074e+01 +1.3836035696e+01 +5.6665261736e+01 6.2499752571e+01 1.0566000000e-01 0.0000e+00 -1.0000e+00
       22  1    1    0    0    0 -9.5214927566e-05 +5.8137238164e-06 +2.3101043172e-04 2.4993099323e-04 0.0000000000e+00 0.0000e+00 -1.0000e+00
</event>
<event>
 5      1 +2.4041262e-06 9.11880000e+01 7.81860800e-03 1.13011600e-01
       25 -1    0    0    0    0 +0.0000000000e+00 +0.0000000000e+00 +9.9999998245e-15 1.2500000000e+02 1.2500000000e+02 0.0000e+00 0.0000e+00
       23  2    1    0    0    0 -2.7004374079e+01 +7.3218423646e+00 -1.0323258166e+01 9.5176934192e+01 9.0383812423e+01 0.0000e+00 0.0000e+00
      -13  1    2    2    0    0 -6.2767953531e-01 -7.9251176809e+00 +3.7576826248e+01 3.8408729565e+01 1.0566000000e-01 0.0000e+00 1.0000e+00
       13  1    2    2    0    0 -2.6376694543e+01 +1.5246960045e+01 -4.7900084415e+01 5.6768204627e+01 1.0566000000e-01 0.0000e+00 -1.0000e+00
       22  1    1    0    0    0 +2.7004374079e+01 -7.3218423646e+00 +1.0323258166e+01 2.9823065808e+01 0.0000000000e+00 0.0000e+00 -1.0000e+00
</event>
<event>
 4      1 +2.4041262e-06 9.11880000e+01 7.81860800e-03 1.13011600e-01
       25 -1    0    0    0    0 +0.0000000000e+00 +0.0000000000e+00 +9.9999998245e-15 1.2500000000e+02 1.2500000000e+02 0.0000e+00 0.0000e+00
      -13  1    1    0    0    0 -2.1248842624e+01 +4.0854119606e+01 +4.2257146498e+01 6.2499999967e+01 1.0566000000e-01 0.0000e+00 -1.0000e+00
       13  1    1    0    0    0 +2.1248842637e+01 -4.0854119627e+01 -4.2257146520e+01 6.2500000000e+01 1.0566000000e-01 0.0000e+00 -1.0000e+00
       22  1    1    0    0    0 -1.3268837892e-08 +2.1517591115e-08 +2.1683944137e-08 3.3305588415e-08 0.0000000000e+00 0.0000e+00 1.0000e+00
</event>
<event>
 4      1 +2.4041262e-06 9.11880000e+01 7.81860800e-03 1.13011600e-01
       25 -1    0    0    0    0 +0.0000000000e+00 +0.0000000000e+00 +9.9999998245e-15 1.2500000000e+02 1.2500000000e+02 0.0000e+00 0.0000e+00
      -13  1    1    0    0    0 -2.0387570445e+01 -5.9077028635e+01 +1.4587777875e-01 6.2496246170e+01 1.0566000000e-01 0.0000e+00 -1.0000e+00
       13  1    1    0    0    0 +2.0388799172e+01 +5.9080575687e+01 -1.4586824667e-01 6.2499999974e+01 1.0566000000e-01 0.0000e+00 -1.0000e+00
       22  1    1    0    0    0 -1.2287267849e-03 -3.5470519545e-03 -9.5320864929e-06 3.7538564092e-03 0.0000000000e+00 0.0000e+00 1.0000e+00
</event>
<event>
 4      1 +2.4041262e-06 9.11880000e+01 7.81860800e-03 1.13011600e-01
       25 -1    0    0    0    0 +0.0000000000e+00 +0.0000000000e+00 +9.9999998245e-15 1.2500000000e+02 1.2500000000e+02 0.0000e+00 0.0000e+00
      -11  1    1    0    0    0 -7.5811592769e-01 +4.9140454913e+01 -2.2314487997e+01 5.3974951817e+01 5.1100000000e-04 0.0000e+00 -1.0000e+00
       11  1    1    0    0    0 -3.0230395327e+00 +8.8250345321e+00 +3.5434409184e+00 9.9787762933e+00 5.1100000000e-04 0.0000e+00 1.0000e+00
       22  1    1    0    0    0 +3.7811554604e+00 -5.7965489445e+01 +1.8771047079e+01 6.1046271890e+01 0.0000000000e+00 0.0000e+00 -1.0000e+00
</event>
<event>
 4      1 +2.4041262e-06 9.11880000e+01 7.81860800e-03 1.13011600e-01
       25 -1    0    0    0    0 +0.0000000000e+00 +0.0000000000e+00 +9.9999998245e-15 1.2500000000e+02 1.2500000000e+02 0.0000e+00 0.0000e+00
      -13  1    1    0    0    0 +4.5963513695e+01 +2.6946635064e+01 +3.2672206168e+01 6.2499999619e+01 1.0566000000e-01 0.0000e+00 1.0000e+00
       13  1    1    0    0    0 -4.5963447008e+01 -2.6946597600e+01 -3.2672145064e+01 6.2499902481e+01 1.0566000000e-01 0.0000e+00 1.0000e+00
       22  1    1    0    0    0 -6.6687123966e-05 -3.7463613121e-05 -6.1104376857e-05 9.7900151593e-05 0.0000000000e+00 0.0000e+00 1.0000e+00
</event>
<event>
 4      1 +2.4041262e-06 9.11880000e+01 7.81860800e-03 1.13011600e-01
       25 -1    0    0    0    0 +0.0000000000e+00 +0.0000000000e+00 +9.9999998245e-15 1.2500000000e+02 1.2500000000e+02 0.0000e+00 0.0000e+00
      -13  1    1    0    0    0 +2.0271545864e+00 -6.2236860338e+01 +5.3574806037e+00 6.2499999224e+01 1.0566000000e-01 0.0000e+00 -1.0000e+00
       13  1    1    0    0    0 -2.0209666630e+00 +6.2041521386e+01 -5.3399800382e+00 6.2303781852e+01 1.0566000000e-01 0.0000e+00 -1.0000e+00
       22  1    1    0    0    0 -6.1879234098e-03 +1.9533895222e-01 -1.7500565523e-02 1.9621892479e-01 0.0000000000e+00 0.0000e+00 -1.0000e+00
</event>
<event>
 4      1 +2.4041262e-06 9.11880000e+01 7.81860800e-03 1.13011600e-01
       25 -1    0    0    0    0 +0.0000000000e+00 +0.0000000000e+00 +9.9999998245e-15 1.2500000000e+02 1.2500000000e+02 0.0000e+00 0.0000e+00
      -13  1    1    0    0    0 -7.4188638683e+00 +4.3698233979e-02 -2.3033084263e+00 7.7690311091e+00 1.0566000000e-01 0.0000e+00 -1.0000e+00
       13  1    1    0    0    0 -5.1054157990e+01 +1.1557914271e-01 -1.9744235914e+01 5.4739258513e+01 1.0566000000e-01 0.0000e+00 1.0000e+00
       22  1    1    0    0    0 +5.8473021859e+01 -1.5927737669e-01 +2.2047544340e+01 6.2491710378e+01 0.0000000000e+00 0.0000e+00 1.0000e+00
</event>
<event>
 4      1 +2.4041262e-06 9.11880000e+01 7.81860800e-03 1.13011600e-01
       25 -1    0    0    0    0 +0.0000000000e+00 +0.0000000000e+00 +9.9999998245e-15 1.2500000000e+02 1.2500000000e+02 0.0000e+00 0.0000e+00
      -13  1    1    0    0    0 -4.5976730581e+01 +4.1356704847e+01 +9.0547398635e+00 6.2499890149e+01 1.0566000000e-01 0.0000e+00 -1.0000e+00
       13  1    1    0    0    0 +4.5976811185e+01 -4.1356777481e+01 -9.0547570462e+00 6.2499999996e+01 1.0566000000e-01 0.0000e+00 -1.0000e+00
       22  1    1    0    0    0 -8.0604177550e-05 +7.2634022444e-05 +1.7182707001e-05 1.0985435847e-04 0.0000000000e+00 0.0000e+00 -1.0000e+00
</event>
<event>
 4      1 +2.4041262e-06 9.11880000e+01 7.81860800e-03 1.13011600e-01
       25 -1    0    0    0    0 +0.0000000000e+00 +0.0000000000e+00 +9.9999998245e-15 1.2500000000e+02 1.2500000000e+02 0.0000e+00 0.0000e+00
      -13  1    1    0    0    0 -1.6898643530e+01 -1.0691711318e+01 -5.9214542059e+01 6.2499999994e+01 1.0566000000e-01 0.0000e+00 1.0000e+00
       13  1    1    0    0    0 +1.6898641584e+01 +1.0691709645e+01 +5.9214535094e+01 6.2499992584e+01 1.0566000000e-01 0.0000e+00 1.0000e+00
       22  1    1    0    0    0 +1.9458789462e-06 +1.6722946392e-06 +6.9645105123e-06 7.4220900634e-06 0.0000000000e+00 0.0000e+00 1.0000e+00
</event>
<event>
 4      1 +2.4041262e-06 9.11880000e+01 7.81860800e-03 1.13011600e-01
       25 -1    0    0    0    0 +0.0000000000e+00 +0.0000000000e+00 +9.9999998245e-15 1.2500000000e+02 1.2500000000e+02 0.0000e+00 0.0000e+00
      -13  1    1    0    0    0 -2.9567592129e+00 +6.1783167046e+01 +8.9630731371e+00 6.2499999995e+01 1.0566000000e-01 0.0000e+00 1.0000e+00
       13  1    1    0    0    0 +2.9567255192e+00 -6.1782383705e+01 -8.9629599033e+00 6.2499207806e+01 1.0566000000e-01 0.0000e+00 1.0000e+00
       22  1    1    0    0    0 +3.3693704702e-05 -7.8334091660e-04 -1.1323377844e-04 7.9219956194e-04 0.0000000000e+00 0.0000e+00 1.0000e+00
</event>
<event>
 5      1 +2.4041262e-06 9.11880000e+01 7.81860800e-03 1.13011600e-01
       25 -1    0    0    0    0 +0.0000000000e+00 +0.0000000000e+00 +9.9999998245e-15 1.2500000000e+02 1.2500000000e+02 0.0000e+00 0.0000e+00
       23  2    1    0    0    0 +2.0320409913e+01 -2.3800202820e+01 -1.0401358698e+01 9.2021871247e+01 8.5909649118e+01 0.0000e+00 0.0000e+00
      -13  1    2    2    0    0 -2.4680201123e+01 -3.6894666881e+01 -7.9161554069e+00 4.5088861731e+01 1.0566000000e-01 0.0000e+00 -1.0000e+00
       13  1    2    2    0    0 +4.5000611037e+01 +1.3094464061e+01 -2.4852032910e+00 4.6933009515e+01 1.0566000000e-01 0.0000e+00 1.0000e+00
       22  1    1    0    0    0 -2.0320409913e+01 +2.3800202820e+01 +1.0401358698e+01 3.2978128753e+01 0.0000000000e+00 0.0000e+00 -1.0000e+00
</event>
<event>
 4      1 +2.4041262e-06 9.11880000e+01 7.81860800e-03 1.13011600e-01
       25 -1    0    0    0    0 +0.0000000000e+00 +0.0000000000e+00 +9.9999998245e-15 1.2500000000e+02 1.2500000000e+02 0.0000e+00 0.0000e+00
      -13  1    1    0    0    0 -7.9533004105e+00 -5.2086179674e+01 -3.3536916283e+01 6.2457673814e+01 1.0566000000e-01 0.0000e+00 -1.0000e+00
       13  1    1    0    0    0 +7.9585522261e+00 +5.2121666853e+01 +3.3559380679e+01 6.2499999238e+01 1.0566000000e-01 0.0000e+00 -1.0000e+00
       22  1    1    0    0    0 -5.2518155352e-03 -3.5487179611e-02 -2.2464395916e-02 4.2326948473e-02 0.0000000000e+00 0.0000e+00 1.0000e+00
</event>
<event>
 4      1 +2.4041262e-06 9.11880000e+01 7.81860800e-03 1.13011600e-01
       25 -1    0    0    0    0 +0.0000000000e+00 +0.0000000000e+00 +9.9999998245e-15 1.2500000000e+02 1.2500000000e+02 0.0000e+00 0.0000e+00
      -13  1    1    0    0    0 -4.8219331816e+00 -6.2313263962e+01 -2.1076015001e-01 6.2499995912e+01 1.0566000000e-01 0.0000e+00 1.0000e+00
       13  1    1    0    0    0 +4.8219352436e+00 +6.2313257948e+01 +2.1074761579e-01 6.2499990034e+01 1.0566000000e-01 0.0000e+00 1.0000e+00
       22  1    1    0    0    0 -2.0620263658e-06 +6.0135266897e-06 +1.2534224647e-05 1.4054225112e-05 0.0000000000e+00 0.0000e+00 1.0000e+00
</event>
<event>
 4      1 +2.4041262e-06 9.11880000e+01 7.81860800e-03 1.13011600e-01
       25 -1    0    0    0    0 +0.0000000000e+00 +0.0000000000e+00 +9.9999998245e-15 1.2500000000e+02 1.2500000000e+02 0.0000e+00 0.0000e+00
      -13  1    1    0    0    0 -4.6881154494e+01 -1.7979025678e+01 -3.7217614441e+01 6.2499999998e+01 1.0566000000e-01 0.0000e+00 -1.0000e+00
       13  1    1    0    0    0 +4.6881135137e+01 +1.7979018513e+01 +3.7217598712e+01 6.2499974051e+01 1.0566000000e-01 0.0000e+00 -1.0000e+00
       22  1    1    0    0    0 +1.9357744798e-05 +7.1648711616e-06 +1.5728962026e-05 2.5951067586e-05 0.0000000000e+00 0.0000e+00 1.0000e+00
</event>
<event>
 4      1 +2.4041262e-06 9.11880000e+01 7.81860800e-03 1.13011600e-01
       25 -1    0    0    0    0 +0.0000000000e+00 +0.0000000000e+00 +9.9999998245e-15 1.2500000000e+02 1.2500000000e+02 0.0000e+00 0.0000e+00
      -13  1    1    0    0    0 +4.3474038994e+01 +3.5770378093e+01 -2.7142707038e+01 6.2499997798e+01 1.0566000000e-01 0.0000e+00 -1.0000e+00
       13  1    1    0    0    0 -4.3474040846e+01 -3.5770379333e+01 +2.7142707384e+01 6.2499999946e+01 1.0566000000e-01 0.0000e+00 -1.0000e+00
       22  1    1    0    0    0 +1.8524831142e-06 +1.2398009663e-06 -3.4627663543e-07 2.2558164005e-06 0.0000000000e+00 0.0000e+00 1.0000e+00
</event>
<event>
 4      1 +2.4041262e-06 9.11880000e+01 7.81860800e-03 1.13011600e-01
       25 -1    0    0    0    0 +0.0000000000e+00 +0.0000000000e+00 +9.9999998245e-15 1.2500000000e+02 1.2500000000e+02 0.0000e+00 0.0000e+00
      -11  1    1    0    0    0 +3.0703825169e+00 +2.6241000864e+00 -1.2861429261e+00 4.2387868490e+00 5.1100000000e-04 0.0000e+00 -1.0000e+00
       11  1    1    0    0    0 +4.6124706543e+01 +2.5294293660e+01 -2.5168280243e+01 5.8315796969e+01 5.1100000000e-04 0.0000e+00 1.0000e+00
       22  1    1    0    0    0 -4.9195089060e+01 -2.7918393747e+01 +2.6454423169e+01 6.2445416182e+01 0.0000000000e+00 0.0000e+00 1.0000e+00
</event>
<event>
 4      1 +2.4041262e-06 9.11880000e+01 7.81860800e-03 1.13011600e-01
       25 -1    0    0    0    0 +0.0000000000e+00 +0.0000000000e+00 +9.9999998245e-15 1.2500000000e+02 1.2500000000e+02 0.0000e+00 0.0000e+00
      -13  1    1    0    0    0 +2.3700544076e+01 +1.3499700791e+00 -5.7816093151e+01 6.2500000000e+01 1.0566000000e-01 0.0000e+00 -1.0000e+00
       13  1    1    0    0    0 -2.3700544076e+01 -1.3499700792e+00 +5.7816093151e+01 6.2500000000e+01 1.0566000000e-01 0.0000e+00 -1.0000e+00
       22  1    1    0    0    0 +2.5910247217e-11 +1.8802285910e-11 -8.1874663090e-11 8.7910905595e-11 0.0000000000e+00 0.0000e+00 1.0000e+00
</event>
<event>
 5      1 +2.4041262e-06 9.11880000e+01 7.81860800e-03 1.13011600e-01
       25 -1    0    0    0    0 +0.0000000000e+00 +0.0000000000e+00 +9.9999998245e-15 1.2500000000e+02 1.2500000000e+02 0.0000e+00 0.0000e+00
       23  2    1    0    0    0 +2.4220325407e+01 +1.8055831153e+01 -3.0360547418e+00 9.4637937655e+01 8.9635285540e+01 0.0000e+00 0.0000e+00
      -11  1    2    2    0    0 -1.8907164452e+01 -9.4556991393e+00 +2.7786918788e+01 3.4914237351e+01 5.1100000000e-04 0.0000e+00 1.0000e+00
       11  1    2    2    0    0 +4.3127489859e+01 +2.7511530292e+01 -3.0822973529e+01 5.9723700304e+01 5.1100000000e-04 0.0000e+00 -1.0000e+00
       22  1    1    0    0    0 -2.4220325407e+01 -1.8055831153e+01 +3.0360547418e+00 3.0362062345e+01 0.0000000000e+00 0.0000e+00 -1.0000e+00
</event>
<event>
 5      1 +2.4041262e-06 9.11880000e+01 7.81860800e-03 1.13011600e-01
       25 -1    0    0    0    0 +0.0000000000e+00 +0.0000000000e+00 +9.9999998245e-15 1.2500000000e+02 1.2500000000e+02 0.0000e+00 0.0000e+00
       23  2    1    0    0    0 +2.5291387370e+00 +3.5353216996e-01 -2.8426892268e+01 9.6458631221e+01 9.2139339076e+01 0.0000e+00 0.0000e+00
      -11  1    2    2    0    0 -2.5434853386e+01 +2.3831927830e+01 -4.4532437301e+01 5.6551131935e+01 5.1100000000e-04 0.0000e+00 1.0000e+00
       11  1    2    2    0    0 +2.7963992123e+01 -2.3478395660e+01 +1.6105545033e+01 3.9907499286e+01 5.1100000000e-04 0.0000e+00 -1.0000e+00
       22  1    1    0    0    0 -2.5291387370e+00 -3.5353216996e-01 +2.8426892268e+01 2.8541368779e+01 0.0000000000e+00 0.0000e+00 1.0000e+00
</event>
<event>
 4      1 +2.4041262e-06 9.11880000e+01 7.81860800e-03 1.13011600e-01
       25 -1    0    0    0    0 +0.0000000000e+00 +0.0000000000e+00 +9.9999998245e-15 1.2500000000e+02 1.2500000000e+02 0.0000e+00 0.0000e+00
      -13  1    1    0    0    0 +3.9692232182e+01 -4.2304079796e+01 +2.3262209090e+01 6.2499999990e+01 1.0566000000e-01 0.0000e+00 -1.0000e+00
       13  1    1    0    0    0 -3.9692232195e+01 +4.2304079789e+01 -2.3262209093e+01 6.2499999995e+01 1.0566000000e-01 0.0000e+00 -1.0000e+00
       22  1    1    0    0    0 +1.3404378306e-08 +6.6735460570e-09 +2.4967073174e-09 1.5180484912e-08 0.0000000000e+00 0.0000e+00 -1.0000e+00
</event>
<event>
 5      1 +2.4041262e-06 9.11880000e+01 7.81860800e-03 1.13011600e-01
       25 -1    0    0    0    0 +0.0000000000e+00 +0.0000000000e+00 +9.9999998245e-15 1.2500000000e+02 1.2500000000e+02 0.0000e+00 0.0000e+00
       23  2    1    0    0    0 +2.8447804183e+01 +8.4564191973e+00 -4.3586591192e+00 9.5003558582e+01 9.0143716616e+01 0.0000e+00 0.0000e+00
      -11  1    2    2    0    0 -6.3200333597e+00 +4.4056412223e+01 +3.4181585889e+00 4.4638482143e+01 5.1100000000e-04 0.0000e+00 -1.0000e+00
       11  1    2    2    0    0 +3.4767837542e+01 -3.5599993025e+01 -7.7768177081e+00 5.0365076439e+01 5.1100000000e-04 0.0000e+00 1.0000e+00
       22  1    1    0    0    0 -2.8447804183e+01 -8.4564191973e+00 +4.3586591192e+00 2.9996441418e+01 0.0000000000e+00 0.0000e+00 1.0000e+00
</event>
<event>
 4      1 +2.4041262e-06 9.11880000e+01 7.81860800e-03 1.13011600e-01
       25 -1    0    0    0    0 +0.0000000000e+00 +0.0000000000e+00 +9.9999998245e-15 1.2500000000e+02 1.2500000000e+02 0.0000e+00 0.0000e+00
      -13  1    1    0    0    0 -1.7481519117e+01 -6.0002610409e+01 +5.6117338897e-01 6.2499942769e+01 1.0566000000e-01 0.0000e+00 1.0000e+00
       13  1    1    0    0    0 +1.7095176818e+01 +5.8625211438e+01 -5.3793838135e-01 6.1069313311e+01 1.0566000000e-01 0.0000e+00 1.0000e+00
       22  1    1    0    0    0 +3.8634229914e-01 +1.3773989713e+00 -2.3235007629e-02 1.4307439197e+00 0.0000000000e+00 0.0000e+00 -1.0000e+00
</event>
<event>
 4      1 +2.4041262e-06 9.11880000e+01 7.81860800e-03 1.13011600e-01
       25 -1    0    0    0    0 +0.0000000000e+00 +0.0000000000e+00 +9.9999998245e-15 1.2500000000e+02 1.2500000000e+02 0.0000e+00 0.0000e+00
      -11  1    1    0    0    0 +5.6182212131e+00 +9.3147828868e+00 -1.9001696298e+01 2.1895069132e+01 5.1100000000e-04 0.0000e+00 -1.0000e+00
       11  1    1    0    0    0 +1.0473852397e+01 +1.7221101820e+01 -3.5249021547e+01 4.0604943692e+01 5.1100000000e-04 0.0000e+00 1.0000e+00
       22  1    1    0    0    0 -1.6092073610e+01 -2.6535884706e+01 +5.4250717846e+01 6.2499987176e+01 0.0000000000e+00 0.0000e+00 1.0000e+00
</event>
<event>
 4      1 +2.4041262e-06 9.11880000e+01 7.81860800e-03 1.13011600e-01
       25 -1    0    0    0    0 +0.0000000000e+00 +0.0000000000e+00 +9.9999998245e-15 1.2500000000e+02 1.2500000000e+02 0.0000e+00 0.0000e+00
      -11  1    1    0    0    0 -2.1995695283e+00 -3.1047191331e+01 +1.9594849998e+01 3.6779401060e+01 5.1100000000e-04 0.0000e+00 1.0000e+00
       11  1    1    0    0    0 -1.4509009583e+00 -2.1727404427e+01 +1.3688183640e+01 2.5720645177e+01 5.1100000000e-04 0.0000e+00 -1.0000e+00
       22  1    1    0    0    0 +3.6504704867e+00 +5.2774595758e+01 -3.3283033637e+01 6.2499953762e+01 0.0000000000e+00 0.0000e+00 -1.0000e+00
</event>
<event>
 4      1 +2.4041262e-06 9.11880000e+01 7.81860800e-03 1.13011600e-01
       25 -1    0    0    0    0 +0.0000000000e+00 +0.0000000000e+00 +9.9999998245e-15 1.2500000000e+02 1.2500000000e+02 0.0000e+00 0.0000e+00
      -13  1    1    0    0    0 -4.6688365283e+01 -2.2669695015e+01 +3.4821262339e+01 6.2499999998e+01 1.0566000000e-01 0.0000e+00 -1.0000e+00
       13  1    1    0    0    0 +4.6688365231e+01 +2.2669694965e+01 -3.4821262303e+01 6.2499999921e+01 1.0566000000e-01 0.0000e+00 -1.0000e+00
       22  1    1    0    0    0 +5.1541188397e-08 +5.0137359956e-08 -3.6642555700e-08 8.0702700408e-08 0.0000000000e+00 0.0000e+00 1.0000e+00
</event>
<event>
 4      1 +2.4041262e-06 9.11880000e+01 7.81860800e-03 1.13011600e-01
       25 -1    0    0    0    0 +0.0000000000e+00 +0.0000000000e+00 +9.9999998245e-15 1.2500000000e+02 1.2500000000e+02 0.0000e+00 0.0000e+00
      -11  1    1    0    0    0 +2.1835499888e+01 +2.1621490908e+01 +5.3169622303e+01 6.1410802474e+01 5.1100000000e-04 0.0000e+00 1.0000e+00
       11  1    1    0    0    0 +3.8701197044e-01 +3.8367780426e-01 +9.4306110769e-01 1.0891976114e+00 5.1100000000e-04 0.0000e+00 1.0000e+00
       22  1    1    0    0    0 -2.2222511858e+01 -2.2005168712e+01 -5.4112683411e+01 6.2499999914e+01 0.0000000000e+00 0.0000e+00 1.0000e+00
</event>
<event>
 4      1 +2.4041262e-06 9.11880000e+01 7.81860800e-03 1.13011600e-01
       25 -1    0    0    0    0 +0.0000000000e+00 +0.0000000000e+00 +9.9999998245e-15 1.2500000000e+02 1.2500000000e+02 0.0000e+00 0.0000e+00
      -13  1    1    0    0    0 +1.8955427535e+01 -3.2333308164e+01 +5.0014874338e+01 6.2499998952e+01 1.0566000000e-01 0.0000e+00 1.0000e+00
       13  1    1    0    0    0 -1.8955427876e+01 +3.2333308705e+01 -5.0014875169e+01 6.2500000000e+01 1.0566000000e-01 0.0000e+00 1.0000e+00
       22  1    1    0    0    0 +3.4095895162e-07 -5.4046918175e-07 +8.3140635955e-07 1.0486164589e-06 0.0000000000e+00 0.0000e+00 -1.0000e+00
</event>
<event>
 4      1 +2.4041262e-06 9.11880000e+01 7.81860800e-03 1.13011600e-01
       25 -1    0    0    0    0 +0.0000000000e+00 +0.0000000000e+00 +9.9999998245e-15 1.2500000000e+02 1.2500000000e+02 0.0000e+00 0.0000e+00
      -13  1    1    0    0    0 +1.2354170570e+01 -5.7313517492e+01 +2.1650852946e+01 6.2499883320e+01 1.0566000000e-01 0.0000e+00 1.0000e+00
       13  1    1    0    0    0 -1.2354201014e+01 +5.7313637522e+01 -2.1650788510e+01 6.2499977087e+01 1.0566000000e-01 0.0000e+00 1.0000e+00
       22  1    1    0    0    0 +3.0444384399e-05 -1.2003035048e-04 -6.4435376193e-05 1.3959249006e-04 0.0000000000e+00 0.0000e+00 -1.0000e+00
</event>
<event>
 5      1 +2.4041262e-06 9.11880000e+01 7.81860800e-03 1.13011600e-01
       25 -1    0    0    0    0 +0.0000000000e+00 +0.0000000000e+00 +9.9999998245e-15 1.2500000000e+02 1.2500000000e+02 0.0000e+00 0.0000e+00
       23  2    1    0    0    0 -1.6308757368e+01 -1.5297922118e+00 -2.3389876284e+01 9.6444752782e+01 9.2120509093e+01 0.0000e+00 0.0000e+00
      -13  1    2    2    0    0 -3.9049186773e+01 +6.2923547494e-01 -4.8650914199e+01 6.2387158465e+01 1.0566000000e-01 0.0000e+00 1.0000e+00
       13  1    2    2    0    0 +2.2740429405e+01 -2.1590276868e+00 +2.5261037915e+01 3.4057594317e+01 1.0566000000e-01 0.0000e+00 1.0000e+00
       22  1    1    0    0    0 +1.6308757368e+01 +1.5297922118e+00 +2.3389876284e+01 2.8555247218e+01 0.0000000000e+00 0.0000e+00 1.0000e+00
</event>
<event>
 4      1 +2.4041262e-06 9.11880000e+01 7.81860800e-03 1.13011600e-01
       25 -1    0    0    0    0 +0.0000000000e+00 +0.0000000000e+00 +9.9999998245e-15 1.2500000000e+02 1.2500000000e+02 0.0000e+00 0.0000e+00
      -13  1    1    0    0    0 -5.5736015955e+01 +2.1933631552e+01 -1.7850786964e+01 6.2499995415e+01 1.0566000000e-01 0.0000e+00 1.0000e+00
       13  1    1    0    0    0 +5.5286888405e+01 -2.1754728708e+01 +1.7708897335e+01 6.1996164877e+01 1.0566000000e-01 0.0000e+00 1.0000e+00
       22  1    1    0    0    0 +4.4912755052e-01 -1.7890284489e-01 +1.4188962833e-01 5.0383970782e-01 0.0000000000e+00 0.0000e+00 1.0000e+00
</event>
<event>
 4      1 +2.4041262e-06 9.11880000e+01 7.81860800e-03 1.13011600e-01
       25 -1    0    0    0    0 +0.0000000000e+00 +0.0000000000e+00 +9.9999998245e-15 1.2500000000e+02 1.2500000000e+02 0.0000e+00 0.0000e+00
      -13  1    1    0    0    0 +4.1071571200e+01 +3.0392116333e+01 -3.5995611782e+01 6.2499999421e+01 1.0566000000e-01 0.0000e+00 -1.0000e+00
       13  1    1    0    0    0 -4.1071571649e+01 -3.0392116537e+01 +3.5995612094e+01 6.2499999995e+01 1.0566000000e-01 0.0000e+00 -1.0000e+00
       22  1    1    0    0    0 +4.4905766304e-07 +2.0398473288e-07 -3.1213518080e-07 5.8368735388e-07 0.0000000000e+00 0.0000e+00 1.0000e+00
</event>
<event>
 4      1 +2.4041262e-06 9.11880000e+01 7.81860800e-03 1.13011600e-01
       25 -1    0    0    0    0 +0.0000000000e+00 +0.0000000000e+00 +9.9999998245e-15 1.2500000000e+02 1.2500000000e+02 0.0000e+00 0.0000e+00
      -11  1    1    0    0    0 +1.9756901010e+01 +3.4277087693e+01 +2.1282700153e+01 4.4924461091e+01 5.1100000000e-04 0.0000e+00 1.0000e+00
       11  1    1    0    0    0 +7.7295490484e+00 +1.3409762736e+01 +8.3265780971e+00 1.7575538916e+01 5.1100000000e-04 0.0000e+00 1.0000e+00
       22  1    1    0    0    0 -2.7486450058e+01 -4.7686850429e+01 -2.9609278250e+01 6.2499999993e+01 0.0000000000e+00 0.0000e+00 1.0000e+00
</event>
<event>
 4      1 +2.4041262e-06 9.11880000e+01 7.81860800e-03 1.13011600e-01
       25 -1    0    0    0    0 +0.0000000000e+00 +0.0000000000e+00 +9.9999998245e-15 1.2500000000e+02 1.2500000000e+02 0.0000e+00 0.0000e+00
      -13  1    1    0    0    0 -3.7444244979e+01 -4.3264852927e+00 -4.9834515872e+01 6.2484238759e+01 1.0566000000e-01 0.0000e+00 1.0000e+00
       13  1    1    0    0    0 +3.7452130480e+01 +4.3265056637e+00 +4.9848252980e+01 6.2499921744e+01 1.0566000000e-01 0.0000e+00 1.0000e+00
       22  1    1    0    0    0 -7.8855012589e-03 -2.0371005066e-05 -1.3737107988e-02 1.5839497497e-02 0.0000000000e+00 0.0000e+00 -1.0000e+00
</event>
<event>
 4      1 +2.4041262e-06 9.11880000e+01 7.81860800e-03 1.13011600e-01
       25 -1    0    0    0    0 +0.0000000000e+00 +0.0000000000e+00 +9.9999998245e-15 1.2500000000e+02 1.2500000000e+02 0.0000e+00 0.0000e+00
      -13  1    1    0    0    0 +5.9004502110e+01 -6.0042449780e+00 -1.9681869125e+01 6.2489754066e+01 1.0566000000e-01 0.0000e+00 1.0000e+00
       13  1    1    0    0    0 -5.9012779437e+01 +6.0064022540e+00 +1.9688015346e+01 6.2499712937e+01 1.0566000000e-01 0.0000e+00 1.0000e+00
       22  1    1    0    0    0 +8.2773270472e-03 -2.1572760689e-03 -6.1462210193e-03 1.0532996530e-02 0.0000000000e+00 0.0000e+00 -1.0000e+00
</event>
<event>
 4      1 +2.4041262e-06 9.11880000e+01 7.81860800e-03 1.13011600e-01
       25 -1    0    0    0    0 +0.0000000000e+00 +0.0000000000e+00 +9.9999998245e-15 1.2500000000e+02 1.2500000000e+02 0.0000e+00 0.0000e+00
      -13  1    1    0    0    0 +3.0048211034e+01 +3.9619870737e+01 -3.7861785057e+01 6.2499240597e+01 1.0566000000e-01 0.0000e+00 1.0000e+00
       13  1    1    0    0    0 -3.0048808412e+01 -3.9620372763e+01 +3.7861969259e+01 6.2499957641e+01 1.0566000000e-01 0.0000e+00 1.0000e+00
       22  1    1    0    0    0 +5.9737870326e-04 +5.0202606124e-04 -1.8420230680e-04 8.0176179199e-04 0.0000000000e+00 0.0000e+00 -1.0000e+00
</event>
<event>
 4      1 +2.4041262e-06 9.11880000e+01 7.81860800e-03 1.13011600e-01
       25 -1    0    0    0    0 +0.0000000000e+00 +0.0000000000e+00 +9.9999998245e-15 1.2500000000e+02 1.2500000000e+02 0.0000e+00 0.0000e+00
      -13  1    1    0    0    0 +1.4370562608e+01 +3.6917988581e+01 -4.8242057292e+01 6.2424019466e+01 1.0566000000e-01 0.0000e+00 -1.0000e+00
       13  1    1    0    0    0 -1.4388177341e+01 -3.6965214451e+01 +4.8298950008e+01 6.2499971700e+01 1.0566000000e-01 0.0000e+00 -1.0000e+00
       22  1    1    0    0    0 +1.7614732642e-02 +4.7225870254e-02 -5.6892716071e-02 7.6008833495e-02 0.0000000000e+00 0.0000e+00 -1.0000e+00
</event>
<event>
 4      1 +2.4041262e-06 9.11880000e+01 7.81860800e-03 1.13011600e-01
       25 -1    0    0    0    0 +0.0000000000e+00 +0.0000000000e+00 +9.9999998245e-15 1.2500000000e+02 1.2500000000e+02 0.0000e+00 0.0000e+00
      -13  1    1    0    0    0 -1.7877866823e+01 +7.9955248594e+00 +1.3812560026e+01 2.3965485984e+01 1.0566000000e-01 0.0000e+00 1.0000e+00
       13  1    1    0    0    0 -1.9093526420e+01 +2.2404628871e+01 +2.5615254261e+01 3.9021565331e+01 1.0566000000e-01 0.0000e+00 -1.0000e+00
       22  1    1    0    0    0 +3.6971393243e+01 -3.0400153730e+01 -3.9427814287e+01 6.2012948685e+01 0.0000000000e+00 0.0000e+00 -1.0000e+00
</event>
<event>
 4      1 +2.4041262e-06 9.11880000e+01 7.81860800e-03 1.13011600e-01
       25 -1    0    0    0    0 +0.0000000000e+00 +0.0000000000e+00 +9.9999998245e-15 1.2500000000e+02 1.2500000000e+02 0.0000e+00 0.0000e+00
      -13  1    1    0    0    0 +2.1204402539e+00 -6.1857446759e+01 -4.6306983963e+00 6.2066855229e+01 1.0566000000e-01 0.0000e+00 -1.0000e+00
       13  1    1    0    0    0 -1.9735258168e+00 +6.2266640955e+01 +4.7599289046e+00 6.2479576401e+01 1.0566000000e-01 0.0000e+00 -1.0000e+00
       22  1    1    0    0    0 -1.4691443710e-01 -4.0919419652e-01 -1.2923050831e-01 4.5356837034e-01 0.0000000000e+00 0.0000e+00 -1.0000e+00
</event>
<event>
 4      1 +2.4041262e-06 9.11880000e+01 7.81860800e-03 1.13011600e-01
       25 -1    0    0    0    0 +0.0000000000e+00 +0.0000000000e+00 +9.9999998245e-15 1.2500000000e+02 1.2500000000e+02 0.0000e+00 0.0000e+00
      -13  1    1    0    0    0 -5.9287451253e+01 +1.7095406717e+01 -9.9488969352e+00 6.2499972169e+01 1.0566000000e-01 0.0000e+00 -1.0000e+00
       13  1    1    0    0    0 +5.9286776495e+01 -1.7094942099e+01 +9.9489177230e+00 6.2499208318e+01 1.0566000000e-01 0.0000e+00 -1.0000e+00
       22  1    1    0    0    0 +6.7475773195e-04 -4.6461847327e-04 -2.0787787462e-05 8.1951232733e-04 0.0000000000e+00 0.0000e+00 1.0000e+00
</event>
<event>
 4      1 +2.4041262e-06 9.11880000e+01 7.81860800e-03 1.13011600e-01
       25 -1    0    0    0    0 +0.0000000000e+00 +0.0000000000e+00 +9.9999998245e-15 1.2500000000e+02 1.2500000000e+02 0.0000e+00 0.0000e+00
      -13  1    1    0    0    0 +3.4976271027e+01 +3.3016164317e+01 +3.9909726405e+01 6.2499632534e+01 1.0566000000e-01 0.0000e+00 1.0000e+00
       13  1    1    0    0    0 -3.4449286434e+01 -3.2562703919e+01 -3.9354538877e+01 6.1610663984e+01 1.0566000000e-01 0.0000e+00 1.0000e+00
       22  1    1    0    0    0 -5.2698459253e-01 -4.5346039818e-01 -5.5518752823e-01 8.8970348150e-01 0.0000000000e+00 0.0000e+00 1.0000e+00
</event>
<event>
 4      1 +2.4041262e-06 9.11880000e+01 7.81860800e-03 1.13011600e-01
       25 -1    0    0    0    0 +0.0000000000e+00 +0.0000000000e+00 +9.9999998245e-15 1.2500000000e+02 1.2500000000e+02 0.0000e+00 0.0000e+00
      -13  1    1    0    0    0 +2.3086426596e+01 -1.7705390355e+01 -5.5315231734e+01 6.2499999732e+01 1.0566000000e-01 0.0000e+00 1.0000e+00
       13  1    1    0    0    0 -2.3086426742e+01 +1.7705390490e+01 +5.5315231925e+01 6.2499999993e+01 1.0566000000e-01 0.0000e+00 1.0000e+00
       22  1    1    0    0    0 +1.4607435607e-07 -1.3441017839e-07 -1.9103859547e-07 2.7549874504e-07 0.0000000000e+00 0.0000e+00 1.0000e+00
</event>
<event>
 4      1 +2.4041262e-06 9.11880000e+01 7.81860800e-03 1.13011600e-01
       25 -1    0    0    0    0 +0.0000000000e+00 +0.0000000000e+00 +9.9999998245e-15 1.2500000000e+02 1.2500000000e+02 0.0000e+00 0.0000e+00
      -13  1    1    0    0    0 +1.0347383430e+01 +5.1311148378e+01 -3.4151551815e+01 6.2499935577e+01 1.0566000000e-01 0.0000e+00 -1.0000e+00
       13  1    1    0    0    0 -1.0345347824e+01 -5.1307021601e+01 +3.4148573168e+01 6.2494582971e+01 1.0566000000e-01 0.0000e+00 -1.0000e+00
       22  1    1    0    0    0 -2.0356060481e-03 -4.1267768745e-03 +2.9786467029e-03 5.4814519551e-03 0.0000000000e+00 0.0000e+00 1.0000e+00
</event>
<event>
 4      1 +2.4041262e-06 9.11880000e+01 7.81860800e-03 1.13011600e-01
       25 -1    0    0    0    0 +0.0000000000e+00 +0.0000000000e+00 +9.9999998245e-15 1.2500000000e+02 1.2500000000e+02 0.0000e+00 0.0000e+00
      -11  1    1    0    0    0 +2.6392355932e+01 +4.4643500700e+01 -3.2065379488e+00 5.1960374250e+01 5.1100000000e-04 0.0000e+00 -1.0000e+00
       11  1    1    0    0    0 +5.3543617923e+00 +9.0548507492e+00 -6.5130592903e-01 1.0539625798e+01 5.1100000000e-04 0.0000e+00 1.0000e+00
       22  1    1    0    0    0 -3.1746717724e+01 -5.3698351449e+01 +3.8578438778e+00 6.2499999952e+01 0.0000000000e+00 0.0000e+00 -1.0000e+00
</event>
<event>
 4      1 +2.4041262e-06 9.11880000e+01 7.81860800e-03 1.13011600e-01
       25 -1    0    0    0    0 +0.0000000000e+00 +0.0000000000e+00 +9.9999998245e-15 1.2500000000e+02 1.2500000000e+02 0.0000e+00 0.0000e+00
      -11  1    1    0    0    0 +7.7500787106e+00 -4.3567259926e+01 +2.6343619188e+01 5.1499088630e+01 5.1100000000e-04 0.0000e+00 1.0000e+00
       11  1    1    0    0    0 +2.3320131347e+00 -1.0364314431e+01 +3.3191847976e+00 1.1129882608e+01 5.1100000000e-04 0.0000e+00 -1.0000e+00
       22  1    1    0    0    0 -1.0082091845e+01 +5.3931574357e+01 -2.9662803985e+01 6.2371028763e+01 0.0000000000e+00 0.0000e+00 1.0000e+00
</event>
<event>
 4      1 +2.4041262e-06 9.11880000e+01 7.81860800e-03 1.13011600e-01
       25 -1    0    0    0    0 +0.0000000000e+00 +0.0000000000e+00 +9.9999998245e-15 1.2500000000e+02 1.2500000000e+02 0.0000e+00 0.0000e+00
      -11  1    1    0    0    0 +1.0537430794e+00 +4.6824676941e+00 -3.3079282267e+00 5.8290880589e+00 5.1100000000e-04 0.0000e+00 -1.0000e+00
       11  1    1    0    0    0 +1.0236258937e+01 +4.5509584511e+01 -3.2182122629e+01 5.6670912262e+01 5.1100000000e-04 0.0000e+00 -1.0000e+00
       22  1    1    0    0    0 -1.1290002017e+01 -5.0192052205e+01 +3.5490050856e+01 6.2499999679e+01 0.0000000000e+00 0.0000e+00 -1.0000e+00
</event>
<event>
 5      1 +2.4041262e-06 9.11880000e+01 7.81860800e-03 1.13011600e-01
       25 -1    0    0    0    0 +0.0000000000e+00 +0.0000000000e+00 +9.9999998245e-15 1.2500000000e+02 1.2500000000e+02 0.0000e+00 0.0000e+00
       23  2    1    0    0    0 +1.1850666418e+01 -1.8568735136e+01 +1.9114470886e+01 9.5834965861e+01 9.1289328320e+01 0.0000e+00 0.0000e+00
      -11  1    2    2    0    0 +1.7811351112e+01 -3.9203237132e+01 +4.4943916852e+01 6.2242217926e+01 5.1100000000e-04 0.0000e+00 -1.0000e+00
       11  1    2    2    0    0 -5.9606846944e+00 +2.0634501996e+01 -2.5829445966e+01 3.3592747935e+01 5.1100000000e-04 0.0000e+00 1.0000e+00
       22  1    1    0    0    0 -1.1850666418e+01 +1.8568735136e+01 -1.9114470886e+01 2.9165034139e+01 0.0000000000e+00 0.0000e+00 -1.0000e+00
</event>
<event>
 4      1 +2.4041262e-06 9.11880000e+01 7.81860800e-03 1.13011600e-01
       25 -1    0    0    0    0 +0.0000000000e+00 +0.0000000000e+00 +9.9999998245e-15 1.2500000000e+02 1.2500000000e+02 0.0000e+00 0.0000e+00
      -11  1    1    0    0    0 +2.6627235944e+01 -1.4155308623e+01 +2.0151266615e+01 3.6269215634e+01 5.1100000000e-04 0.0000e+00 -1.0000e+00
       11  1    1    0    0    0 +1.4534201247e+01 -2.5419868924e+01 -7.9439217033e+00 3.0340050004e+01 5.1100000000e-04 0.0000e+00 1.0000e+00
       22  1    1    0    0    0 -4.1161437191e+01 +3.9575177547e+01 -1.2207344912e+01 5.8390734362e+01 0.0000000000e+00 0.0000e+00 -1.0000e+00
</event>
<event>
 4      1 +2.4041262e-06 9.11880000e+01 7.81860800e-03 1.13011600e-01
       25 -1    0    0    0    0 +0.0000000000e+00 +0.0000000000e+00 +9.9999998245e-15 1.2500000000e+02 1.2500000000e+02 0.0000e+00 0.0000e+00
      -13  1    1    0    0    0 +1.7163726889e+01 +1.4333459120e+01 -5.8343105666e+01 6.2481763050e+01 1.0566000000e-01 0.0000e+00 1.0000e+00
       13  1    1    0    0    0 -1.7168939709e+01 -1.4337966569e+01 +5.8359992919e+01 6.2499997709e+01 1.0566000000e-01 0.0000e+00 1.0000e+00
       22  1    1    0    0    0 +5.2128202093e-03 +4.5074482326e-03 -1.6887253761e-02 1.8239241314e-02 0.0000000000e+00 0.0000e+00 -1.0000e+00
</event>
<event>
 4      1 +2.4041262e-06 9.11880000e+01 7.81860800e-03 1.13011600e-01
       25 -1    0    0    0    0 +0.0000000000e+00 +0.0000000000e+00 +9.9999998245e-15 1.2500000000e+02 1.2500000000e+02 0.0000e+00 0.0000e+00
      -11  1    1    0    0    0 -1.5500894187e+01 +1.9906407861e+00 -1.6714564174e+00 1.5717319687e+01 5.1100000000e-04 0.0000e+00 1.0000e+00
       11  1    1    0    0    0 -1.1124253139e+01 -1.1979026471e+01 -4.8737339045e+01 5.1405975339e+01 5.1100000000e-04 0.0000e+00 -1.0000e+00
       22  1    1    0    0    0 +2.6625147326e+01 +9.9883856854e+00 +5.0408795462e+01 5.7876704974e+01 0.0000000000e+00 0.0000e+00 -1.0000e+00
</event>
<event>
 4      1 +2.4041262e-06 9.11880000e+01 7.81860800e-03 1.13011600e-01
       25 -1    0    0    0    0 +0.0000000000e+00 +0.0000000000e+00 +9.9999998245e-15 1.2500000000e+02 1.2500000000e+02 0.0000e+00 0.0000e+00
      -13  1    1    0    0    0 -5.9642161177e+00 -5.9815197048e+01 -1.7111667487e+01 6.2500000000e+01 1.0566000000e-01 0.0000e+00 -1.0000e+00
       13  1    1    0    0    0 +5.9642161153e+00 +5.9815197044e+01 +1.7111667484e+01 6.2499999995e+01 1.0566000000e-01 0.0000e+00 -1.0000e+00
       22  1    1    0    0    0 +2.3242131291e-09 +3.7170280730e-09 +2.7948798718e-09 5.1990016217e-09 0.0000000000e+00 0.0000e+00 -1.0000e+00
</event>
<event>
 4      1 +2.4041262e-06 9.11880000e+01 7.81860800e-03 1.13011600e-01
       25 -1    0    0    0    0 +0.0000000000e+00 +0.0000000000e+00 +9.9999998245e-15 1.2500000000e+02 1.2500000000e+02 0.0000e+00 0.0000e+00
      -13  1    1    0    0    0 +5.9738058836e+01 -7.2185687527e+00 +1.3831341665e+00 6.0188600519e+01 1.0566000000e-01 0.0000e+00 -1.0000e+00
       13  1    1    0    0    0 -6.2039027875e+01 +7.4425115432e+00 -1.2719989404e+00 6.2496888748e+01 1.0566000000e-01 0.0000e+00 -1.0000e+00
       22  1    1    0    0    0 +2.3009690396e+00 -2.2394279050e-01 -1.1113522609e-01 2.3145107330e+00 0.0000000000e+00 0.0000e+00 -1.0000e+00
</event>
<event>
 4      1 +2.4041262e-06 9.11880000e+01 7.81860800e-03 1.13011600e-01
       25 -1    0    0    0    0 +0.0000000000e+00 +0.0000000000e+00 +9.9999998245e-15 1.2500000000e+02 1.2500000000e+02 0.0000e+00 0.0000e+00
      -11  1    1    0    0    0 +1.9150288040e+01 -5.9689400507e+00 +3.3923863501e-01 2.0061825950e+01 5.1100000000e-04 0.0000e+00 -1.0000e+00
       11  1    1    0    0    0 +3.3551064987e+01 -2.4854004341e+01 -1.0478703955e+01 4.3048794761e+01 5.1100000000e-04 0.0000e+00 1.0000e+00
       22  1    1    0    0    0 -5.2701353027e+01 +3.0822944392e+01 +1.0139465320e+01 6.1889379289e+01 0.0000000000e+00 0.0000e+00 1.0000e+00
</event>
<event>
 4      1 +2.4041262e-06 9.11880000e+01 7.81860800e-03 1.13011600e-01
       25 -1    0    0    0    0 +0.0000000000e+00 +0.0000000000e+00 +9.9999998245e-15 1.2500000000e+02 1.2500000000e+02 0.0000e+00 0.0000e+00
      -13  1    1    0    0    0 +5.4037935127e+01 -2.7772321979e+01 -1.4649399602e+01 6.2498130961e+01 1.0566000000e-01 0.0000e+00 -1.0000e+00
       13  1    1    0    0    0 -5.2722528381e+01 +2.7202572045e+01 +1.4259851814e+01 6.1016386836e+01 1.0566000000e-01 0.0000e+00 -1.0000e+00
       22  1    1    0    0    0 -1.3154067462e+00 +5.6974993467e-01 +3.8954778786e-01 1.4854822029e+00 0.0000000000e+00 0.0000e+00 -1.0000e+00
</event>
<event>
 4      1 +2.4041262e-06 9.11880000e+01 7.81860800e-03 1.13011600e-01
       25 -1    0    0    0    0 +0.0000000000e+00 +0.0000000000e+00 +9.9999998245e-15 1.2500000000e+02 1.2500000000e+02 0.0000e+00 0.0000e+00
      -13  1    1    0    0    0 -1.4329383697e+01 +2.7017555133e+01 -7.9967430818e+00 3.1610735304e+01 1.0566000000e-01 0.0000e+00 -1.0000e+00
       13  1    1    0    0    0 -1.5065350778e+01 +2.5427725832e+01 -9.0283279684e+00 3.0903978790e+01 1.0566000000e-01 0.0000e+00 1.0000e+00
       22  1    1    0    0    0 +2.9394734476e+01 -5.2445280966e+01 +1.7025071050e+01 6.2485285906e+01 0.0000000000e+00 0.0000e+00 1.0000e+00
</event>
<event>
 4      1 +2.4041262e-06 9.11880000e+01 7.81860800e-03 1.13011600e-01
       25 -1    0    0    0    0 +0.0000000000e+00 +0.0000000000e+00 +9.9999998245e-15 1.2500000000e+02 1.2500000000e+02 0.0000e+00 0.0000e+00
      -13  1    1    0    0    0 +2.0097803127e+01 +4.4408603438e+01 +3.9117560368e+01 6.2499923544e+01 1.0566000000e-01 0.0000e+00 -1.0000e+00
       13  1    1    0    0    0 -2.0097819920e+01 -4.4408651081e+01 -3.9117618690e+01 6.2499999299e+01 1.0566000000e-01 0.0000e+00 -1.0000e+00
       22  1    1    0    0    0 +1.6792598650e-05 +4.7642670950e-05 +5.8321859360e-05 7.7157337589e-05 0.0000000000e+00 0.0000e+00 -1.0000e+00
</event>
<event>
 4      1 +2.4041262e-06 9.11880000e+01 7.81860800e-03 1.13011600e-01
       25 -1    0    0    0    0 +0.0000000000e+00 +0.0000000000e+00 +9.9999998245e-15 1.2500000000e+02 1.2500000000e+02 0.0000e+00 0.0000e+00
      -13  1    1    0    0    0 -4.2503296078e+01 +4.5800474658e+01 +1.4219884167e+00 6.2499974972e+01 1.0566000000e-01 0.0000e+00 -1.0000e+00
       13  1    1    0    0    0 +4.2503257800e+01 -4.5800355267e+01 -1.4220898494e+00 6.2499863757e+01 1.0566000000e-01 0.0000e+00 -1.0000e+00
       22  1    1    0    0    0 +3.8278757560e-05 -1.1939133203e-04 +1.0143276018e-04 1.6127045074e-04 0.0000000000e+00 0.0000e+00 -1.0000e+00
</event>
<event>
 4      1 +2.4041262e-06 9.11880000e+01 7.81860800e-03 1.13011600e-01
       25 -1    0    0    0    0 +0.0000000000e+00 +0.0000000000e+00 +9.9999998245e-15 1.2500000000e+02 1.2500000000e+02 0.0000e+00 0.0000e+00
      -13  1    1    0    0    0 -6.6460519419e+00 -2.2408267487e+01 -6.8510819112e-01 2.3383348679e+01 1.0566000000e-01 0.0000e+00 -1.0000e+00
       13  1    1    0    0    0 +2.4654999080e+01 -1.6929371264e+01 +3.5258964768e+01 4.6235033811e+01 1.0566000000e-01 0.0000e+00 1.0000e+00
       22  1    1    0    0    0 -1.8008947138e+01 +3.9337638750e+01 -3.4573856577e+01 5.5381617510e+01 0.0000000000e+00 0.0000e+00 1.0000e+00
</event>
<event>
 5      1 +2.4041262e-06 9.11880000e+01 7.81860800e-03 1.13011600e-01
       25 -1    0    0    0    0 +0.0000000000e+00 +0.0000000000e+00 +9.9999998245e-15 1.2500000000e+02 1.2500000000e+02 0.0000e+00 0.0000e+00
       23  2    1    0    0    0 -1.0501145231e+01 -2.0207380644e+01 +1.5734193356e+01 9.7320095300e+01 9.3300717173e+01 0.0000e+00 0.0000e+00
      -13  1    2    2    0    0 +1.4622584221e+00 +3.2772159383e+01 -1.3691714527e+01 3.5547529324e+01 1.0566000000e-01 0.0000e+00 -1.0000e+00
       13  1    2    2    0    0 -1.1963403653e+01 -5.2979540027e+01 +2.9425907883e+01 6.1772565976e+01 1.0566000000e-01 0.0000e+00 1.0000e+00
       22  1    1    0    0    0 +1.0501145231e+01 +2.0207380644e+01 -1.5734193356e+01 2.7679904700e+01 0.0000000000e+00 0.0000e+00 1.0000e+00
</event>
<event>
 4      1 +2.4041262e-06 9.11880000e+01 7.81860800e-03 1.13011600e-01
       25 -1    0    0    0    0 +0.0000000000e+00 +0.0000000000e+00 +9.9999998245e-15 1.2500000000e+02 1.2500000000e+02 0.0000e+00 0.0000e+00
      -11  1    1    0    0    0 -4.1904082220e-01 +2.0879441747e+00 +4.9975398266e+00 5.4323577448e+00 5.1100000000e-04 0.0000e+00 1.0000e+00
       11  1    1    0    0    0 -9.0051872988e-01 +2.2848405570e+01 +5.2291742192e+01 5.7072645574e+01 5.1100000000e-04 0.0000e+00 -1.0000e+00
       22  1    1    0    0    0 +1.3195595521e+00 -2.4936349745e+01 -5.7289282019e+01 6.2494996681e+01 0.0000000000e+00 0.0000e+00 -1.0000e+00
</event>
<event>
 4      1 +2.4041262e-06 9.11880000e+01 7.81860800e-03 1.13011600e-01
       25 -1    0    0    0    0 +0.0000000000e+00 +0.0000000000e+00 +9.9999998245e-15 1.2500000000e+02 1.2500000000e+02 0.0000e+00 0.0000e+00
      -13  1    1    0    0    0 -1.7383445159e+01 +3.1084213148e+01 +5.1359759343e+01 6.2499988132e+01 1.0566000000e-01 0.0000e+00 1.0000e+00
       13  1    1    0    0    0 +1.7382167088e+01 -3.1082588052e+01 -5.1356296808e+01 6.2495979059e+01 1.0566000000e-01 0.0000e+00 1.0000e+00
       22  1    1    0    0    0 +1.2780708134e-03 -1.6250963471e-03 -3.4625354012e-03 4.0328097582e-03 0.0000000000e+00 0.0000e+00 -1.0000e+00
</event>
<event>
 4      1 +2.4041262e-06 9.11880000e+01 7.81860800e-03 1.13011600e-01
       25 -1    0    0    0    0 +0.0000000000e+00 +0.0000000000e+00 +9.9999998245e-15 1.2500000000e+02 1.2500000000e+02 0.0000e+00 0.0000e+00
      -13  1    1    0    0    0 -3.5358379532e+00 -4.2690171908e+01 +4.5511200849e+01 6.2499867955e+01 1.0566000000e-01 0.0000e+00 -1.0000e+00
       13  1    1    0    0    0 +3.5354860487e+00 +4.2690229307e+01 -4.5510851679e+01 6.2499632994e+01 1.0566000000e-01 0.0000e+00 -1.0000e+00
       22  1    1    0    0    0 +3.5190456046e-04 -5.7398363108e-05 -3.4917079076e-04 4.9905073177e-04 0.0000000000e+00 0.0000e+00 1.0000e+00
</event>
<event>
 4      1 +2.4041262e-06 9.11880000e+01 7.81860800e-03 1.13011600e-01
       25 -1    0    0    0    0 +0.0000000000e+00 +0.0000000000e+00 +9.9999998245e-15 1.2500000000e+02 1.2500000000e+02 0.0000e+00 0.0000e+00
      -13  1    1    0    0    0 +1.3377275423e+01 +3.4322204049e+00 -6.0756903949e+01 6.2306854969e+01 1.0566000000e-01 0.0000e+00 1.0000e+00
       13  1    1    0    0    0 -1.3418714511e+01 -3.4422122093e+00 +6.0945287156e+01 6.2499999317e+01 1.0566000000e-01 0.0000e+00 1.0000e+00
       22  1    1    0    0    0 +4.1439087806e-02 +9.9918043522e-03 -1.8838320701e-01 1.9314571400e-01 0.0000000000e+00 0.0000e+00 -1.0000e+00
</event>
<event>
 4      1 +2.4041262e-06 9.11880000e+01 7.81860800e-03 1.13011600e-01
       25 -1    0    0    0    0 +0.0000000000e+00 +0.0000000000e+00 +9.9999998245e-15 1.2500000000e+02 1.2500000000e+02 0.0000e+00 0.0000e+00
      -13  1    1    0    0    0 +2.9889775457e+01 -5.4880267419e+01 +9.9815455545e-01 6.2499999243e+01 1.0566000000e-01 0.0000e+00 1.0000e+00
       13  1    1    0    0    0 -2.9889775196e+01 +5.4880268199e+01 -9.9815405644e-01 6.2499999795e+01 1.0566000000e-01 0.0000e+00 1.0000e+00
       22  1    1    0    0    0 -2.6142527030e-07 -7.7939012193e-07 -4.9901325806e-07 9.6166853206e-07 0.0000000000e+00 0.0000e+00 1.0000e+00
</event>
<event>
 4      1 +2.4041262e-06 9.11880000e+01 7.81860800e-03 1.13011600e-01
       25 -1    0    0    0    0 +0.0000000000e+00 +0.0000000000e+00 +9.9999998245e-15 1.2500000000e+02 1.2500000000e+02 0.0000e+00 0.0000e+00
      -13  1    1    0    0    0 +5.3428988960e+01 -7.7414545505e+00 +3.1490501610e+01 6.2499998684e+01 1.0566000000e-01 0.0000e+00 -1.0000e+00
       13  1    1    0    0    0 -5.3006211841e+01 +7.6792549895e+00 -3.1242407125e+01 6.2005875673e+01 1.0566000000e-01 0.0000e+00 -1.0000e+00
       22  1    1    0    0    0 -4.2277711870e-01 +6.2199561000e-02 -2.4809448480e-01 4.9412564279e-01 0.0000000000e+00 0.0000e+00 1.0000e+00
</event>
<event>
 4      1 +2.4041262e-06 9.11880000e+01 7.81860800e-03 1.13011600e-01
       25 -1    0    0    0    0 +0.0000000000e+00 +0.0000000000e+00 +9.9999998245e-15 1.2500000000e+02 1.2500000000e+02 0.0000e+00 0.0000e+00
      -13  1    1    0    0    0 -2.3619097977e+01 -2.1902037452e+01 -5.3560039228e+01 6.2500000000e+01 1.0566000000e-01 0.0000e+00 1.0000e+00
       13  1    1    0    0    0 +2.3619097701e+01 +2.1902037195e+01 +5.3560038595e+01 6.2499999262e+01 1.0566000000e-01 0.0000e+00 1.0000e+00
       22  1    1    0    0    0 +2.7673718239e-07 +2.5684120216e-07 +6.3367296259e-07 7.3762612126e-07 0.0000000000e+00 0.0000e+00 -1.0000e+00
</event>
<event>
 4      1 +2.4041262e-06 9.11880000e+01 7.81860800e-03 1.13011600e-01
       25 -1    0    0    0    0 +0.0000000000e+00 +0.0000000000e+00 +9.9999998245e-15 1.2500000000e+02 1.2500000000e+02 0.0000e+00 0.0000e+00
      -13  1    1    0    0    0 -1.6621551092e+01 +4.5831971416e+01 +3.9103714987e+01 6.2497657991e+01 1.0566000000e-01 0.0000e+00 -1.0000e+00
       13  1    1    0    0    0 +1.6622175761e+01 -4.5833693551e+01 -3.9105174125e+01 6.2499999992e+01 1.0566000000e-01 0.0000e+00 -1.0000e+00
       22  1    1    0    0    0 -6.2466893265e-04 +1.7221352088e-03 +1.4591381884e-03 2.3420173368e-03 0.0000000000e+00 0.0000e+00 1.0000e+00
</event>
<event>
 5      1 +2.4041262e-06 9.11880000e+01 7.81860800e-03 1.13011600e-01
       25 -1    0    0    0    0 +0.0000000000e+00 +0.0000000000e+00 +9.9999998245e-15 1.2500000000e+02 1.2500000000e+02 0.0000e+00 0.0000e+00
       23  2    1    0    0    0 +2.2813828686e+00 +2.1790845904e+01 -1.7864667710e+01 9.6730015469e+01 9.2506777413e+01 0.0000e+00 0.0000e+00
      -11  1    2    2    0    0 +4.1624517004e+01 -1.1580065628e+01 -1.1781826933e+01 4.4782918416e+01 5.1100000000e-04 0.0000e+00 -1.0000e+00
       11  1    2    2    0    0 -3.9343134135e+01 +3.3370911532e+01 -6.0828407769e+00 5.1947097053e+01 5.1100000000e-04 0.0000e+00 1.0000e+00
       22  1    1    0    0    0 -2.2813828686e+00 -2.1790845904e+01 +1.7864667710e+01 2.8269984531e+01 0.0000000000e+00 0.0000e+00 1.0000e+00
</event>
<event>
 4      1 +2.4041262e-06 9.11880000e+01 7.81860800e-03 1.13011600e-01
       25 -1    0    0    0    0 +0.0000000000e+00 +0.0000000000e+00 +9.9999998245e-15 1.2500000000e+02 1.2500000000e+02 0.0000e+00 0.0000e+00
      -11  1    1    0    0    0 -1.8776581682e+01 +2.6769372654e+00 -2.8905815280e+00 1.9185449554e+01 5.1100000000e-04 0.0000e+00 -1.0000e+00
       11  1    1    0    0    0 -4.0492273427e+01 +4.0542980091e+00 +1.7663092146e+01 4.4362668585e+01 5.1100000000e-04 0.0000e+00 1.0000e+00
       22  1    1    0    0    0 +5.9268855109e+01 -6.7312352745e+00 -1.4772510618e+01 6.1451881860e+01 0.0000000000e+00 0.0000e+00 1.0000e+00
</event>
<event>
 5      1 +2.4041262e-06 9.11880000e+01 7.81860800e-03 1.13011600e-01
       25 -1    0    0    0    0 +0.0000000000e+00 +0.0000000000e+00 +9.9999998245e-15 1.2500000000e+02 1.2500000000e+02 0.0000e+00 0.0000e+00
       23  2    1    0    0    0 -4.2825435488e+00 +3.2187840892e+01 -4.7048452587e+00 9.2189439971e+01 8.6153119460e+01 0.0000e+00 0.0000e+00
      -13  1    2    2    0    0 -1.4869257471e+00 -2.5935785168e+01 +1.5900129539e+01 3.0458187468e+01 1.0566000000e-01 0.0000e+00 1.0000e+00
       13  1    2    2    0    0 -2.7956178017e+00 +5.8123626059e+01 -2.0604974797e+01 6.1731252503e+01 1.0566000000e-01 0.0000e+00 -1.0000e+00
       22  1    1    0    0    0 +4.2825435488e+00 -3.2187840892e+01 +4.7048452587e+00 3.2810560029e+01 0.0000000000e+00 0.0000e+00 -1.0000e+00
</event>
<event>
 4      1 +2.4041262e-06 9.11880000e+01 7.81860800e-03 1.13011600e-01
       25 -1    0    0    0    0 +0.0000000000e+00 +0.0000000000e+00 +9.9999998245e-15 1.2500000000e+02 1.2500000000e+02 0.0000e+00 0.0000e+00
      -13  1    1    0    0    0 -8.1820073228e+00 +3.0097576825e+01 -5.4161143465e+01 6.2500000000e+01 1.0566000000e-01 0.0000e+00 1.0000e+00
       13  1    1    0    0    0 +8.1820073090e+00 -3.0097576770e+01 +5.4161143377e+01 6.2499999896e+01 1.0566000000e-01 0.0000e+00 1.0000e+00
       22  1    1    0    0    0 +1.3724442458e-08 -5.4602299901e-08 +8.7327937282e-08 1.0390351344e-07 0.0000000000e+00 0.0000e+00 -1.0000e+00
</event>
<event>
 4      1 +2.4041262e-06 9.11880000e+01 7.81860800e-03 1.13011600e-01
       25 -1    0    0    0    0 +0.0000000000e+00 +0.0000000000e+00 +9.9999998245e-15 1.2500000000e+02 1.2500000000e+02 0.0000e+00 0.0000e+00
      -13  1    1    0    0    0 +4.4634419469e+01 +4.3615289447e+01 +3.4225664390e+00 6.2500000000e+01 1.0566000000e-01 0.0000e+00 -1.0000e+00
       13  1    1    0    0    0 -4.4634419468e+01 -4.3615289446e+01 -3.4225664388e+00 6.2499999998e+01 1.0566000000e-01 0.0000e+00 -1.0000e+00
       22  1    1    0    0    0 -1.5448025064e-09 -1.1401934121e-09 -1.8480978851e-10 1.9288883997e-09 0.0000000000e+00 0.0000e+00 1.0000e+00
</event>
<event>
 5      1 +2.4041262e-06 9.11880000e+01 7.81860800e-03 1.13011600e-01
       25 -1    0    0    0    0 +0.0000000000e+00 +0.0000000000e+00 +9.9999998245e-15 1.2500000000e+02 1.2500000000e+02 0.0000e+00 0.0000e+00
       23  2    1    0    0    0 -2.1795581758e+01 +1.5562669281e+01 -9.5685887550e+00 9.6560556438e+01 9.2277511397e+01 0.0000e+00 0.0000e+00
      -11  1    2    2    0    0 +2.3994355583e+01 +3.6160092985e+01 -1.5323086625e+01 4.6022585852e+01 5.1100000000e-04 0.0000e+00 1.0000e+00
       11  1    2    2    0    0 -4.5789937342e+01 -2.0597423704e+01 +5.7544978703e+00 5.0537970586e+01 5.1100000000e-04 0.0000e+00 -1.0000e+00
       22  1    1    0    0    0 +2.1795581758e+01 -1.5562669281e+01 +9.5685887550e+00 2.8439443562e+01 0.0000000000e+00 0.0000e+00 -1.0000e+00
</event>
<event>
 4      1 +2.4041262e-06 9.11880000e+01 7.81860800e-03 1.13011600e-01
       25 -1    0    0    0    0 +0.0000000000e+00 +0.0000000000e+00 +9.9999998245e-15 1.2500000000e+02 1.2500000000e+02 0.0000e+00 0.0000e+00
      -13  1    1    0    0    0 +5.8594278254e+01 -9.8514419199e+00 -1.6486438160e+01 6.1661610093e+01 1.0566000000e-01 0.0000e+00 1.0000e+00
       13  1    1    0    0    0 -5.9148054581e+01 +1.0683178736e+01 +1.5872649758e+01 6.2165704717e+01 1.0566000000e-01 0.0000e+00 1.0000e+00
       22  1    1    0    0    0 +5.5377632692e-01 -8.3173681589e-01 +6.1378840238e-01 1.1726851897e+00 0.0000000000e+00 0.0000e+00 1.0000e+00
</event>
<event>
 4      1 +2.4041262e-06 9.11880000e+01 7.81860800e-03 1.13011600e-01
       25 -1    0    0    0    0 +0.0000000000e+00 +0.0000000000e+00 +9.9999998245e-15 1.2500000000e+02 1.2500000000e+02 0.0000e+00 0.0000e+00
      -13  1    1    0    0    0 -4.2977749397e+01 -5.5172420412e+00 +4.5040024815e+01 6.2499135213e+01 1.0566000000e-01 0.0000e+00 -1.0000e+00
       13  1    1    0    0    0 +3.4788554839e+01 +4.6420514892e+00 -3.6549836611e+01 5.0672417646e+01 1.0566000000e-01 0.0000e+00 -1.0000e+00
       22  1    1    0    0    0 +8.1891945583e+00 +8.7519055197e-01 -8.4901882048e+00 1.1828447141e+01 0.0000000000e+00 0.0000e+00 -1.0000e+00
</event>
<event>
 4      1 +2.4041262e-06 9.11880000e+01 7.81860800e-03 1.13011600e-01
       25 -1    0    0    0    0 +0.0000000000e+00 +0.0000000000e+00 +9.9999998245e-15 1.2500000000e+02 1.2500000000e+02 0.0000e+00 0.0000e+00
      -13  1    1    0    0    0 -3.0289123769e+00 +6.1751735495e+01 -9.1535414110e+00 6.2499997050e+01 1.0566000000e-01 0.0000e+00 1.0000e+00
       13  1    1    0    0    0 +3.0289125224e+00 -6.1751738409e+01 +9.1535418490e+00 6.2500000000e+01 1.0566000000e-01 0.0000e+00 1.0000e+00
       22  1    1    0    0    0 -1.4545232364e-07 +2.9135755966e-06 -4.3802742042e-07 2.9499062962e-06 0.0000000000e+00 0.0000e+00 -1.0000e+00
</event>
<event>
 4      1 +2.4041262e-06 9.11880000e+01 7.81860800e-03 1.13011600e-01
       25 -1    0    0    0    0 +0.0000000000e+00 +0.0000000000e+00 +9.9999998245e-15 1.2500000000e+02 1.2500000000e+02 0.0000e+00 0.0000e+00
      -13  1    1    0    0    0 +2.7410383637e+01 -5.0942053959e+01 +2.3652513483e+01 6.2496996335e+01 1.0566000000e-01 0.0000e+00 -1.0000e+00
       13  1    1    0    0    0 -2.7384862314e+01 +5.0857780028e+01 -2.3646183425e+01 6.2414722846e+01 1.0566000000e-01 0.0000e+00 -1.0000e+00
       22  1    1    0    0    0 -2.5521323239e-02 +8.4273931600e-02 -6.3300584012e-03 8.8280819698e-02 0.0000000000e+00 0.0000e+00 1.0000e+00
</event>
<event>
 4      1 +2.4041262e-06 9.11880000e+01 7.81860800e-03 1.13011600e-01
       25 -1    0    0    0    0 +0.0000000000e+00 +0.0000000000e+00 +9.9999998245e-15 1.2500000000e+02 1.2500000000e+02 0.0000e+00 0.0000e+00
      -11  1    1    0    0    0 -2.5758803404e+00 +5.8787772056e+00 -2.2799810435e+01 2.3685998757e+01 5.1100000000e-04 0.0000e+00 1.0000e+00
       11  1    1    0    0    0 -4.2224278669e+00 +9.6332500817e+00 -3.7361722240e+01 3.8814001252e+01 5.1100000000e-04 0.0000e+00 -1.0000e+00
       22  1    1    0    0    0 +6.7983082072e+00 -1.5512027287e+01 +6.0161532675e+01 6.2499999991e+01 0.0000000000e+00 0.0000e+00 -1.0000e+00
</event>
<event>
 4      1 +2.4041262e-06 9.11880000e+01 7.81860800e-03 1.13011600e-01
       25 -1    0    0    0    0 +0.0000000000e+00 +0.0000000000e+00 +9.9999998245e-15 1.2500000000e+02 1.2500000000e+02 0.0000e+00 0.0000e+00
      -11  1    1    0    0    0 -3.2719184180e+01 -3.9370197540e+01 -1.8537757224e+01 5.4444521404e+01 5.1100000000e-04 0.0000e+00 -1.0000e+00
       11  1    1    0    0    0 -4.8362619244e+00 -5.8322134047e+00 -2.7361731936e+00 8.0554817737e+00 5.1100000000e-04 0.0000e+00 1.0000e+00
       22  1    1    0    0    0 +3.7555446104e+01 +4.5202410945e+01 +2.1273930418e+01 6.2499996822e+01 0.0000000000e+00 0.0000e+00 -1.0000e+00
</event>
<event>
 4      1 +2.4041262e-06 9.11880000e+01 7.81860800e-03 1.13011600e-01
       25 -1    0    0    0    0 +0.0000000000e+00 +0.0000000000e+00 +9.9999998245e-15 1.2500000000e+02 1.2500000000e+02 0.0000e+00 0.0000e+00
      -13  1    1    0    0    0 +3.2395654013e+01 -2.4094556118e+00 +5.3394241213e+01 6.2499920272e+01 1.0566000000e-01 0.0000e+00 -1.0000e+00
       13  1    1    0    0    0 -2.2960121060e+01 +1.7238140137e+00 -3.7948355439e+01 4.4387245222e+01 1.0566000000e-01 0.0000e+00 -1.0000e+00
       22  1    1    0    0    0 -9.4355329522e+00 +6.8564159815e-01 -1.5445885774e+01 1.8112834506e+01 0.0000000000e+00 0.0000e+00 -1.0000e+00
</event>
<event>
 4      1 +2.4041262e-06 9.11880000e+01 7.81860800e-03 1.13011600e-01
       25 -1    0    0    0    0 +0.0000000000e+00 +0.0000000000e+00 +9.9999998245e-15 1.2500000000e+02 1.2500000000e+02 0.0000e+00 0.0000e+00
      -13  1    1    0    0    0 -4.0578469147e+01 -4.6598996720e+00 -4.7306574720e+01 6.2499999992e+01 1.0566000000e-01 0.0000e+00 -1.0000e+00
       13  1    1    0    0    0 +4.0578469148e+01 +4.6598996757e+00 +4.7306574728e+01 6.2499999999e+01 1.0566000000e-01 0.0000e+00 -1.0000e+00
       22  1    1    0    0    0 -1.6530040288e-09 -3.6824202788e-09 -7.8964474895e-09 8.8682875677e-09 0.0000000000e+00 0.0000e+00 1.0000e+00
</event>
<event>
 4      1 +2.4041262e-06 9.11880000e+01 7.81860800e-03 1.13011600e-01
       25 -1    0    0    0    0 +0.0000000000e+00 +0.0000000000e+00 +9.9999998245e-15 1.2500000000e+02 1.2500000000e+02 0.0000e+00 0.0000e+00
      -13  1    1    0    0    0 -2.6259480012e+01 -3.2783370242e+00 -4.8186582414e+01 5.4975136862e+01 1.0566000000e-01 0.0000e+00 -1.0000e+00
       13  1    1    0    0    0 +2.7099198329e+01 +1.6000186387e+01 +4.7849444352e+01 5.7270873953e+01 1.0566000000e-01 0.0000e+00 -1.0000e+00
       22  1    1    0    0    0 -8.3971831652e-01 -1.2721849363e+01 +3.3713806236e-01 1.2753989185e+01 0.0000000000e+00 0.0000e+00 -1.0000e+00
</event>
<event>
 4      1 +2.4041262e-06 9.11880000e+01 7.81860800e-03 1.13011600e-01
       25 -1    0    0    0    0 +0.0000000000e+00 +0.0000000000e+00 +9.9999998245e-15 1.2500000000e+02 1.2500000000e+02 0.0000e+00 0.0000e+00
      -13  1    1    0    0    0 -6.1258517656e+01 -1.1821394279e+01 +3.7265884045e+00 6.2499999786e+01 1.0566000000e-01 0.0000e+00 -1.0000e+00
       13  1    1    0    0    0 +6.1258515919e+01 +1.1821394236e+01 -3.7265870218e+00 6.2499997993e+01 1.0566000000e-01 0.0000e+00 -1.0000e+00
       22  1    1    0    0    0 +1.7369401601e-06 +4.3634559118e-08 -1.3827092515e-06 2.2205292091e-06 0.0000000000e+00 0.0000e+00 1.0000e+00
</event>
<event>
 4      1 +2.4041262e-06 9.11880000e+01 7.81860800e-03 1.13011600e-01
       25 -1    0    0    0    0 +0.0000000000e+00 +0.0000000000e+00 +9.9999998245e-15 1.2500000000e+02 1.2500000000e+02 0.0000e+00 0.0000e+00
      -13  1    1    0    0    0 +2.7349630300e+01 -1.9452175094e+00 +5.6164514345e+01 6.2499999875e+01 1.0566000000e-01 0.0000e+00 1.0000e+00
       13  1    1    0    0    0 -2.7349628142e+01 +1.9452189795e+00 -5.6164508585e+01 6.2499993800e+01 1.0566000000e-01 0.0000e+00 1.0000e+00
       22  1    1    0    0    0 -2.1578723339e-06 -1.4701349613e-06 -5.7602564930e-06 6.3244181297e-06 0.0000000000e+00 0.0000e+00 1.0000e+00
</event>
<event>
 5      1 +2.4041262e-06 9.11880000e+01 7.81860800e-03 1.13011600e-01
       25 -1    0    0    0    0 +0.0000000000e+00 +0.0000000000e+00 +9.9999998245e-15 1.2500000000e+02 1.2500000000e+02 0.0000e+00 0.0000e+00
       23  2    1    0    0    0 -7.8924350168e+00 -2.1488845968e+01 +2.9582616824e+01 8.7594221707e+01 7.9205778998e+01 0.0000e+00 0.0000e+00
      -13  1    2    2    0    0 -4.3343391380e+01 -1.2548182068e+01 +1.0400049996e+01 4.6306356513e+01 1.0566000000e-01 0.0000e+00 -1.0000e+00
       13  1    2    2    0    0 +3.5450956364e+01 -8.9406639003e+00 +1.9182566828e+01 4.1287865193e+01 1.0566000000e-01 0.0000e+00 1.0000e+00
       22  1    1    0    0    0 +7.8924350168e+00 +2.1488845968e+01 -2.9582616824e+01 3.7405778293e+01 0.0000000000e+00 0.0000e+00 -1.0000e+00
</event>
<event>
 4      1 +2.4041262e-06 9.11880000e+01 7.81860800e-03 1.13011600e-01
       25 -1    0    0    0    0 +0.0000000000e+00 +0.0000000000e+00 +9.9999998245e-15 1.2500000000e+02 1.2500000000e+02 0.0000e+00 0.0000e+00
      -11  1    1    0    0    0 +1.3311114018e+01 +2.4821282897e-01 +1.3365299649e+01 1.8864744922e+01 5.1100000000e-04 0.0000e+00 1.0000e+00
       11  1    1    0    0    0 +2.5922893663e+01 +1.0878446774e+01 +3.3682353022e+01 4.3872974887e+01 5.1100000000e-04 0.0000e+00 -1.0000e+00
       22  1    1    0    0    0 -3.9234007681e+01 -1.1126659603e+01 -4.7047652672e+01 6.2262280191e+01 0.0000000000e+00 0.0000e+00 -1.0000e+00
</event>
<event>
 4      1 +2.4041262e-06 9.11880000e+01 7.81860800e-03 1.13011600e-01
       25 -1    0    0    0    0 +0.0000000000e+00 +0.0000000000e+00 +9.9999998245e-15 1.2500000000e+02 1.2500000000e+02 0.0000e+00 0.0000e+00
      -13  1    1    0    0    0 +3.2628875999e+01 +5.3070272498e+01 +4.8087093669e+00 6.2483855689e+01 1.0566000000e-01 0.0000e+00 -1.0000e+00
       13  1    1    0    0    0 -2.2695674015e+01 -3.5113816252e+01 -3.2559284350e+00 4.1936689721e+01 1.0566000000e-01 0.0000e+00 -1.0000e+00
       22  1    1    0    0    0 -9.9332019841e+00 -1.7956456246e+01 -1.5527809319e+00 2.0579454589e+01 0.0000000000e+00 0.0000e+00 -1.0000e+00
</event>
<event>
 4      1 +2.4041262e-06 9.11880000e+01 7.81860800e-03 1.13011600e-01
       25 -1    0    0    0    0 +0.0000000000e+00 +0.0000000000e+00 +9.9999998245e-15 1.2500000000e+02 1.2500000000e+02 0.0000e+00 0.0000e+00
      -11  1    1    0    0    0 -2.5822901229e+00 +3.4500555291e-01 +5.5105009066e-01 2.6628758090e+00 5.1100000000e-04 0.0000e+00 -1.0000e+00
       11  1    1    0    0    0 -5.8025764030e+01 +7.7544209964e+00 +1.2383904801e+01 5.9837124218e+01 5.1100000000e-04 0.0000e+00 -1.0000e+00
       22  1    1    0    0    0 +6.0608054153e+01 -8.0994265493e+00 -1.2934954891e+01 6.2499999973e+01 0.0000000000e+00 0.0000e+00 -1.0000e+00
</event>
<event>
 4      1 +2.4041262e-06 9.11880000e+01 7.81860800e-03 1.13011600e-01
       25 -1    0    0    0    0 +0.0000000000e+00 +0.0000000000e+00 +9.9999998245e-15 1.2500000000e+02 1.2500000000e+02 0.0000e+00 0.0000e+00
      -13  1    1    0    0    0 +5.8761367295e+01 -1.7584517542e+01 +1.2005219376e+01 6.2499999999e+01 1.0566000000e-01 0.0000e+00 -1.0000e+00
       13  1    1    0    0    0 -5.8761366590e+01 +1.7584517309e+01 -1.2005219188e+01 6.2499999234e+01 1.0566000000e-01 0.0000e+00 -1.0000e+00
       22  1    1    0    0    0 -7.0551990586e-07 +2.3315542993e-07 -1.8822926536e-07 7.6651813312e-07 0.0000000000e+00 0.0000e+00 1.0000e+00
</event>
<event>
 4      1 +2.4041262e-06 9.11880000e+01 7.81860800e-03 1.13011600e-01
       25 -1    0    0    0    0 +0.0000000000e+00 +0.0000000000e+00 +9.9999998245e-15 1.2500000000e+02 1.2500000000e+02 0.0000e+00 0.0000e+00
      -13  1    1    0    0    0 -2.4215790428e+01 +1.4952674183e-01 +5.7617808795e+01 6.2499999350e+01 1.0566000000e-01 0.0000e+00 1.0000e+00
       13  1    1    0    0    0 +2.4206714691e+01 -1.4923391526e-01 -5.7596054892e+01 6.2476427635e+01 1.0566000000e-01 0.0000e+00 1.0000e+00
       22  1    1    0    0    0 +9.0757366104e-03 -2.9282657375e-04 -2.1753903633e-02 2.3573015626e-02 0.0000000000e+00 0.0000e+00 -1.0000e+00
</event>
<event>
 4      1 +2.4041262e-06 9.11880000e+01 7.81860800e-03 1.13011600e-01
       25 -1    0    0    0    0 +0.0000000000e+00 +0.0000000000e+00 +9.9999998245e-15 1.2500000000e+02 1.2500000000e+02 0.0000e+00 0.0000e+00
      -13  1    1    0    0    0 -6.0580458131e+00 +6.2194729237e+01 -1.1632373113e+00 6.2499988392e+01 1.0566000000e-01 0.0000e+00 1.0000e+00
       13  1    1    0    0    0 +6.0580471707e+00 -6.2194740764e+01 +1.1632375539e+00 6.2499999999e+01 1.0566000000e-01 0.0000e+00 1.0000e+00
       22  1    1    0    0    0 -1.3576034214e-06 +1.1527309522e-05 -2.4259623799e-07 1.1609513547e-05 0.0000000000e+00 0.0000e+00 -1.0000e+00
</event>
<event>
 5      1 +2.4041262e-06 9.11880000e+01 7.81860800e-03 1.13011600e-01
       25 -1    0    0    0    0 +0.0000000000e+00 +0.0000000000e+00 +9.9999998245e-15 1.2500000000e+02 1.2500000000e+02 0.0000e+00 0.0000e+00
       23  2    1    0    0    0 -1.4034812759e+00 -1.3870476137e+01 +2.5963945807e+01 9.5529907536e+01 9.0870660194e+01 0.0000e+00 0.0000e+00
      -11  1    2    2    0    0 -3.2560516352e+01 -2.9375225517e+01 +3.8683605056e+01 5.8476597026e+01 5.1100000000e-04 0.0000e+00 1.0000e+00
       11  1    2    2    0    0 +3.1157035076e+01 +1.5504749380e+01 -1.2719659250e+01 3.7053310510e+01 5.1100000000e-04 0.0000e+00 -1.0000e+00
       22  1    1    0    0    0 +1.4034812759e+00 +1.3870476137e+01 -2.5963945807e+01 2.9470092464e+01 0.0000000000e+00 0.0000e+00 1.0000e+00
</event>
<event>
 4      1 +2.4041262e-06 9.11880000e+01 7.81860800e-03 1.13011600e-01
       25 -1    0    0    0    0 +0.0000000000e+00 +0.0000000000e+00 +9.9999998245e-15 1.2500000000e+02 1.2500000000e+02 0.0000e+00 0.0000e+00
      -11  1    1    0    0    0 +1.0846344847e+01 +1.1266368169e+01 +3.1409085881e+00 1.5951161565e+01 5.1100000000e-04 0.0000e+00 1.0000e+00
       11  1    1    0    0    0 +3.1637318228e+01 +3.2881006824e+01 +9.2040241344e+00 4.6548840747e+01 5.1100000000e-04 0.0000e+00 -1.0000e+00
       22  1    1    0    0    0 -4.2483663075e+01 -4.4147374993e+01 -1.2344932722e+01 6.2499997687e+01 0.0000000000e+00 0.0000e+00 -1.0000e+00
</event>
<event>
 4      1 +2.4041262e-06 9.11880000e+01 7.81860800e-03 1.13011600e-01
       25 -1    0    0    0    0 +0.0000000000e+00 +0.0000000000e+00 +9.9999998245e-15 1.2500000000e+02 1.2500000000e+02 0.0000e+00 0.0000e+00
      -11  1    1    0    0    0 -2.2594922855e+01 -1.7616262497e+00 +1.9500383788e+00 2.2747230948e+01 5.1100000000e-04 0.0000e+00 1.0000e+00
       11  1    1    0    0    0 -3.9486623003e+01 -3.0783035708e+00 +3.4078289763e+00 3.9752769056e+01 5.1100000000e-04 0.0000e+00 1.0000e+00
       22  1    1    0    0    0 +6.2081545858e+01 +4.8399298205e+00 -5.3578673550e+00 6.2499999995e+01 0.0000000000e+00 0.0000e+00 1.0000e+00
</event>
<event>
 4      1 +2.4041262e-06 9.11880000e+01 7.81860800e-03 1.13011600e-01
       25 -1    0    0    0    0 +0.0000000000e+00 +0.0000000000e+00 +9.9999998245e-15 1.2500000000e+02 1.2500000000e+02 0.0000e+00 0.0000e+00
      -11  1    1    0    0    0 +2.5496633659e+00 +1.4419927234e+00 +2.6083398079e-01 2.9407755644e+00 5.1100000000e-04 0.0000e+00 1.0000e+00
       11  1    1    0    0    0 +5.1590061492e+01 +2.9270863941e+01 +5.3836507143e+00 5.9559227798e+01 5.1100000000e-04 0.0000e+00 -1.0000e+00
       22  1    1    0    0    0 -5.4139724858e+01 -3.0712856664e+01 -5.6444846951e+00 6.2499996637e+01 0.0000000000e+00 0.0000e+00 -1.0000e+00
</event>
<event>
 4      1 +2.4041262e-06 9.11880000e+01 7.81860800e-03 1.13011600e-01
       25 -1    0    0    0    0 +0.0000000000e+00 +0.0000000000e+00 +9.9999998245e-15 1.2500000000e+02 1.2500000000e+02 0.0000e+00 0.0000e+00
      -13  1    1    0    0    0 -4.7688385228e+01 +1.8755241553e+01 -3.5411768089e+01 6.2289209776e+01 1.0566000000e-01 0.0000e+00 1.0000e+00
       13  1    1    0    0    0 +4.6316221995e+01 -1.6951583733e+01 +3.2698677535e+01 5.9175698454e+01 1.0566000000e-01 0.0000e+00 1.0000e+00
       22  1    1    0    0    0 +1.3721632324e+00 -1.8036578195e+00 +2.7130905539e+00 3.5350917697e+00 0.0000000000e+00 0.0000e+00 1.0000e+00
</event>
<event>
 4      1 +2.4041262e-06 9.11880000e+01 7.81860800e-03 1.13011600e-01
       25 -1    0    0    0    0 +0.0000000000e+00 +0.0000000000e+00 +9.9999998245e-15 1.2500000000e+02 1.2500000000e+02 0.0000e+00 0.0000e+00
      -11  1    1    0    0    0 -4.3995809660e+01 -8.3270536024e+00 -3.2370763737e+00 4.4893760736e+01 5.1100000000e-04 0.0000e+00 -1.0000e+00
       11  1    1    0    0    0 -1.7222698531e+01 -3.0870397859e+00 -2.0091893093e+00 1.7612154930e+01 5.1100000000e-04 0.0000e+00 1.0000e+00
       22  1    1    0    0    0 +6.1218508191e+01 +1.1414093388e+01 +5.2462656830e+00 6.2494084333e+01 0.0000000000e+00 0.0000e+00 -1.0000e+00
</event>
<event>
 4      1 +2.4041262e-06 9.11880000e+01 7.81860800e-03 1.13011600e-01
       25 -1    0    0    0    0 +0.0000000000e+00 +0.0000000000e+00 +9.9999998245e-15 1.2500000000e+02 1.2500000000e+02 0.0000e+00 0.0000e+00
      -11  1    1    0    0    0 +1.6651890017e+00 -3.1295594589e+01 +1.2598386143e+01 3.3777306417e+01 5.1100000000e-04 0.0000e+00 -1.0000e+00
       11  1    1    0    0    0 -1.1311348337e+00 -2.7245643009e+01 +9.1598806658e+00 2.8766437788e+01 5.1100000000e-04 0.0000e+00 1.0000e+00
       22  1    1    0    0    0 -5.3405416805e-01 +5.8541237598e+01 -2.1758266809e+01 6.2456255795e+01 0.0000000000e+00 0.0000e+00 -1.0000e+00
</event>
<event>
 5      1 +2.4041262e-06 9.11880000e+01 7.81860800e-03 1.13011600e-01
       25 -1    0    0    0    0 +0.0000000000e+00 +0.0000000000e+00 +9.9999998245e-15 1.2500000000e+02 1.2500000000e+02 0.0000e+00 0.0000e+00
       23  2    1    0    0    0 +2.6966613502e+01 -7.7739381902e+00 +1.0522963881e+01 9.5027260259e+01 9.0176577140e+01 0.0000e+00 0.0000e+00
      -11  1    2    2    0    0 +7.9277401686e+00 -3.0608163106e+01 -3.0787210227e+01 4.4131179757e+01 5.1100000000e-04 0.0000e+00 1.0000e+00
       11  1    2    2    0    0 +1.9038873334e+01 +2.2834224916e+01 +4.1310174108e+01 5.0896080502e+01 5.1100000000e-04 0.0000e+00 -1.0000e+00
       22  1    1    0    0    0 -2.6966613502e+01 +7.7739381902e+00 -1.0522963881e+01 2.9972739741e+01 0.0000000000e+00 0.0000e+00 -1.0000e+00
</event>
<event>
 4      1 +2.4041262e-06 9.11880000e+01 7.81860800e-03 1.13011600e-01
       25 -1    0    0    0    0 +0.0000000000e+00 +0.0000000000e+00 +9.9999998245e-15 1.2500000000e+02 1.2500000000e+02 0.0000e+00 0.0000e+00
      -13  1    1    0    0    0 -3.5887287727e+01 -2.5814443415e+01 +4.4180945266e+01 6.2499999983e+01 1.0566000000e-01 0.0000e+00 1.0000e+00
       13  1    1    0    0    0 +3.5887287737e+01 +2.5814443422e+01 -4.4180945278e+01 6.2500000000e+01 1.0566000000e-01 0.0000e+00 1.0000e+00
       22  1    1    0    0    0 -9.9910223207e-09 -6.8960962990e-09 +1.2383156400e-08 1.7341258132e-08 0.0000000000e+00 0.0000e+00 1.0000e+00
</event>
<event>
 4      1 +2.4041262e-06 9.11880000e+01 7.81860800e-03 1.13011600e-01
       25 -1    0    0    0    0 +0.0000000000e+00 +0.0000000000e+00 +9.9999998245e-15 1.2500000000e+02 1.2500000000e+02 0.0000e+00 0.0000e+00
      -13  1    1    0    0    0 +3.9840399063e+01 -2.1729476608e+00 +4.8106753009e+01 6.2499999585e+01 1.0566000000e-01 0.0000e+00 1.0000e+00
       13  1    1    0    0    0 -3.9840399322e+01 +2.1729476712e+00 -4.8106753333e+01 6.2500000000e+01 1.0566000000e-01 0.0000e+00 1.0000e+00
       22  1    1    0    0    0 +2.5968350250e-07 -1.0470838583e-08 +3.2323816511e-07 4.1476266866e-07 0.0000000000e+00 0.0000e+00 -1.0000e+00
</event>
<event>
 4      1 +2.4041262e-06 9.11880000e+01 7.81860800e-03 1.13011600e-01
       25 -1    0    0    0    0 +0.0000000000e+00 +0.0000000000e+00 +9.9999998245e-15 1.2500000000e+02 1.2500000000e+02 0.0000e+00 0.0000e+00
      -13  1    1    0    0    0 +5.5649949113e-01 -3.1310337503e+01 -5.4088740911e+01 6.2499999869e+01 1.0566000000e-01 0.0000e+00 -1.0000e+00
       13  1    1    0    0    0 -5.5648112850e-01 +3.1310039056e+01 +5.4088247837e+01 6.2499423478e+01 1.0566000000e-01 0.0000e+00 -1.0000e+00
       22  1    1    0    0    0 -1.8362627511e-05 +2.9844724603e-04 +4.9307353864e-04 5.7665367359e-04 0.0000000000e+00 0.0000e+00 1.0000e+00
</event>
<event>
 4      1 +2.4041262e-06 9.11880000e+01 7.81860800e-03 1.13011600e-01
       25 -1    0    0    0    0 +0.0000000000e+00 +0.0000000000e+00 +9.9999998245e-15 1.2500000000e+02 1.2500000000e+02 0.0000e+00 0.0000e+00
      -13  1    1    0    0    0 +1.1125719378e+01 -5.9206440078e+01 +1.6644958920e+01 6.2499999999e+01 1.0566000000e-01 0.0000e+00 -1.0000e+00
       13  1    1    0    0    0 -1.1125719378e+01 +5.9206440079e+01 -1.6644958920e+01 6.2500000000e+01 1.0566000000e-01 0.0000e+00 -1.0000e+00
       22  1    1    0    0    0 +1.3516948915e-10 -9.0816371795e-10 +2.4416314302e-10 9.5007777040e-10 0.0000000000e+00 0.0000e+00 -1.0000e+00
</event>
<event>
 4      1 +2.4041262e-06 9.11880000e+01 7.81860800e-03 1.13011600e-01
       25 -1    0    0    0    0 +0.0000000000e+00 +0.0000000000e+00 +9.9999998245e-15 1.2500000000e+02 1.2500000000e+02 0.0000e+00 0.0000e+00
      -13  1    1    0    0    0 +2.2691279135e+01 -4.3444541803e+01 +3.8780361966e+01 6.2499999997e+01 1.0566000000e-01 0.0000e+00 1.0000e+00
       13  1    1    0    0    0 -2.2691254524e+01 +4.3444496689e+01 -3.8780321189e+01 6.2499934400e+01 1.0566000000e-01 0.0000e+00 1.0000e+00
       22  1    1    0    0    0 -2.4611681459e-05 +4.5114217052e-05 -4.0777513529e-05 6.5603605496e-05 0.0000000000e+00 0.0000e+00 -1.0000e+00
</event>
<event>
 4      1 +2.4041262e-06 9.11880000e+01 7.81860800e-03 1.13011600e-01
       25 -1    0    0    0    0 +0.0000000000e+00 +0.0000000000e+00 +9.9999998245e-15 1.2500000000e+02 1.2500000000e+02 0.0000e+00 0.0000e+00
      -13  1    1    0    0    0 +1.1061121741e+01 -2.0369410859e+01 +5.8042893821e+01 6.2500000000e+01 1.0566000000e-01 0.0000e+00 -1.0000e+00
       13  1    1    0    0    0 -1.1061121741e+01 +2.0369410859e+01 -5.8042893821e+01 6.2500000000e+01 1.0566000000e-01 0.0000e+00 -1.0000e+00
       22  1    1    0    0    0 -1.1044951971e-11 -4.9069509802e-11 +5.6986146378e-11 7.6008082698e-11 0.0000000000e+00 0.0000e+00 1.0000e+00
</event>
<event>
 5      1 +2.4041262e-06 9.11880000e+01 7.81860800e-03 1.13011600e-01
       25 -1    0    0    0    0 +0.0000000000e+00 +0.0000000000e+00 +9.9999998245e-15 1.2500000000e+02 1.2500000000e+02 0.0000e+00 0.0000e+00
       23  2    1    0    0    0 -9.7882748623e+00 -1.7924985117e+01 +1.1626171792e+01 1.0149929178e+02 9.8741191736e+01 0.0000e+00 0.0000e+00
      -11  1    2    2    0    0 -4.4472774385e+01 -3.9506879551e+01 +1.1813513828e+01 6.0648003286e+01 5.1100000000e-04 0.0000e+00 -1.0000e+00
       11  1    2    2    0    0 +3.4684499522e+01 +2.1581894434e+01 -1.8734203625e-01 4.0851288496e+01 5.1100000000e-04 0.0000e+00 1.0000e+00
       22  1    1    0    0    0 +9.7882748623e+00 +1.7924985117e+01 -1.1626171792e+01 2.3500708218e+01 0.0000000000e+00 0.0000e+00 -1.0000e+00
</event>
<event>
 4      1 +2.4041262e-06 9.11880000e+01 7.81860800e-03 1.13011600e-01
       25 -1    0    0    0    0 +0.0000000000e+00 +0.0000000000e+00 +9.9999998245e-15 1.2500000000e+02 1.2500000000e+02 0.0000e+00 0.0000e+00
      -13  1    1    0    0    0 -1.5349081055e+01 +3.7731247519e+01 -4.7402505242e+01 6.2499999966e+01 1.0566000000e-01 0.0000e+00 1.0000e+00
       13  1    1    0    0    0 +1.5349081063e+01 -3.7731247539e+01 +4.7402505267e+01 6.2500000000e+01 1.0566000000e-01 0.0000e+00 1.0000e+00
       22  1    1    0    0    0 -8.0239242844e-09 +2.0431154071e-08 -2.5654219336e-08 3.3763210560e-08 0.0000000000e+00 0.0000e+00 1.0000e+00
</event>
<event>
 4      1 +2.4041262e-06 9.11880000e+01 7.81860800e-03 1.13011600e-01
       25 -1    0    0    0    0 +0.0000000000e+00 +0.0000000000e+00 +9.9999998245e-15 1.2500000000e+02 1.2500000000e+02 0.0000e+00 0.0000e+00
      -13  1    1    0    0    0 +4.8042764098e+01 +2.5146956882e+01 -3.0991378555e+01 6.2457612277e+01 1.0566000000e-01 0.0000e+00 -1.0000e+00
       13  1    1    0    0    0 -4.8076212113e+01 -2.5160574325e+01 +3.1013732331e+01 6.2499915429e+01 1.0566000000e-01 0.0000e+00 -1.0000e+00
       22  1    1    0    0    0 +3.3448014475e-02 +1.3617443634e-02 -2.2353775741e-02 4.2472293714e-02 0.0000000000e+00 0.0000e+00 1.0000e+00
</event>
<event>
 4      1 +2.4041262e-06 9.11880000e+01 7.81860800e-03 1.13011600e-01
       25 -1    0    0    0    0 +0.0000000000e+00 +0.0000000000e+00 +9.9999998245e-15 1.2500000000e+02 1.2500000000e+02 0.0000e+00 0.0000e+00
      -13  1    1    0    0    0 -4.9243821512e+01 -2.8503685966e+01 +1.3337584930e+01 5.8440708471e+01 1.0566000000e-01 0.0000e+00 1.0000e+00
       13  1    1    0    0    0 +5.2146153565e+01 +3.1052529308e+01 -1.4729344766e+01 6.2453548092e+01 1.0566000000e-01 0.0000e+00 1.0000e+00
       22  1    1    0    0    0 -2.9023320533e+00 -2.5488433417e+00 +1.3917598358e+00 4.1057434368e+00 0.0000000000e+00 0.0000e+00 1.0000e+00
</event>
<event>
 4      1 +2.4041262e-06 9.11880000e+01 7.81860800e-03 1.13011600e-01
       25 -1    0    0    0    0 +0.0000000000e+00 +0.0000000000e+00 +9.9999998245e-15 1.2500000000e+02 1.2500000000e+02 0.0000e+00 0.0000e+00
      -13  1    1    0    0    0 -7.7728063002e+00 -2.5559106753e+01 +5.6502693565e+01 6.2499999999e+01 1.0566000000e-01 0.0000e+00 1.0000e+00
       13  1    1    0    0    0 +7.7728036231e+00 +2.5559097884e+01 -5.6502674581e+01 6.2499978878e+01 1.0566000000e-01 0.0000e+00 1.0000e+00
       22  1    1    0    0    0 +2.6770214815e-06 +8.8682701724e-06 -1.8983564469e-05 2.1123171632e-05 0.0000000000e+00 0.0000e+00 -1.0000e+00
</event>
<event>
 4      1 +2.4041262e-06 9.11880000e+01 7.81860800e-03 1.13011600e-01
       25 -1    0    0    0    0 +0.0000000000e+00 +0.0000000000e+00 +9.9999998245e-15 1.2500000000e+02 1.2500000000e+02 0.0000e+00 0.0000e+00
      -13  1    1    0    0    0 +2.4013985970e+01 -1.3743610887e+01 +3.7077793716e+00 2.7916252512e+01 1.0566000000e-01 0.0000e+00 -1.0000e+00
       13  1    1    0    0    0 +3.2970217586e+01 -9.2681034762e+00 +6.2886953490e+00 3.4820853565e+01 1.0566000000e-01 0.0000e+00 1.0000e+00
       22  1    1    0    0    0 -5.6984203557e+01 +2.3011714363e+01 -9.9964747206e+00 6.2262893924e+01 0.0000000000e+00 0.0000e+00 -1.0000e+00
</event>
<event>
 4      1 +2.4041262e-06 9.11880000e+01 7.81860800e-03 1.13011600e-01
       25 -1    0    0    0    0 +0.0000000000e+00 +0.0000000000e+00 +9.9999998245e-15 1.2500000000e+02 1.2500000000e+02 0.0000e+00 0.0000e+00
      -13  1    1    0    0    0 -4.4633035410e+00 +6.2308953699e+01 -3.0513627078e-01 6.2469441023e+01 1.0566000000e-01 0.0000e+00 1.0000e+00
       13  1    1    0    0    0 +4.6170374072e+00 -4.8360319472e+01 +2.4087138919e-01 4.8580929560e+01 1.0566000000e-01 0.0000e+00 1.0000e+00
       22  1    1    0    0    0 -1.5373386618e-01 -1.3948634227e+01 +6.4264881591e-02 1.3949629417e+01 0.0000000000e+00 0.0000e+00 1.0000e+00
</event>
<event>
 5      1 +2.4041262e-06 9.11880000e+01 7.81860800e-03 1.13011600e-01
       25 -1    0    0    0    0 +0.0000000000e+00 +0.0000000000e+00 +9.9999998245e-15 1.2500000000e+02 1.2500000000e+02 0.0000e+00 0.0000e+00
       23  2    1    0    0    0 -5.9802025086e+00 -1.5132538619e+01 +2.3276461712e+01 9.6600172238e+01 9.2331159743e+01 0.0000e+00 0.0000e+00
      -13  1    2    2    0    0 -3.7234718063e+01 +3.9306894543e-01 -1.8980648630e+01 4.1795393512e+01 1.0566000000e-01 0.0000e+00 1.0000e+00
       13  1    2    2    0    0 +3.1254515554e+01 -1.5525607564e+01 +4.2257110342e+01 5.4804778726e+01 1.0566000000e-01 0.0000e+00 -1.0000e+00
       22  1    1    0    0    0 +5.9802025086e+00 +1.5132538619e+01 -2.3276461712e+01 2.8399827762e+01 0.0000000000e+00 0.0000e+00 -1.0000e+00
</event>
<event>
 5      1 +2.4041262e-06 9.11880000e+01 7.81860800e-03 1.13011600e-01
       25 -1    0    0    0    0 +0.0000000000e+00 +0.0000000000e+00 +9.9999998245e-15 1.2500000000e+02 1.2500000000e+02 0.0000e+00 0.0000e+00
       23  2    1    0    0    0 +1.9930218123e+01 +1.8874347505e+01 -7.6945908185e+00 9.6492784842e+01 9.2185661632e+01 0.0000e+00 0.0000e+00
      -11  1    2    2    0    0 +1.5943746591e+01 +5.1205431696e+01 -2.5482873881e+01 5.9376562313e+01 5.1100000000e-04 0.0000e+00 -1.0000e+00
       11  1    2    2    0    0 +3.9864715323e+00 -3.2331084192e+01 +1.7788283063e+01 3.7116222530e+01 5.1100000000e-04 0.0000e+00 1.0000e+00
       22  1    1    0    0    0 -1.9930218123e+01 -1.8874347505e+01 +7.6945908185e+00 2.8507215158e+01 0.0000000000e+00 0.0000e+00 -1.0000e+00
</event>
<event>
 4      1 +2.4041262e-06 9.11880000e+01 7.81860800e-03 1.13011600e-01
       25 -1    0    0    0    0 +0.0000000000e+00 +0.0000000000e+00 +9.9999998245e-15 1.2500000000e+02 1.2500000000e+02 0.0000e+00 0.0000e+00
      -11  1    1    0    0    0 -9.4343636387e+00 +2.8368654999e-01 +2.5269581570e+01 2.6974792832e+01 5.1100000000e-04 0.0000e+00 -1.0000e+00
       11  1    1    0    0    0 -1.2399445870e+01 +2.3018646335e-01 +3.3290324485e+01 3.5525271966e+01 5.1100000000e-04 0.0000e+00 1.0000e+00
       22  1    1    0    0    0 +2.1833809509e+01 -5.1387301334e-01 -5.8559906055e+01 6.2499935202e+01 0.0000000000e+00 0.0000e+00 -1.0000e+00
</event>
<event>
 4      1 +2.4041262e-06 9.11880000e+01 7.81860800e-03 1.13011600e-01
       25 -1    0    0    0    0 +0.0000000000e+00 +0.0000000000e+00 +9.9999998245e-15 1.2500000000e+02 1.2500000000e+02 0.0000e+00 0.0000e+00
      -13  1    1    0    0    0 +1.5943734610e+01 +2.0550306437e+00 +1.7676505304e+01 2.3893426461e+01 1.0566000000e-01 0.0000e+00 1.0000e+00
       13  1    1    0    0    0 +2.5622590460e+01 +3.6451952781e+00 +2.8647716146e+01 3.8607089956e+01 1.0566000000e-01 0.0000e+00 -1.0000e+00
       22  1    1    0    0    0 -4.1566325069e+01 -5.7002259218e+00 -4.6324221449e+01 6.2499483583e+01 0.0000000000e+00 0.0000e+00 -1.0000e+00
</event>
<event>
 4      1 +2.4041262e-06 9.11880000e+01 7.81860800e-03 1.13011600e-01
       25 -1    0    0    0    0 +0.0000000000e+00 +0.0000000000e+00 +9.9999998245e-15 1.2500000000e+02 1.2500000000e+02 0.0000e+00 0.0000e+00
      -13  1    1    0    0    0 +4.7744525346e+01 +2.5449686730e+00 +3.8530674589e+01 6.1405542212e+01 1.0566000000e-01 0.0000e+00 -1.0000e+00
       13  1    1    0    0    0 -4.8592892284e+01 -2.5834278682e+00 -3.9221085579e+01 6.2499983985e+01 1.0566000000e-01 0.0000e+00 -1.0000e+00
       22  1    1    0    0    0 +8.4836693779e-01 +3.8459195191e-02 +6.9041098999e-01 1.0944738032e+00 0.0000000000e+00 0.0000e+00 -1.0000e+00
</event>
<event>
 5      1 +2.4041262e-06 9.11880000e+01 7.81860800e-03 1.13011600e-01
       25 -1    0    0    0    0 +0.0000000000e+00 +0.0000000000e+00 +9.9999998245e-15 1.2500000000e+02 1.2500000000e+02 0.0000e+00 0.0000e+00
       23  2    1    0    0    0 +9.1652042295e-01 +2.5841164868e+01 +1.3574717364e+01 9.5795911880e+01 9.1235837092e+01 0.0000e+00 0.0000e+00
      -13  1    2    2    0    0 +4.0342520131e+01 +1.8246036045e+01 -1.4739069799e+01 4.6665705872e+01 1.0566000000e-01 0.0000e+00 -1.0000e+00
       13  1    2    2    0    0 -3.9425999708e+01 +7.5951288225e+00 +2.8313787163e+01 4.9130206008e+01 1.0566000000e-01 0.0000e+00 1.0000e+00
       22  1    1    0    0    0 -9.1652042295e-01 -2.5841164868e+01 -1.3574717364e+01 2.9204088120e+01 0.0000000000e+00 0.0000e+00 1.0000e+00
</event>
<event>
 4      1 +2.4041262e-06 9.11880000e+01 7.81860800e-03 1.13011600e-01
       25 -1    0    0    0    0 +0.0000000000e+00 +0.0000000000e+00 +9.9999998245e-15 1.2500000000e+02 1.2500000000e+02 0.0000e+00 0.0000e+00
      -13  1    1    0    0    0 +3.8927372694e+01 -3.7684437351e+01 -3.1157369476e+01 6.2500000000e+01 1.0566000000e-01 0.0000e+00 -1.0000e+00
       13  1    1    0    0    0 -3.8927372694e+01 +3.7684437351e+01 +3.1157369476e+01 6.2500000000e+01 1.0566000000e-01 0.0000e+00 -1.0000e+00
       22  1    1    0    0    0 +2.8392666908e-11 -2.7559912429e-11 -6.5627591407e-12 4.0109376894e-11 0.0000000000e+00 0.0000e+00 1.0000e+00
</event>
<event>
 4      1 +2.4041262e-06 9.11880000e+01 7.81860800e-03 1.13011600e-01
       25 -1    0    0    0    0 +0.0000000000e+00 +0.0000000000e+00 +9.9999998245e-15 1.2500000000e+02 1.2500000000e+02 0.0000e+00 0.0000e+00
      -13  1    1    0    0    0 +2.4274442509e+01 +7.3689561898e+00 +3.6581924960e+01 4.4517395165e+01 1.0566000000e-01 0.0000e+00 -1.0000e+00
       13  1    1    0    0    0 -3.4555366287e+01 -1.0925158147e+01 -5.0910309442e+01 6.2492425071e+01 1.0566000000e-01 0.0000e+00 -1.0000e+00
       22  1    1    0    0    0 +1.0280923778e+01 +3.5562019569e+00 +1.4328384482e+01 1.7990179764e+01 0.0000000000e+00 0.0000e+00 -1.0000e+00
</event>
<event>
 4      1 +2.4041262e-06 9.11880000e+01 7.81860800e-03 1.13011600e-01
       25 -1    0    0    0    0 +0.0000000000e+00 +0.0000000000e+00 +9.9999998245e-15 1.2500000000e+02 1.2500000000e+02 0.0000e+00 0.0000e+00
      -13  1    1    0    0    0 -2.9372051252e+01 +5.3250429637e+01 +1.4419195007e+01 6.2500000000e+01 1.0566000000e-01 0.0000e+00 -1.0000e+00
       13  1    1    0    0    0 +2.9372049540e+01 -5.3250426522e+01 -1.4419194111e+01 6.2499996334e+01 1.0566000000e-01 0.0000e+00 -1.0000e+00
       22  1    1    0    0    0 +1.7123398808e-06 -3.1150243100e-06 -8.9610084701e-07 3.6658533860e-06 0.0000000000e+00 0.0000e+00 1.0000e+00
</event>
<event>
 4      1 +2.4041262e-06 9.11880000e+01 7.81860800e-03 1.13011600e-01
       25 -1    0    0    0    0 +0.0000000000e+00 +0.0000000000e+00 +9.9999998245e-15 1.2500000000e+02 1.2500000000e+02 0.0000e+00 0.0000e+00
      -13  1    1    0    0    0 +5.8329159813e+01 +1.2623615586e+01 +1.8563196951e+01 6.2500000000e+01 1.0566000000e-01 0.0000e+00 -1.0000e+00
       13  1    1    0    0    0 -5.8329159813e+01 -1.2623615586e+01 -1.8563196951e+01 6.2500000000e+01 1.0566000000e-01 0.0000e+00 -1.0000e+00
       22  1    1    0    0    0 -2.0040613107e-10 -1.4372326210e-10 +2.4981632793e-11 2.4787713774e-10 0.0000000000e+00 0.0000e+00 1.0000e+00
</event>
<event>
 4      1 +2.4041262e-06 9.11880000e+01 7.81860800e-03 1.13011600e-01
       25 -1    0    0    0    0 +0.0000000000e+00 +0.0000000000e+00 +9.9999998245e-15 1.2500000000e+02 1.2500000000e+02 0.0000e+00 0.0000e+00
      -13  1    1    0    0    0 +2.8914792478e+01 +5.2374235312e+01 +1.8055639612e+01 6.2491143647e+01 1.0566000000e-01 0.0000e+00 -1.0000e+00
       13  1    1    0    0    0 -2.8880613410e+01 -5.2366861698e+01 -1.8066411610e+01 6.2472269268e+01 1.0566000000e-01 0.0000e+00 -1.0000e+00
       22  1    1    0    0    0 -3.4179067338e-02 -7.3736140247e-03 +1.0771997627e-02 3.6587084616e-02 0.0000000000e+00 0.0000e+00 1.0000e+00
</event>
<event>
 4      1 +2.4041262e-06 9.11880000e+01 7.81860800e-03 1.13011600e-01
       25 -1    0    0    0    0 +0.0000000000e+00 +0.0000000000e+00 +9.9999998245e-15 1.2500000000e+02 1.2500000000e+02 0.0000e+00 0.0000e+00
      -13  1    1    0    0    0 -1.4159462088e+01 -3.0710143290e+01 +5.2197818065e+01 6.2195069277e+01 1.0566000000e-01 0.0000e+00 -1.0000e+00
       13  1    1    0    0    0 +1.4227997995e+01 +3.0861276913e+01 -5.2453640057e+01 6.2499998872e+01 1.0566000000e-01 0.0000e+00 -1.0000e+00
       22  1    1    0    0    0 -6.8535906995e-02 -1.5113362326e-01 +2.5582199183e-01 3.0493185162e-01 0.0000000000e+00 0.0000e+00 -1.0000e+00
</event>
<event>
 4      1 +2.4041262e-06 9.11880000e+01 7.81860800e-03 1.13011600e-01
       25 -1    0    0    0    0 +0.0000000000e+00 +0.0000000000e+00 +9.9999998245e-15 1.2500000000e+02 1.2500000000e+02 0.0000e+00 0.0000e+00
      -11  1    1    0    0    0 -6.3028045697e+00 -2.1618987546e+01 -9.5751849228e+00 2.4470188690e+01 5.1100000000e-04 0.0000e+00 1.0000e+00
       11  1    1    0    0    0 -9.3451118230e+00 -3.7204072955e+01 -2.6283333703e+00 3.8449737268e+01 5.1100000000e-04 0.0000e+00 -1.0000e+00
       22  1    1    0    0    0 +1.5647916393e+01 +5.8823060502e+01 +1.2203518293e+01 6.2080074041e+01 0.0000000000e+00 0.0000e+00 -1.0000e+00
</event>
<event>
 4      1 +2.4041262e-06 9.11880000e+01 7.81860800e-03 1.13011600e-01
       25 -1    0    0    0    0 +0.0000000000e+00 +0.0000000000e+00 +9.9999998245e-15 1.2500000000e+02 1.2500000000e+02 0.0000e+00 0.0000e+00
      -13  1    1    0    0    0 +1.9217894346e+01 +5.4846481195e+00 +8.0443271638e+00 2.1543704223e+01 1.0566000000e-01 0.0000e+00 -1.0000e+00
       13  1    1    0    0    0 +3.5769196786e+01 +1.2695305955e+01 +1.5421021133e+01 4.0968589051e+01 1.0566000000e-01 0.0000e+00 1.0000e+00
       22  1    1    0    0    0 -5.4987091132e+01 -1.8179954074e+01 -2.3465348297e+01 6.2487706727e+01 0.0000000000e+00 0.0000e+00 1.0000e+00
</event>
<event>
 4      1 +2.4041262e-06 9.11880000e+01 7.81860800e-03 1.13011600e-01
       25 -1    0    0    0    0 +0.0000000000e+00 +0.0000000000e+00 +9.9999998245e-15 1.2500000000e+02 1.2500000000e+02 0.0000e+00 0.0000e+00
      -13  1    1    0    0    0 -1.6964164252e+01 -4.7337423703e+01 +3.7116360199e+01 6.2499999280e+01 1.0566000000e-01 0.0000e+00 -1.0000e+00
       13  1    1    0    0    0 +1.6964164425e+01 +4.7337424233e+01 -3.7116360654e+01 6.2499999999e+01 1.0566000000e-01 0.0000e+00 -1.0000e+00
       22  1    1    0    0    0 -1.7328308784e-07 -5.3056504202e-07 +4.5545237349e-07 7.2039097500e-07 0.0000000000e+00 0.0000e+00 -1.0000e+00
</event>
<event>
 4      1 +2.4041262e-06 9.11880000e+01 7.81860800e-03 1.13011600e-01
       25 -1    0    0    0    0 +0.0000000000e+00 +0.0000000000e+00 +9.9999998245e-15 1.2500000000e+02 1.2500000000e+02 0.0000e+00 0.0000e+00
      -13  1    1    0    0    0 +9.4401808679e+00 +4.8095468963e+01 +1.6502033847e+00 4.9041059173e+01 1.0566000000e-01 0.0000e+00 1.0000e+00
       13  1    1    0    0    0 +2.3916791877e+00 +1.3232209769e+01 +5.9259291061e-01 1.3460083028e+01 1.0566000000e-01 0.0000e+00 -1.0000e+00
       22  1    1    0    0    0 -1.1831860056e+01 -6.1327678732e+01 -2.2427962953e+00 6.2498857800e+01 0.0000000000e+00 0.0000e+00 1.0000e+00
</event>
<event>
 4      1 +2.4041262e-06 9.11880000e+01 7.81860800e-03 1.13011600e-01
       25 -1    0    0    0    0 +0.0000000000e+00 +0.0000000000e+00 +9.9999998245e-15 1.2500000000e+02 1.2500000000e+02 0.0000e+00 0.0000e+00
      -11  1    1    0    0    0 -3.1250898066e+01 -3.7526404889e+01 +3.3404689470e+01 5.9166907750e+01 5.1100000000e-04 0.0000e+00 -1.0000e+00
       11  1    1    0    0    0 -1.5632701142e+00 -1.9054346276e+00 +2.2682207856e+00 3.3495253938e+00 5.1100000000e-04 0.0000e+00 1.0000e+00
       22  1    1    0    0    0 +3.2814168180e+01 +3.9431839517e+01 -3.5672910256e+01 6.2483566857e+01 0.0000000000e+00 0.0000e+00 -1.0000e+00
</event>
<event>
 4      1 +2.4041262e-06 9.11880000e+01 7.81860800e-03 1.13011600e-01
       25 -1    0    0    0    0 +0.0000000000e+00 +0.0000000000e+00 +9.9999998245e-15 1.2500000000e+02 1.2500000000e+02 0.0000e+00 0.0000e+00
      -13  1    1    0    0    0 +4.3066384288e+01 +1.9402919410e+01 +4.0927400253e+01 6.2499999942e+01 1.0566000000e-01 0.0000e+00 1.0000e+00
       13  1    1    0    0    0 -4.3066384335e+01 -1.9402919429e+01 -4.0927400282e+01 6.2500000000e+01 1.0566000000e-01 0.0000e+00 1.0000e+00
       22  1    1    0    0    0 +4.6381662088e-08 +1.9433264104e-08 +2.9651911482e-08 5.8379330130e-08 0.0000000000e+00 0.0000e+00 -1.0000e+00
</event>
<event>
 5      1 +2.4041262e-06 9.11880000e+01 7.81860800e-03 1.13011600e-01
       25 -1    0    0    0    0 +0.0000000000e+00 +0.0000000000e+00 +9.9999998245e-15 1.2500000000e+02 1.2500000000e+02 0.0000e+00 0.0000e+00
       23  2    1    0    0    0 +1.2375940969e+01 +1.4286064691e-01 -2.2605036388e+01 9.9228465429e+01 9.5823360185e+01 0.0000e+00 0.0000e+00
      -13  1    2    2    0    0 +5.3341769478e+01 -2.1359551742e+00 -2.3168407636e+01 5.8195300085e+01 1.0566000000e-01 0.0000e+00 1.0000e+00
       13  1    2    2    0    0 -4.0965828509e+01 +2.2788158211e+00 +5.6337124787e-01 4.1033165344e+01 1.0566000000e-01 0.0000e+00 1.0000e+00
       22  1    1    0    0    0 -1.2375940969e+01 -1.4286064691e-01 +2.2605036388e+01 2.5771534571e+01 0.0000000000e+00 0.0000e+00 -1.0000e+00
</event>
<event>
 4      1 +2.4041262e-06 9.11880000e+01 7.81860800e-03 1.13011600e-01
       25 -1    0    0    0    0 +0.0000000000e+00 +0.0000000000e+00 +9.9999998245e-15 1.2500000000e+02 1.2500000000e+02 0.0000e+00 0.0000e+00
      -11  1    1    0    0    0 -7.2999804052e+00 +2.5047662828e+01 -3.3489510591e+00 2.6303813421e+01 5.1100000000e-04 0.0000e+00 1.0000e+00
       11  1    1    0    0    0 -1.0047451772e+01 +3.4467214936e+01 -4.6069221580e+00 3.6196186603e+01 5.1100000000e-04 0.0000e+00 -1.0000e+00
       22  1    1    0    0    0 +1.7347432177e+01 -5.9514877764e+01 +7.9558732171e+00 6.2499999976e+01 0.0000000000e+00 0.0000e+00 1.0000e+00
</event>
<event>
 4      1 +2.4041262e-06 9.11880000e+01 7.81860800e-03 1.13011600e-01
       25 -1    0    0    0    0 +0.0000000000e+00 +0.0000000000e+00 +9.9999998245e-15 1.2500000000e+02 1.2500000000e+02 0.0000e+00 0.0000e+00
      -13  1    1    0    0    0 +2.2634940733e+01 -3.0169070134e+01 -4.9343335732e+01 6.2107079144e+01 1.0566000000e-01 0.0000e+00 -1.0000e+00
       13  1    1    0    0    0 -2.2291884580e+01 +3.0536344063e+01 +4.9569219283e+01 6.2341920818e+01 1.0566000000e-01 0.0000e+00 -1.0000e+00
       22  1    1    0    0    0 -3.4305615219e-01 -3.6727392960e-01 -2.2588355129e-01 5.5100003780e-01 0.0000000000e+00 0.0000e+00 -1.0000e+00
</event>
<event>
 4      1 +2.4041262e-06 9.11880000e+01 7.81860800e-03 1.13011600e-01
       25 -1    0    0    0    0 +0.0000000000e+00 +0.0000000000e+00 +9.9999998245e-15 1.2500000000e+02 1.2500000000e+02 0.0000e+00 0.0000e+00
      -13  1    1    0    0    0 -1.1740046495e+01 +8.9993058557e+00 +2.2642817537e+00 1.4965103858e+01 1.0566000000e-01 0.0000e+00 -1.0000e+00
       13  1    1    0    0    0 -3.6211106748e+01 +2.9390526674e+01 +9.2329323518e+00 4.7542670455e+01 1.0566000000e-01 0.0000e+00 1.0000e+00
       22  1    1    0    0    0 +4.7951153244e+01 -3.8389832530e+01 -1.1497214106e+01 6.2492225687e+01 0.0000000000e+00 0.0000e+00 -1.0000e+00
</event>
<event>
 4      1 +2.4041262e-06 9.11880000e+01 7.81860800e-03 1.13011600e-01
       25 -1    0    0    0    0 +0.0000000000e+00 +0.0000000000e+00 +9.9999998245e-15 1.2500000000e+02 1.2500000000e+02 0.0000e+00 0.0000e+00
      -13  1    1    0    0    0 -1.9996900543e+01 +5.7963725806e+01 +1.1765936108e+01 6.2434909763e+01 1.0566000000e-01 0.0000e+00 -1.0000e+00
       13  1    1    0    0    0 +2.0070414755e+01 -5.7991519967e+01 -1.1725433976e+01 6.2476674868e+01 1.0566000000e-01 0.0000e+00 -1.0000e+00
       22  1    1    0    0    0 -7.3514212224e-02 +2.7794161472e-02 -4.0502131966e-02 8.8415369165e-02 0.0000000000e+00 0.0000e+00 1.0000e+00
</event>
<event>
 4      1 +2.4041262e-06 9.11880000e+01 7.81860800e-03 1.13011600e-01
       25 -1    0    0    0    0 +0.0000000000e+00 +0.0000000000e+00 +9.9999998245e-15 1.2500000000e+02 1.2500000000e+02 0.0000e+00 0.0000e+00
      -13  1    1    0    0    0 +3.0907240790e+01 -2.1145904367e+01 +4.9994009003e+01 6.2464541181e+01 1.0566000000e-01 0.0000e+00 1.0000e+00
       13  1    1    0    0    0 -3.0498654976e+01 +2.0329309537e+01 -4.8719426013e+01 6.0967552162e+01 1.0566000000e-01 0.0000e+00 1.0000e+00
       22  1    1    0    0    0 -4.0858581414e-01 +8.1659483027e-01 -1.2745829899e+00 1.5679066562e+00 0.0000000000e+00 0.0000e+00 1.0000e+00
</event>
<event>
 4      1 +2.4041262e-06 9.11880000e+01 7.81860800e-03 1.13011600e-01
       25 -1    0    0    0    0 +0.0000000000e+00 +0.0000000000e+00 +9.9999998245e-15 1.2500000000e+02 1.2500000000e+02 0.0000e+00 0.0000e+00
      -13  1    1    0    0    0 -1.8736058722e+01 +5.4352610433e+01 -2.4515128381e+01 6.2499990727e+01 1.0566000000e-01 0.0000e+00 1.0000e+00
       13  1    1    0    0    0 +1.8723416447e+01 -5.4319313770e+01 +2.4499431533e+01 6.2461087737e+01 1.0566000000e-01 0.0000e+00 1.0000e+00
       22  1    1    0    0    0 +1.2642275122e-02 -3.3296662990e-02 +1.5696848252e-02 3.8921535576e-02 0.0000000000e+00 0.0000e+00 -1.0000e+00
</event>
<event>
 4      1 +2.4041262e-06 9.11880000e+01 7.81860800e-03 1.13011600e-01
       25 -1    0    0    0    0 +0.0000000000e+00 +0.0000000000e+00 +9.9999998245e-15 1.2500000000e+02 1.2500000000e+02 0.0000e+00 0.0000e+00
      -13  1    1    0    0    0 -2.8510959428e+01 -4.5702241030e+01 +3.1696517053e+01 6.2500000000e+01 1.0566000000e-01 0.0000e+00 -1.0000e+00
       13  1    1    0    0    0 +2.8510909017e+01 +4.5702160499e+01 -3.1696460987e+01 6.2499889683e+01 1.0566000000e-01 0.0000e+00 -1.0000e+00
       22  1    1    0    0    0 +5.0411205811e-05 +8.0530874452e-05 -5.6065940586e-05 1.1031727474e-04 0.0000000000e+00 0.0000e+00 -1.0000e+00
</event>
<event>
 4      1 +2.4041262e-06 9.11880000e+01 7.81860800e-03 1.13011600e-01
       25 -1    0    0    0    0 +0.0000000000e+00 +0.0000000000e+00 +9.9999998245e-15 1.2500000000e+02 1.2500000000e+02 0.0000e+00 0.0000e+00
      -13  1    1    0    0    0 +1.8074803026e+01 +4.0979658712e+01 +4.3553303151e+01 6.2473452858e+01 1.0566000000e-01 0.0000e+00 1.0000e+00
       13  1    1    0    0    0 -1.8083861842e+01 -4.0996007521e+01 -4.3572197527e+01 6.2499970025e+01 1.0566000000e-01 0.0000e+00 1.0000e+00
       22  1    1    0    0    0 +9.0588163305e-03 +1.6348809379e-02 +1.8894375883e-02 2.6577117252e-02 0.0000000000e+00 0.0000e+00 1.0000e+00
</event>
<event>
 4      1 +2.4041262e-06 9.11880000e+01 7.81860800e-03 1.13011600e-01
       25 -1    0    0    0    0 +0.0000000000e+00 +0.0000000000e+00 +9.9999998245e-15 1.2500000000e+02 1.2500000000e+02 0.0000e+00 0.0000e+00
      -11  1    1    0    0    0 +2.7871685800e+01 +5.2327234900e+01 +1.7017683971e+01 6.1681212290e+01 5.1100000000e-04 0.0000e+00 1.0000e+00
       11  1    1    0    0    0 +1.5060955650e+00 -3.3950585811e+00 +1.5543457248e-01 3.7173790212e+00 5.1100000000e-04 0.0000e+00 -1.0000e+00
       22  1    1    0    0    0 -2.9377781365e+01 -4.8932176319e+01 -1.7173118543e+01 5.9601408689e+01 0.0000000000e+00 0.0000e+00 1.0000e+00
</event>
<event>
 5      1 +2.4041262e-06 9.11880000e+01 7.81860800e-03 1.13011600e-01
       25 -1    0    0    0    0 +0.0000000000e+00 +0.0000000000e+00 +9.9999998245e-15 1.2500000000e+02 1.2500000000e+02 0.0000e+00 0.0000e+00
       23  2    1    0    0    0 +2.7178979819e+01 +2.0917095283e+00 +7.0746968973e+00 9.6837551085e+01 9.2651971221e+01 0.0000e+00 0.0000e+00
      -11  1    2    2    0    0 -1.6234000954e+01 -2.0947492586e+01 -2.6372924261e+01 3.7388117992e+01 5.1100000000e-04 0.0000e+00 -1.0000e+00
       11  1    2    2    0    0 +4.3412980773e+01 +2.3039202115e+01 +3.3447621158e+01 5.9449433093e+01 5.1100000000e-04 0.0000e+00 1.0000e+00
       22  1    1    0    0    0 -2.7178979819e+01 -2.0917095283e+00 -7.0746968973e+00 2.8162448915e+01 0.0000000000e+00 0.0000e+00 1.0000e+00
</event>
<event>
 5      1 +2.4041262e-06 9.11880000e+01 7.81860800e-03 1.13011600e-01
       25 -1    0    0    0    0 +0.0000000000e+00 +0.0000000000e+00 +9.9999998245e-15 1.2500000000e+02 1.2500000000e+02 0.0000e+00 0.0000e+00
       23  2    1    0    0    0 -2.0927402216e+01 -1.7256712902e+01 -1.0360710389e+01 9.5963908262e+01 9.1465715246e+01 0.0000e+00 0.0000e+00
      -13  1    2    2    0    0 -2.7396656383e+01 -5.2682073139e+01 -5.7246397613e+00 5.9655345742e+01 1.0566000000e-01 0.0000e+00 -1.0000e+00
       13  1    2    2    0    0 +6.4692541674e+00 +3.5425360236e+01 -4.6360706273e+00 3.6308562520e+01 1.0566000000e-01 0.0000e+00 1.0000e+00
       22  1    1    0    0    0 +2.0927402216e+01 +1.7256712902e+01 +1.0360710389e+01 2.9036091738e+01 0.0000000000e+00 0.0000e+00 -1.0000e+00
</event>
<event>
 4      1 +2.4041262e-06 9.11880000e+01 7.81860800e-03 1.13011600e-01
       25 -1    0    0    0    0 +0.0000000000e+00 +0.0000000000e+00 +9.9999998245e-15 1.2500000000e+02 1.2500000000e+02 0.0000e+00 0.0000e+00
      -13  1    1    0    0    0 +1.9062255917e+01 +5.3642420060e+01 -2.5315478608e+01 6.2303799657e+01 1.0566000000e-01 0.0000e+00 -1.0000e+00
       13  1    1    0    0    0 -1.9109236007e+01 -5.3825165113e+01 +2.5373067917e+01 6.2498920309e+01 1.0566000000e-01 0.0000e+00 -1.0000e+00
       22  1    1    0    0    0 +4.6980090337e-02 +1.8274505298e-01 -5.7589308269e-02 1.9728003372e-01 0.0000000000e+00 0.0000e+00 1.0000e+00
</event>
<event>
 4      1 +2.4041262e-06 9.11880000e+01 7.81860800e-03 1.13011600e-01
       25 -1    0    0    0    0 +0.0000000000e+00 +0.0000000000e+00 +9.9999998245e-15 1.2500000000e+02 1.2500000000e+02 0.0000e+00 0.0000e+00
      -13  1    1    0    0    0 -2.7032862264e+01 +4.9903916680e+01 +2.6173694691e+01 6.2500000000e+01 1.0566000000e-01 0.0000e+00 1.0000e+00
       13  1    1    0    0    0 +2.7032851887e+01 -4.9903897599e+01 -2.6173684647e+01 6.2499976070e+01 1.0566000000e-01 0.0000e+00 1.0000e+00
       22  1    1    0    0    0 +1.0377157456e-05 -1.9080457405e-05 -1.0043786286e-05 2.3929623788e-05 0.0000000000e+00 0.0000e+00 1.0000e+00
</event>
<event>
 4      1 +2.4041262e-06 9.11880000e+01 7.81860800e-03 1.13011600e-01
       25 -1    0    0    0    0 +0.0000000000e+00 +0.0000000000e+00 +9.9999998245e-15 1.2500000000e+02 1.2500000000e+02 0.0000e+00 0.0000e+00
      -13  1    1    0    0    0 -5.7093609646e+01 +1.7149858283e+01 +1.8773409395e+01 6.2499999727e+01 1.0566000000e-01 0.0000e+00 -1.0000e+00
       13  1    1    0    0    0 +5.7093609890e+01 -1.7149858356e+01 -1.8773409494e+01 6.2500000000e+01 1.0566000000e-01 0.0000e+00 -1.0000e+00
       22  1    1    0    0    0 -2.4403960555e-07 +7.2794239843e-08 +9.8937641377e-08 2.7320868821e-07 0.0000000000e+00 0.0000e+00 1.0000e+00
</event>
<event>
 4      1 +2.4041262e-06 9.11880000e+01 7.81860800e-03 1.13011600e-01
       25 -1    0    0    0    0 +0.0000000000e+00 +0.0000000000e+00 +9.9999998245e-15 1.2500000000e+02 1.2500000000e+02 0.0000e+00 0.0000e+00
      -13  1    1    0    0    0 +3.2252214411e+01 -3.2683822934e+01 +3.1213135142e+01 5.5522145000e+01 1.0566000000e-01 0.0000e+00 -1.0000e+00
       13  1    1    0    0    0 -3.6309237381e+01 +3.6798059301e+01 -3.5125198395e+01 6.2499988911e+01 1.0566000000e-01 0.0000e+00 -1.0000e+00
       22  1    1    0    0    0 +4.0570229701e+00 -4.1142363674e+00 +3.9120632527e+00 6.9778660892e+00 0.0000000000e+00 0.0000e+00 1.0000e+00
</event>
<event>
 4      1 +2.4041262e-06 9.11880000e+01 7.81860800e-03 1.13011600e-01
       25 -1    0    0    0    0 +0.0000000000e+00 +0.0000000000e+00 +9.9999998245e-15 1.2500000000e+02 1.2500000000e+02 0.0000e+00 0.0000e+00
      -13  1    1    0    0    0 +4.7793657107e+00 -1.5699405329e+01 +6.0297287750e+01 6.2490701215e+01 1.0566000000e-01 0.0000e+00 -1.0000e+00
       13  1    1    0    0    0 -4.7803180465e+00 +1.5702000755e+01 -6.0306169818e+01 6.2499996404e+01 1.0566000000e-01 0.0000e+00 -1.0000e+00
       22  1    1    0    0    0 +9.5233581905e-04 -2.5954260930e-03 +8.8820674288e-03 9.3023815190e-03 0.0000000000e+00 0.0000e+00 1.0000e+00
</event>
<event>
 4      1 +2.4041262e-06 9.11880000e+01 7.81860800e-03 1.13011600e-01
       25 -1    0    0    0    0 +0.0000000000e+00 +0.0000000000e+00 +9.9999998245e-15 1.2500000000e+02 1.2500000000e+02 0.0000e+00 0.0000e+00
      -13  1    1    0    0    0 +4.6645902109e+00 +7.3753359672e+00 -5.9702380983e+01 6.0336882929e+01 1.0566000000e-01 0.0000e+00 -1.0000e+00
       13  1    1    0    0    0 +3.3492413691e+00 -7.5400378162e+00 +5.6042298952e+00 9.9743744050e+00 1.0566000000e-01 0.0000e+00 1.0000e+00
       22  1    1    0    0    0 -8.0138315800e+00 +1.6470184893e-01 +5.4098151088e+01 5.4688742666e+01 0.0000000000e+00 0.0000e+00 -1.0000e+00
</event>
<event>
 4      1 +2.4041262e-06 9.11880000e+01 7.81860800e-03 1.13011600e-01
       25 -1    0    0    0    0 +0.0000000000e+00 +0.0000000000e+00 +9.9999998245e-15 1.2500000000e+02 1.2500000000e+02 0.0000e+00 0.0000e+00
      -13  1    1    0    0    0 +3.0763277279e+00 -3.5846789736e+00 +6.2321145028e+01 6.2499999978e+01 1.0566000000e-01 0.0000e+00 -1.0000e+00
       13  1    1    0    0    0 -3.0763277297e+00 +3.5846789755e+00 -6.2321145050e+01 6.2500000000e+01 1.0566000000e-01 0.0000e+00 -1.0000e+00
       22  1    1    0    0    0 +1.8197039180e-09 -1.9422329482e-09 +2.1607301660e-08 2.1770601191e-08 0.0000000000e+00 0.0000e+00 -1.0000e+00
</event>
<event>
 4      1 +2.4041262e-06 9.11880000e+01 7.81860800e-03 1.13011600e-01
       25 -1    0    0    0    0 +0.0000000000e+00 +0.0000000000e+00 +9.9999998245e-15 1.2500000000e+02 1.2500000000e+02 0.0000e+00 0.0000e+00
      -13  1    1    0    0    0 +4.8039165427e+01 -3.5668193525e+01 +1.8062596483e+01 6.2500000000e+01 1.0566000000e-01 0.0000e+00 1.0000e+00
       13  1    1    0    0    0 -4.8039165426e+01 +3.5668193525e+01 -1.8062596482e+01 6.2499999999e+01 1.0566000000e-01 0.0000e+00 1.0000e+00
       22  1    1    0    0    0 -9.1924235173e-10 -1.2554807500e-10 -1.5084595132e-10 9.3995921263e-10 0.0000000000e+00 0.0000e+00 -1.0000e+00
</event>
<event>
 4      1 +2.4041262e-06 9.11880000e+01 7.81860800e-03 1.13011600e-01
       25 -1    0    0    0    0 +0.0000000000e+00 +0.0000000000e+00 +9.9999998245e-15 1.2500000000e+02 1.2500000000e+02 0.0000e+00 0.0000e+00
      -13  1    1    0    0    0 -4.6611509408e+01 +1.8272285151e+01 -3.7412960615e+01 6.2500000000e+01 1.0566000000e-01 0.0000e+00 -1.0000e+00
       13  1    1    0    0    0 +4.6611509315e+01 -1.8272285116e+01 +3.7412960543e+01 6.2499999877e+01 1.0566000000e-01 0.0000e+00 -1.0000e+00
       22  1    1    0    0    0 +9.2958493742e-08 -3.5497328933e-08 +7.2235953826e-08 1.2296086754e-07 0.0000000000e+00 0.0000e+00 1.0000e+00
</event>
<event>
 4      1 +2.4041262e-06 9.11880000e+01 7.81860800e-03 1.13011600e-01
       25 -1    0    0    0    0 +0.0000000000e+00 +0.0000000000e+00 +9.9999998245e-15 1.2500000000e+02 1.2500000000e+02 0.0000e+00 0.0000e+00
      -13  1    1    0    0    0 +1.7885050187e+00 -4.0631382707e+01 +4.7456620413e+01 6.2499999967e+01 1.0566000000e-01 0.0000e+00 -1.0000e+00
       13  1    1    0    0    0 -1.7885056696e+00 +4.0631373200e+01 -4.7456607895e+01 6.2499984300e+01 1.0566000000e-01 0.0000e+00 -1.0000e+00
       22  1    1    0    0    0 +6.5094110865e-07 +9.5067026181e-06 -1.2518148752e-05 1.5732296945e-05 0.0000000000e+00 0.0000e+00 1.0000e+00
</event>
<event>
 4      1 +2.4041262e-06 9.11880000e+01 7.81860800e-03 1.13011600e-01
       25 -1    0    0    0    0 +0.0000000000e+00 +0.0000000000e+00 +9.9999998245e-15 1.2500000000e+02 1.2500000000e+02 0.0000e+00 0.0000e+00
      -13  1    1    0    0    0 +6.2497939572e+01 -2.2672627479e-02 +4.9584772676e-01 6.2499999950e+01 1.0566000000e-01 0.0000e+00 -1.0000e+00
       13  1    1    0    0    0 -6.2497939622e+01 +2.2672628966e-02 -4.9584772568e-01 6.2500000000e+01 1.0566000000e-01 0.0000e+00 -1.0000e+00
       22  1    1    0    0    0 +4.9940161633e-08 -1.4869298999e-09 -1.0769825272e-09 4.9973899146e-08 0.0000000000e+00 0.0000e+00 1.0000e+00
</event>
<event>
 5      1 +2.4041262e-06 9.11880000e+01 7.81860800e-03 1.13011600e-01
       25 -1    0    0    0    0 +0.0000000000e+00 +0.0000000000e+00 +9.9999998245e-15 1.2500000000e+02 1.2500000000e+02 0.0000e+00 0.0000e+00
       23  2    1    0    0    0 -1.2322370832e+01 +2.8166642110e+01 -8.4992280299e+00 9.3102705009e+01 8.7468144213e+01 0.0000e+00 0.0000e+00
      -11  1    2    2    0    0 +2.7477598551e+01 +1.5979349494e+01 -3.2165125192e+01 4.5221159995e+01 5.1100000000e-04 0.0000e+00 1.0000e+00
       11  1    2    2    0    0 -3.9799969382e+01 +1.2187292616e+01 +2.3665897162e+01 4.7881545014e+01 5.1100000000e-04 0.0000e+00 -1.0000e+00
       22  1    1    0    0    0 +1.2322370832e+01 -2.8166642110e+01 +8.4992280299e+00 3.1897294991e+01 0.0000000000e+00 0.0000e+00 1.0000e+00
</event>
<event>
 4      1 +2.4041262e-06 9.11880000e+01 7.81860800e-03 1.13011600e-01
       25 -1    0    0    0    0 +0.0000000000e+00 +0.0000000000e+00 +9.9999998245e-15 1.2500000000e+02 1.2500000000e+02 0.0000e+00 0.0000e+00
      -13  1    1    0    0    0 +1.2499442758e+01 +1.2763001488e+01 -5.0332199376e+01 5.3408536156e+01 1.0566000000e-01 0.0000e+00 1.0000e+00
       13  1    1    0    0    0 -1.4545302466e+01 -1.4912276386e+01 +5.8925994370e+01 6.2499806299e+01 1.0566000000e-01 0.0000e+00 1.0000e+00
       22  1    1    0    0    0 +2.0458597079e+00 +2.1492748981e+00 -8.5937949936e+00 9.0916575455e+00 0.0000000000e+00 0.0000e+00 1.0000e+00
</event>
<event>
 4      1 +2.4041262e-06 9.11880000e+01 7.81860800e-03 1.13011600e-01
       25 -1    0    0    0    0 +0.0000000000e+00 +0.0000000000e+00 +9.9999998245e-15 1.2500000000e+02 1.2500000000e+02 0.0000e+00 0.0000e+00
      -13  1    1    0    0    0 -4.8648957139e+01 +2.6901876818e+01 +2.8562158498e+01 6.2499920553e+01 1.0566000000e-01 0.0000e+00 -1.0000e+00
       13  1    1    0    0    0 +4.8649018918e+01 -2.6901910975e+01 -2.8562194946e+01 6.2500000000e+01 1.0566000000e-01 0.0000e+00 -1.0000e+00
       22  1    1    0    0    0 -6.1778637398e-05 +3.4156752818e-05 +3.6448457119e-05 7.9446672858e-05 0.0000000000e+00 0.0000e+00 1.0000e+00
</event>
<event>
 4      1 +2.4041262e-06 9.11880000e+01 7.81860800e-03 1.13011600e-01
       25 -1    0    0    0    0 +0.0000000000e+00 +0.0000000000e+00 +9.9999998245e-15 1.2500000000e+02 1.2500000000e+02 0.0000e+00 0.0000e+00
      -13  1    1    0    0    0 +1.0251779560e+01 +6.1298282824e+01 +6.6075997640e+00 6.2500000000e+01 1.0566000000e-01 0.0000e+00 1.0000e+00
       13  1    1    0    0    0 -1.0251779559e+01 -6.1298282824e+01 -6.6075997640e+00 6.2500000000e+01 1.0566000000e-01 0.0000e+00 1.0000e+00
       22  1    1    0    0    0 -2.1065178169e-11 -5.7700273036e-11 -1.0585437558e-11 6.2330688493e-11 0.0000000000e+00 0.0000e+00 -1.0000e+00
</event>
<event>
 4      1 +2.4041262e-06 9.11880000e+01 7.81860800e-03 1.13011600e-01
       25 -1    0    0    0    0 +0.0000000000e+00 +0.0000000000e+00 +9.9999998245e-15 1.2500000000e+02 1.2500000000e+02 0.0000e+00 0.0000e+00
      -13  1    1    0    0    0 -6.0631467697e+00 +5.2171686223e+01 +3.3876130886e+01 6.2500000000e+01 1.0566000000e-01 0.0000e+00 1.0000e+00
       13  1    1    0    0    0 +6.0631467697e+00 -5.2171686224e+01 -3.3876130886e+01 6.2500000000e+01 1.0566000000e-01 0.0000e+00 1.0000e+00
       22  1    1    0    0    0 -3.8004498466e-11 +7.3438216074e-11 +2.4932106029e-11 8.6366216745e-11 0.0000000000e+00 0.0000e+00 1.0000e+00
</event>
<event>
 5      1 +2.4041262e-06 9.11880000e+01 7.81860800e-03 1.13011600e-01
       25 -1    0    0    0    0 +0.0000000000e+00 +0.0000000000e+00 +9.9999998245e-15 1.2500000000e+02 1.2500000000e+02 0.0000e+00 0.0000e+00
       23  2    1    0    0    0 -8.6496029184e-01 +2.5350790326e+00 -2.9318051105e+01 9.5559842008e+01 9.0911828174e+01 0.0000e+00 0.0000e+00
      -11  1    2    2    0    0 -1.0309637629e+01 -4.1484689612e+01 -1.7791040678e+00 4.2783563570e+01 5.1100000000e-04 0.0000e+00 1.0000e+00
       11  1    2    2    0    0 +9.4446773375e+00 +4.4019768644e+01 -2.7538947037e+01 5.2776278437e+01 5.1100000000e-04 0.0000e+00 -1.0000e+00
       22  1    1    0    0    0 +8.6496029184e-01 -2.5350790326e+00 +2.9318051105e+01 2.9440157992e+01 0.0000000000e+00 0.0000e+00 -1.0000e+00
</event>
<event>
 4      1 +2.4041262e-06 9.11880000e+01 7.81860800e-03 1.13011600e-01
       25 -1    0    0    0    0 +0.0000000000e+00 +0.0000000000e+00 +9.9999998245e-15 1.2500000000e+02 1.2500000000e+02 0.0000e+00 0.0000e+00
      -13  1    1    0    0    0 +5.1255297797e+01 +2.4128819984e+00 -3.5683487534e+01 6.2499999988e+01 1.0566000000e-01 0.0000e+00 -1.0000e+00
       13  1    1    0    0    0 -5.1255238055e+01 -2.4128796181e+00 +3.5683448158e+01 6.2499928420e+01 1.0566000000e-01 0.0000e+00 -1.0000e+00
       22  1    1    0    0    0 -5.9742712235e-05 -2.3802693642e-06 +3.9376645638e-05 7.1591742325e-05 0.0000000000e+00 0.0000e+00 -1.0000e+00
</event>
<event>
 5      1 +2.4041262e-06 9.11880000e+01 7.81860800e-03 1.13011600e-01
       25 -1    0    0    0    0 +0.0000000000e+00 +0.0000000000e+00 +9.9999998245e-15 1.2500000000e+02 1.2500000000e+02 0.0000e+00 0.0000e+00
       23  2    1    0    0    0 -1.6081280914e+01 +2.0280385431e+01 +8.1443354234e-01 9.9104731493e+01 9.5661815126e+01 0.0000e+00 0.0000e+00
      -11  1    2    2    0    0 -1.5273828114e+01 +5.2777035537e+01 +2.3195452456e+01 5.9638362823e+01 5.1100000000e-04 0.0000e+00 -1.0000e+00
       11  1    2    2    0    0 -8.0745280048e-01 -3.2496650106e+01 -2.2381018914e+01 3.9466368670e+01 5.1100000000e-04 0.0000e+00 1.0000e+00
       22  1    1    0    0    0 +1.6081280914e+01 -2.0280385431e+01 -8.1443354234e-01 2.5895268507e+01 0.0000000000e+00 0.0000e+00 -1.0000e+00
</event>
<event>
 4      1 +2.4041262e-06 9.11880000e+01 7.81860800e-03 1.13011600e-01
       25 -1    0    0    0    0 +0.0000000000e+00 +0.0000000000e+00 +9.9999998245e-15 1.2500000000e+02 1.2500000000e+02 0.0000e+00 0.0000e+00
      -13  1    1    0    0    0 -4.8208892547e+00 +5.9177434113e+01 +1.9519967969e+01 6.2499999960e+01 1.0566000000e-01 0.0000e+00 1.0000e+00
       13  1    1    0    0    0 +4.8208892552e+00 -5.9177434152e+01 -1.9519967980e+01 6.2500000000e+01 1.0566000000e-01 0.0000e+00 1.0000e+00
       22  1    1    0    0    0 -5.2089843496e-10 +3.8811337332e-08 +1.1450719734e-08 4.0468632582e-08 0.0000000000e+00 0.0000e+00 1.0000e+00
</event>
<event>
 4      1 +2.4041262e-06 9.11880000e+01 7.81860800e-03 1.13011600e-01
       25 -1    0    0    0    0 +0.0000000000e+00 +0.0000000000e+00 +9.9999998245e-15 1.2500000000e+02 1.2500000000e+02 0.0000e+00 0.0000e+00
      -13  1    1    0    0    0 +4.7243968323e+01 +1.8830861158e+01 -3.6226024740e+01 6.2441411798e+01 1.0566000000e-01 0.0000e+00 1.0000e+00
       13  1    1    0    0    0 -4.4443639097e+01 -1.8005482006e+01 +3.5114917770e+01 5.9434863947e+01 1.0566000000e-01 0.0000e+00 1.0000e+00
       22  1    1    0    0    0 -2.8003292266e+00 -8.2537915190e-01 +1.1111069694e+00 3.1237242546e+00 0.0000000000e+00 0.0000e+00 -1.0000e+00
</event>
<event>
 4      1 +2.4041262e-06 9.11880000e+01 7.81860800e-03 1.13011600e-01
       25 -1    0    0    0    0 +0.0000000000e+00 +0.0000000000e+00 +9.9999998245e-15 1.2500000000e+02 1.2500000000e+02 0.0000e+00 0.0000e+00
      -13  1    1    0    0    0 +9.9668312663e-01 -9.3223636877e+00 -6.1792709875e+01 6.2499999997e+01 1.0566000000e-01 0.0000e+00 -1.0000e+00
       13  1    1    0    0    0 -9.9668313972e-01 +9.3223636953e+00 +6.1792709846e+01 6.2499999970e+01 1.0566000000e-01 0.0000e+00 -1.0000e+00
       22  1    1    0    0    0 +1.3081837721e-08 -7.5763899376e-09 +2.8657836355e-08 3.2400736831e-08 0.0000000000e+00 0.0000e+00 -1.0000e+00
</event>
<event>
 4      1 +2.4041262e-06 9.11880000e+01 7.81860800e-03 1.13011600e-01
       25 -1    0    0    0    0 +0.0000000000e+00 +0.0000000000e+00 +9.9999998245e-15 1.2500000000e+02 1.2500000000e+02 0.0000e+00 0.0000e+00
      -13  1    1    0    0    0 -9.3863103866e-02 +3.5545899496e+01 -4.8611195778e+01 6.0221086841e+01 1.0566000000e-01 0.0000e+00 -1.0000e+00
       13  1    1    0    0    0 +1.6261498053e-01 -3.6681259793e+01 +5.0594348141e+01 6.2492723508e+01 1.0566000000e-01 0.0000e+00 -1.0000e+00
       22  1    1    0    0    0 -6.8751876664e-02 +1.1353602968e+00 -1.9831523629e+00 2.2861896506e+00 0.0000000000e+00 0.0000e+00 1.0000e+00
</event>
<event>
 4      1 +2.4041262e-06 9.11880000e+01 7.81860800e-03 1.13011600e-01
       25 -1    0    0    0    0 +0.0000000000e+00 +0.0000000000e+00 +9.9999998245e-15 1.2500000000e+02 1.2500000000e+02 0.0000e+00 0.0000e+00
      -13  1    1    0    0    0 +2.7623844154e+01 +2.2246339304e+01 -5.1461271381e+01 6.2499999955e+01 1.0566000000e-01 0.0000e+00 1.0000e+00
       13  1    1    0    0    0 -2.7623839437e+01 -2.2246336578e+01 +5.1461261550e+01 6.2499988806e+01 1.0566000000e-01 0.0000e+00 1.0000e+00
       22  1    1    0    0    0 -4.7170269823e-06 -2.7258054695e-06 +9.8305235240e-06 1.1239197114e-05 0.0000000000e+00 0.0000e+00 -1.0000e+00
</event>
<event>
 4      1 +2.4041262e-06 9.11880000e+01 7.81860800e-03 1.13011600e-01
       25 -1    0    0    0    0 +0.0000000000e+00 +0.0000000000e+00 +9.9999998245e-15 1.2500000000e+02 1.2500000000e+02 0.0000e+00 0.0000e+00
      -11  1    1    0    0    0 +4.1019880379e+00 -1.3532272933e+00 -9.8351933228e+00 1.0741906624e+01 5.1100000000e-04 0.0000e+00 1.0000e+00
       11  1    1    0    0    0 +1.9766136291e+01 -6.5193984509e+00 -4.7388791192e+01 5.1758093385e+01 5.1100000000e-04 0.0000e+00 -1.0000e+00
       22  1    1    0    0    0 -2.3868124329e+01 +7.8726257442e+00 +5.7223984514e+01 6.2499999990e+01 0.0000000000e+00 0.0000e+00 1.0000e+00
</event>
<event>
 4      1 +2.4041262e-06 9.11880000e+01 7.81860800e-03 1.13011600e-01
       25 -1    0    0    0    0 +0.0000000000e+00 +0.0000000000e+00 +9.9999998245e-15 1.2500000000e+02 1.2500000000e+02 0.0000e+00 0.0000e+00
      -13  1    1    0    0    0 -2.3797865373e+00 +4.0222586198e+01 -4.7777808587e+01 6.2499999854e+01 1.0566000000e-01 0.0000e+00 1.0000e+00
       13  1    1    0    0    0 +2.3797865557e+00 -4.0222586272e+01 +4.7777808712e+01 6.2499999999e+01 1.0566000000e-01 0.0000e+00 1.0000e+00
       22  1    1    0    0    0 -1.8357159614e-08 +7.4289028068e-08 -1.2526268698e-07 1.4678755312e-07 0.0000000000e+00 0.0000e+00 1.0000e+00
</event>
<event>
 4      1 +2.4041262e-06 9.11880000e+01 7.81860800e-03 1.13011600e-01
       25 -1    0    0    0    0 +0.0000000000e+00 +0.0000000000e+00 +9.9999998245e-15 1.2500000000e+02 1.2500000000e+02 0.0000e+00 0.0000e+00
      -13  1    1    0    0    0 +2.1754175701e+01 -1.7692044271e+01 -5.5856836996e+01 6.2499999953e+01 1.0566000000e-01 0.0000e+00 1.0000e+00
       13  1    1    0    0    0 -2.1754175717e+01 +1.7692044284e+01 +5.5856837038e+01 6.2500000000e+01 1.0566000000e-01 0.0000e+00 1.0000e+00
       22  1    1    0    0    0 +1.5745724924e-08 -1.2821295458e-08 -4.1929024021e-08 4.6587085399e-08 0.0000000000e+00 0.0000e+00 1.0000e+00
</event>
<event>
 4      1 +2.4041262e-06 9.11880000e+01 7.81860800e-03 1.13011600e-01
       25 -1    0    0    0    0 +0.0000000000e+00 +0.0000000000e+00 +9.9999998245e-15 1.2500000000e+02 1.2500000000e+02 0.0000e+00 0.0000e+00
      -13  1    1    0    0    0 -5.2442045043e+01 -2.3709837875e+01 -2.4359524360e+01 6.2495776589e+01 1.0566000000e-01 0.0000e+00 -1.0000e+00
       13  1    1    0    0    0 +5.2445326398e+01 +2.3711649970e+01 +2.4361498326e+01 6.2499986960e+01 1.0566000000e-01 0.0000e+00 -1.0000e+00
       22  1    1    0    0    0 -3.2813540354e-03 -1.8120957124e-03 -1.9739663979e-03 4.2364511701e-03 0.0000000000e+00 0.0000e+00 -1.0000e+00
</event>
<event>
 4      1 +2.4041262e-06 9.11880000e+01 7.81860800e-03 1.13011600e-01
       25 -1    0    0    0    0 +0.0000000000e+00 +0.0000000000e+00 +9.9999998245e-15 1.2500000000e+02 1.2500000000e+02 0.0000e+00 0.0000e+00
      -13  1    1    0    0    0 +3.3423540615e+01 +3.8697813184e+01 -3.5938603790e+01 6.2499985751e+01 1.0566000000e-01 0.0000e+00 1.0000e+00
       13  1    1    0    0    0 -3.3423556501e+01 -3.8697819279e+01 +3.5938602313e+01 6.2499997170e+01 1.0566000000e-01 0.0000e+00 1.0000e+00
       22  1    1    0    0    0 +1.5885909986e-05 +6.0943088222e-06 +1.4774325569e-06 1.7078803912e-05 0.0000000000e+00 0.0000e+00 -1.0000e+00
</event>
<event>
 4      1 +2.4041262e-06 9.11880000e+01 7.81860800e-03 1.13011600e-01
       25 -1    0    0    0    0 +0.0000000000e+00 +0.0000000000e+00 +9.9999998245e-15 1.2500000000e+02 1.2500000000e+02 0.0000e+00 0.0000e+00
      -13  1    1    0    0    0 +3.9168472117e+01 -4.4455822757e+01 +1.9893452465e+01 6.2500000000e+01 1.0566000000e-01 0.0000e+00 -1.0000e+00
       13  1    1    0    0    0 -3.9168472104e+01 +4.4455822743e+01 -1.9893452460e+01 6.2499999980e+01 1.0566000000e-01 0.0000e+00 -1.0000e+00
       22  1    1    0    0    0 -1.2884347474e-08 +1.3854510910e-08 -4.9999636003e-09 1.9569198205e-08 0.0000000000e+00 0.0000e+00 -1.0000e+00
</event>
<event>
 4      1 +2.4041262e-06 9.11880000e+01 7.81860800e-03 1.13011600e-01
       25 -1    0    0    0    0 +0.0000000000e+00 +0.0000000000e+00 +9.9999998245e-15 1.2500000000e+02 1.2500000000e+02 0.0000e+00 0.0000e+00
      -13  1    1    0    0    0 -1.3584201865e+01 +3.0667258750e+01 -5.2737344583e+01 6.2499999818e+01 1.0566000000e-01 0.0000e+00 1.0000e+00
       13  1    1    0    0    0 +1.3584201879e+01 -3.0667258841e+01 +5.2737344741e+01 6.2499999999e+01 1.0566000000e-01 0.0000e+00 1.0000e+00
       22  1    1    0    0    0 -1.3545476707e-08 +9.0077747931e-08 -1.5834405002e-07 1.8267544659e-07 0.0000000000e+00 0.0000e+00 1.0000e+00
</event>
<event>
 4      1 +2.4041262e-06 9.11880000e+01 7.81860800e-03 1.13011600e-01
       25 -1    0    0    0    0 +0.0000000000e+00 +0.0000000000e+00 +9.9999998245e-15 1.2500000000e+02 1.2500000000e+02 0.0000e+00 0.0000e+00
      -11  1    1    0    0    0 +1.7156363874e+00 -3.7332308848e+01 +4.5157321042e+01 5.8615939266e+01 5.1100000000e-04 0.0000e+00 -1.0000e+00
       11  1    1    0    0    0 +1.1352013709e-01 -2.4682764304e+00 +2.9967775925e+00 3.8840637944e+00 5.1100000000e-04 0.0000e+00 1.0000e+00
       22  1    1    0    0    0 -1.8291565245e+00 +3.9800585279e+01 -4.8154098634e+01 6.2499996939e+01 0.0000000000e+00 0.0000e+00 -1.0000e+00
</event>
<event>
 4      1 +2.4041262e-06 9.11880000e+01 7.81860800e-03 1.13011600e-01
       25 -1    0    0    0    0 +0.0000000000e+00 +0.0000000000e+00 +9.9999998245e-15 1.2500000000e+02 1.2500000000e+02 0.0000e+00 0.0000e+00
      -13  1    1    0    0    0 +5.9160740521e+01 -1.8776364105e+01 -7.3276031488e+00 6.2500000000e+01 1.0566000000e-01 0.0000e+00 1.0000e+00
       13  1    1    0    0    0 -5.9160663240e+01 +1.8776339325e+01 +7.3275938605e+00 6.2499918314e+01 1.0566000000e-01 0.0000e+00 1.0000e+00
       22  1    1    0    0    0 -7.7280985669e-05 +2.4779819006e-05 +9.2883310003e-06 8.1686371377e-05 0.0000000000e+00 0.0000e+00 1.0000e+00
</event>
<event>
 4      1 +2.4041262e-06 9.11880000e+01 7.81860800e-03 1.13011600e-01
       25 -1    0    0    0    0 +0.0000000000e+00 +0.0000000000e+00 +9.9999998245e-15 1.2500000000e+02 1.2500000000e+02 0.0000e+00 0.0000e+00
      -13  1    1    0    0    0 +2.7905228268e+01 -5.2795732098e+01 -1.8432026487e+01 6.2496734770e+01 1.0566000000e-01 0.0000e+00 1.0000e+00
       13  1    1    0    0    0 -2.1228691291e+01 +4.0794697179e+01 +1.3942979425e+01 4.8054994445e+01 1.0566000000e-01 0.0000e+00 1.0000e+00
       22  1    1    0    0    0 -6.6765369769e+00 +1.2001034920e+01 +4.4890470618e+00 1.4448270785e+01 0.0000000000e+00 0.0000e+00 1.0000e+00
</event>
<event>
 4      1 +2.4041262e-06 9.11880000e+01 7.81860800e-03 1.13011600e-01
       25 -1    0    0    0    0 +0.0000000000e+00 +0.0000000000e+00 +9.9999998245e-15 1.2500000000e+02 1.2500000000e+02 0.0000e+00 0.0000e+00
      -13  1    1    0    0    0 -4.3112569802e+01 -4.5020563119e+01 -4.5490721614e+00 6.2500000000e+01 1.0566000000e-01 0.0000e+00 -1.0000e+00
       13  1    1    0    0    0 +4.3112569800e+01 +4.5020563116e+01 +4.5490721615e+00 6.2499999997e+01 1.0566000000e-01 0.0000e+00 -1.0000e+00
       22  1    1    0    0    0 +1.8877221979e-09 +2.4006641052e-09 -1.6517761021e-10 3.0584255566e-09 0.0000000000e+00 0.0000e+00 -1.0000e+00
</event>
<event>
 4      1 +2.4041262e-06 9.11880000e+01 7.81860800e-03 1.13011600e-01
       25 -1    0    0    0    0 +0.0000000000e+00 +0.0000000000e+00 +9.9999998245e-15 1.2500000000e+02 1.2500000000e+02 0.0000e+00 0.0000e+00
      -13  1    1    0    0    0 +2.8017405393e+00 +4.5233796533e+01 -4.3037968051e+01 6.2499791655e+01 1.0566000000e-01 0.0000e+00 1.0000e+00
       13  1    1    0    0    0 -2.7847603945e+00 -4.5108887321e+01 +4.2907425865e+01 6.2318736863e+01 1.0566000000e-01 0.0000e+00 1.0000e+00
       22  1    1    0    0    0 -1.6980144831e-02 -1.2490921210e-01 +1.3054218548e-01 1.8147148199e-01 0.0000000000e+00 0.0000e+00 -1.0000e+00
</event>
<event>
 4      1 +2.4041262e-06 9.11880000e+01 7.81860800e-03 1.13011600e-01
       25 -1    0    0    0    0 +0.0000000000e+00 +0.0000000000e+00 +9.9999998245e-15 1.2500000000e+02 1.2500000000e+02 0.0000e+00 0.0000e+00
      -13  1    1    0    0    0 +5.9394413210e+01 +1.3661230496e+01 -1.3853268818e+01 6.2499998082e+01 1.0566000000e-01 0.0000e+00 -1.0000e+00
       13  1    1    0    0    0 -5.9392604144e+01 -1.3660864894e+01 +1.3852961350e+01 6.2498130843e+01 1.0566000000e-01 0.0000e+00 -1.0000e+00
       22  1    1    0    0    0 -1.8090665739e-03 -3.6560202811e-04 +3.0746807967e-04 1.8710754479e-03 0.0000000000e+00 0.0000e+00 -1.0000e+00
</event>
<event>
 4      1 +2.4041262e-06 9.11880000e+01 7.81860800e-03 1.13011600e-01
       25 -1    0    0    0    0 +0.0000000000e+00 +0.0000000000e+00 +9.9999998245e-15 1.2500000000e+02 1.2500000000e+02 0.0000e+00 0.0000e+00
      -13  1    1    0    0    0 +4.6596375746e+01 +4.4093281483e+00 -2.2306238079e+01 5.1848277008e+01 1.0566000000e-01 0.0000e+00 1.0000e+00
       13  1    1    0    0    0 -5.6149030332e+01 -5.2286059148e+00 +2.6947322877e+01 6.2499770410e+01 1.0566000000e-01 0.0000e+00 1.0000e+00
       22  1    1    0    0    0 +9.5526545862e+00 +8.1927776647e-01 -4.6410847986e+00 1.0651952582e+01 0.0000000000e+00 0.0000e+00 -1.0000e+00
</event>
<event>
 4      1 +2.4041262e-06 9.11880000e+01 7.81860800e-03 1.13011600e-01
       25 -1    0    0    0    0 +0.0000000000e+00 +0.0000000000e+00 +9.9999998245e-15 1.2500000000e+02 1.2500000000e+02 0.0000e+00 0.0000e+00
      -13  1    1    0    0    0 +4.3285933816e+01 -3.5561056555e+01 +2.7709779907e+01 6.2498830999e+01 1.0566000000e-01 0.0000e+00 -1.0000e+00
       13  1    1    0    0    0 -4.3287297929e+01 +3.5559520430e+01 -2.7706882593e+01 6.2497617253e+01 1.0566000000e-01 0.0000e+00 -1.0000e+00
       22  1    1    0    0    0 +1.3641131854e-03 +1.5361251284e-03 -2.8973145244e-03 3.5517483929e-03 0.0000000000e+00 0.0000e+00 -1.0000e+00
</event>
<event>
 4      1 +2.4041262e-06 9.11880000e+01 7.81860800e-03 1.13011600e-01
       25 -1    0    0    0    0 +0.0000000000e+00 +0.0000000000e+00 +9.9999998245e-15 1.2500000000e+02 1.2500000000e+02 0.0000e+00 0.0000e+00
      -13  1    1    0    0    0 -1.4900578722e+01 +5.8704822494e+01 +1.5423342565e+01 6.2499392719e+01 1.0566000000e-01 0.0000e+00 -1.0000e+00
       13  1    1    0    0    0 +1.4900539378e+01 -5.8705415797e+01 -1.5423524400e+01 6.2499985493e+01 1.0566000000e-01 0.0000e+00 -1.0000e+00
       22  1    1    0    0    0 +3.9343672371e-05 +5.9330288275e-04 +1.8183439530e-04 6.2178773110e-04 0.0000000000e+00 0.0000e+00 1.0000e+00
</event>
<event>
 5      1 +2.4041262e-06 9.11880000e+01 7.81860800e-03 1.13011600e-01
       25 -1    0    0    0    0 +0.0000000000e+00 +0.0000000000e+00 +9.9999998245e-15 1.2500000000e+02 1.2500000000e+02 0.0000e+00 0.0000e+00
       23  2    1    0    0    0 +3.2321789548e+01 -2.9313057182e+01 +1.2131416520e+01 7.9710656135e+01 6.5594695165e+01 0.0000e+00 0.0000e+00
      -13  1    2    2    0    0 +3.6953033055e+01 -1.0336285050e+01 -1.9108540563e+01 4.2866221283e+01 1.0566000000e-01 0.0000e+00 -1.0000e+00
       13  1    2    2    0    0 -4.6312435071e+00 -1.8976772133e+01 +3.1239957083e+01 3.6844434852e+01 1.0566000000e-01 0.0000e+00 1.0000e+00
       22  1    1    0    0    0 -3.2321789548e+01 +2.9313057182e+01 -1.2131416520e+01 4.5289343865e+01 0.0000000000e+00 0.0000e+00 -1.0000e+00
</event>
<event>
 4      1 +2.4041262e-06 9.11880000e+01 7.81860800e-03 1.13011600e-01
       25 -1    0    0    0    0 +0.0000000000e+00 +0.0000000000e+00 +9.9999998245e-15 1.2500000000e+02 1.2500000000e+02 0.0000e+00 0.0000e+00
      -13  1    1    0    0    0 +2.9763043827e+00 -9.2970630417e-01 +2.4025133716e+00 3.9377628327e+00 1.0566000000e-01 0.0000e+00 -1.0000e+00
       13  1    1    0    0    0 +5.0975954695e+01 +2.9533497370e+01 +6.8093823588e+00 5.9305600715e+01 1.0566000000e-01 0.0000e+00 1.0000e+00
       22  1    1    0    0    0 -5.3952259078e+01 -2.8603791066e+01 -9.2118957304e+00 6.1756636452e+01 0.0000000000e+00 0.0000e+00 1.0000e+00
</event>
<event>
 4      1 +2.4041262e-06 9.11880000e+01 7.81860800e-03 1.13011600e-01
       25 -1    0    0    0    0 +0.0000000000e+00 +0.0000000000e+00 +9.9999998245e-15 1.2500000000e+02 1.2500000000e+02 0.0000e+00 0.0000e+00
      -11  1    1    0    0    0 +1.3548900108e+01 +3.2789451083e+01 +7.8151779611e-01 3.5487061963e+01 5.1100000000e-04 0.0000e+00 -1.0000e+00
       11  1    1    0    0    0 +1.0309003372e+01 +2.4961332801e+01 +5.9593841549e-01 2.7012938170e+01 5.1100000000e-04 0.0000e+00 1.0000e+00
       22  1    1    0    0    0 -2.3857903480e+01 -5.7750783884e+01 -1.3774562116e+00 6.2499999866e+01 0.0000000000e+00 0.0000e+00 -1.0000e+00
</event>
<event>
 4      1 +2.4041262e-06 9.11880000e+01 7.81860800e-03 1.13011600e-01
       25 -1    0    0    0    0 +0.0000000000e+00 +0.0000000000e+00 +9.9999998245e-15 1.2500000000e+02 1.2500000000e+02 0.0000e+00 0.0000e+00
      -11  1    1    0    0    0 -4.8918563216e+00 +4.8702215787e+01 -1.4089182319e+01 5.0934675218e+01 5.1100000000e-04 0.0000e+00 -1.0000e+00
       11  1    1    0    0    0 -7.3257665609e-03 +1.1287502466e+01 -2.6443081779e+00 1.1593107073e+01 5.1100000000e-04 0.0000e+00 1.0000e+00
       22  1    1    0    0    0 +4.8991820882e+00 -5.9989718254e+01 +1.6733490497e+01 6.2472217709e+01 0.0000000000e+00 0.0000e+00 -1.0000e+00
</event>
<event>
 4      1 +2.4041262e-06 9.11880000e+01 7.81860800e-03 1.13011600e-01
       25 -1    0    0    0    0 +0.0000000000e+00 +0.0000000000e+00 +9.9999998245e-15 1.2500000000e+02 1.2500000000e+02 0.0000e+00 0.0000e+00
      -13  1    1    0    0    0 +6.1089062291e+01 -1.1580882542e+01 -6.1811771907e+00 6.2483665766e+01 1.0566000000e-01 0.0000e+00 1.0000e+00
       13  1    1    0    0    0 -6.1066102462e+01 +1.1544419721e+01 +6.2200162453e+00 6.2458324206e+01 1.0566000000e-01 0.0000e+00 1.0000e+00
       22  1    1    0    0    0 -2.2959829646e-02 +3.6462821771e-02 -3.8839054526e-02 5.8010027628e-02 0.0000000000e+00 0.0000e+00 -1.0000e+00
</event>
<event>
 5      1 +2.4041262e-06 9.11880000e+01 7.81860800e-03 1.13011600e-01
       25 -1    0    0    0    0 +0.0000000000e+00 +0.0000000000e+00 +9.9999998245e-15 1.2500000000e+02 1.2500000000e+02 0.0000e+00 0.0000e+00
       23  2    1    0    0    0 +1.0097695883e+01 -2.6723385064e+01 +1.0730083054e+00 9.6412343254e+01 9.2076521510e+01 0.0000e+00 0.0000e+00
      -11  1    2    2    0    0 +4.0996128419e+01 -2.4000224674e+01 -2.6944335737e+01 5.4614014303e+01 5.1100000000e-04 0.0000e+00 -1.0000e+00
       11  1    2    2    0    0 -3.0898432535e+01 -2.7231603903e+00 +2.8017344042e+01 4.1798328951e+01 5.1100000000e-04 0.0000e+00 1.0000e+00
       22  1    1    0    0    0 -1.0097695883e+01 +2.6723385064e+01 -1.0730083054e+00 2.8587656746e+01 0.0000000000e+00 0.0000e+00 -1.0000e+00
</event>
<event>
 4      1 +2.4041262e-06 9.11880000e+01 7.81860800e-03 1.13011600e-01
       25 -1    0    0    0    0 +0.0000000000e+00 +0.0000000000e+00 +9.9999998245e-15 1.2500000000e+02 1.2500000000e+02 0.0000e+00 0.0000e+00
      -13  1    1    0    0    0 +1.4758183449e+01 +1.5669307637e+01 +4.0488607190e+01 4.5854876041e+01 1.0566000000e-01 0.0000e+00 1.0000e+00
       13  1    1    0    0    0 +4.6718847900e+00 +6.0602731948e+00 +1.4789505417e+01 1.6652148607e+01 1.0566000000e-01 0.0000e+00 -1.0000e+00
       22  1    1    0    0    0 -1.9430068239e+01 -2.1729580832e+01 -5.5278112608e+01 6.2492975352e+01 0.0000000000e+00 0.0000e+00 1.0000e+00
</event>
<event>
 4      1 +2.4041262e-06 9.11880000e+01 7.81860800e-03 1.13011600e-01
       25 -1    0    0    0    0 +0.0000000000e+00 +0.0000000000e+00 +9.9999998245e-15 1.2500000000e+02 1.2500000000e+02 0.0000e+00 0.0000e+00
      -13  1    1    0    0    0 -6.1342294899e+01 +9.9596552049e+00 +6.6458227718e+00 6.2499999997e+01 1.0566000000e-01 0.0000e+00 -1.0000e+00
       13  1    1    0    0    0 +6.1342139945e+01 -9.9596287791e+00 -6.6458062901e+00 6.2499841949e+01 1.0566000000e-01 0.0000e+00 -1.0000e+00
       22  1    1    0    0    0 +1.5495439596e-04 -2.6425841801e-05 -1.6481719434e-05 1.5805327272e-04 0.0000000000e+00 0.0000e+00 1.0000e+00
</event>
<event>
 4      1 +2.4041262e-06 9.11880000e+01 7.81860800e-03 1.13011600e-01
       25 -1    0    0    0    0 +0.0000000000e+00 +0.0000000000e+00 +9.9999998245e-15 1.2500000000e+02 1.2500000000e+02 0.0000e+00 0.0000e+00
      -13  1    1    0    0    0 -3.5793140536e+01 -2.1815219980e+01 +4.6359315105e+01 6.2499999946e+01 1.0566000000e-01 0.0000e+00 1.0000e+00
       13  1    1    0    0    0 +3.5793140569e+01 +2.1815219999e+01 -4.6359315143e+01 6.2500000000e+01 1.0566000000e-01 0.0000e+00 1.0000e+00
       22  1    1    0    0    0 -3.3578824728e-08 -1.8798542495e-08 +3.8233473532e-08 5.4246853995e-08 0.0000000000e+00 0.0000e+00 1.0000e+00
</event>
<event>
 4      1 +2.4041262e-06 9.11880000e+01 7.81860800e-03 1.13011600e-01
       25 -1    0    0    0    0 +0.0000000000e+00 +0.0000000000e+00 +9.9999998245e-15 1.2500000000e+02 1.2500000000e+02 0.0000e+00 0.0000e+00
      -13  1    1    0    0    0 -2.1096826545e+01 +5.6990840137e+01 +1.4387696047e+01 6.2450371587e+01 1.0566000000e-01 0.0000e+00 -1.0000e+00
       13  1    1    0    0    0 +2.1218963199e+01 -5.6865687992e+01 -1.4319496603e+01 6.2361927625e+01 1.0566000000e-01 0.0000e+00 -1.0000e+00
       22  1    1    0    0    0 -1.2213665439e-01 -1.2515214478e-01 -6.8199444794e-02 1.8770078838e-01 0.0000000000e+00 0.0000e+00 -1.0000e+00
</event>
<event>
 4      1 +2.4041262e-06 9.11880000e+01 7.81860800e-03 1.13011600e-01
       25 -1    0    0    0    0 +0.0000000000e+00 +0.0000000000e+00 +9.9999998245e-15 1.2500000000e+02 1.2500000000e+02 0.0000e+00 0.0000e+00
      -13  1    1    0    0    0 -4.2798594555e+01 +4.2388882809e+01 +1.6664385778e+01 6.2499999992e+01 1.0566000000e-01 0.0000e+00 1.0000e+00
       13  1    1    0    0    0 +4.2798594560e+01 -4.2388882815e+01 -1.6664385775e+01 6.2499999999e+01 1.0566000000e-01 0.0000e+00 1.0000e+00
       22  1    1    0    0    0 -5.6278398714e-09 +5.8249386787e-09 -2.7655629381e-09 8.5586699080e-09 0.0000000000e+00 0.0000e+00 -1.0000e+00
</event>
<event>
 4      1 +2.4041262e-06 9.11880000e+01 7.81860800e-03 1.13011600e-01
       25 -1    0    0    0    0 +0.0000000000e+00 +0.0000000000e+00 +9.9999998245e-15 1.2500000000e+02 1.2500000000e+02 0.0000e+00 0.0000e+00
      -11  1    1    0    0    0 +1.3678194014e+01 +2.9840934845e+00 +8.6406320005e+00 1.6451696783e+01 5.1100000000e-04 0.0000e+00 -1.0000e+00
       11  1    1    0    0    0 +4.0510405661e+01 +1.0644104506e+00 +2.2055981275e+01 4.6137752944e+01 5.1100000000e-04 0.0000e+00 1.0000e+00
       22  1    1    0    0    0 -5.4188599675e+01 -4.0485039351e+00 -3.0696613275e+01 6.2410550273e+01 0.0000000000e+00 0.0000e+00 1.0000e+00
</event>
<event>
 4      1 +2.4041262e-06 9.11880000e+01 7.81860800e-03 1.13011600e-01
       25 -1    0    0    0    0 +0.0000000000e+00 +0.0000000000e+00 +9.9999998245e-15 1.2500000000e+02 1.2500000000e+02 0.0000e+00 0.0000e+00
      -13  1    1    0    0    0 -3.1024288006e+01 -7.4211289271e+00 -5.3072114521e+01 6.1921241142e+01 1.0566000000e-01 0.0000e+00 1.0000e+00
       13  1    1    0    0    0 +3.1312363926e+01 +7.4910648415e+00 +5.3569191983e+01 6.2499997447e+01 1.0566000000e-01 0.0000e+00 1.0000e+00
       22  1    1    0    0    0 -2.8807592003e-01 -6.9935914409e-02 -4.9707746227e-01 5.7876141140e-01 0.0000000000e+00 0.0000e+00 1.0000e+00
</event>
<event>
 5      1 +2.4041262e-06 9.11880000e+01 7.81860800e-03 1.13011600e-01
       25 -1    0    0    0    0 +0.0000000000e+00 +0.0000000000e+00 +9.9999998245e-15 1.2500000000e+02 1.2500000000e+02 0.0000e+00 0.0000e+00
       23  2    1    0    0    0 -2.5330059952e+01 -1.5953581943e+01 -1.7611340923e+01 9.0268342351e+01 8.3319178991e+01 0.0000e+00 0.0000e+00
      -11  1    2    2    0    0 -5.1278553852e+01 -3.9603443062e+00 +7.8013785764e+00 5.2019572471e+01 5.1100000000e-04 0.0000e+00 1.0000e+00
       11  1    2    2    0    0 +2.5948493900e+01 -1.1993237637e+01 -2.5412719499e+01 3.8248769880e+01 5.1100000000e-04 0.0000e+00 -1.0000e+00
       22  1    1    0    0    0 +2.5330059952e+01 +1.5953581943e+01 +1.7611340923e+01 3.4731657649e+01 0.0000000000e+00 0.0000e+00 1.0000e+00
</event>
<event>
 4      1 +2.4041262e-06 9.11880000e+01 7.81860800e-03 1.13011600e-01
       25 -1    0    0    0    0 +0.0000000000e+00 +0.0000000000e+00 +9.9999998245e-15 1.2500000000e+02 1.2500000000e+02 0.0000e+00 0.0000e+00
      -13  1    1    0    0    0 -2.1318757904e+00 +7.6022510514e-01 +6.2458914472e+01 6.2499999981e+01 1.0566000000e-01 0.0000e+00 1.0000e+00
       13  1    1    0    0    0 +2.1318760226e+00 -7.6022399313e-01 -6.2458873544e+01 6.2499959074e+01 1.0566000000e-01 0.0000e+00 1.0000e+00
       22  1    1    0    0    0 -2.3214261205e-07 -1.1120067787e-06 -4.0928486158e-05 4.0944247807e-05 0.0000000000e+00 0.0000e+00 -1.0000e+00
</event>
<event>
 4      1 +2.4041262e-06 9.11880000e+01 7.81860800e-03 1.13011600e-01
       25 -1    0    0    0    0 +0.0000000000e+00 +0.0000000000e+00 +9.9999998245e-15 1.2500000000e+02 1.2500000000e+02 0.0000e+00 0.0000e+00
      -13  1    1    0    0    0 -3.1611975397e+01 +1.9913051614e+01 +5.0103814454e+01 6.2500000000e+01 1.0566000000e-01 0.0000e+00 -1.0000e+00
       13  1    1    0    0    0 +3.1611975080e+01 -1.9913051420e+01 -5.0103813971e+01 6.2499999390e+01 1.0566000000e-01 0.0000e+00 -1.0000e+00
       22  1    1    0    0    0 +3.1678173320e-07 -1.9408955093e-07 -4.8332874077e-07 6.0961306738e-07 0.0000000000e+00 0.0000e+00 1.0000e+00
</event>
<event>
 4      1 +2.4041262e-06 9.11880000e+01 7.81860800e-03 1.13011600e-01
       25 -1    0    0    0    0 +0.0000000000e+00 +0.0000000000e+00 +9.9999998245e-15 1.2500000000e+02 1.2500000000e+02 0.0000e+00 0.0000e+00
      -13  1    1    0    0    0 -2.1635598164e+01 -3.1734488485e+01 -4.9305800062e+01 6.2499999609e+01 1.0566000000e-01 0.0000e+00 1.0000e+00
       13  1    1    0    0    0 +2.1635598297e+01 +3.1734488680e+01 +4.9305800374e+01 6.2500000000e+01 1.0566000000e-01 0.0000e+00 1.0000e+00
       22  1    1    0    0    0 -1.3293658253e-07 -1.9524498825e-07 -3.1200428522e-07 3.9133031368e-07 0.0000000000e+00 0.0000e+00 1.0000e+00
</event>
<event>
 4      1 +2.4041262e-06 9.11880000e+01 7.81860800e-03 1.13011600e-01
       25 -1    0    0    0    0 +0.0000000000e+00 +0.0000000000e+00 +9.9999998245e-15 1.2500000000e+02 1.2500000000e+02 0.0000e+00 0.0000e+00
      -13  1    1    0    0    0 +3.8159248911e+01 -4.5983844569e+01 +1.8319295488e+01 6.2499999920e+01 1.0566000000e-01 0.0000e+00 -1.0000e+00
       13  1    1    0    0    0 -3.8159248414e+01 +4.5983843314e+01 -1.8319295599e+01 6.2499998726e+01 1.0566000000e-01 0.0000e+00 -1.0000e+00
       22  1    1    0    0    0 -4.9660836932e-07 +1.2548571764e-06 +1.1077205928e-07 1.3540889390e-06 0.0000000000e+00 0.0000e+00 -1.0000e+00
</event>
<event>
 4      1 +2.4041262e-06 9.11880000e+01 7.81860800e-03 1.13011600e-01
       25 -1    0    0    0    0 +0.0000000000e+00 +0.0000000000e+00 +9.9999998245e-15 1.2500000000e+02 1.2500000000e+02 0.0000e+00 0.0000e+00
      -11  1    1    0    0    0 +2.6897680148e+00 +6.2106346360e+00 -1.0009190462e+01 1.2082662311e+01 5.1100000000e-04 0.0000e+00 -1.0000e+00
       11  1    1    0    0    0 +1.1094151441e+01 +2.5973191993e+01 -4.1763895740e+01 5.0417356993e+01 5.1100000000e-04 0.0000e+00 1.0000e+00
       22  1    1    0    0    0 -1.3783919456e+01 -3.2183826629e+01 +5.1773086202e+01 6.2499980696e+01 0.0000000000e+00 0.0000e+00 1.0000e+00
</event>
<event>
 4      1 +2.4041262e-06 9.11880000e+01 7.81860800e-03 1.13011600e-01
       25 -1    0    0    0    0 +0.0000000000e+00 +0.0000000000e+00 +9.9999998245e-15 1.2500000000e+02 1.2500000000e+02 0.0000e+00 0.0000e+00
      -13  1    1    0    0    0 +6.0483696681e+01 +1.3849231250e+01 -7.4940019660e+00 6.2499999999e+01 1.0566000000e-01 0.0000e+00 1.0000e+00
       13  1    1    0    0    0 -6.0483696682e+01 -1.3849231250e+01 +7.4940019660e+00 6.2500000000e+01 1.0566000000e-01 0.0000e+00 1.0000e+00
       22  1    1    0    0    0 +5.0262927850e-10 +1.5390428756e-10 +1.1905856279e-11 5.2579888812e-10 0.0000000000e+00 0.0000e+00 -1.0000e+00
</event>
<event>
 4      1 +2.4041262e-06 9.11880000e+01 7.81860800e-03 1.13011600e-01
       25 -1    0    0    0    0 +0.0000000000e+00 +0.0000000000e+00 +9.9999998245e-15 1.2500000000e+02 1.2500000000e+02 0.0000e+00 0.0000e+00
      -11  1    1    0    0    0 -2.9232411894e+01 +2.1811693222e+01 -3.8379463320e+01 5.2945888144e+01 5.1100000000e-04 0.0000e+00 -1.0000e+00
       11  1    1    0    0    0 -5.3632127016e+00 +3.9394269642e+00 -6.8558935683e+00 9.5543922973e+00 5.1100000000e-04 0.0000e+00 1.0000e+00
       22  1    1    0    0    0 +3.4595624596e+01 -2.5751120186e+01 +4.5235356889e+01 6.2499719558e+01 0.0000000000e+00 0.0000e+00 -1.0000e+00
</event>
<event>
 4      1 +2.4041262e-06 9.11880000e+01 7.81860800e-03 1.13011600e-01
       25 -1    0    0    0    0 +0.0000000000e+00 +0.0000000000e+00 +9.9999998245e-15 1.2500000000e+02 1.2500000000e+02 0.0000e+00 0.0000e+00
      -13  1    1    0    0    0 +3.2912650739e+01 +4.6519673873e+01 -2.5591796095e+01 6.2468182520e+01 1.0566000000e-01 0.0000e+00 1.0000e+00
       13  1    1    0    0    0 -3.1988257060e+01 -4.5515482471e+01 +2.4517940491e+01 6.0795133886e+01 1.0566000000e-01 0.0000e+00 1.0000e+00
       22  1    1    0    0    0 -9.2439367866e-01 -1.0041914028e+00 +1.0738556043e+00 1.7366835939e+00 0.0000000000e+00 0.0000e+00 1.0000e+00
</event>
<event>
 5      1 +2.4041262e-06 9.11880000e+01 7.81860800e-03 1.13011600e-01
       25 -1    0    0    0    0 +0.0000000000e+00 +0.0000000000e+00 +9.9999998245e-15 1.2500000000e+02 1.2500000000e+02 0.0000e+00 0.0000e+00
       23  2    1    0    0    0 -1.0478846841e+00 -6.3885135317e+00 -2.9727822578e+01 9.4575427650e+01 8.9548070401e+01 0.0000e+00 0.0000e+00
      -13  1    2    2    0    0 +7.0273535204e+00 -2.0315827658e+01 -5.8102386611e+01 6.1951715431e+01 1.0566000000e-01 0.0000e+00 -1.0000e+00
       13  1    2    2    0    0 -8.0752382045e+00 +1.3927314126e+01 +2.8374564033e+01 3.2623712219e+01 1.0566000000e-01 0.0000e+00 1.0000e+00
       22  1    1    0    0    0 +1.0478846841e+00 +6.3885135317e+00 +2.9727822578e+01 3.0424572350e+01 0.0000000000e+00 0.0000e+00 -1.0000e+00
</event>
<event>
 4      1 +2.4041262e-06 9.11880000e+01 7.81860800e-03 1.13011600e-01
       25 -1    0    0    0    0 +0.0000000000e+00 +0.0000000000e+00 +9.9999998245e-15 1.2500000000e+02 1.2500000000e+02 0.0000e+00 0.0000e+00
      -13  1    1    0    0    0 -2.9239061055e+01 +3.5093616704e+01 -6.5112494475e+00 4.6139919356e+01 1.0566000000e-01 0.0000e+00 1.0000e+00
       13  1    1    0    0    0 +5.5599268362e+00 +1.7567679607e+01 -6.7368131639e+00 1.9619683199e+01 1.0566000000e-01 0.0000e+00 -1.0000e+00
       22  1    1    0    0    0 +2.3679134219e+01 -5.2661296311e+01 +1.3248062611e+01 5.9240397445e+01 0.0000000000e+00 0.0000e+00 1.0000e+00
</event>
<event>
 4      1 +2.4041262e-06 9.11880000e+01 7.81860800e-03 1.13011600e-01
       25 -1    0    0    0    0 +0.0000000000e+00 +0.0000000000e+00 +9.9999998245e-15 1.2500000000e+02 1.2500000000e+02 0.0000e+00 0.0000e+00
      -13  1    1    0    0    0 +6.6415855647e+00 +1.4158474389e+01 +6.0511699210e+01 6.2499999689e+01 1.0566000000e-01 0.0000e+00 -1.0000e+00
       13  1    1    0    0    0 -6.6415855450e+00 -1.4158474429e+01 -6.0511699521e+01 6.2499999997e+01 1.0566000000e-01 0.0000e+00 -1.0000e+00
       22  1    1    0    0    0 -1.9731975405e-08 +3.9968453825e-08 +3.1044449742e-07 3.1362814627e-07 0.0000000000e+00 0.0000e+00 1.0000e+00
</event>
<event>
 5      1 +2.4041262e-06 9.11880000e+01 7.81860800e-03 1.13011600e-01
       25 -1    0    0    0    0 +0.0000000000e+00 +0.0000000000e+00 +9.9999998245e-15 1.2500000000e+02 1.2500000000e+02 0.0000e+00 0.0000e+00
       23  2    1    0    0    0 +2.5367963803e+01 -5.1902088273e+00 -1.2395658346e+01 9.6292436519e+01 9.1913596001e+01 0.0000e+00 0.0000e+00
      -11  1    2    2    0    0 +4.2659440953e+01 -3.7895621764e+01 -1.5612004294e+01 5.9157761364e+01 5.1100000000e-04 0.0000e+00 -1.0000e+00
       11  1    2    2    0    0 -1.7291477150e+01 +3.2705412936e+01 +3.2163459481e+00 3.7134675155e+01 5.1100000000e-04 0.0000e+00 1.0000e+00
       22  1    1    0    0    0 -2.5367963803e+01 +5.1902088273e+00 +1.2395658346e+01 2.8707563481e+01 0.0000000000e+00 0.0000e+00 -1.0000e+00
</event>
<event>
 4      1 +2.4041262e-06 9.11880000e+01 7.81860800e-03 1.13011600e-01
       25 -1    0    0    0    0 +0.0000000000e+00 +0.0000000000e+00 +9.9999998245e-15 1.2500000000e+02 1.2500000000e+02 0.0000e+00 0.0000e+00
      -13  1    1    0    0    0 +3.4074924375e+01 -5.1738602396e+01 -8.2616817946e+00 6.2499999993e+01 1.0566000000e-01 0.0000e+00 1.0000e+00
       13  1    1    0    0    0 -3.4074924379e+01 +5.1738602401e+01 +8.2616817955e+00 6.2500000000e+01 1.0566000000e-01 0.0000e+00 1.0000e+00
       22  1    1    0    0    0 +4.1785125751e-09 -4.9610666636e-09 -8.2788610012e-10 6.5389253839e-09 0.0000000000e+00 0.0000e+00 -1.0000e+00
</event>
<event>
 4      1 +2.4041262e-06 9.11880000e+01 7.81860800e-03 1.13011600e-01
       25 -1    0    0    0    0 +0.0000000000e+00 +0.0000000000e+00 +9.9999998245e-15 1.2500000000e+02 1.2500000000e+02 0.0000e+00 0.0000e+00
      -13  1    1    0    0    0 +3.8712459432e+01 -2.5087121060e+01 -4.1927659572e+01 6.2337452302e+01 1.0566000000e-01 0.0000e+00 -1.0000e+00
       13  1    1    0    0    0 -3.8805054032e+01 +2.5156807147e+01 +4.2041886212e+01 6.2499828196e+01 1.0566000000e-01 0.0000e+00 -1.0000e+00
       22  1    1    0    0    0 +9.2594600596e-02 -6.9686086447e-02 -1.1422664090e-01 1.6271950158e-01 0.0000000000e+00 0.0000e+00 1.0000e+00
</event>
<event>
 4      1 +2.4041262e-06 9.11880000e+01 7.81860800e-03 1.13011600e-01
       25 -1    0    0    0    0 +0.0000000000e+00 +0.0000000000e+00 +9.9999998245e-15 1.2500000000e+02 1.2500000000e+02 0.0000e+00 0.0000e+00
      -13  1    1    0    0    0 -2.3409269727e+01 +1.2153889129e+01 -2.0632032384e+00 2.6457114388e+01 1.0566000000e-01 0.0000e+00 -1.0000e+00
       13  1    1    0    0    0 -1.2464358838e+01 +3.0246768661e+01 +2.2121189935e+01 3.9491587254e+01 1.0566000000e-01 0.0000e+00 1.0000e+00
       22  1    1    0    0    0 +3.5873628565e+01 -4.2400657790e+01 -2.0057986697e+01 5.9051298358e+01 0.0000000000e+00 0.0000e+00 1.0000e+00
</event>
<event>
 5      1 +2.4041262e-06 9.11880000e+01 7.81860800e-03 1.13011600e-01
       25 -1    0    0    0    0 +0.0000000000e+00 +0.0000000000e+00 +9.9999998245e-15 1.2500000000e+02 1.2500000000e+02 0.0000e+00 0.0000e+00
       23  2    1    0    0    0 -1.2968947531e+01 -1.9132591128e+01 -1.4795120110e+01 9.7556508560e+01 9.3616916955e+01 0.0000e+00 0.0000e+00
      -13  1    2    2    0    0 -2.5402543048e+01 +3.1718581602e+01 +6.2890287216e+00 4.1120805664e+01 1.0566000000e-01 0.0000e+00 -1.0000e+00
       13  1    2    2    0    0 +1.2433595517e+01 -5.0851172729e+01 -2.1084148832e+01 5.6435702897e+01 1.0566000000e-01 0.0000e+00 1.0000e+00
       22  1    1    0    0    0 +1.2968947531e+01 +1.9132591128e+01 +1.4795120110e+01 2.7443491440e+01 0.0000000000e+00 0.0000e+00 1.0000e+00
</event>
<event>
 4      1 +2.4041262e-06 9.11880000e+01 7.81860800e-03 1.13011600e-01
       25 -1    0    0    0    0 +0.0000000000e+00 +0.0000000000e+00 +9.9999998245e-15 1.2500000000e+02 1.2500000000e+02 0.0000e+00 0.0000e+00
      -13  1    1    0    0    0 +5.6659294758e+01 +2.3042262011e+01 +1.2845899175e+01 6.2499998485e+01 1.0566000000e-01 0.0000e+00 1.0000e+00
       13  1    1    0    0    0 -5.6659142202e+01 -2.3042221173e+01 -1.2845840716e+01 6.2499833115e+01 1.0566000000e-01 0.0000e+00 1.0000e+00
       22  1    1    0    0    0 -1.5255620018e-04 -4.0837565432e-05 -5.8458902699e-05 1.6839995330e-04 0.0000000000e+00 0.0000e+00 -1.0000e+00
</event>
<event>
 4      1 +2.4041262e-06 9.11880000e+01 7.81860800e-03 1.13011600e-01
       25 -1    0    0    0    0 +0.0000000000e+00 +0.0000000000e+00 +9.9999998245e-15 1.2500000000e+02 1.2500000000e+02 0.0000e+00 0.0000e+00
      -13  1    1    0    0    0 -5.6746807198e+01 +1.1615888076e+01 -2.3475729020e+01 6.2500000000e+01 1.0566000000e-01 0.0000e+00 1.0000e+00
       13  1    1    0    0    0 +5.6746807194e+01 -1.1615888075e+01 +2.3475729017e+01 6.2499999995e+01 1.0566000000e-01 0.0000e+00 1.0000e+00
       22  1    1    0    0    0 +4.0895049722e-09 -8.2412164052e-10 +2.5790116167e-09 4.9045416008e-09 0.0000000000e+00 0.0000e+00 1.0000e+00
</event>
<event>
 5      1 +2.4041262e-06 9.11880000e+01 7.81860800e-03 1.13011600e-01
       25 -1    0    0    0    0 +0.0000000000e+00 +0.0000000000e+00 +9.9999998245e-15 1.2500000000e+02 1.2500000000e+02 0.0000e+00 0.0000e+00
       23  2    1    0    0    0 -1.4649631624e+01 -2.7384021173e+01 -9.1140246855e+00 9.2633941107e+01 8.6795652407e+01 0.0000e+00 0.0000e+00
      -13  1    2    2    0    0 +1.9818637677e+01 -4.1143479565e+01 -2.5228389853e+01 5.2173241501e+01 1.0566000000e-01 0.0000e+00 -1.0000e+00
       13  1    2    2    0    0 -3.4468269300e+01 +1.3759458393e+01 +1.6114365167e+01 4.0460699606e+01 1.0566000000e-01 0.0000e+00 1.0000e+00
       22  1    1    0    0    0 +1.4649631624e+01 +2.7384021173e+01 +9.1140246855e+00 3.2366058893e+01 0.0000000000e+00 0.0000e+00 -1.0000e+00
</event>
<event>
 4      1 +2.4041262e-06 9.11880000e+01 7.81860800e-03 1.13011600e-01
       25 -1    0    0    0    0 +0.0000000000e+00 +0.0000000000e+00 +9.9999998245e-15 1.2500000000e+02 1.2500000000e+02 0.0000e+00 0.0000e+00
      -13  1    1    0    0    0 +6.8584831913e+00 +1.6869429316e+01 -5.2010721336e+00 1.8938816027e+01 1.0566000000e-01 0.0000e+00 1.0000e+00
       13  1    1    0    0    0 +1.2080813267e+01 +3.9602914521e+01 -1.3632139428e+01 4.3591091718e+01 1.0566000000e-01 0.0000e+00 -1.0000e+00
       22  1    1    0    0    0 -1.8939296458e+01 -5.6472343836e+01 +1.8833211562e+01 6.2470092256e+01 0.0000000000e+00 0.0000e+00 -1.0000e+00
</event>
<event>
 4      1 +2.4041262e-06 9.11880000e+01 7.81860800e-03 1.13011600e-01
       25 -1    0    0    0    0 +0.0000000000e+00 +0.0000000000e+00 +9.9999998245e-15 1.2500000000e+02 1.2500000000e+02 0.0000e+00 0.0000e+00
      -13  1    1    0    0    0 +8.8025186637e+00 +5.9152884763e+01 +1.8157387617e+01 6.2499999998e+01 1.0566000000e-01 0.0000e+00 1.0000e+00
       13  1    1    0    0    0 -8.8025186621e+00 -5.9152884765e+01 -1.8157387616e+01 6.2499999999e+01 1.0566000000e-01 0.0000e+00 1.0000e+00
       22  1    1    0    0    0 -1.6314589821e-09 +1.8810546708e-09 -9.7416587408e-10 2.6737659274e-09 0.0000000000e+00 0.0000e+00 -1.0000e+00
</event>
<event>
 4      1 +2.4041262e-06 9.11880000e+01 7.81860800e-03 1.13011600e-01
       25 -1    0    0    0    0 +0.0000000000e+00 +0.0000000000e+00 +9.9999998245e-15 1.2500000000e+02 1.2500000000e+02 0.0000e+00 0.0000e+00
      -11  1    1    0    0    0 -1.7148195504e+01 +2.2551461913e+01 +2.2535845974e+00 2.8420198579e+01 5.1100000000e-04 0.0000e+00 1.0000e+00
       11  1    1    0    0    0 -2.0561282400e+01 +2.7043769452e+01 +2.7020484775e+00 3.4079801443e+01 5.1100000000e-04 0.0000e+00 -1.0000e+00
       22  1    1    0    0    0 +3.7709477905e+01 -4.9595231366e+01 -4.9556330749e+00 6.2499999978e+01 0.0000000000e+00 0.0000e+00 -1.0000e+00
</event>
<event>
 4      1 +2.4041262e-06 9.11880000e+01 7.81860800e-03 1.13011600e-01
       25 -1    0    0    0    0 +0.0000000000e+00 +0.0000000000e+00 +9.9999998245e-15 1.2500000000e+02 1.2500000000e+02 0.0000e+00 0.0000e+00
      -11  1    1    0    0    0 -1.5997555571e+01 +2.7690753678e+00 +1.6221995072e+01 2.2950875517e+01 5.1100000000e-04 0.0000e+00 1.0000e+00
       11  1    1    0    0    0 -3.1953966144e+01 +2.4066893920e+00 +2.3360825721e+01 3.9655721968e+01 5.1100000000e-04 0.0000e+00 -1.0000e+00
       22  1    1    0    0    0 +4.7951521714e+01 -5.1757647598e+00 -3.9582820792e+01 6.2393402516e+01 0.0000000000e+00 0.0000e+00 -1.0000e+00
</event>
<event>
 5      1 +2.4041262e-06 9.11880000e+01 7.81860800e-03 1.13011600e-01
       25 -1    0    0    0    0 +0.0000000000e+00 +0.0000000000e+00 +9.9999998245e-15 1.2500000000e+02 1.2500000000e+02 0.0000e+00 0.0000e+00
       23  2    1    0    0    0 +3.4359006896e+00 -7.9535514561e+00 -2.7777083275e+01 9.5903080067e+01 9.1382547660e+01 0.0000e+00 0.0000e+00
      -11  1    2    2    0    0 +3.2939367533e+01 -1.0981058562e+00 +2.0570934738e+01 3.8850625815e+01 5.1100000000e-04 0.0000e+00 1.0000e+00
       11  1    2    2    0    0 -2.9503466843e+01 -6.8554456000e+00 -4.8348018013e+01 5.7052454252e+01 5.1100000000e-04 0.0000e+00 -1.0000e+00
       22  1    1    0    0    0 -3.4359006896e+00 +7.9535514561e+00 +2.7777083275e+01 2.9096919933e+01 0.0000000000e+00 0.0000e+00 -1.0000e+00
</event>
<event>
 4      1 +2.4041262e-06 9.11880000e+01 7.81860800e-03 1.13011600e-01
       25 -1    0    0    0    0 +0.0000000000e+00 +0.0000000000e+00 +9.9999998245e-15 1.2500000000e+02 1.2500000000e+02 0.0000e+00 0.0000e+00
      -13  1    1    0    0    0 +3.1439463065e+01 -1.4131573394e+01 -5.2131766950e+01 6.2496987878e+01 1.0566000000e-01 0.0000e+00 1.0000e+00
       13  1    1    0    0    0 -3.1441137533e+01 +1.4131979558e+01 +5.2134247894e+01 6.2499991544e+01 1.0566000000e-01 0.0000e+00 1.0000e+00
       22  1    1    0    0    0 +1.6744675273e-03 -4.0616317293e-04 -2.4809434273e-03 3.0205778110e-03 0.0000000000e+00 0.0000e+00 -1.0000e+00
</event>
<event>
 5      1 +2.4041262e-06 9.11880000e+01 7.81860800e-03 1.13011600e-01
       25 -1    0    0    0    0 +0.0000000000e+00 +0.0000000000e+00 +9.9999998245e-15 1.2500000000e+02 1.2500000000e+02 0.0000e+00 0.0000e+00
       23  2    1    0    0    0 -2.2915604099e+01 +1.5560864139e+01 -9.4951942402e+00 9.5718194768e+01 9.1129296563e+01 0.0000e+00 0.0000e+00
      -11  1    2    2    0    0 -1.1374846932e+01 +4.8974846448e+01 +1.5281108743e+01 5.2549357865e+01 5.1100000000e-04 0.0000e+00 -1.0000e+00
       11  1    2    2    0    0 -1.1540757167e+01 -3.3413982309e+01 -2.4776302984e+01 4.3168836903e+01 5.1100000000e-04 0.0000e+00 1.0000e+00
       22  1    1    0    0    0 +2.2915604099e+01 -1.5560864139e+01 +9.4951942402e+00 2.9281805232e+01 0.0000000000e+00 0.0000e+00 -1.0000e+00
</event>
<event>
 4      1 +2.4041262e-06 9.11880000e+01 7.81860800e-03 1.13011600e-01
       25 -1    0    0    0    0 +0.0000000000e+00 +0.0000000000e+00 +9.9999998245e-15 1.2500000000e+02 1.2500000000e+02 0.0000e+00 0.0000e+00
      -13  1    1    0    0    0 +3.7041582388e+00 +5.8121295029e+00 -2.0491616057e+00 7.1910962265e+00 1.0566000000e-01 0.0000e+00 1.0000e+00
       13  1    1    0    0    0 +2.6703900646e+01 +4.5091163336e+01 -1.7697708486e+01 5.5313030747e+01 1.0566000000e-01 0.0000e+00 -1.0000e+00
       22  1    1    0    0    0 -3.0408058885e+01 -5.0903292839e+01 +1.9746870092e+01 6.2495873027e+01 0.0000000000e+00 0.0000e+00 -1.0000e+00
</event>
<event>
 4      1 +2.4041262e-06 9.11880000e+01 7.81860800e-03 1.13011600e-01
       25 -1    0    0    0    0 +0.0000000000e+00 +0.0000000000e+00 +9.9999998245e-15 1.2500000000e+02 1.2500000000e+02 0.0000e+00 0.0000e+00
      -13  1    1    0    0    0 -8.8006297357e+00 -6.1631316478e+01 -5.5107695777e+00 6.2500000000e+01 1.0566000000e-01 0.0000e+00 -1.0000e+00
       13  1    1    0    0    0 +8.8006297358e+00 +6.1631316479e+01 +5.5107695777e+00 6.2500000000e+01 1.0566000000e-01 0.0000e+00 -1.0000e+00
       22  1    1    0    0    0 -9.9203821227e-11 -3.6880069045e-10 -4.6630317115e-13 3.8191041471e-10 0.0000000000e+00 0.0000e+00 -1.0000e+00
</event>
<event>
 4      1 +2.4041262e-06 9.11880000e+01 7.81860800e-03 1.13011600e-01
       25 -1    0    0    0    0 +0.0000000000e+00 +0.0000000000e+00 +9.9999998245e-15 1.2500000000e+02 1.2500000000e+02 0.0000e+00 0.0000e+00
      -13  1    1    0    0    0 -4.3085257802e+01 -5.7220030373e+00 -4.4912783006e+01 6.2500000000e+01 1.0566000000e-01 0.0000e+00 -1.0000e+00
       13  1    1    0    0    0 +4.3085255441e+01 +5.7220027423e+00 +4.4912780529e+01 6.2499996566e+01 1.0566000000e-01 0.0000e+00 -1.0000e+00
       22  1    1    0    0    0 +2.3604678445e-06 +2.9497169501e-07 +2.4771745275e-06 3.4344155814e-06 0.0000000000e+00 0.0000e+00 -1.0000e+00
</event>
<event>
 4      1 +2.4041262e-06 9.11880000e+01 7.81860800e-03 1.13011600e-01
       25 -1    0    0    0    0 +0.0000000000e+00 +0.0000000000e+00 +9.9999998245e-15 1.2500000000e+02 1.2500000000e+02 0.0000e+00 0.0000e+00
      -13  1    1    0    0    0 -6.0365856573e+01 -7.8800823877e+00 -9.6819994163e+00 6.1643204126e+01 1.0566000000e-01 0.0000e+00 -1.0000e+00
       13  1    1    0    0    0 +5.1049565373e+01 +1.1429195643e+01 +5.7057866369e+00 5.2623681010e+01 1.0566000000e-01 0.0000e+00 -1.0000e+00
       22  1    1    0    0    0 +9.3162911997e+00 -3.5491132549e+00 +3.9762127794e+00 1.0733114864e+01 0.0000000000e+00 0.0000e+00 -1.0000e+00
</event>
<event>
 4      1 +2.4041262e-06 9.11880000e+01 7.81860800e-03 1.13011600e-01
       25 -1    0    0    0    0 +0.0000000000e+00 +0.0000000000e+00 +9.9999998245e-15 1.2500000000e+02 1.2500000000e+02 0.0000e+00 0.0000e+00
      -13  1    1    0    0    0 +3.5928564037e+01 -2.9944415696e+01 -4.1450084101e+01 6.2495202865e+01 1.0566000000e-01 0.0000e+00 -1.0000e+00
       13  1    1    0    0    0 -3.5931319474e+01 +2.9946745520e+01 +4.1453245229e+01 6.2499999923e+01 1.0566000000e-01 0.0000e+00 -1.0000e+00
       22  1    1    0    0    0 +2.7554365938e-03 -2.3298233542e-03 -3.1611283410e-03 4.7972116977e-03 0.0000000000e+00 0.0000e+00 1.0000e+00
</event>
<event>
 4      1 +2.4041262e-06 9.11880000e+01 7.81860800e-03 1.13011600e-01
       25 -1    0    0    0    0 +0.0000000000e+00 +0.0000000000e+00 +9.9999998245e-15 1.2500000000e+02 1.2500000000e+02 0.0000e+00 0.0000e+00
      -13  1    1    0    0    0 -4.1447115541e+01 -3.5591504018e+01 -3.0358095429e+01 6.2499949337e+01 1.0566000000e-01 0.0000e+00 -1.0000e+00
       13  1    1    0    0    0 +4.1447149216e+01 +3.5591532880e+01 +3.0358119920e+01 6.2500000000e+01 1.0566000000e-01 0.0000e+00 -1.0000e+00
       22  1    1    0    0    0 -3.3674440938e-05 -2.8862035146e-05 -2.4490441842e-05 5.0663268616e-05 0.0000000000e+00 0.0000e+00 1.0000e+00
</event>
<event>
 5      1 +2.4041262e-06 9.11880000e+01 7.81860800e-03 1.13011600e-01
       25 -1    0    0    0    0 +0.0000000000e+00 +0.0000000000e+00 +9.9999998245e-15 1.2500000000e+02 1.2500000000e+02 0.0000e+00 0.0000e+00
       23  2    1    0    0    0 +1.1120144677e+01 -2.0354154349e+01 -2.8577392556e+00 1.0163087741e+02 9.8907630408e+01 0.0000e+00 0.0000e+00
      -13  1    2    2    0    0 +1.3168760021e+01 -2.3179033578e+01 +4.5721746578e+01 5.2926109930e+01 1.0566000000e-01 0.0000e+00 1.0000e+00
       13  1    2    2    0    0 -2.0486153438e+00 +2.8248792291e+00 -4.8579485834e+01 4.8704767481e+01 1.0566000000e-01 0.0000e+00 -1.0000e+00
       22  1    1    0    0    0 -1.1120144677e+01 +2.0354154349e+01 +2.8577392556e+00 2.3369122589e+01 0.0000000000e+00 0.0000e+00 -1.0000e+00
</event>
<event>
 4      1 +2.4041262e-06 9.11880000e+01 7.81860800e-03 1.13011600e-01
       25 -1    0    0    0    0 +0.0000000000e+00 +0.0000000000e+00 +9.9999998245e-15 1.2500000000e+02 1.2500000000e+02 0.0000e+00 0.0000e+00
      -11  1    1    0    0    0 -4.2325132720e+00 -1.0057681188e+01 +2.9530638503e+01 3.1482212917e+01 5.1100000000e-04 0.0000e+00 1.0000e+00
       11  1    1    0    0    0 -3.3879843133e+00 -2.1253636211e+01 +2.3246846257e+01 3.1679825616e+01 5.1100000000e-04 0.0000e+00 -1.0000e+00
       22  1    1    0    0    0 +7.6204975852e+00 +3.1311317399e+01 -5.2777484761e+01 6.1837961467e+01 0.0000000000e+00 0.0000e+00 1.0000e+00
</event>
<event>
 4      1 +2.4041262e-06 9.11880000e+01 7.81860800e-03 1.13011600e-01
       25 -1    0    0    0    0 +0.0000000000e+00 +0.0000000000e+00 +9.9999998245e-15 1.2500000000e+02 1.2500000000e+02 0.0000e+00 0.0000e+00
      -13  1    1    0    0    0 -1.4331916417e+01 -2.8448820508e+01 -4.9615924394e+01 5.8961770106e+01 1.0566000000e-01 0.0000e+00 1.0000e+00
       13  1    1    0    0    0 +2.1262426104e+01 +1.2105778939e+01 +2.0419136954e+01 3.1868369357e+01 1.0566000000e-01 0.0000e+00 -1.0000e+00
       22  1    1    0    0    0 -6.9305096865e+00 +1.6343041570e+01 +2.9196787440e+01 3.4169860537e+01 0.0000000000e+00 0.0000e+00 1.0000e+00
</event>
<event>
 4      1 +2.4041262e-06 9.11880000e+01 7.81860800e-03 1.13011600e-01
       25 -1    0    0    0    0 +0.0000000000e+00 +0.0000000000e+00 +9.9999998245e-15 1.2500000000e+02 1.2500000000e+02 0.0000e+00 0.0000e+00
      -13  1    1    0    0    0 +9.5011182089e+00 -1.7869996739e+01 -1.6363282874e+01 2.6026452334e+01 1.0566000000e-01 0.0000e+00 -1.0000e+00
       13  1    1    0    0    0 -1.6520816339e+01 -1.6456814473e+01 -3.1787978057e+01 3.9423987978e+01 1.0566000000e-01 0.0000e+00 1.0000e+00
       22  1    1    0    0    0 +7.0196981302e+00 +3.4326811212e+01 +4.8151260930e+01 5.9549559688e+01 0.0000000000e+00 0.0000e+00 1.0000e+00
</event>
<event>
 4      1 +2.4041262e-06 9.11880000e+01 7.81860800e-03 1.13011600e-01
       25 -1    0    0    0    0 +0.0000000000e+00 +0.0000000000e+00 +9.9999998245e-15 1.2500000000e+02 1.2500000000e+02 0.0000e+00 0.0000e+00
      -13  1    1    0    0    0 +2.3272950149e+01 -5.7676792620e+01 +6.1641074062e+00 6.2499999998e+01 1.0566000000e-01 0.0000e+00 1.0000e+00
       13  1    1    0    0    0 -2.3272950114e+01 +5.7676792581e+01 -6.1641073880e+00 6.2499999947e+01 1.0566000000e-01 0.0000e+00 1.0000e+00
       22  1    1    0    0    0 -3.5492111210e-08 +3.8776263819e-08 -1.8201639206e-08 5.5629023573e-08 0.0000000000e+00 0.0000e+00 -1.0000e+00
</event>
<event>
 5      1 +2.4041262e-06 9.11880000e+01 7.81860800e-03 1.13011600e-01
       25 -1    0    0    0    0 +0.0000000000e+00 +0.0000000000e+00 +9.9999998245e-15 1.2500000000e+02 1.2500000000e+02 0.0000e+00 0.0000e+00
       23  2    1    0    0    0 +6.2440804972e+00 +1.4178463644e+01 +2.4034436125e+01 9.6405044284e+01 9.2066612140e+01 0.0000e+00 0.0000e+00
      -13  1    2    2    0    0 +4.4897978022e+01 -1.3255377626e+00 -5.6354760702e+00 4.5269804897e+01 1.0566000000e-01 0.0000e+00 1.0000e+00
       13  1    2    2    0    0 -3.8653897525e+01 +1.5504001406e+01 +2.9669912195e+01 5.1135239387e+01 1.0566000000e-01 0.0000e+00 -1.0000e+00
       22  1    1    0    0    0 -6.2440804972e+00 -1.4178463644e+01 -2.4034436125e+01 2.8594955716e+01 0.0000000000e+00 0.0000e+00 -1.0000e+00
</event>
<event>
 4      1 +2.4041262e-06 9.11880000e+01 7.81860800e-03 1.13011600e-01
       25 -1    0    0    0    0 +0.0000000000e+00 +0.0000000000e+00 +9.9999998245e-15 1.2500000000e+02 1.2500000000e+02 0.0000e+00 0.0000e+00
      -13  1    1    0    0    0 +2.9892747887e+01 +3.5766324855e+01 -4.1634510450e+01 6.2499999954e+01 1.0566000000e-01 0.0000e+00 1.0000e+00
       13  1    1    0    0    0 -2.9892711209e+01 -3.5766286331e+01 +4.1634461454e+01 6.2499927727e+01 1.0566000000e-01 0.0000e+00 1.0000e+00
       22  1    1    0    0    0 -3.6677613905e-05 -3.8524683384e-05 +4.8995932611e-05 7.2318738955e-05 0.0000000000e+00 0.0000e+00 -1.0000e+00
</event>
<event>
 5      1 +2.4041262e-06 9.11880000e+01 7.81860800e-03 1.13011600e-01
       25 -1    0    0    0    0 +0.0000000000e+00 +0.0000000000e+00 +9.9999998245e-15 1.2500000000e+02 1.2500000000e+02 0.0000e+00 0.0000e+00
       23  2    1    0    0    0 -2.9414171268e+01 -2.4126986441e+00 -7.7806592828e+00 9.4478642805e+01 8.9412866531e+01 0.0000e+00 0.0000e+00
      -13  1    2    2    0    0 +1.0197418887e+01 +1.4000191565e+01 -3.8175399135e+01 4.1920937239e+01 1.0566000000e-01 0.0000e+00 1.0000e+00
       13  1    2    2    0    0 -3.9611590156e+01 -1.6412890210e+01 +3.0394739852e+01 5.2557705566e+01 1.0566000000e-01 0.0000e+00 -1.0000e+00
       22  1    1    0    0    0 +2.9414171268e+01 +2.4126986441e+00 +7.7806592828e+00 3.0521357195e+01 0.0000000000e+00 0.0000e+00 -1.0000e+00
</event>
<event>
 4      1 +2.4041262e-06 9.11880000e+01 7.81860800e-03 1.13011600e-01
       25 -1    0    0    0    0 +0.0000000000e+00 +0.0000000000e+00 +9.9999998245e-15 1.2500000000e+02 1.2500000000e+02 0.0000e+00 0.0000e+00
      -13  1    1    0    0    0 +1.6801898281e+01 +4.9477703708e+01 +3.4291275299e+01 6.2499997406e+01 1.0566000000e-01 0.0000e+00 -1.0000e+00
       13  1    1    0    0    0 -1.6801898986e+01 -4.9477705759e+01 -3.4291276723e+01 6.2500000000e+01 1.0566000000e-01 0.0000e+00 -1.0000e+00
       22  1    1    0    0    0 +7.0540500132e-07 +2.0505010051e-06 +1.4241911638e-06 2.5943151426e-06 0.0000000000e+00 0.0000e+00 1.0000e+00
</event>
<event>
 4      1 +2.4041262e-06 9.11880000e+01 7.81860800e-03 1.13011600e-01
       25 -1    0    0    0    0 +0.0000000000e+00 +0.0000000000e+00 +9.9999998245e-15 1.2500000000e+02 1.2500000000e+02 0.0000e+00 0.0000e+00
      -11  1    1    0    0    0 -2.2091324954e+00 -1.4095583695e+01 +4.0763950508e+01 4.3188718520e+01 5.1100000000e-04 0.0000e+00 1.0000e+00
       11  1    1    0    0    0 -9.8726354350e-01 -6.3023588288e+00 +1.8227209780e+01 1.9311281489e+01 5.1100000000e-04 0.0000e+00 1.0000e+00
       22  1    1    0    0    0 +3.1963960389e+00 +2.0397942524e+01 -5.8991160288e+01 6.2499999992e+01 0.0000000000e+00 0.0000e+00 1.0000e+00
</event>
<event>
 4      1 +2.4041262e-06 9.11880000e+01 7.81860800e-03 1.13011600e-01
       25 -1    0    0    0    0 +0.0000000000e+00 +0.0000000000e+00 +9.9999998245e-15 1.2500000000e+02 1.2500000000e+02 0.0000e+00 0.0000e+00
      -13  1    1    0    0    0 -6.2253127375e+01 +5.4744045688e+00 +9.0386877962e-01 6.2499992929e+01 1.0566000000e-01 0.0000e+00 -1.0000e+00
       13  1    1    0    0    0 +6.2253134418e+01 -5.4744051424e+00 -9.0386907669e-01 6.2499999999e+01 1.0566000000e-01 0.0000e+00 -1.0000e+00
       22  1    1    0    0    0 -7.0426949999e-06 +5.7359778275e-07 +2.9707355965e-07 7.0722570639e-06 0.0000000000e+00 0.0000e+00 -1.0000e+00
</event>
<event>
 4      1 +2.4041262e-06 9.11880000e+01 7.81860800e-03 1.13011600e-01
       25 -1    0    0    0    0 +0.0000000000e+00 +0.0000000000e+00 +9.9999998245e-15 1.2500000000e+02 1.2500000000e+02 0.0000e+00 0.0000e+00
      -13  1    1    0    0    0 -4.6810290414e+00 -6.2209721290e+01 +3.7710488213e+00 6.2499547431e+01 1.0566000000e-01 0.0000e+00 1.0000e+00
       13  1    1    0    0    0 +4.6810440505e+00 +6.2210174572e+01 -3.7710322457e+00 6.2499998735e+01 1.0566000000e-01 0.0000e+00 1.0000e+00
       22  1    1    0    0    0 -1.5009050218e-05 -4.5328188328e-04 -1.6575594032e-05 4.5383310547e-04 0.0000000000e+00 0.0000e+00 -1.0000e+00
</event>
<event>
 4      1 +2.4041262e-06 9.11880000e+01 7.81860800e-03 1.13011600e-01
       25 -1    0    0    0    0 +0.0000000000e+00 +0.0000000000e+00 +9.9999998245e-15 1.2500000000e+02 1.2500000000e+02 0.0000e+00 0.0000e+00
      -13  1    1    0    0    0 +6.9480724099e-01 +5.8743904582e+01 +2.1328613486e+01 6.2500000000e+01 1.0566000000e-01 0.0000e+00 1.0000e+00
       13  1    1    0    0    0 -6.9480724069e-01 -5.8743904583e+01 -2.1328613486e+01 6.2500000000e+01 1.0566000000e-01 0.0000e+00 1.0000e+00
       22  1    1    0    0    0 -2.9563961369e-10 +3.6496716415e-10 +2.4461500651e-10 5.2956615593e-10 0.0000000000e+00 0.0000e+00 1.0000e+00
</event>
<event>
 5      1 +2.4041262e-06 9.11880000e+01 7.81860800e-03 1.13011600e-01
       25 -1    0    0    0    0 +0.0000000000e+00 +0.0000000000e+00 +9.9999998245e-15 1.2500000000e+02 1.2500000000e+02 0.0000e+00 0.0000e+00
       23  2    1    0    0    0 +1.1039337978e+01 -2.4004126962e+00 +2.6731795994e+01 9.5979009645e+01 9.1486350956e+01 0.0000e+00 0.0000e+00
      -11  1    2    2    0    0 -3.5303320347e+01 +1.8255560686e+01 +2.6941406673e+00 3.9835264750e+01 5.1100000000e-04 0.0000e+00 1.0000e+00
       11  1    2    2    0    0 +4.6342658325e+01 -2.0655973382e+01 +2.4037655327e+01 5.6143744895e+01 5.1100000000e-04 0.0000e+00 -1.0000e+00
       22  1    1    0    0    0 -1.1039337978e+01 +2.4004126962e+00 -2.6731795994e+01 2.9020990355e+01 0.0000000000e+00 0.0000e+00 -1.0000e+00
</event>
<event>
 4      1 +2.4041262e-06 9.11880000e+01 7.81860800e-03 1.13011600e-01
       25 -1    0    0    0    0 +0.0000000000e+00 +0.0000000000e+00 +9.9999998245e-15 1.2500000000e+02 1.2500000000e+02 0.0000e+00 0.0000e+00
      -13  1    1    0    0    0 -2.6898622771e+00 +3.5711136467e+00 -1.0216213130e+00 4.5872743421e+00 1.0566000000e-01 0.0000e+00 1.0000e+00
       13  1    1    0    0    0 -2.8711406753e+01 +4.8811080183e+01 -1.2191018384e+01 5.7926665014e+01 1.0566000000e-01 0.0000e+00 -1.0000e+00
       22  1    1    0    0    0 +3.1401269030e+01 -5.2382193829e+01 +1.3212639697e+01 6.2486060644e+01 0.0000000000e+00 0.0000e+00 -1.0000e+00
</event>
<event>
 4      1 +2.4041262e-06 9.11880000e+01 7.81860800e-03 1.13011600e-01
       25 -1    0    0    0    0 +0.0000000000e+00 +0.0000000000e+00 +9.9999998245e-15 1.2500000000e+02 1.2500000000e+02 0.0000e+00 0.0000e+00
      -13  1    1    0    0    0 +9.7600510435e+00 +1.9131466854e+01 -5.8693590580e+01 6.2499762876e+01 1.0566000000e-01 0.0000e+00 1.0000e+00
       13  1    1    0    0    0 -9.7600932335e+00 -1.9131553443e+01 +5.8693807555e+01 6.2499999731e+01 1.0566000000e-01 0.0000e+00 1.0000e+00
       22  1    1    0    0    0 +4.2190005877e-05 +8.6588257116e-05 -2.1697437826e-04 2.3739293099e-04 0.0000000000e+00 0.0000e+00 -1.0000e+00
</event>
<event>
 4      1 +2.4041262e-06 9.11880000e+01 7.81860800e-03 1.13011600e-01
       25 -1    0    0    0    0 +0.0000000000e+00 +0.0000000000e+00 +9.9999998245e-15 1.2500000000e+02 1.2500000000e+02 0.0000e+00 0.0000e+00
      -13  1    1    0    0    0 +2.1194764585e+01 -2.2644915702e+01 -5.3921642555e+01 6.2205827322e+01 1.0566000000e-01 0.0000e+00 -1.0000e+00
       13  1    1    0    0    0 -2.1296834890e+01 +2.2751066796e+01 +5.4176305987e+01 6.2499996089e+01 1.0566000000e-01 0.0000e+00 -1.0000e+00
       22  1    1    0    0    0 +1.0207030501e-01 -1.0615109386e-01 -2.5466343210e-01 2.9417658904e-01 0.0000000000e+00 0.0000e+00 -1.0000e+00
</event>
<event>
 4      1 +2.4041262e-06 9.11880000e+01 7.81860800e-03 1.13011600e-01
       25 -1    0    0    0    0 +0.0000000000e+00 +0.0000000000e+00 +9.9999998245e-15 1.2500000000e+02 1.2500000000e+02 0.0000e+00 0.0000e+00
      -13  1    1    0    0    0 -4.3517060265e+01 -1.4647526505e+00 -3.9083889663e+01 5.8510183982e+01 1.0566000000e-01 0.0000e+00 1.0000e+00
       13  1    1    0    0    0 +4.6045346924e+01 +1.2903015141e+00 +4.2201195692e+01 6.2472321337e+01 1.0566000000e-01 0.0000e+00 1.0000e+00
       22  1    1    0    0    0 -2.5282866589e+00 +1.7445113646e-01 -3.1173060293e+00 4.0174946806e+00 0.0000000000e+00 0.0000e+00 -1.0000e+00
</event>
<event>
 4      1 +2.4041262e-06 9.11880000e+01 7.81860800e-03 1.13011600e-01
       25 -1    0    0    0    0 +0.0000000000e+00 +0.0000000000e+00 +9.9999998245e-15 1.2500000000e+02 1.2500000000e+02 0.0000e+00 0.0000e+00
      -13  1    1    0    0    0 +4.2481965222e+01 +2.7173252818e+01 +3.6920668910e+01 6.2499999957e+01 1.0566000000e-01 0.0000e+00 -1.0000e+00
       13  1    1    0    0    0 -4.2469752443e+01 -2.7165419045e+01 -3.6910098646e+01 6.2482048706e+01 1.0566000000e-01 0.0000e+00 -1.0000e+00
       22  1    1    0    0    0 -1.2212779335e-02 -7.8337735811e-03 -1.0570264398e-02 1.7951336358e-02 0.0000000000e+00 0.0000e+00 -1.0000e+00
</event>
<event>
 4      1 +2.4041262e-06 9.11880000e+01 7.81860800e-03 1.13011600e-01
       25 -1    0    0    0    0 +0.0000000000e+00 +0.0000000000e+00 +9.9999998245e-15 1.2500000000e+02 1.2500000000e+02 0.0000e+00 0.0000e+00
      -13  1    1    0    0    0 -8.3151140560e+00 +5.7996240284e+01 -2.1760832401e+01 6.2499999998e+01 1.0566000000e-01 0.0000e+00 -1.0000e+00
       13  1    1    0    0    0 +8.3150347547e+00 -5.7995694129e+01 +2.1760629481e+01 6.2499411997e+01 1.0566000000e-01 0.0000e+00 -1.0000e+00
       22  1    1    0    0    0 +7.9301366592e-05 -5.4615516577e-04 +2.0292009940e-04 5.8800573006e-04 0.0000000000e+00 0.0000e+00 -1.0000e+00
</event>
<event>
 4      1 +2.4041262e-06 9.11880000e+01 7.81860800e-03 1.13011600e-01
       25 -1    0    0    0    0 +0.0000000000e+00 +0.0000000000e+00 +9.9999998245e-15 1.2500000000e+02 1.2500000000e+02 0.0000e+00 0.0000e+00
      -13  1    1    0    0    0 +1.1953662605e+01 -1.4090321553e+01 +5.9705918934e+01 6.2499881048e+01 1.0566000000e-01 0.0000e+00 -1.0000e+00
       13  1    1    0    0    0 -1.1907915800e+01 +1.4021282244e+01 -5.9458061906e+01 6.2238790992e+01 1.0566000000e-01 0.0000e+00 -1.0000e+00
       22  1    1    0    0    0 -4.5746805665e-02 +6.9039309087e-02 -2.4785702847e-01 2.6132796060e-01 0.0000000000e+00 0.0000e+00 1.0000e+00
</event>
<event>
 5      1 +2.4041262e-06 9.11880000e+01 7.81860800e-03 1.13011600e-01
       25 -1    0    0    0    0 +0.0000000000e+00 +0.0000000000e+00 +9.9999998245e-15 1.2500000000e+02 1.2500000000e+02 0.0000e+00 0.0000e+00
       23  2    1    0    0    0 -2.6534044707e+01 -2.3929105893e+01 +1.8561120139e+01 8.4736209590e+01 7.4559053089e+01 0.0000e+00 0.0000e+00
      -13  1    2    2    0    0 +2.5593096813e+01 -8.7716122679e+00 -8.9276570922e-01 2.7069465840e+01 1.0566000000e-01 0.0000e+00 -1.0000e+00
       13  1    2    2    0    0 -5.2127141520e+01 -1.5157493625e+01 +1.9453885849e+01 5.7666743749e+01 1.0566000000e-01 0.0000e+00 -1.0000e+00
       22  1    1    0    0    0 +2.6534044707e+01 +2.3929105893e+01 -1.8561120139e+01 4.0263790410e+01 0.0000000000e+00 0.0000e+00 -1.0000e+00
</event>
<event>
 4      1 +2.4041262e-06 9.11880000e+01 7.81860800e-03 1.13011600e-01
       25 -1    0    0    0    0 +0.0000000000e+00 +0.0000000000e+00 +9.9999998245e-15 1.2500000000e+02 1.2500000000e+02 0.0000e+00 0.0000e+00
      -13  1    1    0    0    0 +4.8556260260e+01 -2.3416719112e+01 -3.1625712373e+01 6.2499999932e+01 1.0566000000e-01 0.0000e+00 1.0000e+00
       13  1    1    0    0    0 -4.8556257978e+01 +2.3416718832e+01 +3.1625710539e+01 6.2499997126e+01 1.0566000000e-01 0.0000e+00 1.0000e+00
       22  1    1    0    0    0 -2.2825638673e-06 +2.8034970156e-07 +1.8340809987e-06 2.9415211835e-06 0.0000000000e+00 0.0000e+00 1.0000e+00
</event>
<event>
 4      1 +2.4041262e-06 9.11880000e+01 7.81860800e-03 1.13011600e-01
       25 -1    0    0    0    0 +0.0000000000e+00 +0.0000000000e+00 +9.9999998245e-15 1.2500000000e+02 1.2500000000e+02 0.0000e+00 0.0000e+00
      -13  1    1    0    0    0 +1.9959313572e+00 +5.0216885154e+01 +3.7155024264e+01 6.2499810309e+01 1.0566000000e-01 0.0000e+00 1.0000e+00
       13  1    1    0    0    0 -1.9959007607e+00 -5.0217041747e+01 -3.7155130239e+01 6.2499998150e+01 1.0566000000e-01 0.0000e+00 1.0000e+00
       22  1    1    0    0    0 -3.0596410855e-05 +1.5659300895e-04 +1.0597452533e-04 1.9154140761e-04 0.0000000000e+00 0.0000e+00 -1.0000e+00
</event>
<event>
 4      1 +2.4041262e-06 9.11880000e+01 7.81860800e-03 1.13011600e-01
       25 -1    0    0    0    0 +0.0000000000e+00 +0.0000000000e+00 +9.9999998245e-15 1.2500000000e+02 1.2500000000e+02 0.0000e+00 0.0000e+00
      -13  1    1    0    0    0 -2.9948172779e+01 +5.1381662596e+01 -1.9216413088e+01 6.2499999999e+01 1.0566000000e-01 0.0000e+00 -1.0000e+00
       13  1    1    0    0    0 +2.9948172780e+01 -5.1381662594e+01 +1.9216413088e+01 6.2499999998e+01 1.0566000000e-01 0.0000e+00 -1.0000e+00
       22  1    1    0    0    0 -1.0678883034e-09 -2.4116463982e-09 +1.1065517350e-10 2.6398235444e-09 0.0000000000e+00 0.0000e+00 1.0000e+00
</event>
<event>
 4      1 +2.4041262e-06 9.11880000e+01 7.81860800e-03 1.13011600e-01
       25 -1    0    0    0    0 +0.0000000000e+00 +0.0000000000e+00 +9.9999998245e-15 1.2500000000e+02 1.2500000000e+02 0.0000e+00 0.0000e+00
      -13  1    1    0    0    0 -5.8858862052e+00 -5.3992971431e+01 -3.0913772170e+01 6.2494456507e+01 1.0566000000e-01 0.0000e+00 -1.0000e+00
       13  1    1    0    0    0 +5.9267592273e+00 +5.3868442194e+01 +3.0857529434e+01 6.2362920282e+01 1.0566000000e-01 0.0000e+00 -1.0000e+00
       22  1    1    0    0    0 -4.0873022094e-02 +1.2452923719e-01 +5.6242735167e-02 1.4262321027e-01 0.0000000000e+00 0.0000e+00 1.0000e+00
</event>
<event>
 4      1 +2.4041262e-06 9.11880000e+01 7.81860800e-03 1.13011600e-01
       25 -1    0    0    0    0 +0.0000000000e+00 +0.0000000000e+00 +9.9999998245e-15 1.2500000000e+02 1.2500000000e+02 0.0000e+00 0.0000e+00
      -13  1    1    0    0    0 +3.9896508893e+01 -4.7436258830e+01 -8.0192743297e+00 6.2499999987e+01 1.0566000000e-01 0.0000e+00 1.0000e+00
       13  1    1    0    0    0 -3.9896508857e+01 +4.7436258719e+01 +8.0192743786e+00 6.2499999886e+01 1.0566000000e-01 0.0000e+00 1.0000e+00
       22  1    1    0    0    0 -3.6635490911e-08 +1.1090831843e-07 -4.8879012704e-08 1.2661742445e-07 0.0000000000e+00 0.0000e+00 1.0000e+00
</event>
<event>
 4      1 +2.4041262e-06 9.11880000e+01 7.81860800e-03 1.13011600e-01
       25 -1    0    0    0    0 +0.0000000000e+00 +0.0000000000e+00 +9.9999998245e-15 1.2500000000e+02 1.2500000000e+02 0.0000e+00 0.0000e+00
      -13  1    1    0    0    0 +2.1804093186e+00 -2.4978949108e+00 -7.2802092981e-01 3.3962983219e+00 1.0566000000e-01 0.0000e+00 1.0000e+00
       13  1    1    0    0    0 +4.2980559355e-01 -5.7940201906e+01 +1.4135708873e+01 5.9641270603e+01 1.0566000000e-01 0.0000e+00 -1.0000e+00
       22  1    1    0    0    0 -2.6102149121e+00 +6.0438096817e+01 -1.3407687943e+01 6.1962431075e+01 0.0000000000e+00 0.0000e+00 -1.0000e+00
</event>
<event>
 4      1 +2.4041262e-06 9.11880000e+01 7.81860800e-03 1.13011600e-01
       25 -1    0    0    0    0 +0.0000000000e+00 +0.0000000000e+00 +9.9999998245e-15 1.2500000000e+02 1.2500000000e+02 0.0000e+00 0.0000e+00
      -13  1    1    0    0    0 +4.5390109214e+01 -2.4743954624e+00 -4.2893520950e+01 6.2499999607e+01 1.0566000000e-01 0.0000e+00 -1.0000e+00
       13  1    1    0    0    0 -4.5347137816e+01 +2.4722448185e+00 +4.2852626760e+01 6.2440641307e+01 1.0566000000e-01 0.0000e+00 -1.0000e+00
       22  1    1    0    0    0 -4.2971397971e-02 +2.1506439200e-03 +4.0894189860e-02 5.9359085885e-02 0.0000000000e+00 0.0000e+00 -1.0000e+00
</event>
<event>
 4      1 +2.4041262e-06 9.11880000e+01 7.81860800e-03 1.13011600e-01
       25 -1    0    0    0    0 +0.0000000000e+00 +0.0000000000e+00 +9.9999998245e-15 1.2500000000e+02 1.2500000000e+02 0.0000e+00 0.0000e+00
      -13  1    1    0    0    0 +7.2658475875e+00 -5.9047986107e+01 -1.9151543842e+01 6.2500000000e+01 1.0566000000e-01 0.0000e+00 1.0000e+00
       13  1    1    0    0    0 -7.2658475875e+00 +5.9047986107e+01 +1.9151543842e+01 6.2500000000e+01 1.0566000000e-01 0.0000e+00 1.0000e+00
       22  1    1    0    0    0 +6.2854888677e-12 -9.8076694384e-11 -7.6650446855e-11 1.2463481197e-10 0.0000000000e+00 0.0000e+00 -1.0000e+00
</event>
<event>
 5      1 +2.4041262e-06 9.11880000e+01 7.81860800e-03 1.13011600e-01
       25 -1    0    0    0    0 +0.0000000000e+00 +0.0000000000e+00 +9.9999998245e-15 1.2500000000e+02 1.2500000000e+02 0.0000e+00 0.0000e+00
       23  2    1    0    0    0 +1.5336341282e+01 -2.2962253375e+01 -6.3129497246e+00 9.6674714861e+01 9.2432022132e+01 0.0000e+00 0.0000e+00
      -13  1    2    2    0    0 -3.7564353216e+00 -4.0510568604e+01 -3.8039957520e+01 5.5697993744e+01 1.0566000000e-01 0.0000e+00 1.0000e+00
       13  1    2    2    0    0 +1.9092776603e+01 +1.7548315229e+01 +3.1727007796e+01 4.0976721117e+01 1.0566000000e-01 0.0000e+00 -1.0000e+00
       22  1    1    0    0    0 -1.5336341282e+01 +2.2962253375e+01 +6.3129497246e+00 2.8325285139e+01 0.0000000000e+00 0.0000e+00 1.0000e+00
</event>
<event>
 4      1 +2.4041262e-06 9.11880000e+01 7.81860800e-03 1.13011600e-01
       25 -1    0    0    0    0 +0.0000000000e+00 +0.0000000000e+00 +9.9999998245e-15 1.2500000000e+02 1.2500000000e+02 0.0000e+00 0.0000e+00
      -13  1    1    0    0    0 +4.7021178795e+01 -3.6833404347e+01 +1.8399639991e+01 6.2499990775e+01 1.0566000000e-01 0.0000e+00 1.0000e+00
       13  1    1    0    0    0 -4.7020189583e+01 +3.6832351825e+01 -1.8399286175e+01 6.2498522104e+01 1.0566000000e-01 0.0000e+00 1.0000e+00
       22  1    1    0    0    0 -9.8921180767e-04 +1.0525216247e-03 -3.5381628634e-04 1.4871206190e-03 0.0000000000e+00 0.0000e+00 -1.0000e+00
</event>
<event>
 4      1 +2.4041262e-06 9.11880000e+01 7.81860800e-03 1.13011600e-01
       25 -1    0    0    0    0 +0.0000000000e+00 +0.0000000000e+00 +9.9999998245e-15 1.2500000000e+02 1.2500000000e+02 0.0000e+00 0.0000e+00
      -13  1    1    0    0    0 -5.9962287770e+01 -1.6574115663e+01 -5.4126076143e+00 6.2445854545e+01 1.0566000000e-01 0.0000e+00 1.0000e+00
       13  1    1    0    0    0 +5.9720719819e+01 +1.6635626150e+01 +5.5932206215e+00 6.2246314864e+01 1.0566000000e-01 0.0000e+00 1.0000e+00
       22  1    1    0    0    0 +2.4156795042e-01 -6.1510486611e-02 -1.8061300721e-01 3.0783059141e-01 0.0000000000e+00 0.0000e+00 -1.0000e+00
</event>
<event>
 5      1 +2.4041262e-06 9.11880000e+01 7.81860800e-03 1.13011600e-01
       25 -1    0    0    0    0 +0.0000000000e+00 +0.0000000000e+00 +9.9999998245e-15 1.2500000000e+02 1.2500000000e+02 0.0000e+00 0.0000e+00
       23  2    1    0    0    0 +2.5377171355e+01 -1.6236889759e+01 -2.0988155866e+00 9.4799959571e+01 8.9860947540e+01 0.0000e+00 0.0000e+00
      -13  1    2    2    0    0 +5.4058779948e+01 -2.7436947233e+01 +1.0510008614e+01 6.1527304573e+01 1.0566000000e-01 0.0000e+00 -1.0000e+00
       13  1    2    2    0    0 -2.8681608593e+01 +1.1200057473e+01 -1.2608824201e+01 3.3272654998e+01 1.0566000000e-01 0.0000e+00 1.0000e+00
       22  1    1    0    0    0 -2.5377171355e+01 +1.6236889759e+01 +2.0988155866e+00 3.0200040429e+01 0.0000000000e+00 0.0000e+00 -1.0000e+00
</event>
<event>
 4      1 +2.4041262e-06 9.11880000e+01 7.81860800e-03 1.13011600e-01
       25 -1    0    0    0    0 +0.0000000000e+00 +0.0000000000e+00 +9.9999998245e-15 1.2500000000e+02 1.2500000000e+02 0.0000e+00 0.0000e+00
      -11  1    1    0    0    0 +1.3147264090e+00 +3.6228469443e+00 +2.1661610661e+00 4.4210609063e+00 5.1100000000e-04 0.0000e+00 1.0000e+00
       11  1    1    0    0    0 +1.7347956016e+01 +4.7593918089e+01 +2.8408288239e+01 5.8078941605e+01 5.1100000000e-04 0.0000e+00 -1.0000e+00
       22  1    1    0    0    0 -1.8662682425e+01 -5.1216765034e+01 -3.0574449305e+01 6.2499997489e+01 0.0000000000e+00 0.0000e+00 -1.0000e+00
</event>
<event>
 4      1 +2.4041262e-06 9.11880000e+01 7.81860800e-03 1.13011600e-01
       25 -1    0    0    0    0 +0.0000000000e+00 +0.0000000000e+00 +9.9999998245e-15 1.2500000000e+02 1.2500000000e+02 0.0000e+00 0.0000e+00
      -13  1    1    0    0    0 +5.0939338482e+01 -2.8384141064e+01 +2.2358603228e+01 6.2453134199e+01 1.0566000000e-01 0.0000e+00 1.0000e+00
       13  1    1    0    0    0 -2.3574662520e+01 +1.4818561759e+01 -1.1596732229e+01 3.0163717409e+01 1.0566000000e-01 0.0000e+00 -1.0000e+00
       22  1    1    0    0    0 -2.7364675962e+01 +1.3565579305e+01 -1.0761870998e+01 3.2383148392e+01 0.0000000000e+00 0.0000e+00 1.0000e+00
</event>
<event>
 5      1 +2.4041262e-06 9.11880000e+01 7.81860800e-03 1.13011600e-01
       25 -1    0    0    0    0 +0.0000000000e+00 +0.0000000000e+00 +9.9999998245e-15 1.2500000000e+02 1.2500000000e+02 0.0000e+00 0.0000e+00
       23  2    1    0    0    0 -6.9023842923e+00 -2.1667304271e+01 +1.7686428351e+01 9.6191585758e+01 9.1776339214e+01 0.0000e+00 0.0000e+00
      -11  1    2    2    0    0 +3.6938591351e+01 -2.1941649834e+01 -1.0296575394e+01 4.4180482043e+01 5.1100000000e-04 0.0000e+00 1.0000e+00
       11  1    2    2    0    0 -4.3840975643e+01 +2.7434556336e-01 +2.7983003745e+01 5.2011103715e+01 5.1100000000e-04 0.0000e+00 -1.0000e+00
       22  1    1    0    0    0 +6.9023842923e+00 +2.1667304271e+01 -1.7686428351e+01 2.8808414242e+01 0.0000000000e+00 0.0000e+00 -1.0000e+00
</event>
<event>
 4      1 +2.4041262e-06 9.11880000e+01 7.81860800e-03 1.13011600e-01
       25 -1    0    0    0    0 +0.0000000000e+00 +0.0000000000e+00 +9.9999998245e-15 1.2500000000e+02 1.2500000000e+02 0.0000e+00 0.0000e+00
      -13  1    1    0    0    0 +4.8411088068e+01 -2.7765990989e+01 +2.8136366724e+01 6.2500000000e+01 1.0566000000e-01 0.0000e+00 -1.0000e+00
       13  1    1    0    0    0 -4.8411087932e+01 +2.7765990909e+01 -2.8136366644e+01 6.2499999823e+01 1.0566000000e-01 0.0000e+00 -1.0000e+00
       22  1    1    0    0    0 -1.3598336338e-07 +8.0699050943e-08 -8.0435494440e-08 1.7740823179e-07 0.0000000000e+00 0.0000e+00 -1.0000e+00
</event>
<event>
 4      1 +2.4041262e-06 9.11880000e+01 7.81860800e-03 1.13011600e-01
       25 -1    0    0    0    0 +0.0000000000e+00 +0.0000000000e+00 +9.9999998245e-15 1.2500000000e+02 1.2500000000e+02 0.0000e+00 0.0000e+00
      -13  1    1    0    0    0 +7.6216149968e+00 +5.3198865256e+01 +3.1903845056e+01 6.2498598169e+01 1.0566000000e-01 0.0000e+00 -1.0000e+00
       13  1    1    0    0    0 -7.6086001362e+00 -5.3144720788e+01 -3.1847410621e+01 6.2422118443e+01 1.0566000000e-01 0.0000e+00 -1.0000e+00
       22  1    1    0    0    0 -1.3014860572e-02 -5.4144468702e-02 -5.6434434837e-02 7.9283387428e-02 0.0000000000e+00 0.0000e+00 -1.0000e+00
</event>
<event>
 4      1 +2.4041262e-06 9.11880000e+01 7.81860800e-03 1.13011600e-01
       25 -1    0    0    0    0 +0.0000000000e+00 +0.0000000000e+00 +9.9999998245e-15 1.2500000000e+02 1.2500000000e+02 0.0000e+00 0.0000e+00
      -13  1    1    0    0    0 -7.0669450150e+00 +1.9916125529e+01 +5.8818747187e+01 6.2499999621e+01 1.0566000000e-01 0.0000e+00 -1.0000e+00
       13  1    1    0    0    0 +7.0652937872e+00 -1.9911691627e+01 -5.8805939467e+01 6.2486346672e+01 1.0566000000e-01 0.0000e+00 -1.0000e+00
       22  1    1    0    0    0 +1.6512278179e-03 -4.4339019823e-03 -1.2807720081e-02 1.3653707694e-02 0.0000000000e+00 0.0000e+00 1.0000e+00
</event>
<event>
 4      1 +2.4041262e-06 9.11880000e+01 7.81860800e-03 1.13011600e-01
       25 -1    0    0    0    0 +0.0000000000e+00 +0.0000000000e+00 +9.9999998245e-15 1.2500000000e+02 1.2500000000e+02 0.0000e+00 0.0000e+00
      -13  1    1    0    0    0 -3.8267759871e+01 +1.5454908433e+01 +4.6935426232e+01 6.2499768319e+01 1.0566000000e-01 0.0000e+00 -1.0000e+00
       13  1    1    0    0    0 +3.8267902136e+01 -1.5454968784e+01 -4.6935598860e+01 6.2499999988e+01 1.0566000000e-01 0.0000e+00 -1.0000e+00
       22  1    1    0    0    0 -1.4226477129e-04 +6.0351217630e-05 +1.7262828563e-04 2.3169389206e-04 0.0000000000e+00 0.0000e+00 -1.0000e+00
</event>
<event>
 4      1 +2.4041262e-06 9.11880000e+01 7.81860800e-03 1.13011600e-01
       25 -1    0    0    0    0 +0.0000000000e+00 +0.0000000000e+00 +9.9999998245e-15 1.2500000000e+02 1.2500000000e+02 0.0000e+00 0.0000e+00
      -13  1    1    0    0    0 -2.6018662864e+01 +3.0193593026e+01 +4.8141494867e+01 6.2499908553e+01 1.0566000000e-01 0.0000e+00 1.0000e+00
       13  1    1    0    0    0 +2.6018439136e+01 -3.0193177022e+01 -4.8141500857e+01 6.2499619060e+01 1.0566000000e-01 0.0000e+00 1.0000e+00
       22  1    1    0    0    0 +2.2372817208e-04 -4.1600415789e-04 +5.9899319377e-06 4.7238716499e-04 0.0000000000e+00 0.0000e+00 1.0000e+00
</event>
<event>
 4      1 +2.4041262e-06 9.11880000e+01 7.81860800e-03 1.13011600e-01
       25 -1    0    0    0    0 +0.0000000000e+00 +0.0000000000e+00 +9.9999998245e-15 1.2500000000e+02 1.2500000000e+02 0.0000e+00 0.0000e+00
      -13  1    1    0    0    0 -1.4602176853e+01 +5.5672524698e+01 -2.4363605162e+01 6.2499999965e+01 1.0566000000e-01 0.0000e+00 -1.0000e+00
       13  1    1    0    0    0 +1.4602065228e+01 -5.5672113100e+01 +2.4363432454e+01 6.2499539926e+01 1.0566000000e-01 0.0000e+00 -1.0000e+00
       22  1    1    0    0    0 +1.1162471825e-04 -4.1159791457e-04 +1.7270786034e-04 4.6010968912e-04 0.0000000000e+00 0.0000e+00 -1.0000e+00
</event>
<event>
 4      1 +2.4041262e-06 9.11880000e+01 7.81860800e-03 1.13011600e-01
       25 -1    0    0    0    0 +0.0000000000e+00 +0.0000000000e+00 +9.9999998245e-15 1.2500000000e+02 1.2500000000e+02 0.0000e+00 0.0000e+00
      -13  1    1    0    0    0 -4.4761504395e+01 +1.2278269278e+00 -4.1367782775e+01 6.0962319923e+01 1.0566000000e-01 0.0000e+00 1.0000e+00
       13  1    1    0    0    0 +4.4850101149e+01 -8.5186350971e-01 +4.3132689615e+01 6.2230999687e+01 1.0566000000e-01 0.0000e+00 1.0000e+00
       22  1    1    0    0    0 -8.8596754375e-02 -3.7596341813e-01 -1.7649068400e+00 1.8066803897e+00 0.0000000000e+00 0.0000e+00 1.0000e+00
</event>
<event>
 4      1 +2.4041262e-06 9.11880000e+01 7.81860800e-03 1.13011600e-01
       25 -1    0    0    0    0 +0.0000000000e+00 +0.0000000000e+00 +9.9999998245e-15 1.2500000000e+02 1.2500000000e+02 0.0000e+00 0.0000e+00
      -13  1    1    0    0    0 +2.1673019413e+01 -3.3300775114e+01 +5.4953057708e+00 4.0110733517e+01 1.0566000000e-01 0.0000e+00 -1.0000e+00
       13  1    1    0    0    0 +6.1187626646e+00 +2.4978604983e+00 -3.3946143140e+01 3.4583671895e+01 1.0566000000e-01 0.0000e+00 1.0000e+00
       22  1    1    0    0    0 -2.7791782078e+01 +3.0802914616e+01 +2.8450837369e+01 5.0305594589e+01 0.0000000000e+00 0.0000e+00 1.0000e+00
</event>
<event>
 4      1 +2.4041262e-06 9.11880000e+01 7.81860800e-03 1.13011600e-01
       25 -1    0    0    0    0 +0.0000000000e+00 +0.0000000000e+00 +9.9999998245e-15 1.2500000000e+02 1.2500000000e+02 0.0000e+00 0.0000e+00
      -13  1    1    0    0    0 -7.9979099725e+00 +5.1935668197e+01 -3.3543195617e+01 6.2341297157e+01 1.0566000000e-01 0.0000e+00 -1.0000e+00
       13  1    1    0    0    0 +8.0186630937e+00 -5.2080425120e+01 +3.3607279920e+01 6.2499040522e+01 1.0566000000e-01 0.0000e+00 -1.0000e+00
       22  1    1    0    0    0 -2.0753121198e-02 +1.4475692278e-01 -6.4084302963e-02 1.5966232060e-01 0.0000000000e+00 0.0000e+00 -1.0000e+00
</event>
<event>
 5      1 +2.4041262e-06 9.11880000e+01 7.81860800e-03 1.13011600e-01
       25 -1    0    0    0    0 +0.0000000000e+00 +0.0000000000e+00 +9.9999998245e-15 1.2500000000e+02 1.2500000000e+02 0.0000e+00 0.0000e+00
       23  2    1    0    0    0 -2.0113247505e+00 -1.4719362749e+01 +2.3521288436e+01 9.7179933920e+01 9.3112746066e+01 0.0000e+00 0.0000e+00
      -13  1    2    2    0    0 +2.0918708981e+01 +2.5298287562e+01 -1.5929246598e+01 3.6487639006e+01 1.0566000000e-01 0.0000e+00 1.0000e+00
       13  1    2    2    0    0 -2.2930033732e+01 -4.0017650311e+01 +3.9450535034e+01 6.0692294914e+01 1.0566000000e-01 0.0000e+00 -1.0000e+00
       22  1    1    0    0    0 +2.0113247505e+00 +1.4719362749e+01 -2.3521288436e+01 2.7820066080e+01 0.0000000000e+00 0.0000e+00 -1.0000e+00
</event>
<event>
 4      1 +2.4041262e-06 9.11880000e+01 7.81860800e-03 1.13011600e-01
       25 -1    0    0    0    0 +0.0000000000e+00 +0.0000000000e+00 +9.9999998245e-15 1.2500000000e+02 1.2500000000e+02 0.0000e+00 0.0000e+00
      -13  1    1    0    0    0 +3.0009543385e+01 +5.4801112246e+01 -1.5762357653e+00 6.2499842246e+01 1.0566000000e-01 0.0000e+00 -1.0000e+00
       13  1    1    0    0    0 -3.0009612247e+01 -5.4801254234e+01 +1.5762395495e+00 6.2499999903e+01 1.0566000000e-01 0.0000e+00 -1.0000e+00
       22  1    1    0    0    0 +6.8861904285e-05 +1.4198785143e-04 -3.7842253417e-06 1.5785066416e-04 0.0000000000e+00 0.0000e+00 1.0000e+00
</event>
<event>
 4      1 +2.4041262e-06 9.11880000e+01 7.81860800e-03 1.13011600e-01
       25 -1    0    0    0    0 +0.0000000000e+00 +0.0000000000e+00 +9.9999998245e-15 1.2500000000e+02 1.2500000000e+02 0.0000e+00 0.0000e+00
      -13  1    1    0    0    0 +2.9366061415e+01 +9.3485784794e+00 +5.3557209597e+01 6.1791159128e+01 1.0566000000e-01 0.0000e+00 1.0000e+00
       13  1    1    0    0    0 -2.6594104063e+01 -1.0580638692e+01 -5.2836770106e+01 6.0091028659e+01 1.0566000000e-01 0.0000e+00 1.0000e+00
       22  1    1    0    0    0 -2.7719573526e+00 +1.2320602128e+00 -7.2043949058e-01 3.1178122125e+00 0.0000000000e+00 0.0000e+00 1.0000e+00
</event>
<event>
 4      1 +2.4041262e-06 9.11880000e+01 7.81860800e-03 1.13011600e-01
       25 -1    0    0    0    0 +0.0000000000e+00 +0.0000000000e+00 +9.9999998245e-15 1.2500000000e+02 1.2500000000e+02 0.0000e+00 0.0000e+00
      -13  1    1    0    0    0 +8.5464762368e+00 +5.8211032272e+01 +2.1079506261e+01 6.2497386206e+01 1.0566000000e-01 0.0000e+00 -1.0000e+00
       13  1    1    0    0    0 -8.5468238819e+00 -5.8213469815e+01 -2.1080383484e+01 6.2499999986e+01 1.0566000000e-01 0.0000e+00 -1.0000e+00
       22  1    1    0    0    0 +3.4764509935e-04 +2.4375428883e-03 +8.7722331291e-04 2.6138081774e-03 0.0000000000e+00 0.0000e+00 -1.0000e+00
</event>
<event>
 4      1 +2.4041262e-06 9.11880000e+01 7.81860800e-03 1.13011600e-01
       25 -1    0    0    0    0 +0.0000000000e+00 +0.0000000000e+00 +9.9999998245e-15 1.2500000000e+02 1.2500000000e+02 0.0000e+00 0.0000e+00
      -13  1    1    0    0    0 -6.0019902826e+00 +6.2125709941e+00 +2.8873116403e+00 9.1086584222e+00 1.0566000000e-01 0.0000e+00 1.0000e+00
       13  1    1    0    0    0 -1.2492044714e+01 +4.6892339078e+01 +2.3332710538e+01 5.3845790833e+01 1.0566000000e-01 0.0000e+00 -1.0000e+00
       22  1    1    0    0    0 +1.8494034997e+01 -5.3104910072e+01 -2.6220022179e+01 6.2045550745e+01 0.0000000000e+00 0.0000e+00 -1.0000e+00
</event>
<event>
 5      1 +2.4041262e-06 9.11880000e+01 7.81860800e-03 1.13011600e-01
       25 -1    0    0    0    0 +0.0000000000e+00 +0.0000000000e+00 +9.9999998245e-15 1.2500000000e+02 1.2500000000e+02 0.0000e+00 0.0000e+00
       23  2    1    0    0    0 +9.3402584732e+00 +2.7067568445e+01 -7.8845670446e+00 9.5300503585e+01 9.0554546524e+01 0.0000e+00 0.0000e+00
      -11  1    2    2    0    0 +1.1684658340e+00 +3.1144244405e+00 +4.0531931752e+01 4.0668199417e+01 5.1100000000e-04 0.0000e+00 -1.0000e+00
       11  1    2    2    0    0 +8.1717926393e+00 +2.3953144004e+01 -4.8416498797e+01 5.4632304167e+01 5.1100000000e-04 0.0000e+00 1.0000e+00
       22  1    1    0    0    0 -9.3402584732e+00 -2.7067568445e+01 +7.8845670446e+00 2.9699496415e+01 0.0000000000e+00 0.0000e+00 1.0000e+00
</event>
<event>
 4      1 +2.4041262e-06 9.11880000e+01 7.81860800e-03 1.13011600e-01
       25 -1    0    0    0    0 +0.0000000000e+00 +0.0000000000e+00 +9.9999998245e-15 1.2500000000e+02 1.2500000000e+02 0.0000e+00 0.0000e+00
      -13  1    1    0    0    0 -1.4423964625e+01 -4.7288022848e+01 +3.8235690322e+01 6.2499496308e+01 1.0566000000e-01 0.0000e+00 1.0000e+00
       13  1    1    0    0    0 +1.4424108827e+01 +4.7288328805e+01 -3.8236071359e+01 6.2499994189e+01 1.0566000000e-01 0.0000e+00 1.0000e+00
       22  1    1    0    0    0 -1.4420158874e-04 -3.0595734537e-04 +3.8103676028e-04 5.0950270663e-04 0.0000000000e+00 0.0000e+00 -1.0000e+00
</event>
<event>
 5      1 +2.4041262e-06 9.11880000e+01 7.81860800e-03 1.13011600e-01
       25 -1    0    0    0    0 +0.0000000000e+00 +0.0000000000e+00 +9.9999998245e-15 1.2500000000e+02 1.2500000000e+02 0.0000e+00 0.0000e+00
       23  2    1    0    0    0 +2.5122893460e+01 +8.1445518176e+00 +1.5915603403e+01 9.4164956109e+01 8.8973248941e+01 0.0000e+00 0.0000e+00
      -11  1    2    2    0    0 +3.9366550861e+01 +3.0128219449e+00 +4.5918637284e+01 6.0558431891e+01 5.1100000000e-04 0.0000e+00 1.0000e+00
       11  1    2    2    0    0 -1.4243657401e+01 +5.1317298727e+00 -3.0003033882e+01 3.3606524218e+01 5.1100000000e-04 0.0000e+00 -1.0000e+00
       22  1    1    0    0    0 -2.5122893460e+01 -8.1445518176e+00 -1.5915603403e+01 3.0835043891e+01 0.0000000000e+00 0.0000e+00 1.0000e+00
</event>
<event>
 4      1 +2.4041262e-06 9.11880000e+01 7.81860800e-03 1.13011600e-01
       25 -1    0    0    0    0 +0.0000000000e+00 +0.0000000000e+00 +9.9999998245e-15 1.2500000000e+02 1.2500000000e+02 0.0000e+00 0.0000e+00
      -13  1    1    0    0    0 +5.9474866007e+01 +8.8796742195e+00 -1.7033218579e+01 6.2500000000e+01 1.0566000000e-01 0.0000e+00 1.0000e+00
       13  1    1    0    0    0 -5.9474866007e+01 -8.8796742195e+00 +1.7033218579e+01 6.2500000000e+01 1.0566000000e-01 0.0000e+00 1.0000e+00
       22  1    1    0    0    0 +1.9252928641e-10 +5.2565091844e-11 -1.9432965641e-10 2.7855812745e-10 0.0000000000e+00 0.0000e+00 1.0000e+00
</event>
<event>
 4      1 +2.4041262e-06 9.11880000e+01 7.81860800e-03 1.13011600e-01
       25 -1    0    0    0    0 +0.0000000000e+00 +0.0000000000e+00 +9.9999998245e-15 1.2500000000e+02 1.2500000000e+02 0.0000e+00 0.0000e+00
      -13  1    1    0    0    0 +3.0519833783e+01 +4.3289836702e+00 +5.4367617788e+01 6.2498395033e+01 1.0566000000e-01 0.0000e+00 -1.0000e+00
       13  1    1    0    0    0 -2.2482072696e+01 -2.9786536141e+00 -4.0365311273e+01 4.6299951277e+01 1.0566000000e-01 0.0000e+00 -1.0000e+00
       22  1    1    0    0    0 -8.0377610871e+00 -1.3503300561e+00 -1.4002306515e+01 1.6201653690e+01 0.0000000000e+00 0.0000e+00 1.0000e+00
</event>
<event>
 5      1 +2.4041262e-06 9.11880000e+01 7.81860800e-03 1.13011600e-01
       25 -1    0    0    0    0 +0.0000000000e+00 +0.0000000000e+00 +9.9999998245e-15 1.2500000000e+02 1.2500000000e+02 0.0000e+00 0.0000e+00
       23  2    1    0    0    0 +2.1848647780e+01 -1.6934624925e+00 +2.2487899712e+01 9.3600368498e+01 8.8176482831e+01 0.0000e+00 0.0000e+00
      -13  1    2    2    0    0 -2.7221739469e+01 -1.4280246839e+00 -1.5667160250e+01 3.1440951458e+01 1.0566000000e-01 0.0000e+00 -1.0000e+00
       13  1    2    2    0    0 +4.9070387249e+01 -2.6543780862e-01 +3.8155059962e+01 6.2159417040e+01 1.0566000000e-01 0.0000e+00 1.0000e+00
       22  1    1    0    0    0 -2.1848647780e+01 +1.6934624925e+00 -2.2487899712e+01 3.1399631502e+01 0.0000000000e+00 0.0000e+00 1.0000e+00
</event>
<event>
 4      1 +2.4041262e-06 9.11880000e+01 7.81860800e-03 1.13011600e-01
       25 -1    0    0    0    0 +0.0000000000e+00 +0.0000000000e+00 +9.9999998245e-15 1.2500000000e+02 1.2500000000e+02 0.0000e+00 0.0000e+00
      -13  1    1    0    0    0 -2.2730146936e+01 +5.5549413380e+01 +1.7423668528e+01 6.2497938331e+01 1.0566000000e-01 0.0000e+00 -1.0000e+00
       13  1    1    0    0    0 +2.2730900411e+01 -5.5551273426e+01 -1.7424146126e+01 6.2499998760e+01 1.0566000000e-01 0.0000e+00 -1.0000e+00
       22  1    1    0    0    0 -7.5347440681e-04 +1.8600460154e-03 +4.7759844756e-04 2.0629093868e-03 0.0000000000e+00 0.0000e+00 1.0000e+00
</event>
<event>
 4      1 +2.4041262e-06 9.11880000e+01 7.81860800e-03 1.13011600e-01
       25 -1    0    0    0    0 +0.0000000000e+00 +0.0000000000e+00 +9.9999998245e-15 1.2500000000e+02 1.2500000000e+02 0.0000e+00 0.0000e+00
      -11  1    1    0    0    0 +1.5705354456e+01 +1.2951461857e+00 +1.3472393778e+01 2.0732606122e+01 5.1100000000e-04 0.0000e+00 -1.0000e+00
       11  1    1    0    0    0 +3.1841306983e+01 +2.7485642144e+00 +2.6890744240e+01 4.1767637731e+01 5.1100000000e-04 0.0000e+00 1.0000e+00
       22  1    1    0    0    0 -4.7546661439e+01 -4.0437104001e+00 -4.0363138018e+01 6.2499756147e+01 0.0000000000e+00 0.0000e+00 1.0000e+00
</event>
<event>
 4      1 +2.4041262e-06 9.11880000e+01 7.81860800e-03 1.13011600e-01
       25 -1    0    0    0    0 +0.0000000000e+00 +0.0000000000e+00 +9.9999998245e-15 1.2500000000e+02 1.2500000000e+02 0.0000e+00 0.0000e+00
      -13  1    1    0    0    0 +1.9510261266e+01 -5.9030581453e+01 -6.4014837691e+00 6.2499999999e+01 1.0566000000e-01 0.0000e+00 1.0000e+00
       13  1    1    0    0    0 -1.9510223555e+01 +5.9030467912e+01 +6.4014707156e+00 6.2499879652e+01 1.0566000000e-01 0.0000e+00 1.0000e+00
       22  1    1    0    0    0 -3.7711066002e-05 +1.1354069223e-04 +1.3053537585e-05 1.2034952486e-04 0.0000000000e+00 0.0000e+00 1.0000e+00
</event>
<event>
 5      1 +2.4041262e-06 9.11880000e+01 7.81860800e-03 1.13011600e-01
       25 -1    0    0    0    0 +0.0000000000e+00 +0.0000000000e+00 +9.9999998245e-15 1.2500000000e+02 1.2500000000e+02 0.0000e+00 0.0000e+00
       23  2    1    0    0    0 +2.1498590737e+01 +1.6190727832e+01 -1.1265796995e+01 9.5823858149e+01 9.1274117564e+01 0.0000e+00 0.0000e+00
      -13  1    2    2    0    0 -2.6806685184e+01 +6.0507116336e+00 -3.2093036474e+01 4.2251433538e+01 1.0566000000e-01 0.0000e+00 1.0000e+00
       13  1    2    2    0    0 +4.8305275922e+01 +1.0140016198e+01 +2.0827239479e+01 5.3572424611e+01 1.0566000000e-01 0.0000e+00 -1.0000e+00
       22  1    1    0    0    0 -2.1498590737e+01 -1.6190727832e+01 +1.1265796995e+01 2.9176141851e+01 0.0000000000e+00 0.0000e+00 1.0000e+00
</event>
<event>
 5      1 +2.4041262e-06 9.11880000e+01 7.81860800e-03 1.13011600e-01
       25 -1    0    0    0    0 +0.0000000000e+00 +0.0000000000e+00 +9.9999998245e-15 1.2500000000e+02 1.2500000000e+02 0.0000e+00 0.0000e+00
       23  2    1    0    0    0 -2.1379027496e+01 -1.2555037211e+01 +1.5204189894e+01 9.5916341936e+01 9.1400686453e+01 0.0000e+00 0.0000e+00
      -13  1    2    2    0    0 -3.1357830676e+00 +2.5173483024e+01 +3.9893744756e+01 4.7276415026e+01 1.0566000000e-01 0.0000e+00 1.0000e+00
       13  1    2    2    0    0 -1.8243244429e+01 -3.7728520235e+01 -2.4689554862e+01 4.8639926910e+01 1.0566000000e-01 0.0000e+00 -1.0000e+00
       22  1    1    0    0    0 +2.1379027496e+01 +1.2555037211e+01 -1.5204189894e+01 2.9083658064e+01 0.0000000000e+00 0.0000e+00 1.0000e+00
</event>
<event>
 4      1 +2.4041262e-06 9.11880000e+01 7.81860800e-03 1.13011600e-01
       25 -1    0    0    0    0 +0.0000000000e+00 +0.0000000000e+00 +9.9999998245e-15 1.2500000000e+02 1.2500000000e+02 0.0000e+00 0.0000e+00
      -11  1    1    0    0    0 +9.4691447870e-01 -3.0800316827e-01 +3.0472806778e-01 1.0413320499e+00 5.1100000000e-04 0.0000e+00 1.0000e+00
       11  1    1    0    0    0 +5.2706089397e+01 +1.1618379234e+01 +2.9543995838e+01 6.1528581049e+01 5.1100000000e-04 0.0000e+00 -1.0000e+00
       22  1    1    0    0    0 -5.3653003876e+01 -1.1310376066e+01 -2.9848723906e+01 6.2430086901e+01 0.0000000000e+00 0.0000e+00 -1.0000e+00
</event>
<event>
 4      1 +2.4041262e-06 9.11880000e+01 7.81860800e-03 1.13011600e-01
       25 -1    0    0    0    0 +0.0000000000e+00 +0.0000000000e+00 +9.9999998245e-15 1.2500000000e+02 1.2500000000e+02 0.0000e+00 0.0000e+00
      -13  1    1    0    0    0 -1.8460835783e+01 +1.7036939282e+01 -5.7229180300e+01 6.2499999997e+01 1.0566000000e-01 0.0000e+00 -1.0000e+00
       13  1    1    0    0    0 +1.8460835782e+01 -1.7036939290e+01 +5.7229180280e+01 6.2499999982e+01 1.0566000000e-01 0.0000e+00 -1.0000e+00
       22  1    1    0    0    0 +9.1207949949e-10 +7.9279297465e-09 +1.9043156774e-08 2.0647657954e-08 0.0000000000e+00 0.0000e+00 -1.0000e+00
</event>
<event>
 4      1 +2.4041262e-06 9.11880000e+01 7.81860800e-03 1.13011600e-01
       25 -1    0    0    0    0 +0.0000000000e+00 +0.0000000000e+00 +9.9999998245e-15 1.2500000000e+02 1.2500000000e+02 0.0000e+00 0.0000e+00
      -13  1    1    0    0    0 +1.1840877559e+01 -6.1641347538e+00 -1.7376180634e+01 2.1912228460e+01 1.0566000000e-01 0.0000e+00 1.0000e+00
       13  1    1    0    0    0 +2.5438228050e+01 -9.1671817577e+00 -3.0329507178e+01 4.0632878773e+01 1.0566000000e-01 0.0000e+00 -1.0000e+00
       22  1    1    0    0    0 -3.7279105609e+01 +1.5331316512e+01 +4.7705687811e+01 6.2454892767e+01 0.0000000000e+00 0.0000e+00 -1.0000e+00
</event>
<event>
 4      1 +2.4041262e-06 9.11880000e+01 7.81860800e-03 1.13011600e-01
       25 -1    0    0    0    0 +0.0000000000e+00 +0.0000000000e+00 +9.9999998245e-15 1.2500000000e+02 1.2500000000e+02 0.0000e+00 0.0000e+00
      -13  1    1    0    0    0 -1.8936297665e+01 +1.0394988696e+01 +5.8647559174e+01 6.2499492161e+01 1.0566000000e-01 0.0000e+00 1.0000e+00
       13  1    1    0    0    0 +1.8849742499e+01 -1.0346755724e+01 -5.8300534979e+01 6.2139614492e+01 1.0566000000e-01 0.0000e+00 1.0000e+00
       22  1    1    0    0    0 +8.6555165498e-02 -4.8232972451e-02 -3.4702419521e-01 3.6089334764e-01 0.0000000000e+00 0.0000e+00 1.0000e+00
</event>
<event>
 4      1 +2.4041262e-06 9.11880000e+01 7.81860800e-03 1.13011600e-01
       25 -1    0    0    0    0 +0.0000000000e+00 +0.0000000000e+00 +9.9999998245e-15 1.2500000000e+02 1.2500000000e+02 0.0000e+00 0.0000e+00
      -13  1    1    0    0    0 +4.2940419875e+01 +2.7845038445e+01 +3.5867257063e+01 6.2495576790e+01 1.0566000000e-01 0.0000e+00 1.0000e+00
       13  1    1    0    0    0 -4.2943483599e+01 -2.7846990466e+01 -3.5869780674e+01 6.2499999930e+01 1.0566000000e-01 0.0000e+00 1.0000e+00
       22  1    1    0    0    0 +3.0637239306e-03 +1.9520205097e-03 +2.5236107869e-03 4.4232793036e-03 0.0000000000e+00 0.0000e+00 1.0000e+00
</event>
<event>
 5      1 +2.4041262e-06 9.11880000e+01 7.81860800e-03 1.13011600e-01
       25 -1    0    0    0    0 +0.0000000000e+00 +0.0000000000e+00 +9.9999998245e-15 1.2500000000e+02 1.2500000000e+02 0.0000e+00 0.0000e+00
       23  2    1    0    0    0 -2.1142798389e+00 +6.6752418332e+00 +2.8752260354e+01 9.5407407883e+01 9.0701995406e+01 0.0000e+00 0.0000e+00
      -11  1    2    2    0    0 +6.9515269044e+00 +4.0534894565e+01 -1.0836950326e+01 4.2530470211e+01 5.1100000000e-04 0.0000e+00 -1.0000e+00
       11  1    2    2    0    0 -9.0658067433e+00 -3.3859652732e+01 +3.9589210680e+01 5.2876937672e+01 5.1100000000e-04 0.0000e+00 1.0000e+00
       22  1    1    0    0    0 +2.1142798389e+00 -6.6752418332e+00 -2.8752260354e+01 2.9592592117e+01 0.0000000000e+00 0.0000e+00 -1.0000e+00
</event>
<event>
 4      1 +2.4041262e-06 9.11880000e+01 7.81860800e-03 1.13011600e-01
       25 -1    0    0    0    0 +0.0000000000e+00 +0.0000000000e+00 +9.9999998245e-15 1.2500000000e+02 1.2500000000e+02 0.0000e+00 0.0000e+00
      -13  1    1    0    0    0 -9.1370051326e+00 +4.8486376995e+01 +3.8358289903e+01 6.2496265370e+01 1.0566000000e-01 0.0000e+00 1.0000e+00
       13  1    1    0    0    0 +9.1377627728e+00 -4.8489257645e+01 -3.8360547876e+01 6.2499996903e+01 1.0566000000e-01 0.0000e+00 1.0000e+00
       22  1    1    0    0    0 -7.5764011896e-04 +2.8806494050e-03 +2.2579735665e-03 3.7377271398e-03 0.0000000000e+00 0.0000e+00 -1.0000e+00
</event>
<event>
 5      1 +2.4041262e-06 9.11880000e+01 7.81860800e-03 1.13011600e-01
       25 -1    0    0    0    0 +0.0000000000e+00 +0.0000000000e+00 +9.9999998245e-15 1.2500000000e+02 1.2500000000e+02 0.0000e+00 0.0000e+00
       23  2    1    0    0    0 -2.6708585709e+01 +5.2040676254e+00 -9.7873235185e+00 9.6082486759e+01 9.1627625145e+01 0.0000e+00 0.0000e+00
      -13  1    2    2    0    0 -5.2221084327e+01 -1.4904473421e+01 -2.5502231508e+01 5.9996332823e+01 1.0566000000e-01 0.0000e+00 1.0000e+00
       13  1    2    2    0    0 +2.5512498618e+01 +2.0108541046e+01 +1.5714907989e+01 3.6086153936e+01 1.0566000000e-01 0.0000e+00 -1.0000e+00
       22  1    1    0    0    0 +2.6708585709e+01 -5.2040676254e+00 +9.7873235185e+00 2.8917513241e+01 0.0000000000e+00 0.0000e+00 1.0000e+00
</event>
<event>
 4      1 +2.4041262e-06 9.11880000e+01 7.81860800e-03 1.13011600e-01
       25 -1    0    0    0    0 +0.0000000000e+00 +0.0000000000e+00 +9.9999998245e-15 1.2500000000e+02 1.2500000000e+02 0.0000e+00 0.0000e+00
      -13  1    1    0    0    0 +4.5727162634e+01 +4.1128914462e+01 +1.1121038821e+01 6.2499997407e+01 1.0566000000e-01 0.0000e+00 1.0000e+00
       13  1    1    0    0    0 -4.5726952104e+01 -4.1128698644e+01 -1.1121037351e+01 6.2499701092e+01 1.0566000000e-01 0.0000e+00 1.0000e+00
       22  1    1    0    0    0 -2.1053044758e-04 -2.1581795837e-04 -1.4696479521e-06 3.0150061422e-04 0.0000000000e+00 0.0000e+00 -1.0000e+00
</event>
<event>
 4      1 +2.4041262e-06 9.11880000e+01 7.81860800e-03 1.13011600e-01
       25 -1    0    0    0    0 +0.0000000000e+00 +0.0000000000e+00 +9.9999998245e-15 1.2500000000e+02 1.2500000000e+02 0.0000e+00 0.0000e+00
      -11  1    1    0    0    0 -9.7722658677e+00 -5.8761284173e-01 +1.7562680089e+01 2.0106968971e+01 5.1100000000e-04 0.0000e+00 -1.0000e+00
       11  1    1    0    0    0 -1.9296145524e+01 -1.3589894034e+00 +3.7727135686e+01 4.2397226933e+01 5.1100000000e-04 0.0000e+00 1.0000e+00
       22  1    1    0    0    0 +2.9068411392e+01 +1.9466022451e+00 -5.5289815775e+01 6.2495804096e+01 0.0000000000e+00 0.0000e+00 1.0000e+00
</event>
<event>
 4      1 +2.4041262e-06 9.11880000e+01 7.81860800e-03 1.13011600e-01
       25 -1    0    0    0    0 +0.0000000000e+00 +0.0000000000e+00 +9.9999998245e-15 1.2500000000e+02 1.2500000000e+02 0.0000e+00 0.0000e+00
      -13  1    1    0    0    0 -2.2295823971e+01 -3.5562435275e+01 -4.6206218316e+01 6.2424485134e+01 1.0566000000e-01 0.0000e+00 1.0000e+00
       13  1    1    0    0    0 +2.1586407470e+01 +3.4431066844e+01 +4.3334142002e+01 5.9408167609e+01 1.0566000000e-01 0.0000e+00 1.0000e+00
       22  1    1    0    0    0 +7.0941650016e-01 +1.1313684310e+00 +2.8720763134e+00 3.1673472572e+00 0.0000000000e+00 0.0000e+00 -1.0000e+00
</event>
<event>
 4      1 +2.4041262e-06 9.11880000e+01 7.81860800e-03 1.13011600e-01
       25 -1    0    0    0    0 +0.0000000000e+00 +0.0000000000e+00 +9.9999998245e-15 1.2500000000e+02 1.2500000000e+02 0.0000e+00 0.0000e+00
      -13  1    1    0    0    0 +5.2906464735e+01 -2.9594398433e+01 +1.5209081833e+01 6.2499998109e+01 1.0566000000e-01 0.0000e+00 1.0000e+00
       13  1    1    0    0    0 -5.2889815148e+01 +2.9585126817e+01 -1.5203905506e+01 6.2480254336e+01 1.0566000000e-01 0.0000e+00 1.0000e+00
       22  1    1    0    0    0 -1.6649586434e-02 +9.2716156966e-03 -5.1763267762e-03 1.9747555417e-02 0.0000000000e+00 0.0000e+00 -1.0000e+00
</event>
<event>
 4      1 +2.4041262e-06 9.11880000e+01 7.81860800e-03 1.13011600e-01
       25 -1    0    0    0    0 +0.0000000000e+00 +0.0000000000e+00 +9.9999998245e-15 1.2500000000e+02 1.2500000000e+02 0.0000e+00 0.0000e+00
      -11  1    1    0    0    0 -4.9664636040e+01 +5.0868295747e+00 -3.5323704944e+00 5.0049271220e+01 5.1100000000e-04 0.0000e+00 1.0000e+00
       11  1    1    0    0    0 -1.0475181824e+01 +7.2699676870e+00 -3.3130068673e+00 1.3174136753e+01 5.1100000000e-04 0.0000e+00 -1.0000e+00
       22  1    1    0    0    0 +6.0139817864e+01 -1.2356797262e+01 +6.8453773617e+00 6.1776592027e+01 0.0000000000e+00 0.0000e+00 1.0000e+00
</event>
<event>
 4      1 +2.4041262e-06 9.11880000e+01 7.81860800e-03 1.13011600e-01
       25 -1    0    0    0    0 +0.0000000000e+00 +0.0000000000e+00 +9.9999998245e-15 1.2500000000e+02 1.2500000000e+02 0.0000e+00 0.0000e+00
      -13  1    1    0    0    0 +4.9258238195e+00 -5.0664207845e+01 +3.6262098928e+01 6.2498613421e+01 1.0566000000e-01 0.0000e+00 1.0000e+00
       13  1    1    0    0    0 -4.9240711231e+00 +5.0665255427e+01 -3.6262133156e+01 6.2499344388e+01 1.0566000000e-01 0.0000e+00 1.0000e+00
       22  1    1    0    0    0 -1.7526963919e-03 -1.0475823154e-03 +3.4227740387e-05 2.0421911977e-03 0.0000000000e+00 0.0000e+00 -1.0000e+00
</event>
<event>
 4      1 +2.4041262e-06 9.11880000e+01 7.81860800e-03 1.13011600e-01
       25 -1    0    0    0    0 +0.0000000000e+00 +0.0000000000e+00 +9.9999998245e-15 1.2500000000e+02 1.2500000000e+02 0.0000e+00 0.0000e+00
      -13  1    1    0    0    0 +3.3478117084e+01 +4.1534832359e+01 -3.2562381156e+01 6.2499971625e+01 1.0566000000e-01 0.0000e+00 1.0000e+00
       13  1    1    0    0    0 -3.3478132953e+01 -4.1534850854e+01 +3.2562395701e+01 6.2499999994e+01 1.0566000000e-01 0.0000e+00 1.0000e+00
       22  1    1    0    0    0 +1.5869525518e-05 +1.8495175869e-05 -1.4544654869e-05 2.8380633464e-05 0.0000000000e+00 0.0000e+00 -1.0000e+00
</event>
<event>
 4      1 +2.4041262e-06 9.11880000e+01 7.81860800e-03 1.13011600e-01
       25 -1    0    0    0    0 +0.0000000000e+00 +0.0000000000e+00 +9.9999998245e-15 1.2500000000e+02 1.2500000000e+02 0.0000e+00 0.0000e+00
      -11  1    1    0    0    0 +4.0130605597e+01 +5.6555482403e+00 +4.2305839927e+01 5.8585278216e+01 5.1100000000e-04 0.0000e+00 1.0000e+00
       11  1    1    0    0    0 +2.6809272346e+00 +3.8075812329e-01 +2.8271368826e+00 3.9147223145e+00 5.1100000000e-04 0.0000e+00 -1.0000e+00
       22  1    1    0    0    0 -4.2811532832e+01 -6.0363063636e+00 -4.5132976810e+01 6.2499999469e+01 0.0000000000e+00 0.0000e+00 1.0000e+00
</event>
<event>
 4      1 +2.4041262e-06 9.11880000e+01 7.81860800e-03 1.13011600e-01
       25 -1    0    0    0    0 +0.0000000000e+00 +0.0000000000e+00 +9.9999998245e-15 1.2500000000e+02 1.2500000000e+02 0.0000e+00 0.0000e+00
      -13  1    1    0    0    0 +2.7368805361e+01 +5.6103093840e+01 -3.1032300358e+00 6.2499998768e+01 1.0566000000e-01 0.0000e+00 -1.0000e+00
       13  1    1    0    0    0 -2.7368805895e+01 -5.6103094950e+01 +3.1032300644e+00 6.2500000000e+01 1.0566000000e-01 0.0000e+00 -1.0000e+00
       22  1    1    0    0    0 +5.3375568409e-07 +1.1102481208e-06 -2.8615713290e-08 1.2322194931e-06 0.0000000000e+00 0.0000e+00 -1.0000e+00
</event>
<event>
 4      1 +2.4041262e-06 9.11880000e+01 7.81860800e-03 1.13011600e-01
       25 -1    0    0    0    0 +0.0000000000e+00 +0.0000000000e+00 +9.9999998245e-15 1.2500000000e+02 1.2500000000e+02 0.0000e+00 0.0000e+00
      -11  1    1    0    0    0 +4.2478100587e+00 -3.7471816765e+00 -2.2544897948e+01 2.3245594949e+01 5.1100000000e-04 0.0000e+00 1.0000e+00
       11  1    1    0    0    0 +7.1941115633e+00 -6.3352557340e+00 -3.8065965195e+01 3.9254406287e+01 5.1100000000e-04 0.0000e+00 -1.0000e+00
       22  1    1    0    0    0 -1.1441921622e+01 +1.0082437411e+01 +6.0610863143e+01 6.2499998764e+01 0.0000000000e+00 0.0000e+00 -1.0000e+00
</event>
<event>
 5      1 +2.4041262e-06 9.11880000e+01 7.81860800e-03 1.13011600e-01
       25 -1    0    0    0    0 +0.0000000000e+00 +0.0000000000e+00 +9.9999998245e-15 1.2500000000e+02 1.2500000000e+02 0.0000e+00 0.0000e+00
       23  2    1    0    0    0 -1.7488291363e+01 -2.2696413317e+01 +5.2077063769e+00 9.5878054358e+01 9.1348309177e+01 0.0000e+00 0.0000e+00
      -13  1    2    2    0    0 -1.2049981088e+01 -5.8207551089e+01 +7.3191847334e+00 5.9890756191e+01 1.0566000000e-01 0.0000e+00 -1.0000e+00
       13  1    2    2    0    0 -5.4383102748e+00 +3.5511137772e+01 -2.1114783565e+00 3.5987298167e+01 1.0566000000e-01 0.0000e+00 1.0000e+00
       22  1    1    0    0    0 +1.7488291363e+01 +2.2696413317e+01 -5.2077063769e+00 2.9121945642e+01 0.0000000000e+00 0.0000e+00 -1.0000e+00
</event>
<event>
 4      1 +2.4041262e-06 9.11880000e+01 7.81860800e-03 1.13011600e-01
       25 -1    0    0    0    0 +0.0000000000e+00 +0.0000000000e+00 +9.9999998245e-15 1.2500000000e+02 1.2500000000e+02 0.0000e+00 0.0000e+00
      -13  1    1    0    0    0 -4.6106080998e+01 +5.0655565267e+00 -4.1890425592e+01 6.2499995905e+01 1.0566000000e-01 0.0000e+00 1.0000e+00
       13  1    1    0    0    0 +4.6106085189e+01 -5.0655604293e+00 +4.1890423748e+01 6.2499998078e+01 1.0566000000e-01 0.0000e+00 1.0000e+00
       22  1    1    0    0    0 -4.1913502157e-06 +3.9026144833e-06 +1.8434445989e-06 6.0163198410e-06 0.0000000000e+00 0.0000e+00 1.0000e+00
</event>
<event>
 4      1 +2.4041262e-06 9.11880000e+01 7.81860800e-03 1.13011600e-01
       25 -1    0    0    0    0 +0.0000000000e+00 +0.0000000000e+00 +9.9999998245e-15 1.2500000000e+02 1.2500000000e+02 0.0000e+00 0.0000e+00
      -13  1    1    0    0    0 -1.0802243834e+01 +3.1325789057e+01 -5.2975915388e+01 6.2485616802e+01 1.0566000000e-01 0.0000e+00 1.0000e+00
       13  1    1    0    0    0 +1.0804308954e+01 -3.1333121945e+01 +5.2988119363e+01 6.2499996643e+01 1.0566000000e-01 0.0000e+00 1.0000e+00
       22  1    1    0    0    0 -2.0651202342e-03 +7.3328873375e-03 -1.2203974619e-02 1.4386554653e-02 0.0000000000e+00 0.0000e+00 1.0000e+00
</event>
<event>
 4      1 +2.4041262e-06 9.11880000e+01 7.81860800e-03 1.13011600e-01
       25 -1    0    0    0    0 +0.0000000000e+00 +0.0000000000e+00 +9.9999998245e-15 1.2500000000e+02 1.2500000000e+02 0.0000e+00 0.0000e+00
      -13  1    1    0    0    0 +1.3885591356e+01 -1.7756795968e+01 -5.8293442036e+01 6.2499999991e+01 1.0566000000e-01 0.0000e+00 -1.0000e+00
       13  1    1    0    0    0 -1.3885591326e+01 +1.7756795932e+01 +5.8293442021e+01 6.2499999960e+01 1.0566000000e-01 0.0000e+00 -1.0000e+00
       22  1    1    0    0    0 -3.0455100044e-08 +3.6234045083e-08 +1.4954198466e-08 4.9639169951e-08 0.0000000000e+00 0.0000e+00 -1.0000e+00
</event>
<event>
 4      1 +2.4041262e-06 9.11880000e+01 7.81860800e-03 1.13011600e-01
       25 -1    0    0    0    0 +0.0000000000e+00 +0.0000000000e+00 +9.9999998245e-15 1.2500000000e+02 1.2500000000e+02 0.0000e+00 0.0000e+00
      -11  1    1    0    0    0 +4.3419905520e+01 -2.7530674444e+01 +2.4190146986e+01 5.6818917995e+01 5.1100000000e-04 0.0000e+00 -1.0000e+00
       11  1    1    0    0    0 +4.0653621056e+00 -3.3957549687e+00 +2.1167675161e+00 5.7042988908e+00 5.1100000000e-04 0.0000e+00 1.0000e+00
       22  1    1    0    0    0 -4.7485267625e+01 +3.0926429413e+01 -2.6306914502e+01 6.2476783114e+01 0.0000000000e+00 0.0000e+00 -1.0000e+00
</event>
<event>
 5      1 +2.4041262e-06 9.11880000e+01 7.81860800e-03 1.13011600e-01
       25 -1    0    0    0    0 +0.0000000000e+00 +0.0000000000e+00 +9.9999998245e-15 1.2500000000e+02 1.2500000000e+02 0.0000e+00 0.0000e+00
       23  2    1    0    0    0 -2.0671765963e+01 +1.2742860493e+01 +1.9982174319e+01 9.3551793500e+01 8.8107595444e+01 0.0000e+00 0.0000e+00
      -11  1    2    2    0    0 -3.1072808724e+01 -3.0564791984e+01 -2.5051185359e+00 4.3657777888e+01 5.1100000000e-04 0.0000e+00 1.0000e+00
       11  1    2    2    0    0 +1.0401042760e+01 +4.3307652478e+01 +2.2487292854e+01 4.9894015611e+01 5.1100000000e-04 0.0000e+00 -1.0000e+00
       22  1    1    0    0    0 +2.0671765963e+01 -1.2742860493e+01 -1.9982174319e+01 3.1448206500e+01 0.0000000000e+00 0.0000e+00 1.0000e+00
</event>
<event>
 4      1 +2.4041262e-06 9.11880000e+01 7.81860800e-03 1.13011600e-01
       25 -1    0    0    0    0 +0.0000000000e+00 +0.0000000000e+00 +9.9999998245e-15 1.2500000000e+02 1.2500000000e+02 0.0000e+00 0.0000e+00
      -13  1    1    0    0    0 -1.7548048405e+00 +5.9491595260e+01 +1.9075987909e+01 6.2499869803e+01 1.0566000000e-01 0.0000e+00 1.0000e+00
       13  1    1    0    0    0 +1.7547926580e+00 -5.9491730795e+01 -1.9075969632e+01 6.2499992894e+01 1.0566000000e-01 0.0000e+00 1.0000e+00
       22  1    1    0    0    0 +1.2182432056e-05 +1.3553517096e-04 -1.8277210213e-05 1.3730349825e-04 0.0000000000e+00 0.0000e+00 1.0000e+00
</event>
<event>
 4      1 +2.4041262e-06 9.11880000e+01 7.81860800e-03 1.13011600e-01
       25 -1    0    0    0    0 +0.0000000000e+00 +0.0000000000e+00 +9.9999998245e-15 1.2500000000e+02 1.2500000000e+02 0.0000e+00 0.0000e+00
      -11  1    1    0    0    0 +1.1502021335e+01 +8.3083554551e+00 +5.2536359932e+00 1.5130299289e+01 5.1100000000e-04 0.0000e+00 1.0000e+00
       11  1    1    0    0    0 +2.5010308550e+01 +3.5779344088e+01 +1.9113815801e+01 4.7655167106e+01 5.1100000000e-04 0.0000e+00 -1.0000e+00
       22  1    1    0    0    0 -3.6512329885e+01 -4.4087699544e+01 -2.4367451794e+01 6.2214533605e+01 0.0000000000e+00 0.0000e+00 -1.0000e+00
</event>
<event>
 4      1 +2.4041262e-06 9.11880000e+01 7.81860800e-03 1.13011600e-01
       25 -1    0    0    0    0 +0.0000000000e+00 +0.0000000000e+00 +9.9999998245e-15 1.2500000000e+02 1.2500000000e+02 0.0000e+00 0.0000e+00
      -11  1    1    0    0    0 +8.5079393586e+00 +2.3463181092e+01 +2.9729870172e+01 3.8817149300e+01 5.1100000000e-04 0.0000e+00 1.0000e+00
       11  1    1    0    0    0 +2.9651355333e+00 +8.4631977426e+00 +2.2319391453e+01 2.4053544019e+01 5.1100000000e-04 0.0000e+00 -1.0000e+00
       22  1    1    0    0    0 -1.1473074892e+01 -3.1926378835e+01 -5.2049261625e+01 6.2129306681e+01 0.0000000000e+00 0.0000e+00 1.0000e+00
</event>
<event>
 4      1 +2.4041262e-06 9.11880000e+01 7.81860800e-03 1.13011600e-01
       25 -1    0    0    0    0 +0.0000000000e+00 +0.0000000000e+00 +9.9999998245e-15 1.2500000000e+02 1.2500000000e+02 0.0000e+00 0.0000e+00
      -13  1    1    0    0    0 -5.2961615556e+01 -2.0101660962e+01 -2.6405100459e+01 6.2499999920e+01 1.0566000000e-01 0.0000e+00 1.0000e+00
       13  1    1    0    0    0 +5.2961615629e+01 +2.0101660989e+01 +2.6405100480e+01 6.2499999999e+01 1.0566000000e-01 0.0000e+00 1.0000e+00
       22  1    1    0    0    0 -7.2496635496e-08 -2.7309960205e-08 -2.0524595482e-08 8.0142717102e-08 0.0000000000e+00 0.0000e+00 1.0000e+00
</event>
<event>
 4      1 +2.4041262e-06 9.11880000e+01 7.81860800e-03 1.13011600e-01
       25 -1    0    0    0    0 +0.0000000000e+00 +0.0000000000e+00 +9.9999998245e-15 1.2500000000e+02 1.2500000000e+02 0.0000e+00 0.0000e+00
      -13  1    1    0    0    0 -5.0271046579e+01 -2.2880044462e+01 +2.9250030376e+01 6.2499999998e+01 1.0566000000e-01 0.0000e+00 1.0000e+00
       13  1    1    0    0    0 +5.0271046581e+01 +2.2880044462e+01 -2.9250030376e+01 6.2500000000e+01 1.0566000000e-01 0.0000e+00 1.0000e+00
       22  1    1    0    0    0 -2.0696723326e-09 -2.6854705283e-10 +4.4145521112e-10 2.1332003627e-09 0.0000000000e+00 0.0000e+00 1.0000e+00
</event>
<event>
 4      1 +2.4041262e-06 9.11880000e+01 7.81860800e-03 1.13011600e-01
       25 -1    0    0    0    0 +0.0000000000e+00 +0.0000000000e+00 +9.9999998245e-15 1.2500000000e+02 1.2500000000e+02 0.0000e+00 0.0000e+00
      -13  1    1    0    0    0 -2.2796804946e+01 +3.3707291258e+01 -4.7437990529e+01 6.2499999273e+01 1.0566000000e-01 0.0000e+00 -1.0000e+00
       13  1    1    0    0    0 +2.2794498166e+01 -3.3703953770e+01 +4.7433062323e+01 6.2493617368e+01 1.0566000000e-01 0.0000e+00 -1.0000e+00
       22  1    1    0    0    0 +2.3067793573e-03 -3.3374883327e-03 +4.9282062396e-03 6.3833593126e-03 0.0000000000e+00 0.0000e+00 1.0000e+00
</event>
<event>
 4      1 +2.4041262e-06 9.11880000e+01 7.81860800e-03 1.13011600e-01
       25 -1    0    0    0    0 +0.0000000000e+00 +0.0000000000e+00 +9.9999998245e-15 1.2500000000e+02 1.2500000000e+02 0.0000e+00 0.0000e+00
      -13  1    1    0    0    0 +5.9477197155e+01 -1.3512482627e+00 +1.9153026123e+01 6.2499699415e+01 1.0566000000e-01 0.0000e+00 -1.0000e+00
       13  1    1    0    0    0 -5.9402194038e+01 +1.3477545337e+00 -1.9118588158e+01 6.2417695215e+01 1.0566000000e-01 0.0000e+00 -1.0000e+00
       22  1    1    0    0    0 -7.5003116873e-02 +3.4937289627e-03 -3.4437964482e-02 8.2605369562e-02 0.0000000000e+00 0.0000e+00 1.0000e+00
</event>
<event>
 4      1 +2.4041262e-06 9.11880000e+01 7.81860800e-03 1.13011600e-01
       25 -1    0    0    0    0 +0.0000000000e+00 +0.0000000000e+00 +9.9999998245e-15 1.2500000000e+02 1.2500000000e+02 0.0000e+00 0.0000e+00
      -13  1    1    0    0    0 -2.5318758526e-01 -8.8574118968e+00 +7.7025714551e-01 8.8950722070e+00 1.0566000000e-01 0.0000e+00 1.0000e+00
       13  1    1    0    0    0 -5.4750254467e-01 -5.3493061635e+01 +3.4466849567e+00 5.3606885783e+01 1.0566000000e-01 0.0000e+00 -1.0000e+00
       22  1    1    0    0    0 +8.0069012992e-01 +6.2350473532e+01 -4.2169421022e+00 6.2498042010e+01 0.0000000000e+00 0.0000e+00 -1.0000e+00
</event>
<event>
 4      1 +2.4041262e-06 9.11880000e+01 7.81860800e-03 1.13011600e-01
       25 -1    0    0    0    0 +0.0000000000e+00 +0.0000000000e+00 +9.9999998245e-15 1.2500000000e+02 1.2500000000e+02 0.0000e+00 0.0000e+00
      -13  1    1    0    0    0 +3.5935668084e+00 +4.9472554372e+01 +3.8023549388e+01 6.2499990645e+01 1.0566000000e-01 0.0000e+00 1.0000e+00
       13  1    1    0    0    0 -3.5935673592e+00 -4.9472561651e+01 -3.8023555241e+01 6.2499999999e+01 1.0566000000e-01 0.0000e+00 1.0000e+00
       22  1    1    0    0    0 +5.5080313563e-07 +7.2790415290e-06 +5.8528072664e-06 9.3564513878e-06 0.0000000000e+00 0.0000e+00 -1.0000e+00
</event>
<event>
 4      1 +2.4041262e-06 9.11880000e+01 7.81860800e-03 1.13011600e-01
       25 -1    0    0    0    0 +0.0000000000e+00 +0.0000000000e+00 +9.9999998245e-15 1.2500000000e+02 1.2500000000e+02 0.0000e+00 0.0000e+00
      -13  1    1    0    0    0 -5.0545849468e+00 -1.1536128891e+01 +4.2764862505e+01 4.4581114027e+01 1.0566000000e-01 0.0000e+00 1.0000e+00
       13  1    1    0    0    0 +6.5529717661e+00 +1.6494124070e+01 -5.9922915737e+01 6.2496116378e+01 1.0566000000e-01 0.0000e+00 1.0000e+00
       22  1    1    0    0    0 -1.4983868194e+00 -4.9579951789e+00 +1.7158053232e+01 1.7922769595e+01 0.0000000000e+00 0.0000e+00 1.0000e+00
</event>
<event>
 4      1 +2.4041262e-06 9.11880000e+01 7.81860800e-03 1.13011600e-01
       25 -1    0    0    0    0 +0.0000000000e+00 +0.0000000000e+00 +9.9999998245e-15 1.2500000000e+02 1.2500000000e+02 0.0000e+00 0.0000e+00
      -13  1    1    0    0    0 +4.6838771669e+00 +9.4457562769e+00 +6.1604202932e+01 6.2500000000e+01 1.0566000000e-01 0.0000e+00 1.0000e+00
       13  1    1    0    0    0 -4.6838718089e+00 -9.4457448135e+00 -6.1604127753e+01 6.2499923764e+01 1.0566000000e-01 0.0000e+00 1.0000e+00
       22  1    1    0    0    0 -5.3580078789e-06 -1.1463333067e-05 -7.5179052528e-05 7.6236514823e-05 0.0000000000e+00 0.0000e+00 -1.0000e+00
</event>
<event>
 4      1 +2.4041262e-06 9.11880000e+01 7.81860800e-03 1.13011600e-01
       25 -1    0    0    0    0 +0.0000000000e+00 +0.0000000000e+00 +9.9999998245e-15 1.2500000000e+02 1.2500000000e+02 0.0000e+00 0.0000e+00
      -13  1    1    0    0    0 -6.0133584388e+01 +1.6630127199e+01 +3.6918446626e+00 6.2499999864e+01 1.0566000000e-01 0.0000e+00 1.0000e+00
       13  1    1    0    0    0 +6.0133584518e+01 -1.6630127234e+01 -3.6918446745e+00 6.2500000000e+01 1.0566000000e-01 0.0000e+00 1.0000e+00
       22  1    1    0    0    0 -1.3049254729e-07 +3.5731808442e-08 +1.1893525178e-08 1.3581797735e-07 0.0000000000e+00 0.0000e+00 1.0000e+00
</event>
<event>
 4      1 +2.4041262e-06 9.11880000e+01 7.81860800e-03 1.13011600e-01
       25 -1    0    0    0    0 +0.0000000000e+00 +0.0000000000e+00 +9.9999998245e-15 1.2500000000e+02 1.2500000000e+02 0.0000e+00 0.0000e+00
      -13  1    1    0    0    0 -3.6657036839e+01 +2.8483560384e+01 -4.1847166298e+01 6.2499984425e+01 1.0566000000e-01 0.0000e+00 -1.0000e+00
       13  1    1    0    0    0 +3.5662716968e+01 -2.7707831606e+01 +4.0697638075e+01 6.0793603469e+01 1.0566000000e-01 0.0000e+00 -1.0000e+00
       22  1    1    0    0    0 +9.9431987101e-01 -7.7572877756e-01 +1.1495282230e+00 1.7064121067e+00 0.0000000000e+00 0.0000e+00 1.0000e+00
</event>
<event>
 4      1 +2.4041262e-06 9.11880000e+01 7.81860800e-03 1.13011600e-01
       25 -1    0    0    0    0 +0.0000000000e+00 +0.0000000000e+00 +9.9999998245e-15 1.2500000000e+02 1.2500000000e+02 0.0000e+00 0.0000e+00
      -13  1    1    0    0    0 -2.2302373742e+01 +5.8311164900e+01 -2.9412598370e+00 6.2500000000e+01 1.0566000000e-01 0.0000e+00 -1.0000e+00
       13  1    1    0    0    0 +2.2302372279e+01 -5.8311161093e+01 +2.9412596814e+00 6.2499995919e+01 1.0566000000e-01 0.0000e+00 -1.0000e+00
       22  1    1    0    0    0 +1.4632341849e-06 -3.8067215379e-06 +1.5559930109e-07 4.0812246066e-06 0.0000000000e+00 0.0000e+00 -1.0000e+00
</event>
<event>
 4      1 +2.4041262e-06 9.11880000e+01 7.81860800e-03 1.13011600e-01
       25 -1    0    0    0    0 +0.0000000000e+00 +0.0000000000e+00 +9.9999998245e-15 1.2500000000e+02 1.2500000000e+02 0.0000e+00 0.0000e+00
      -13  1    1    0    0    0 -2.4226775842e+01 -9.1421319988e+00 -2.1033902400e+01 3.3360927136e+01 1.0566000000e-01 0.0000e+00 1.0000e+00
       13  1    1    0    0    0 +4.5347329646e+01 +1.6722981772e+01 +3.9624156287e+01 6.2498986799e+01 1.0566000000e-01 0.0000e+00 1.0000e+00
       22  1    1    0    0    0 -2.1120553804e+01 -7.5808497736e+00 -1.8590253887e+01 2.9140086065e+01 0.0000000000e+00 0.0000e+00 1.0000e+00
</event>
<event>
 4      1 +2.4041262e-06 9.11880000e+01 7.81860800e-03 1.13011600e-01
       25 -1    0    0    0    0 +0.0000000000e+00 +0.0000000000e+00 +9.9999998245e-15 1.2500000000e+02 1.2500000000e+02 0.0000e+00 0.0000e+00
      -13  1    1    0    0    0 -4.8510848088e+01 +3.8913352092e+01 -6.2191254611e+00 6.2499920310e+01 1.0566000000e-01 0.0000e+00 1.0000e+00
       13  1    1    0    0    0 +3.9190044747e+01 -3.1447467409e+01 +5.0761838771e+00 5.0503283264e+01 1.0566000000e-01 0.0000e+00 1.0000e+00
       22  1    1    0    0    0 +9.3208033408e+00 -7.4658846830e+00 +1.1429415839e+00 1.1996796426e+01 0.0000000000e+00 0.0000e+00 1.0000e+00
</event>
<event>
 4      1 +2.4041262e-06 9.11880000e+01 7.81860800e-03 1.13011600e-01
       25 -1    0    0    0    0 +0.0000000000e+00 +0.0000000000e+00 +9.9999998245e-15 1.2500000000e+02 1.2500000000e+02 0.0000e+00 0.0000e+00
      -13  1    1    0    0    0 -3.1157178957e+01 -4.9513146615e+01 +2.1998121051e+01 6.2499999857e+01 1.0566000000e-01 0.0000e+00 -1.0000e+00
       13  1    1    0    0    0 +3.1157179070e+01 +4.9513146703e+01 -2.1998121089e+01 6.2499999996e+01 1.0566000000e-01 0.0000e+00 -1.0000e+00
       22  1    1    0    0    0 -1.1240041214e-07 -8.7393919438e-08 +3.8943729408e-08 1.4760814295e-07 0.0000000000e+00 0.0000e+00 -1.0000e+00
</event>
<event>
 4      1 +2.4041262e-06 9.11880000e+01 7.81860800e-03 1.13011600e-01
       25 -1    0    0    0    0 +0.0000000000e+00 +0.0000000000e+00 +9.9999998245e-15 1.2500000000e+02 1.2500000000e+02 0.0000e+00 0.0000e+00
      -13  1    1    0    0    0 -5.4120016820e+01 +2.5794140481e+01 +1.7661396221e+01 6.2499999874e+01 1.0566000000e-01 0.0000e+00 1.0000e+00
       13  1    1    0    0    0 +5.4120016929e+01 -2.5794140533e+01 -1.7661396255e+01 6.2500000000e+01 1.0566000000e-01 0.0000e+00 1.0000e+00
       22  1    1    0    0    0 -1.0908977542e-07 +5.2438933371e-08 +3.4316337856e-08 1.2580950631e-07 0.0000000000e+00 0.0000e+00 1.0000e+00
</event>
<event>
 4      1 +2.4041262e-06 9.11880000e+01 7.81860800e-03 1.13011600e-01
       25 -1    0    0    0    0 +0.0000000000e+00 +0.0000000000e+00 +9.9999998245e-15 1.2500000000e+02 1.2500000000e+02 0.0000e+00 0.0000e+00
      -13  1    1    0    0    0 +2.5983255740e+01 -5.6478459152e+01 -6.4259541938e+00 6.2499999827e+01 1.0566000000e-01 0.0000e+00 -1.0000e+00
       13  1    1    0    0    0 -2.5983238105e+01 +5.6478414146e+01 +6.4259542818e+00 6.2499951835e+01 1.0566000000e-01 0.0000e+00 -1.0000e+00
       22  1    1    0    0    0 -1.7635513297e-05 +4.5005982257e-05 -8.8027661267e-08 4.8337951105e-05 0.0000000000e+00 0.0000e+00 1.0000e+00
</event>
<event>
 4      1 +2.4041262e-06 9.11880000e+01 7.81860800e-03 1.13011600e-01
       25 -1    0    0    0    0 +0.0000000000e+00 +0.0000000000e+00 +9.9999998245e-15 1.2500000000e+02 1.2500000000e+02 0.0000e+00 0.0000e+00
      -13  1    1    0    0    0 +6.1570780221e+01 +8.8132725054e+00 +6.1321953889e+00 6.2499997868e+01 1.0566000000e-01 0.0000e+00 1.0000e+00
       13  1    1    0    0    0 -6.1570782321e+01 -8.8132727792e+00 -6.1321956315e+00 6.2500000000e+01 1.0566000000e-01 0.0000e+00 1.0000e+00
       22  1    1    0    0    0 +2.1001372189e-06 +2.7386513318e-07 +2.4265634492e-07 2.1317740385e-06 0.0000000000e+00 0.0000e+00 -1.0000e+00
</event>
<event>
 5      1 +2.4041262e-06 9.11880000e+01 7.81860800e-03 1.13011600e-01
       25 -1    0    0    0    0 +0.0000000000e+00 +0.0000000000e+00 +9.9999998245e-15 1.2500000000e+02 1.2500000000e+02 0.0000e+00 0.0000e+00
       23  2    1    0    0    0 +1.8231570068e+01 -1.1686401969e+01 +1.8957523533e+01 9.6218932671e+01 9.1813578340e+01 0.0000e+00 0.0000e+00
      -11  1    2    2    0    0 +9.2342464582e+00 -3.9166796470e+01 +4.2796058920e+01 5.8743611675e+01 5.1100000000e-04 0.0000e+00 1.0000e+00
       11  1    2    2    0    0 +8.9973236097e+00 +2.7480394501e+01 -2.3838535386e+01 3.7475320995e+01 5.1100000000e-04 0.0000e+00 -1.0000e+00
       22  1    1    0    0    0 -1.8231570068e+01 +1.1686401969e+01 -1.8957523533e+01 2.8781067329e+01 0.0000000000e+00 0.0000e+00 1.0000e+00
</event>
<event>
 4      1 +2.4041262e-06 9.11880000e+01 7.81860800e-03 1.13011600e-01
       25 -1    0    0    0    0 +0.0000000000e+00 +0.0000000000e+00 +9.9999998245e-15 1.2500000000e+02 1.2500000000e+02 0.0000e+00 0.0000e+00
      -11  1    1    0    0    0 -4.4228752497e+01 -3.6652757652e+01 +1.1935681069e+01 5.8669137319e+01 5.1100000000e-04 0.0000e+00 1.0000e+00
       11  1    1    0    0    0 -3.0843826072e+00 -2.2197750996e+00 +5.4172251410e-01 3.8385259024e+00 5.1100000000e-04 0.0000e+00 -1.0000e+00
       22  1    1    0    0    0 +4.7313135104e+01 +3.8872532751e+01 -1.2477403583e+01 6.2492336779e+01 0.0000000000e+00 0.0000e+00 1.0000e+00
</event>
<event>
 4      1 +2.4041262e-06 9.11880000e+01 7.81860800e-03 1.13011600e-01
       25 -1    0    0    0    0 +0.0000000000e+00 +0.0000000000e+00 +9.9999998245e-15 1.2500000000e+02 1.2500000000e+02 0.0000e+00 0.0000e+00
      -13  1    1    0    0    0 -5.9349401679e+01 +1.5735677771e+01 -1.1666596785e+01 6.2498669419e+01 1.0566000000e-01 0.0000e+00 1.0000e+00
       13  1    1    0    0    0 +5.9350546008e+01 -1.5735688259e+01 +1.1667430958e+01 6.2499914445e+01 1.0566000000e-01 0.0000e+00 1.0000e+00
       22  1    1    0    0    0 -1.1443285975e-03 +1.0488535694e-05 -8.3417291593e-04 1.4161364348e-03 0.0000000000e+00 0.0000e+00 1.0000e+00
</event>
<event>
 4      1 +2.4041262e-06 9.11880000e+01 7.81860800e-03 1.13011600e-01
       25 -1    0    0    0    0 +0.0000000000e+00 +0.0000000000e+00 +9.9999998245e-15 1.2500000000e+02 1.2500000000e+02 0.0000e+00 0.0000e+00
      -13  1    1    0    0    0 -1.8025442588e+01 -4.9346334669e+00 -9.9802769636e-01 1.8715619446e+01 1.0566000000e-01 0.0000e+00 1.0000e+00
       13  1    1    0    0    0 -4.2024755363e+01 -1.2301290079e+01 -5.1326244302e-01 4.3791282276e+01 1.0566000000e-01 0.0000e+00 -1.0000e+00
       22  1    1    0    0    0 +6.0050197951e+01 +1.7235923546e+01 +1.5112901394e+00 6.2493098278e+01 0.0000000000e+00 0.0000e+00 -1.0000e+00
</event>
<event>
 4      1 +2.4041262e-06 9.11880000e+01 7.81860800e-03 1.13011600e-01
       25 -1    0    0    0    0 +0.0000000000e+00 +0.0000000000e+00 +9.9999998245e-15 1.2500000000e+02 1.2500000000e+02 0.0000e+00 0.0000e+00
      -13  1    1    0    0    0 -5.1172312374e+01 +3.4940217439e+01 +8.1738344722e+00 6.2499976659e+01 1.0566000000e-01 0.0000e+00 -1.0000e+00
       13  1    1    0    0    0 +5.1172012173e+01 -3.4940167439e+01 -8.1736820917e+00 6.2499682987e+01 1.0566000000e-01 0.0000e+00 -1.0000e+00
       22  1    1    0    0    0 +3.0020143985e-04 -5.0000320708e-05 -1.5238055366e-04 3.4035388891e-04 0.0000000000e+00 0.0000e+00 -1.0000e+00
</event>
<event>
 4      1 +2.4041262e-06 9.11880000e+01 7.81860800e-03 1.13011600e-01
       25 -1    0    0    0    0 +0.0000000000e+00 +0.0000000000e+00 +9.9999998245e-15 1.2500000000e+02 1.2500000000e+02 0.0000e+00 0.0000e+00
      -13  1    1    0    0    0 -6.1563065851e+01 +1.6608667670e+00 -1.0457128151e+01 6.2467049303e+01 1.0566000000e-01 0.0000e+00 1.0000e+00
       13  1    1    0    0    0 +5.9374758816e+01 -1.8486127895e+00 +9.5953785385e+00 6.0173597259e+01 1.0566000000e-01 0.0000e+00 1.0000e+00
       22  1    1    0    0    0 +2.1883070354e+00 +1.8774602249e-01 +8.6174961301e-01 2.3593534380e+00 0.0000000000e+00 0.0000e+00 1.0000e+00
</event>
<event>
 4      1 +2.4041262e-06 9.11880000e+01 7.81860800e-03 1.13011600e-01
       25 -1    0    0    0    0 +0.0000000000e+00 +0.0000000000e+00 +9.9999998245e-15 1.2500000000e+02 1.2500000000e+02 0.0000e+00 0.0000e+00
      -13  1    1    0    0    0 -6.0992207936e+01 +7.8706227382e+00 +1.1146421165e+01 6.2500000000e+01 1.0566000000e-01 0.0000e+00 1.0000e+00
       13  1    1    0    0    0 +6.0992207935e+01 -7.8706227381e+00 -1.1146421165e+01 6.2499999999e+01 1.0566000000e-01 0.0000e+00 1.0000e+00
       22  1    1    0    0    0 +1.0473953100e-09 -1.3787326620e-10 -2.4164631505e-10 1.0837153291e-09 0.0000000000e+00 0.0000e+00 -1.0000e+00
</event>
<event>
 4      1 +2.4041262e-06 9.11880000e+01 7.81860800e-03 1.13011600e-01
       25 -1    0    0    0    0 +0.0000000000e+00 +0.0000000000e+00 +9.9999998245e-15 1.2500000000e+02 1.2500000000e+02 0.0000e+00 0.0000e+00
      -13  1    1    0    0    0 +7.1880967694e+00 +7.1084916461e+00 -6.1676861263e+01 6.2499966143e+01 1.0566000000e-01 0.0000e+00 -1.0000e+00
       13  1    1    0    0    0 -5.8553033699e+00 -5.7751875906e+00 +5.0347502948e+01 5.1014895731e+01 1.0566000000e-01 0.0000e+00 -1.0000e+00
       22  1    1    0    0    0 -1.3327933996e+00 -1.3333040556e+00 +1.1329358314e+01 1.1485138126e+01 0.0000000000e+00 0.0000e+00 -1.0000e+00
</event>
<event>
 4      1 +2.4041262e-06 9.11880000e+01 7.81860800e-03 1.13011600e-01
       25 -1    0    0    0    0 +0.0000000000e+00 +0.0000000000e+00 +9.9999998245e-15 1.2500000000e+02 1.2500000000e+02 0.0000e+00 0.0000e+00
      -13  1    1    0    0    0 +4.5936490201e+01 +1.1873096531e+01 -4.0683009341e+01 6.2499999730e+01 1.0566000000e-01 0.0000e+00 -1.0000e+00
       13  1    1    0    0    0 -4.5936345273e+01 -1.1873045333e+01 +4.0682869008e+01 6.2499792138e+01 1.0566000000e-01 0.0000e+00 -1.0000e+00
       22  1    1    0    0    0 -1.4492789313e-04 -5.1198711844e-05 +1.4033260895e-04 2.0813131296e-04 0.0000000000e+00 0.0000e+00 1.0000e+00
</event>
<event>
 5      1 +2.4041262e-06 9.11880000e+01 7.81860800e-03 1.13011600e-01
       25 -1    0    0    0    0 +0.0000000000e+00 +0.0000000000e+00 +9.9999998245e-15 1.2500000000e+02 1.2500000000e+02 0.0000e+00 0.0000e+00
       23  2    1    0    0    0 -2.6316197038e+01 -4.9761229301e+00 +1.7338329038e+01 9.3095115111e+01 8.7457296881e+01 0.0000e+00 0.0000e+00
      -11  1    2    2    0    0 -1.8398359571e+00 -2.2602634868e+01 +4.6126285890e+01 5.1399400285e+01 5.1100000000e-04 0.0000e+00 -1.0000e+00
       11  1    2    2    0    0 -2.4476361081e+01 +1.7626511938e+01 -2.8787956852e+01 4.1695714826e+01 5.1100000000e-04 0.0000e+00 1.0000e+00
       22  1    1    0    0    0 +2.6316197038e+01 +4.9761229301e+00 -1.7338329038e+01 3.1904884889e+01 0.0000000000e+00 0.0000e+00 -1.0000e+00
</event>
<event>
 4      1 +2.4041262e-06 9.11880000e+01 7.81860800e-03 1.13011600e-01
       25 -1    0    0    0    0 +0.0000000000e+00 +0.0000000000e+00 +9.9999998245e-15 1.2500000000e+02 1.2500000000e+02 0.0000e+00 0.0000e+00
      -11  1    1    0    0    0 +6.7002850411e+00 -1.1809928715e+01 +1.2565229241e+01 1.8500087082e+01 5.1100000000e-04 0.0000e+00 1.0000e+00
       11  1    1    0    0    0 +1.5936094271e+01 -2.8087354680e+01 +2.9885343292e+01 4.3999912926e+01 5.1100000000e-04 0.0000e+00 1.0000e+00
       22  1    1    0    0    0 -2.2636379312e+01 +3.9897283395e+01 -4.2450572533e+01 6.2499999992e+01 0.0000000000e+00 0.0000e+00 1.0000e+00
</event>
<event>
 4      1 +2.4041262e-06 9.11880000e+01 7.81860800e-03 1.13011600e-01
       25 -1    0    0    0    0 +0.0000000000e+00 +0.0000000000e+00 +9.9999998245e-15 1.2500000000e+02 1.2500000000e+02 0.0000e+00 0.0000e+00
      -13  1    1    0    0    0 +1.0102289512e+01 -5.3149310087e+01 +3.1283477356e+01 6.2494580050e+01 1.0566000000e-01 0.0000e+00 1.0000e+00
       13  1    1    0    0    0 -1.0102962865e+01 +5.3153734969e+01 -3.1286550698e+01 6.2499990547e+01 1.0566000000e-01 0.0000e+00 1.0000e+00
       22  1    1    0    0    0 +6.7335331077e-04 -4.4248819177e-03 +3.0733422593e-03 5.4294030343e-03 0.0000000000e+00 0.0000e+00 1.0000e+00
</event>
<event>
 5      1 +2.4041262e-06 9.11880000e+01 7.81860800e-03 1.13011600e-01
       25 -1    0    0    0    0 +0.0000000000e+00 +0.0000000000e+00 +9.9999998245e-15 1.2500000000e+02 1.2500000000e+02 0.0000e+00 0.0000e+00
       23  2    1    0    0    0 +1.1001665440e+01 -2.6536472434e+01 +5.4761805234e+00 9.5756033702e+01 9.1181184603e+01 0.0000e+00 0.0000e+00
      -11  1    2    2    0    0 -1.6582855283e+01 -3.5227835229e+01 +3.6481206203e+01 5.3356066858e+01 5.1100000000e-04 0.0000e+00 1.0000e+00
       11  1    2    2    0    0 +2.7584520723e+01 +8.6913627952e+00 -3.1005025680e+01 4.2399966845e+01 5.1100000000e-04 0.0000e+00 -1.0000e+00
       22  1    1    0    0    0 -1.1001665440e+01 +2.6536472434e+01 -5.4761805234e+00 2.9243966298e+01 0.0000000000e+00 0.0000e+00 1.0000e+00
</event>
<event>
 4      1 +2.4041262e-06 9.11880000e+01 7.81860800e-03 1.13011600e-01
       25 -1    0    0    0    0 +0.0000000000e+00 +0.0000000000e+00 +9.9999998245e-15 1.2500000000e+02 1.2500000000e+02 0.0000e+00 0.0000e+00
      -13  1    1    0    0    0 -2.7156195105e+01 +5.1655493212e+00 -5.6052362249e+01 6.2498162454e+01 1.0566000000e-01 0.0000e+00 1.0000e+00
       13  1    1    0    0    0 +2.7156976016e+01 -5.1656842799e+00 +5.6054020227e+01 6.2499999905e+01 1.0566000000e-01 0.0000e+00 1.0000e+00
       22  1    1    0    0    0 -7.8091147453e-04 +1.3495870824e-04 -1.6579778885e-03 1.8376417667e-03 0.0000000000e+00 0.0000e+00 1.0000e+00
</event>
<event>
 4      1 +2.4041262e-06 9.11880000e+01 7.81860800e-03 1.13011600e-01
       25 -1    0    0    0    0 +0.0000000000e+00 +0.0000000000e+00 +9.9999998245e-15 1.2500000000e+02 1.2500000000e+02 0.0000e+00 0.0000e+00
      -13  1    1    0    0    0 -3.5318046778e+01 +2.9470428646e+01 -1.5230514540e+01 4.8454621348e+01 1.0566000000e-01 0.0000e+00 1.0000e+00
       13  1    1    0    0    0 -1.1416193951e+01 +8.8921449321e+00 +1.5484624152e+00 1.4553646475e+01 1.0566000000e-01 0.0000e+00 -1.0000e+00
       22  1    1    0    0    0 +4.6734240729e+01 -3.8362573578e+01 +1.3682052124e+01 6.1991732178e+01 0.0000000000e+00 0.0000e+00 1.0000e+00
</event>
<event>
 5      1 +2.4041262e-06 9.11880000e+01 7.81860800e-03 1.13011600e-01
       25 -1    0    0    0    0 +0.0000000000e+00 +0.0000000000e+00 +9.9999998245e-15 1.2500000000e+02 1.2500000000e+02 0.0000e+00 0.0000e+00
       23  2    1    0    0    0 -1.9843322729e+01 -1.5965915802e+01 +1.5298073223e+01 9.5289749771e+01 9.0539700921e+01 0.0000e+00 0.0000e+00
      -11  1    2    2    0    0 -8.6329605181e+00 +9.1347380776e+00 -3.5429180045e+01 3.7592529124e+01 5.1100000000e-04 0.0000e+00 -1.0000e+00
       11  1    2    2    0    0 -1.1210362211e+01 -2.5100653879e+01 +5.0727253268e+01 5.7697220647e+01 5.1100000000e-04 0.0000e+00 1.0000e+00
       22  1    1    0    0    0 +1.9843322729e+01 +1.5965915802e+01 -1.5298073223e+01 2.9710250229e+01 0.0000000000e+00 0.0000e+00 1.0000e+00
</event>
<event>
 4      1 +2.4041262e-06 9.11880000e+01 7.81860800e-03 1.13011600e-01
       25 -1    0    0    0    0 +0.0000000000e+00 +0.0000000000e+00 +9.9999998245e-15 1.2500000000e+02 1.2500000000e+02 0.0000e+00 0.0000e+00
      -13  1    1    0    0    0 -1.7177962619e-01 -2.2575357343e+01 +5.8279218100e+01 6.2499237545e+01 1.0566000000e-01 0.0000e+00 -1.0000e+00
       13  1    1    0    0    0 +1.7177905326e-01 +2.2575633168e+01 -5.8279928917e+01 6.2499999997e+01 1.0566000000e-01 0.0000e+00 -1.0000e+00
       22  1    1    0    0    0 +5.7293152758e-07 -2.7582479842e-04 +7.1081781086e-04 7.6245761056e-04 0.0000000000e+00 0.0000e+00 -1.0000e+00
</event>
<event>
 4      1 +2.4041262e-06 9.11880000e+01 7.81860800e-03 1.13011600e-01
       25 -1    0    0    0    0 +0.0000000000e+00 +0.0000000000e+00 +9.9999998245e-15 1.2500000000e+02 1.2500000000e+02 0.0000e+00 0.0000e+00
      -13  1    1    0    0    0 -4.4606770787e+01 -4.1359692538e+01 -1.4311739292e+01 6.2491801162e+01 1.0566000000e-01 0.0000e+00 1.0000e+00
       13  1    1    0    0    0 +4.4612813472e+01 +4.1364871660e+01 +1.4313723747e+01 6.2499996679e+01 1.0566000000e-01 0.0000e+00 1.0000e+00
       22  1    1    0    0    0 -6.0426844538e-03 -5.1791224302e-03 -1.9844559445e-03 8.2021588592e-03 0.0000000000e+00 0.0000e+00 1.0000e+00
</event>
<event>
 5      1 +2.4041262e-06 9.11880000e+01 7.81860800e-03 1.13011600e-01
       25 -1    0    0    0    0 +0.0000000000e+00 +0.0000000000e+00 +9.9999998245e-15 1.2500000000e+02 1.2500000000e+02 0.0000e+00 0.0000e+00
       23  2    1    0    0    0 +2.1748483827e+01 +1.1765135360e+00 +1.7545047501e+01 9.7031992837e+01 9.2913929038e+01 0.0000e+00 0.0000e+00
      -13  1    2    2    0    0 +4.0165498533e+01 +8.4987368980e+00 +4.6444877881e+01 6.1988980043e+01 1.0566000000e-01 0.0000e+00 1.0000e+00
       13  1    2    2    0    0 -1.8417014707e+01 -7.3222233620e+00 -2.8899830380e+01 3.5043012795e+01 1.0566000000e-01 0.0000e+00 1.0000e+00
       22  1    1    0    0    0 -2.1748483827e+01 -1.1765135360e+00 -1.7545047501e+01 2.7968007163e+01 0.0000000000e+00 0.0000e+00 1.0000e+00
</event>
<event>
 5      1 +2.4041262e-06 9.11880000e+01 7.81860800e-03 1.13011600e-01
       25 -1    0    0    0    0 +0.0000000000e+00 +0.0000000000e+00 +9.9999998245e-15 1.2500000000e+02 1.2500000000e+02 0.0000e+00 0.0000e+00
       23  2    1    0    0    0 -1.8748360824e+01 +2.5297624943e+01 +5.0931813421e+00 9.3103113670e+01 8.7468728227e+01 0.0000e+00 0.0000e+00
      -11  1    2    2    0    0 +3.5990668130e+00 -9.8399251858e+00 +3.8384801030e+01 3.9789073374e+01 5.1100000000e-04 0.0000e+00 1.0000e+00
       11  1    2    2    0    0 -2.2347427637e+01 +3.5137550129e+01 -3.3291619688e+01 5.3314040297e+01 5.1100000000e-04 0.0000e+00 -1.0000e+00
       22  1    1    0    0    0 +1.8748360824e+01 -2.5297624943e+01 -5.0931813421e+00 3.1896886330e+01 0.0000000000e+00 0.0000e+00 -1.0000e+00
</event>
<event>
 4      1 +2.4041262e-06 9.11880000e+01 7.81860800e-03 1.13011600e-01
       25 -1    0    0    0    0 +0.0000000000e+00 +0.0000000000e+00 +9.9999998245e-15 1.2500000000e+02 1.2500000000e+02 0.0000e+00 0.0000e+00
      -13  1    1    0    0    0 +1.3796391486e+01 +2.7459946743e+01 +5.4422878847e+01 6.2499999994e+01 1.0566000000e-01 0.0000e+00 -1.0000e+00
       13  1    1    0    0    0 -1.3796391458e+01 -2.7459946680e+01 -5.4422878811e+01 6.2499999928e+01 1.0566000000e-01 0.0000e+00 -1.0000e+00
       22  1    1    0    0    0 -2.8379091442e-08 -6.3023341256e-08 -3.6296459912e-08 7.8068863039e-08 0.0000000000e+00 0.0000e+00 1.0000e+00
</event>
<event>
 4      1 +2.4041262e-06 9.11880000e+01 7.81860800e-03 1.13011600e-01
       25 -1    0    0    0    0 +0.0000000000e+00 +0.0000000000e+00 +9.9999998245e-15 1.2500000000e+02 1.2500000000e+02 0.0000e+00 0.0000e+00
      -13  1    1    0    0    0 +2.3594354103e+01 +1.8785970936e+01 -5.4735643822e+01 6.2494864734e+01 1.0566000000e-01 0.0000e+00 1.0000e+00
       13  1    1    0    0    0 -2.3596273004e+01 -1.8787556124e+01 +5.4740135711e+01 6.2499999892e+01 1.0566000000e-01 0.0000e+00 1.0000e+00
       22  1    1    0    0    0 +1.9189007177e-03 +1.5851885080e-03 -4.4918890354e-03 5.1353743463e-03 0.0000000000e+00 0.0000e+00 -1.0000e+00
</event>
<event>
 4      1 +2.4041262e-06 9.11880000e+01 7.81860800e-03 1.13011600e-01
       25 -1    0    0    0    0 +0.0000000000e+00 +0.0000000000e+00 +9.9999998245e-15 1.2500000000e+02 1.2500000000e+02 0.0000e+00 0.0000e+00
      -13  1    1    0    0    0 -7.1287268993e+00 +2.4183844368e+01 +5.7184554524e+01 6.2496092004e+01 1.0566000000e-01 0.0000e+00 1.0000e+00
       13  1    1    0    0    0 +7.1298649647e+00 -2.4185033028e+01 -5.7188140199e+01 6.2499962724e+01 1.0566000000e-01 0.0000e+00 1.0000e+00
       22  1    1    0    0    0 -1.1380653216e-03 +1.1886600325e-03 +3.5856754505e-03 3.9452723335e-03 0.0000000000e+00 0.0000e+00 1.0000e+00
</event>
<event>
 4      1 +2.4041262e-06 9.11880000e+01 7.81860800e-03 1.13011600e-01
       25 -1    0    0    0    0 +0.0000000000e+00 +0.0000000000e+00 +9.9999998245e-15 1.2500000000e+02 1.2500000000e+02 0.0000e+00 0.0000e+00
      -13  1    1    0    0    0 -5.6992419588e+01 +1.5106779003e+01 -1.9776076977e+01 6.2188865940e+01 1.0566000000e-01 0.0000e+00 -1.0000e+00
       13  1    1    0    0    0 +5.7252075002e+01 -1.4897367202e+01 +1.9953833467e+01 6.2433150454e+01 1.0566000000e-01 0.0000e+00 -1.0000e+00
       22  1    1    0    0    0 -2.5965541377e-01 -2.0941180131e-01 -1.7775649003e-01 3.7798360570e-01 0.0000000000e+00 0.0000e+00 -1.0000e+00
</event>
<event>
 4      1 +2.4041262e-06 9.11880000e+01 7.81860800e-03 1.13011600e-01
       25 -1    0    0    0    0 +0.0000000000e+00 +0.0000000000e+00 +9.9999998245e-15 1.2500000000e+02 1.2500000000e+02 0.0000e+00 0.0000e+00
      -13  1    1    0    0    0 -3.0409489218e+01 -5.0592604639e+01 +2.0539865120e+01 6.2499967215e+01 1.0566000000e-01 0.0000e+00 -1.0000e+00
       13  1    1    0    0    0 +3.0403296015e+01 +5.0583505768e+01 -2.0534884301e+01 6.2487951652e+01 1.0566000000e-01 0.0000e+00 -1.0000e+00
       22  1    1    0    0    0 +6.1932036029e-03 +9.0988710102e-03 -4.9808194280e-03 1.2081133502e-02 0.0000000000e+00 0.0000e+00 -1.0000e+00
</event>
<event>
 5      1 +2.4041262e-06 9.11880000e+01 7.81860800e-03 1.13011600e-01
       25 -1    0    0    0    0 +0.0000000000e+00 +0.0000000000e+00 +9.9999998245e-15 1.2500000000e+02 1.2500000000e+02 0.0000e+00 0.0000e+00
       23  2    1    0    0    0 -9.2629666513e+00 +2.5449683978e+01 -4.1611621134e+00 9.7599192788e+01 9.3673892824e+01 0.0000e+00 0.0000e+00
      -13  1    2    2    0    0 +1.9853441088e+01 -2.3022887534e+01 +1.9699678294e+01 3.6225694781e+01 1.0566000000e-01 0.0000e+00 -1.0000e+00
       13  1    2    2    0    0 -2.9116407739e+01 +4.8472571512e+01 -2.3860840407e+01 6.1373498007e+01 1.0566000000e-01 0.0000e+00 1.0000e+00
       22  1    1    0    0    0 +9.2629666513e+00 -2.5449683978e+01 +4.1611621134e+00 2.7400807212e+01 0.0000000000e+00 0.0000e+00 1.0000e+00
</event>
<event>
 4      1 +2.4041262e-06 9.11880000e+01 7.81860800e-03 1.13011600e-01
       25 -1    0    0    0    0 +0.0000000000e+00 +0.0000000000e+00 +9.9999998245e-15 1.2500000000e+02 1.2500000000e+02 0.0000e+00 0.0000e+00
      -13  1    1    0    0    0 +2.5563251866e+01 +5.6355329464e+01 -8.7573583679e+00 6.2498843946e+01 1.0566000000e-01 0.0000e+00 1.0000e+00
       13  1    1    0    0    0 -2.4736540478e+01 -5.4579552272e+01 +8.3868637019e+00 6.0507640905e+01 1.0566000000e-01 0.0000e+00 1.0000e+00
       22  1    1    0    0    0 -8.2671138768e-01 -1.7757771920e+00 +3.7049466597e-01 1.9935151496e+00 0.0000000000e+00 0.0000e+00 -1.0000e+00
</event>
<event>
 4      1 +2.4041262e-06 9.11880000e+01 7.81860800e-03 1.13011600e-01
       25 -1    0    0    0    0 +0.0000000000e+00 +0.0000000000e+00 +9.9999998245e-15 1.2500000000e+02 1.2500000000e+02 0.0000e+00 0.0000e+00
      -13  1    1    0    0    0 +6.1786365360e+01 -8.7385031035e+00 -3.5103165063e+00 6.2499998935e+01 1.0566000000e-01 0.0000e+00 1.0000e+00
       13  1    1    0    0    0 -6.1786366314e+01 +8.7385036671e+00 +3.5103165067e+00 6.2499999957e+01 1.0566000000e-01 0.0000e+00 1.0000e+00
       22  1    1    0    0    0 +9.5359246560e-07 -5.6359687618e-07 -4.0821214436e-10 1.1076913812e-06 0.0000000000e+00 0.0000e+00 -1.0000e+00
</event>
<event>
 4      1 +2.4041262e-06 9.11880000e+01 7.81860800e-03 1.13011600e-01
       25 -1    0    0    0    0 +0.0000000000e+00 +0.0000000000e+00 +9.9999998245e-15 1.2500000000e+02 1.2500000000e+02 0.0000e+00 0.0000e+00
      -13  1    1    0    0    0 +4.3180775984e+01 -4.2268005227e+01 +1.5971069154e+01 6.2499999156e+01 1.0566000000e-01 0.0000e+00 1.0000e+00
       13  1    1    0    0    0 -4.3179079019e+01 +4.2266335678e+01 -1.5970345441e+01 6.2497512703e+01 1.0566000000e-01 0.0000e+00 1.0000e+00
       22  1    1    0    0    0 -1.6969653185e-03 +1.6695489607e-03 -7.2371324405e-04 2.4881410498e-03 0.0000000000e+00 0.0000e+00 -1.0000e+00
</event>
<event>
 4      1 +2.4041262e-06 9.11880000e+01 7.81860800e-03 1.13011600e-01
       25 -1    0    0    0    0 +0.0000000000e+00 +0.0000000000e+00 +9.9999998245e-15 1.2500000000e+02 1.2500000000e+02 0.0000e+00 0.0000e+00
      -13  1    1    0    0    0 +5.8158834094e+01 -2.2872284578e+01 +7.0309913832e-01 6.2498775167e+01 1.0566000000e-01 0.0000e+00 1.0000e+00
       13  1    1    0    0    0 -5.8157554443e+01 +2.2874637853e+01 -7.0232659235e-01 6.2498436960e+01 1.0566000000e-01 0.0000e+00 1.0000e+00
       22  1    1    0    0    0 -1.2796504169e-03 -2.3532746702e-03 -7.7254597557e-04 2.7878726921e-03 0.0000000000e+00 0.0000e+00 1.0000e+00
</event>
<event>
 4      1 +2.4041262e-06 9.11880000e+01 7.81860800e-03 1.13011600e-01
       25 -1    0    0    0    0 +0.0000000000e+00 +0.0000000000e+00 +9.9999998245e-15 1.2500000000e+02 1.2500000000e+02 0.0000e+00 0.0000e+00
      -11  1    1    0    0    0 +8.3549250812e-01 -6.1894112100e+00 +1.5606361243e+01 1.6809680852e+01 5.1100000000e-04 0.0000e+00 1.0000e+00
       11  1    1    0    0    0 +2.2715457924e+00 -1.6822797434e+01 +4.2419792908e+01 4.5690319154e+01 5.1100000000e-04 0.0000e+00 1.0000e+00
       22  1    1    0    0    0 -3.1070383005e+00 +2.3012208644e+01 -5.8026154151e+01 6.2499999994e+01 0.0000000000e+00 0.0000e+00 1.0000e+00
</event>
<event>
 4      1 +2.4041262e-06 9.11880000e+01 7.81860800e-03 1.13011600e-01
       25 -1    0    0    0    0 +0.0000000000e+00 +0.0000000000e+00 +9.9999998245e-15 1.2500000000e+02 1.2500000000e+02 0.0000e+00 0.0000e+00
      -13  1    1    0    0    0 -4.5871406445e+01 -2.3539367434e+01 +3.5325007352e+01 6.2499240450e+01 1.0566000000e-01 0.0000e+00 -1.0000e+00
       13  1    1    0    0    0 +4.4697084711e+01 +2.2858591445e+01 -3.4400576229e+01 6.0858486618e+01 1.0566000000e-01 0.0000e+00 -1.0000e+00
       22  1    1    0    0    0 +1.1743217341e+00 +6.8077598840e-01 -9.2443112298e-01 1.6422729319e+00 0.0000000000e+00 0.0000e+00 -1.0000e+00
</event>
<event>
 4      1 +2.4041262e-06 9.11880000e+01 7.81860800e-03 1.13011600e-01
       25 -1    0    0    0    0 +0.0000000000e+00 +0.0000000000e+00 +9.9999998245e-15 1.2500000000e+02 1.2500000000e+02 0.0000e+00 0.0000e+00
      -11  1    1    0    0    0 +3.0786708354e+00 +2.5146311776e+00 -1.2864945410e+00 4.1781159076e+00 5.1100000000e-04 0.0000e+00 -1.0000e+00
       11  1    1    0    0    0 +4.2967294446e+01 +3.5106987564e+01 -1.7965333359e+01 5.8321884149e+01 5.1100000000e-04 0.0000e+00 -1.0000e+00
       22  1    1    0    0    0 -4.6045965281e+01 -3.7621618741e+01 +1.9251827900e+01 6.2499999943e+01 0.0000000000e+00 0.0000e+00 -1.0000e+00
</event>
<event>
 4      1 +2.4041262e-06 9.11880000e+01 7.81860800e-03 1.13011600e-01
       25 -1    0    0    0    0 +0.0000000000e+00 +0.0000000000e+00 +9.9999998245e-15 1.2500000000e+02 1.2500000000e+02 0.0000e+00 0.0000e+00
      -13  1    1    0    0    0 +5.7117951236e+01 -9.8068847100e+00 -2.3400919498e+01 6.2499996308e+01 1.0566000000e-01 0.0000e+00 -1.0000e+00
       13  1    1    0    0    0 -5.7117304069e+01 +9.8067577711e+00 +2.3400540512e+01 6.2499243055e+01 1.0566000000e-01 0.0000e+00 -1.0000e+00
       22  1    1    0    0    0 -6.4716670875e-04 +1.2693887635e-04 +3.7898587257e-04 7.6063691657e-04 0.0000000000e+00 0.0000e+00 -1.0000e+00
</event>
<event>
 4      1 +2.4041262e-06 9.11880000e+01 7.81860800e-03 1.13011600e-01
       25 -1    0    0    0    0 +0.0000000000e+00 +0.0000000000e+00 +9.9999998245e-15 1.2500000000e+02 1.2500000000e+02 0.0000e+00 0.0000e+00
      -11  1    1    0    0    0 -3.1915575225e+01 -9.4988379014e+00 -4.1319967472e+01 5.3067613245e+01 5.1100000000e-04 0.0000e+00 -1.0000e+00
       11  1    1    0    0    0 -5.6720432151e+00 -1.6885785037e+00 -7.3448314163e+00 9.4323867813e+00 5.1100000000e-04 0.0000e+00 -1.0000e+00
       22  1    1    0    0    0 +3.7587618440e+01 +1.1187416405e+01 +4.8664798888e+01 6.2499999973e+01 0.0000000000e+00 0.0000e+00 -1.0000e+00
</event>
<event>
 4      1 +2.4041262e-06 9.11880000e+01 7.81860800e-03 1.13011600e-01
       25 -1    0    0    0    0 +0.0000000000e+00 +0.0000000000e+00 +9.9999998245e-15 1.2500000000e+02 1.2500000000e+02 0.0000e+00 0.0000e+00
      -11  1    1    0    0    0 +6.5333092250e-01 -4.5168399695e+00 -3.1431435642e+00 5.5414832248e+00 5.1100000000e-04 0.0000e+00 -1.0000e+00
       11  1    1    0    0    0 +6.7099107813e+00 -4.6428592232e+01 -3.2305348731e+01 5.6958516802e+01 5.1100000000e-04 0.0000e+00 -1.0000e+00
       22  1    1    0    0    0 -7.3632417038e+00 +5.0945432202e+01 +3.5448492296e+01 6.2499999973e+01 0.0000000000e+00 0.0000e+00 -1.0000e+00
</event>
<event>
 4      1 +2.4041262e-06 9.11880000e+01 7.81860800e-03 1.13011600e-01
       25 -1    0    0    0    0 +0.0000000000e+00 +0.0000000000e+00 +9.9999998245e-15 1.2500000000e+02 1.2500000000e+02 0.0000e+00 0.0000e+00
      -13  1    1    0    0    0 +3.7887743474e+01 +3.1744010333e+01 -3.8250170436e+01 6.2500000000e+01 1.0566000000e-01 0.0000e+00 1.0000e+00
       13  1    1    0    0    0 -3.7887719049e+01 -3.1743989735e+01 +3.8250145841e+01 6.2499959680e+01 1.0566000000e-01 0.0000e+00 1.0000e+00
       22  1    1    0    0    0 -2.4424805856e-05 -2.0597391304e-05 +2.4595348853e-05 4.0320650476e-05 0.0000000000e+00 0.0000e+00 1.0000e+00
</event>
<event>
 4      1 +2.4041262e-06 9.11880000e+01 7.81860800e-03 1.13011600e-01
       25 -1    0    0    0    0 +0.0000000000e+00 +0.0000000000e+00 +9.9999998245e-15 1.2500000000e+02 1.2500000000e+02 0.0000e+00 0.0000e+00
      -13  1    1    0    0    0 +5.9650943370e+01 -1.8640034033e+01 -6.8939121299e-02 6.2495614489e+01 1.0566000000e-01 0.0000e+00 1.0000e+00
       13  1    1    0    0    0 -5.8916251721e+01 +1.8482544190e+01 +1.5924235407e-01 6.1747596542e+01 1.0566000000e-01 0.0000e+00 1.0000e+00
       22  1    1    0    0    0 -7.3469164922e-01 +1.5748984353e-01 -9.0303232766e-02 7.5678896932e-01 0.0000000000e+00 0.0000e+00 -1.0000e+00
</event>
<event>
 4      1 +2.4041262e-06 9.11880000e+01 7.81860800e-03 1.13011600e-01
       25 -1    0    0    0    0 +0.0000000000e+00 +0.0000000000e+00 +9.9999998245e-15 1.2500000000e+02 1.2500000000e+02 0.0000e+00 0.0000e+00
      -13  1    1    0    0    0 +2.4621181450e+01 -4.4298386268e+01 +3.6574421923e+01 6.2499992840e+01 1.0566000000e-01 0.0000e+00 1.0000e+00
       13  1    1    0    0    0 -2.4621184242e+01 +4.4298391345e+01 -3.6574426129e+01 6.2500000000e+01 1.0566000000e-01 0.0000e+00 1.0000e+00
       22  1    1    0    0    0 +2.7925370661e-06 -5.0772595014e-06 +4.2063807534e-06 7.1603398210e-06 0.0000000000e+00 0.0000e+00 -1.0000e+00
</event>
<event>
 4      1 +2.4041262e-06 9.11880000e+01 7.81860800e-03 1.13011600e-01
       25 -1    0    0    0    0 +0.0000000000e+00 +0.0000000000e+00 +9.9999998245e-15 1.2500000000e+02 1.2500000000e+02 0.0000e+00 0.0000e+00
      -13  1    1    0    0    0 -5.0824369772e+01 -3.6331935743e+01 +1.7549402224e+00 6.2499736774e+01 1.0566000000e-01 0.0000e+00 -1.0000e+00
       13  1    1    0    0    0 +5.0823555516e+01 +3.6332298253e+01 -1.7545094191e+00 6.2499273267e+01 1.0566000000e-01 0.0000e+00 -1.0000e+00
       22  1    1    0    0    0 +8.1425615974e-04 -3.6250919381e-04 -4.3080332351e-04 9.8995833893e-04 0.0000000000e+00 0.0000e+00 1.0000e+00
</event>
<event>
 4      1 +2.4041262e-06 9.11880000e+01 7.81860800e-03 1.13011600e-01
       25 -1    0    0    0    0 +0.0000000000e+00 +0.0000000000e+00 +9.9999998245e-15 1.2500000000e+02 1.2500000000e+02 0.0000e+00 0.0000e+00
      -13  1    1    0    0    0 -5.1013928413e+01 -2.9237332101e+01 -2.1189534085e+01 6.2499999994e+01 1.0566000000e-01 0.0000e+00 1.0000e+00
       13  1    1    0    0    0 +5.1013928367e+01 +2.9237332098e+01 +2.1189534094e+01 6.2499999958e+01 1.0566000000e-01 0.0000e+00 1.0000e+00
       22  1    1    0    0    0 +4.6582122060e-08 +2.8442311468e-09 -9.1540098485e-09 4.7558171146e-08 0.0000000000e+00 0.0000e+00 1.0000e+00
</event>
<event>
 5      1 +2.4041262e-06 9.11880000e+01 7.81860800e-03 1.13011600e-01
       25 -1    0    0    0    0 +0.0000000000e+00 +0.0000000000e+00 +9.9999998245e-15 1.2500000000e+02 1.2500000000e+02 0.0000e+00 0.0000e+00
       23  2    1    0    0    0 -1.2142992156e+01 +2.6177411889e+01 +1.2491414610e+01 9.3555690648e+01 8.8113124232e+01 0.0000e+00 0.0000e+00
      -11  1    2    2    0    0 +2.4699793531e+01 -1.7800981094e+01 -9.8320448588e+00 3.1994121878e+01 5.1100000000e-04 0.0000e+00 -1.0000e+00
       11  1    2    2    0    0 -3.6842785687e+01 +4.3978392982e+01 +2.2323459469e+01 6.1561568770e+01 5.1100000000e-04 0.0000e+00 1.0000e+00
       22  1    1    0    0    0 +1.2142992156e+01 -2.6177411889e+01 -1.2491414610e+01 3.1444309352e+01 0.0000000000e+00 0.0000e+00 1.0000e+00
</event>
<event>
 4      1 +2.4041262e-06 9.11880000e+01 7.81860800e-03 1.13011600e-01
       25 -1    0    0    0    0 +0.0000000000e+00 +0.0000000000e+00 +9.9999998245e-15 1.2500000000e+02 1.2500000000e+02 0.0000e+00 0.0000e+00
      -13  1    1    0    0    0 +2.9613154400e+01 -2.9251009159e+01 +2.6118953922e+01 4.9140323242e+01 1.0566000000e-01 0.0000e+00 1.0000e+00
       13  1    1    0    0    0 -4.2339390166e+01 +3.0708264483e+01 -3.2469806936e+01 6.1562334213e+01 1.0566000000e-01 0.0000e+00 1.0000e+00
       22  1    1    0    0    0 +1.2726235766e+01 -1.4572553248e+00 +6.3508530143e+00 1.4297342546e+01 0.0000000000e+00 0.0000e+00 -1.0000e+00
</event>
<event>
 4      1 +2.4041262e-06 9.11880000e+01 7.81860800e-03 1.13011600e-01
       25 -1    0    0    0    0 +0.0000000000e+00 +0.0000000000e+00 +9.9999998245e-15 1.2500000000e+02 1.2500000000e+02 0.0000e+00 0.0000e+00
      -13  1    1    0    0    0 -2.3528144244e+01 +5.7901099320e+01 -3.5768489597e-01 6.2499999813e+01 1.0566000000e-01 0.0000e+00 -1.0000e+00
       13  1    1    0    0    0 +2.3528144315e+01 -5.7901099494e+01 +3.5768489828e-01 6.2500000000e+01 1.0566000000e-01 0.0000e+00 -1.0000e+00
       22  1    1    0    0    0 -7.1328974992e-08 +1.7325144479e-07 -2.3096658650e-09 1.8737454564e-07 0.0000000000e+00 0.0000e+00 -1.0000e+00
</event>
<event>
 5      1 +2.4041262e-06 9.11880000e+01 7.81860800e-03 1.13011600e-01
       25 -1    0    0    0    0 +0.0000000000e+00 +0.0000000000e+00 +9.9999998245e-15 1.2500000000e+02 1.2500000000e+02 0.0000e+00 0.0000e+00
       23  2    1    0    0    0 +2.9153560467e+01 +2.1787680285e+00 -5.1126590517e+00 9.5321448812e+01 9.0583454356e+01 0.0000e+00 0.0000e+00
      -13  1    2    2    0    0 +3.3373021534e+01 -3.9037228564e+01 -1.3381166091e+01 5.3072879612e+01 1.0566000000e-01 0.0000e+00 1.0000e+00
       13  1    2    2    0    0 -4.2194610672e+00 +4.1215996592e+01 +8.2685070390e+00 4.2248569200e+01 1.0566000000e-01 0.0000e+00 -1.0000e+00
       22  1    1    0    0    0 -2.9153560467e+01 -2.1787680285e+00 +5.1126590517e+00 2.9678551188e+01 0.0000000000e+00 0.0000e+00 -1.0000e+00
</event>
<event>
 4      1 +2.4041262e-06 9.11880000e+01 7.81860800e-03 1.13011600e-01
       25 -1    0    0    0    0 +0.0000000000e+00 +0.0000000000e+00 +9.9999998245e-15 1.2500000000e+02 1.2500000000e+02 0.0000e+00 0.0000e+00
      -13  1    1    0    0    0 -1.2162772256e+01 -5.9551194407e+01 -1.4552665716e+01 6.2498552205e+01 1.0566000000e-01 0.0000e+00 -1.0000e+00
       13  1    1    0    0    0 +1.2163194955e+01 +5.9552246237e+01 +1.4553739118e+01 6.2499886638e+01 1.0566000000e-01 0.0000e+00 -1.0000e+00
       22  1    1    0    0    0 -4.2269926176e-04 -1.0518297812e-03 -1.0734019707e-03 1.5611573736e-03 0.0000000000e+00 0.0000e+00 1.0000e+00
</event>
<event>
 4      1 +2.4041262e-06 9.11880000e+01 7.81860800e-03 1.13011600e-01
       25 -1    0    0    0    0 +0.0000000000e+00 +0.0000000000e+00 +9.9999998245e-15 1.2500000000e+02 1.2500000000e+02 0.0000e+00 0.0000e+00
      -13  1    1    0    0    0 +4.4829491700e+01 +3.7871163457e+01 +2.1501870293e+01 6.2499999502e+01 1.0566000000e-01 0.0000e+00 -1.0000e+00
       13  1    1    0    0    0 -4.4829469633e+01 -3.7871154039e+01 -2.1501861884e+01 6.2499975075e+01 1.0566000000e-01 0.0000e+00 -1.0000e+00
       22  1    1    0    0    0 -2.2066630817e-05 -9.4173459942e-06 -8.4094022387e-06 2.5423230464e-05 0.0000000000e+00 0.0000e+00 -1.0000e+00
</event>
<event>
 4      1 +2.4041262e-06 9.11880000e+01 7.81860800e-03 1.13011600e-01
       25 -1    0    0    0    0 +0.0000000000e+00 +0.0000000000e+00 +9.9999998245e-15 1.2500000000e+02 1.2500000000e+02 0.0000e+00 0.0000e+00
      -13  1    1    0    0    0 -4.9829702731e+01 -2.5486532642e+01 +2.7815032173e+01 6.2499998393e+01 1.0566000000e-01 0.0000e+00 1.0000e+00
       13  1    1    0    0    0 +4.9829702726e+01 +2.5486529651e+01 -2.7815025299e+01 6.2499994111e+01 1.0566000000e-01 0.0000e+00 1.0000e+00
       22  1    1    0    0    0 +5.2340258952e-09 +2.9909078864e-06 -6.8735242076e-06 7.4960584582e-06 0.0000000000e+00 0.0000e+00 -1.0000e+00
</event>
<event>
 5      1 +2.4041262e-06 9.11880000e+01 7.81860800e-03 1.13011600e-01
       25 -1    0    0    0    0 +0.0000000000e+00 +0.0000000000e+00 +9.9999998245e-15 1.2500000000e+02 1.2500000000e+02 0.0000e+00 0.0000e+00
       23  2    1    0    0    0 -1.6574303464e+01 +4.4590328251e+00 +2.4595540873e+00 1.0766102900e+02 1.0625562220e+02 0.0000e+00 0.0000e+00
      -11  1    2    2    0    0 +5.0046137948e+00 +5.3659128376e+01 +2.1781560922e+00 5.3936004501e+01 5.1100000000e-04 0.0000e+00 1.0000e+00
       11  1    2    2    0    0 -2.1578917259e+01 -4.9200095551e+01 +2.8139799513e-01 5.3725024498e+01 5.1100000000e-04 0.0000e+00 -1.0000e+00
       22  1    1    0    0    0 +1.6574303464e+01 -4.4590328251e+00 -2.4595540873e+00 1.7338971001e+01 0.0000000000e+00 0.0000e+00 -1.0000e+00
</event>
<event>
 4      1 +2.4041262e-06 9.11880000e+01 7.81860800e-03 1.13011600e-01
       25 -1    0    0    0    0 +0.0000000000e+00 +0.0000000000e+00 +9.9999998245e-15 1.2500000000e+02 1.2500000000e+02 0.0000e+00 0.0000e+00
      -13  1    1    0    0    0 +1.3788510189e+01 -4.6646168896e+01 +1.9264320238e+01 5.2317428111e+01 1.0566000000e-01 0.0000e+00 1.0000e+00
       13  1    1    0    0    0 -1.6445672774e+01 +5.5694397819e+01 -2.3105964603e+01 6.2499782925e+01 1.0566000000e-01 0.0000e+00 1.0000e+00
       22  1    1    0    0    0 +2.6571625853e+00 -9.0482289230e+00 +3.8416443652e+00 1.0182788964e+01 0.0000000000e+00 0.0000e+00 1.0000e+00
</event>
<event>
 5      1 +2.4041262e-06 9.11880000e+01 7.81860800e-03 1.13011600e-01
       25 -1    0    0    0    0 +0.0000000000e+00 +0.0000000000e+00 +9.9999998245e-15 1.2500000000e+02 1.2500000000e+02 0.0000e+00 0.0000e+00
       23  2    1    0    0    0 +2.3664703944e+01 +1.4986226996e+01 +5.9389898472e+00 9.6366508898e+01 9.2014277286e+01 0.0000e+00 0.0000e+00
      -13  1    2    2    0    0 +3.5993681999e+00 +4.3272097002e+01 -2.4816767805e+01 5.0013127863e+01 1.0566000000e-01 0.0000e+00 1.0000e+00
       13  1    2    2    0    0 +2.0065335744e+01 -2.8285870006e+01 +3.0755757652e+01 4.6353381034e+01 1.0566000000e-01 0.0000e+00 -1.0000e+00
       22  1    1    0    0    0 -2.3664703944e+01 -1.4986226996e+01 -5.9389898472e+00 2.8633491102e+01 0.0000000000e+00 0.0000e+00 1.0000e+00
</event>
<event>
 5      1 +2.4041262e-06 9.11880000e+01 7.81860800e-03 1.13011600e-01
       25 -1    0    0    0    0 +0.0000000000e+00 +0.0000000000e+00 +9.9999998245e-15 1.2500000000e+02 1.2500000000e+02 0.0000e+00 0.0000e+00
       23  2    1    0    0    0 -5.6982573812e+00 -2.2383668850e+01 -2.4080068896e+01 9.1633122915e+01 8.5342139233e+01 0.0000e+00 0.0000e+00
      -13  1    2    2    0    0 -1.8675479908e+01 -2.9939732150e+00 -5.1949954931e+01 5.5286041699e+01 1.0566000000e-01 0.0000e+00 1.0000e+00
       13  1    2    2    0    0 +1.2977222526e+01 -1.9389695635e+01 +2.7869886035e+01 3.6347081216e+01 1.0566000000e-01 0.0000e+00 1.0000e+00
       22  1    1    0    0    0 +5.6982573812e+00 +2.2383668850e+01 +2.4080068896e+01 3.3366877085e+01 0.0000000000e+00 0.0000e+00 1.0000e+00
</event>
<event>
 5      1 +2.4041262e-06 9.11880000e+01 7.81860800e-03 1.13011600e-01
       25 -1    0    0    0    0 +0.0000000000e+00 +0.0000000000e+00 +9.9999998245e-15 1.2500000000e+02 1.2500000000e+02 0.0000e+00 0.0000e+00
       23  2    1    0    0    0 +1.8939291314e+01 -4.3347669207e+00 +2.0591383000e+01 9.6689365716e+01 9.2451833021e+01 0.0000e+00 0.0000e+00
      -11  1    2    2    0    0 -3.2837015512e+00 -9.3993244948e+00 -3.5115621018e+01 3.6499819679e+01 5.1100000000e-04 0.0000e+00 -1.0000e+00
       11  1    2    2    0    0 +2.2222992865e+01 +5.0645575741e+00 +5.5707004017e+01 6.0189546037e+01 5.1100000000e-04 0.0000e+00 1.0000e+00
       22  1    1    0    0    0 -1.8939291314e+01 +4.3347669207e+00 -2.0591383000e+01 2.8310634284e+01 0.0000000000e+00 0.0000e+00 1.0000e+00
</event>
<event>
 4      1 +2.4041262e-06 9.11880000e+01 7.81860800e-03 1.13011600e-01
       25 -1    0    0    0    0 +0.0000000000e+00 +0.0000000000e+00 +9.9999998245e-15 1.2500000000e+02 1.2500000000e+02 0.0000e+00 0.0000e+00
      -13  1    1    0    0    0 +1.8488975861e+00 -1.8074229888e+01 +5.9800699801e+01 6.2499848553e+01 1.0566000000e-01 0.0000e+00 1.0000e+00
       13  1    1    0    0    0 -1.8489010227e+00 +1.8074274635e+01 -5.9800844450e+01 6.2499999996e+01 1.0566000000e-01 0.0000e+00 1.0000e+00
       22  1    1    0    0    0 +3.4365600755e-06 -4.4746733757e-05 +1.4464880517e-04 1.5145084009e-04 0.0000000000e+00 0.0000e+00 1.0000e+00
</event>
<event>
 4      1 +2.4041262e-06 9.11880000e+01 7.81860800e-03 1.13011600e-01
       25 -1    0    0    0    0 +0.0000000000e+00 +0.0000000000e+00 +9.9999998245e-15 1.2500000000e+02 1.2500000000e+02 0.0000e+00 0.0000e+00
      -13  1    1    0    0    0 +3.1110492834e+01 +5.3043937249e+01 -1.1167645655e+01 6.2499996134e+01 1.0566000000e-01 0.0000e+00 -1.0000e+00
       13  1    1    0    0    0 -3.0893308377e+01 -5.2671656387e+01 +1.1091685272e+01 6.2062360052e+01 1.0566000000e-01 0.0000e+00 -1.0000e+00
       22  1    1    0    0    0 -2.1718445690e-01 -3.7228086112e-01 +7.5960383569e-02 4.3764381379e-01 0.0000000000e+00 0.0000e+00 1.0000e+00
</event>
<event>
 4      1 +2.4041262e-06 9.11880000e+01 7.81860800e-03 1.13011600e-01
       25 -1    0    0    0    0 +0.0000000000e+00 +0.0000000000e+00 +9.9999998245e-15 1.2500000000e+02 1.2500000000e+02 0.0000e+00 0.0000e+00
      -11  1    1    0    0    0 -1.6652427358e+01 -2.3646108888e+01 +2.2095928355e+01 3.6396041716e+01 5.1100000000e-04 0.0000e+00 -1.0000e+00
       11  1    1    0    0    0 -2.3238231395e+01 -2.4071338308e+00 +1.5393578988e+01 2.7978062227e+01 5.1100000000e-04 0.0000e+00 1.0000e+00
       22  1    1    0    0    0 +3.9890658753e+01 +2.6053242719e+01 -3.7489507342e+01 6.0625896057e+01 0.0000000000e+00 0.0000e+00 1.0000e+00
</event>
<event>
 4      1 +2.4041262e-06 9.11880000e+01 7.81860800e-03 1.13011600e-01
       25 -1    0    0    0    0 +0.0000000000e+00 +0.0000000000e+00 +9.9999998245e-15 1.2500000000e+02 1.2500000000e+02 0.0000e+00 0.0000e+00
      -13  1    1    0    0    0 -6.6713490999e+00 +2.1921157185e+01 -5.8147795951e+01 6.2499770953e+01 1.0566000000e-01 0.0000e+00 1.0000e+00
       13  1    1    0    0    0 +6.6713758298e+00 -2.1921237514e+01 +5.8148008785e+01 6.2499999994e+01 1.0566000000e-01 0.0000e+00 1.0000e+00
       22  1    1    0    0    0 -2.6729987593e-05 +8.0328743166e-05 -2.1283388966e-04 2.2905340819e-04 0.0000000000e+00 0.0000e+00 -1.0000e+00
</event>
<event>
 4      1 +2.4041262e-06 9.11880000e+01 7.81860800e-03 1.13011600e-01
       25 -1    0    0    0    0 +0.0000000000e+00 +0.0000000000e+00 +9.9999998245e-15 1.2500000000e+02 1.2500000000e+02 0.0000e+00 0.0000e+00
      -13  1    1    0    0    0 +4.1696186153e+00 +4.8298996271e+01 +3.9446926624e+01 6.2499999554e+01 1.0566000000e-01 0.0000e+00 1.0000e+00
       13  1    1    0    0    0 -4.1696012016e+00 -4.8298838454e+01 -3.9446772354e+01 6.2499779066e+01 1.0566000000e-01 0.0000e+00 1.0000e+00
       22  1    1    0    0    0 -1.7413690477e-05 -1.5781644940e-04 -1.5427074892e-04 2.2137915956e-04 0.0000000000e+00 0.0000e+00 1.0000e+00
</event>
<event>
 4      1 +2.4041262e-06 9.11880000e+01 7.81860800e-03 1.13011600e-01
       25 -1    0    0    0    0 +0.0000000000e+00 +0.0000000000e+00 +9.9999998245e-15 1.2500000000e+02 1.2500000000e+02 0.0000e+00 0.0000e+00
      -13  1    1    0    0    0 +2.8777655400e+01 +4.9990576598e+01 +2.4062993102e+01 6.2500000000e+01 1.0566000000e-01 0.0000e+00 1.0000e+00
       13  1    1    0    0    0 -2.8777655400e+01 -4.9990576598e+01 -2.4062993102e+01 6.2500000000e+01 1.0566000000e-01 0.0000e+00 1.0000e+00
       22  1    1    0    0    0 -2.8647572333e-11 -4.4340888175e-11 -3.2524445496e-11 6.2005139461e-11 0.0000000000e+00 0.0000e+00 1.0000e+00
</event>
<event>
 4      1 +2.4041262e-06 9.11880000e+01 7.81860800e-03 1.13011600e-01
       25 -1    0    0    0    0 +0.0000000000e+00 +0.0000000000e+00 +9.9999998245e-15 1.2500000000e+02 1.2500000000e+02 0.0000e+00 0.0000e+00
      -11  1    1    0    0    0 +1.1370238278e+01 -1.2267730676e+01 +9.7655812943e+00 1.9368688978e+01 5.1100000000e-04 0.0000e+00 -1.0000e+00
       11  1    1    0    0    0 +2.5320128431e+01 -2.7321576322e+01 +2.1742413810e+01 4.3131311075e+01 5.1100000000e-04 0.0000e+00 1.0000e+00
       22  1    1    0    0    0 -3.6690366710e+01 +3.9589306998e+01 -3.1507995105e+01 6.2499999947e+01 0.0000000000e+00 0.0000e+00 1.0000e+00
</event>
<event>
 4      1 +2.4041262e-06 9.11880000e+01 7.81860800e-03 1.13011600e-01
       25 -1    0    0    0    0 +0.0000000000e+00 +0.0000000000e+00 +9.9999998245e-15 1.2500000000e+02 1.2500000000e+02 0.0000e+00 0.0000e+00
      -13  1    1    0    0    0 -2.9002624313e+00 -8.8088625318e+00 -6.1807852549e+01 6.2499835056e+01 1.0566000000e-01 0.0000e+00 -1.0000e+00
       13  1    1    0    0    0 +2.7063576416e+00 +8.3542088125e+00 +5.8625953103e+01 5.9280103895e+01 1.0566000000e-01 0.0000e+00 -1.0000e+00
       22  1    1    0    0    0 +1.9390478974e-01 +4.5465371937e-01 +3.1818994462e+00 3.2200610488e+00 0.0000000000e+00 0.0000e+00 -1.0000e+00
</event>
<event>
 4      1 +2.4041262e-06 9.11880000e+01 7.81860800e-03 1.13011600e-01
       25 -1    0    0    0    0 +0.0000000000e+00 +0.0000000000e+00 +9.9999998245e-15 1.2500000000e+02 1.2500000000e+02 0.0000e+00 0.0000e+00
      -13  1    1    0    0    0 +7.7974964704e+00 +4.8278991113e+01 -3.8851063287e+01 6.2458612030e+01 1.0566000000e-01 0.0000e+00 -1.0000e+00
       13  1    1    0    0    0 -7.7986187827e+00 -4.8314235800e+01 +3.8873189117e+01 6.2499758655e+01 1.0566000000e-01 0.0000e+00 -1.0000e+00
       22  1    1    0    0    0 +1.1223122876e-03 +3.5244686818e-02 -2.2125829430e-02 4.1629314932e-02 0.0000000000e+00 0.0000e+00 1.0000e+00
</event>
<event>
 4      1 +2.4041262e-06 9.11880000e+01 7.81860800e-03 1.13011600e-01
       25 -1    0    0    0    0 +0.0000000000e+00 +0.0000000000e+00 +9.9999998245e-15 1.2500000000e+02 1.2500000000e+02 0.0000e+00 0.0000e+00
      -13  1    1    0    0    0 -4.1102976535e+01 -4.6786812907e+01 -5.2663671019e+00 6.2499650627e+01 1.0566000000e-01 0.0000e+00 1.0000e+00
       13  1    1    0    0    0 +4.1089896680e+01 +4.6777163996e+01 +5.2682628368e+00 6.2483985453e+01 1.0566000000e-01 0.0000e+00 1.0000e+00
       22  1    1    0    0    0 +1.3079854681e-02 +9.6489106058e-03 -1.8957348776e-03 1.6363920223e-02 0.0000000000e+00 0.0000e+00 1.0000e+00
</event>
<event>
 4      1 +2.4041262e-06 9.11880000e+01 7.81860800e-03 1.13011600e-01
       25 -1    0    0    0    0 +0.0000000000e+00 +0.0000000000e+00 +9.9999998245e-15 1.2500000000e+02 1.2500000000e+02 0.0000e+00 0.0000e+00
      -13  1    1    0    0    0 +5.7340267371e+01 +2.4819142401e+01 +1.5211454956e+00 6.2499769114e+01 1.0566000000e-01 0.0000e+00 1.0000e+00
       13  1    1    0    0    0 -5.7097978850e+01 -2.4718993210e+01 -1.5296692278e+00 6.2237921447e+01 1.0566000000e-01 0.0000e+00 1.0000e+00
       22  1    1    0    0    0 -2.4228852048e-01 -1.0014919071e-01 +8.5237322415e-03 2.6230943858e-01 0.0000000000e+00 0.0000e+00 1.0000e+00
</event>
<event>
 5      1 +2.4041262e-06 9.11880000e+01 7.81860800e-03 1.13011600e-01
       25 -1    0    0    0    0 +0.0000000000e+00 +0.0000000000e+00 +9.9999998245e-15 1.2500000000e+02 1.2500000000e+02 0.0000e+00 0.0000e+00
       23  2    1    0    0    0 -4.2053129773e+01 +7.3781510946e+00 +1.3237946301e+01 8.0299372940e+01 6.6707145308e+01 0.0000e+00 0.0000e+00
      -13  1    2    2    0    0 +9.4991597674e+00 +2.1419169636e+01 -4.7778774745e+00 2.3913471964e+01 1.0566000000e-01 0.0000e+00 -1.0000e+00
       13  1    2    2    0    0 -5.1552289540e+01 -1.4041018542e+01 +1.8015823775e+01 5.6385900976e+01 1.0566000000e-01 0.0000e+00 1.0000e+00
       22  1    1    0    0    0 +4.2053129773e+01 -7.3781510946e+00 -1.3237946301e+01 4.4700627060e+01 0.0000000000e+00 0.0000e+00 1.0000e+00
</event>
<event>
 4      1 +2.4041262e-06 9.11880000e+01 7.81860800e-03 1.13011600e-01
       25 -1    0    0    0    0 +0.0000000000e+00 +0.0000000000e+00 +9.9999998245e-15 1.2500000000e+02 1.2500000000e+02 0.0000e+00 0.0000e+00
      -13  1    1    0    0    0 +1.6662818650e+01 +8.4297338942e+00 -2.2654061621e+00 1.8810985302e+01 1.0566000000e-01 0.0000e+00 -1.0000e+00
       13  1    1    0    0    0 +3.4906049232e+01 -2.8539196153e+01 +1.8149620558e+01 4.8603887504e+01 1.0566000000e-01 0.0000e+00 1.0000e+00
       22  1    1    0    0    0 -5.1568867883e+01 +2.0109462259e+01 -1.5884214396e+01 5.7585127194e+01 0.0000000000e+00 0.0000e+00 -1.0000e+00
</event>
<event>
 4      1 +2.4041262e-06 9.11880000e+01 7.81860800e-03 1.13011600e-01
       25 -1    0    0    0    0 +0.0000000000e+00 +0.0000000000e+00 +9.9999998245e-15 1.2500000000e+02 1.2500000000e+02 0.0000e+00 0.0000e+00
      -13  1    1    0    0    0 +4.5105763263e+01 +1.1103012469e+01 -4.1813551161e+01 6.2499527920e+01 1.0566000000e-01 0.0000e+00 -1.0000e+00
       13  1    1    0    0    0 -4.5105962438e+01 -1.1103289405e+01 +4.1813921465e+01 6.2499968603e+01 1.0566000000e-01 0.0000e+00 -1.0000e+00
       22  1    1    0    0    0 +1.9917473761e-04 +2.7693606333e-04 -3.7030359390e-04 5.0347682263e-04 0.0000000000e+00 0.0000e+00 1.0000e+00
</event>
<event>
 4      1 +2.4041262e-06 9.11880000e+01 7.81860800e-03 1.13011600e-01
       25 -1    0    0    0    0 +0.0000000000e+00 +0.0000000000e+00 +9.9999998245e-15 1.2500000000e+02 1.2500000000e+02 0.0000e+00 0.0000e+00
      -13  1    1    0    0    0 -1.1706499999e+01 +5.6405649607e+01 -2.4240448644e+01 6.2499999715e+01 1.0566000000e-01 0.0000e+00 1.0000e+00
       13  1    1    0    0    0 +1.1706500051e+01 -5.6405649864e+01 +2.4240448756e+01 6.2500000000e+01 1.0566000000e-01 0.0000e+00 1.0000e+00
       22  1    1    0    0    0 -5.1491772530e-08 +2.5703016958e-07 -1.1220176530e-07 2.8514057383e-07 0.0000000000e+00 0.0000e+00 -1.0000e+00
</event>
<event>
 4      1 +2.4041262e-06 9.11880000e+01 7.81860800e-03 1.13011600e-01
       25 -1    0    0    0    0 +0.0000000000e+00 +0.0000000000e+00 +9.9999998245e-15 1.2500000000e+02 1.2500000000e+02 0.0000e+00 0.0000e+00
      -11  1    1    0    0    0 +1.6543876532e+01 -1.2574024847e+01 +4.6668525185e+01 5.1085782707e+01 5.1100000000e-04 0.0000e+00 1.0000e+00
       11  1    1    0    0    0 -6.1122488179e+00 +1.5712164802e+01 +7.6503689502e+00 1.8513774702e+01 5.1100000000e-04 0.0000e+00 -1.0000e+00
       22  1    1    0    0    0 -1.0431627715e+01 -3.1381399549e+00 -5.4318894136e+01 5.5400442591e+01 0.0000000000e+00 0.0000e+00 -1.0000e+00
</event>
<event>
 4      1 +2.4041262e-06 9.11880000e+01 7.81860800e-03 1.13011600e-01
       25 -1    0    0    0    0 +0.0000000000e+00 +0.0000000000e+00 +9.9999998245e-15 1.2500000000e+02 1.2500000000e+02 0.0000e+00 0.0000e+00
      -13  1    1    0    0    0 +1.9508287987e+00 -4.9876638316e+01 -3.7611279046e+01 6.2498834055e+01 1.0566000000e-01 0.0000e+00 -1.0000e+00
       13  1    1    0    0    0 -1.9523052114e+00 +4.9877187145e+01 +3.7611657621e+01 6.2499545968e+01 1.0566000000e-01 0.0000e+00 -1.0000e+00
       22  1    1    0    0    0 +1.4764127272e-03 -5.4882885012e-04 -3.7857464894e-04 1.6199772877e-03 0.0000000000e+00 0.0000e+00 -1.0000e+00
</event>
<event>
 5      1 +2.4041262e-06 9.11880000e+01 7.81860800e-03 1.13011600e-01
       25 -1    0    0    0    0 +0.0000000000e+00 +0.0000000000e+00 +9.9999998245e-15 1.2500000000e+02 1.2500000000e+02 0.0000e+00 0.0000e+00
       23  2    1    0    0    0 +2.9736723821e+01 +2.8802964445e+00 -7.3185149320e+00 9.4240781674e+01 8.9079713844e+01 0.0000e+00 0.0000e+00
      -11  1    2    2    0    0 +7.7662113387e-01 +3.8996450284e+01 +1.6297021873e+01 4.2271967038e+01 5.1100000000e-04 0.0000e+00 -1.0000e+00
       11  1    2    2    0    0 +2.8960102687e+01 -3.6116153839e+01 -2.3615536805e+01 5.1968814636e+01 5.1100000000e-04 0.0000e+00 1.0000e+00
       22  1    1    0    0    0 -2.9736723821e+01 -2.8802964445e+00 +7.3185149320e+00 3.0759218326e+01 0.0000000000e+00 0.0000e+00 1.0000e+00
</event>
<event>
 4      1 +2.4041262e-06 9.11880000e+01 7.81860800e-03 1.13011600e-01
       25 -1    0    0    0    0 +0.0000000000e+00 +0.0000000000e+00 +9.9999998245e-15 1.2500000000e+02 1.2500000000e+02 0.0000e+00 0.0000e+00
      -13  1    1    0    0    0 -9.8505587958e-01 -3.4081941142e-01 +2.8933860115e+00 3.0772292090e+00 1.0566000000e-01 0.0000e+00 -1.0000e+00
       13  1    1    0    0    0 +5.6767570275e+01 +8.9396843474e+00 -2.3152187620e+01 6.1955709557e+01 1.0566000000e-01 0.0000e+00 1.0000e+00
       22  1    1    0    0    0 -5.5782514395e+01 -8.5988649360e+00 +2.0258801609e+01 5.9967061234e+01 0.0000000000e+00 0.0000e+00 1.0000e+00
</event>
<event>
 4      1 +2.4041262e-06 9.11880000e+01 7.81860800e-03 1.13011600e-01
       25 -1    0    0    0    0 +0.0000000000e+00 +0.0000000000e+00 +9.9999998245e-15 1.2500000000e+02 1.2500000000e+02 0.0000e+00 0.0000e+00
      -13  1    1    0    0    0 +2.4298447001e+01 +2.7493808645e+01 +5.0595535768e+01 6.2499947553e+01 1.0566000000e-01 0.0000e+00 -1.0000e+00
       13  1    1    0    0    0 -2.4269845259e+01 -2.7467073469e+01 -5.0541202010e+01 6.2433082404e+01 1.0566000000e-01 0.0000e+00 -1.0000e+00
       22  1    1    0    0    0 -2.8601742366e-02 -2.6735175903e-02 -5.4333758666e-02 6.6970042763e-02 0.0000000000e+00 0.0000e+00 -1.0000e+00
</event>
<event>
 4      1 +2.4041262e-06 9.11880000e+01 7.81860800e-03 1.13011600e-01
       25 -1    0    0    0    0 +0.0000000000e+00 +0.0000000000e+00 +9.9999998245e-15 1.2500000000e+02 1.2500000000e+02 0.0000e+00 0.0000e+00
      -13  1    1    0    0    0 -2.8551870590e+01 +3.5797777785e+01 +4.2538789680e+01 6.2500000000e+01 1.0566000000e-01 0.0000e+00 1.0000e+00
       13  1    1    0    0    0 +2.8551870393e+01 -3.5797777540e+01 -4.2538789381e+01 6.2499999566e+01 1.0566000000e-01 0.0000e+00 1.0000e+00
       22  1    1    0    0    0 +1.9733446765e-07 -2.4448847295e-07 -2.9925325122e-07 4.3389862168e-07 0.0000000000e+00 0.0000e+00 1.0000e+00
</event>
<event>
 4      1 +2.4041262e-06 9.11880000e+01 7.81860800e-03 1.13011600e-01
       25 -1    0    0    0    0 +0.0000000000e+00 +0.0000000000e+00 +9.9999998245e-15 1.2500000000e+02 1.2500000000e+02 0.0000e+00 0.0000e+00
      -13  1    1    0    0    0 -2.6104067741e+01 -1.7694216439e+01 +5.3960459448e+01 6.2499999967e+01 1.0566000000e-01 0.0000e+00 1.0000e+00
       13  1    1    0    0    0 +2.6104067755e+01 +1.7694216449e+01 -5.3960459476e+01 6.2500000000e+01 1.0566000000e-01 0.0000e+00 1.0000e+00
       22  1    1    0    0    0 -1.3944508092e-08 -9.5037185654e-09 +2.8168464089e-08 3.2836448371e-08 0.0000000000e+00 0.0000e+00 -1.0000e+00
</event>
<event>
 4      1 +2.4041262e-06 9.11880000e+01 7.81860800e-03 1.13011600e-01
       25 -1    0    0    0    0 +0.0000000000e+00 +0.0000000000e+00 +9.9999998245e-15 1.2500000000e+02 1.2500000000e+02 0.0000e+00 0.0000e+00
      -13  1    1    0    0    0 +3.5820258617e+01 -3.4449995028e+01 -1.5520156912e+01 5.2065146878e+01 1.0566000000e-01 0.0000e+00 -1.0000e+00
       13  1    1    0    0    0 +7.9694070209e+00 -6.0368500316e+00 -3.0823961746e+00 1.0462663943e+01 1.0566000000e-01 0.0000e+00 1.0000e+00
       22  1    1    0    0    0 -4.3789665638e+01 +4.0486845059e+01 +1.8602553087e+01 6.2472189179e+01 0.0000000000e+00 0.0000e+00 -1.0000e+00
</event>
<event>
 4      1 +2.4041262e-06 9.11880000e+01 7.81860800e-03 1.13011600e-01
       25 -1    0    0    0    0 +0.0000000000e+00 +0.0000000000e+00 +9.9999998245e-15 1.2500000000e+02 1.2500000000e+02 0.0000e+00 0.0000e+00
      -13  1    1    0    0    0 +7.0565449121e+00 -6.2010934743e+01 -3.3298621244e+00 6.2499999997e+01 1.0566000000e-01 0.0000e+00 -1.0000e+00
       13  1    1    0    0    0 -7.0565449116e+00 +6.2010934746e+01 +3.3298621244e+00 6.2500000000e+01 1.0566000000e-01 0.0000e+00 -1.0000e+00
       22  1    1    0    0    0 -5.8008167259e-10 -2.8847383722e-09 -8.2436508580e-12 2.9424952304e-09 0.0000000000e+00 0.0000e+00 1.0000e+00
</event>
<event>
 4      1 +2.4041262e-06 9.11880000e+01 7.81860800e-03 1.13011600e-01
       25 -1    0    0    0    0 +0.0000000000e+00 +0.0000000000e+00 +9.9999998245e-15 1.2500000000e+02 1.2500000000e+02 0.0000e+00 0.0000e+00
      -13  1    1    0    0    0 +3.4063083908e+01 -4.1188821939e+01 -3.1379229315e+01 6.1979673559e+01 1.0566000000e-01 0.0000e+00 -1.0000e+00
       13  1    1    0    0    0 -3.4350532450e+01 +4.1531649525e+01 +3.1644918102e+01 6.2499991981e+01 1.0566000000e-01 0.0000e+00 -1.0000e+00
       22  1    1    0    0    0 +2.8744854187e-01 -3.4282758625e-01 -2.6568878689e-01 5.2033445936e-01 0.0000000000e+00 0.0000e+00 1.0000e+00
</event>
<event>
 4      1 +2.4041262e-06 9.11880000e+01 7.81860800e-03 1.13011600e-01
       25 -1    0    0    0    0 +0.0000000000e+00 +0.0000000000e+00 +9.9999998245e-15 1.2500000000e+02 1.2500000000e+02 0.0000e+00 0.0000e+00
      -13  1    1    0    0    0 +3.4211689469e+01 -5.2234055628e+01 -2.7207512169e+00 6.2499999319e+01 1.0566000000e-01 0.0000e+00 1.0000e+00
       13  1    1    0    0    0 -3.4211689988e+01 +5.2234056080e+01 +2.7207513193e+00 6.2499999985e+01 1.0566000000e-01 0.0000e+00 1.0000e+00
       22  1    1    0    0    0 +5.1864225269e-07 -4.5179225639e-07 -1.0242002992e-07 6.9541059220e-07 0.0000000000e+00 0.0000e+00 -1.0000e+00
</event>
<event>
 4      1 +2.4041262e-06 9.11880000e+01 7.81860800e-03 1.13011600e-01
       25 -1    0    0    0    0 +0.0000000000e+00 +0.0000000000e+00 +9.9999998245e-15 1.2500000000e+02 1.2500000000e+02 0.0000e+00 0.0000e+00
      -13  1    1    0    0    0 -2.2360680567e+01 -3.2135135606e+01 +4.8719232996e+01 6.2499934428e+01 1.0566000000e-01 0.0000e+00 1.0000e+00
       13  1    1    0    0    0 +2.2354795793e+01 +3.2124633278e+01 -4.8700993697e+01 6.2478211476e+01 1.0566000000e-01 0.0000e+00 1.0000e+00
       22  1    1    0    0    0 +5.8847737499e-03 +1.0502328227e-02 -1.8239298917e-02 2.1854095388e-02 0.0000000000e+00 0.0000e+00 1.0000e+00
</event>
<event>
 4      1 +2.4041262e-06 9.11880000e+01 7.81860800e-03 1.13011600e-01
       25 -1    0    0    0    0 +0.0000000000e+00 +0.0000000000e+00 +9.9999998245e-15 1.2500000000e+02 1.2500000000e+02 0.0000e+00 0.0000e+00
      -13  1    1    0    0    0 -2.1574732070e+00 -3.6636661864e+01 -5.0585279534e+01 6.2496250710e+01 1.0566000000e-01 0.0000e+00 1.0000e+00
       13  1    1    0    0    0 +2.2555430724e+00 +3.4609402044e+01 +4.7718420041e+01 5.8991160013e+01 1.0566000000e-01 0.0000e+00 1.0000e+00
       22  1    1    0    0    0 -9.8069865415e-02 +2.0272598198e+00 +2.8668594931e+00 3.5125892770e+00 0.0000000000e+00 0.0000e+00 -1.0000e+00
</event>
<event>
 5      1 +2.4041262e-06 9.11880000e+01 7.81860800e-03 1.13011600e-01
       25 -1    0    0    0    0 +0.0000000000e+00 +0.0000000000e+00 +9.9999998245e-15 1.2500000000e+02 1.2500000000e+02 0.0000e+00 0.0000e+00
       23  2    1    0    0    0 -2.1812589734e-01 -1.9954269360e+01 -1.9459042628e+01 9.7127526400e+01 9.3042364544e+01 0.0000e+00 0.0000e+00
      -13  1    2    2    0    0 -1.7856430280e+01 -5.2931484432e+01 -2.1125479688e+00 5.5902309161e+01 1.0566000000e-01 0.0000e+00 1.0000e+00
       13  1    2    2    0    0 +1.7638304382e+01 +3.2977215072e+01 -1.7346494659e+01 4.1225217239e+01 1.0566000000e-01 0.0000e+00 -1.0000e+00
       22  1    1    0    0    0 +2.1812589734e-01 +1.9954269360e+01 +1.9459042628e+01 2.7872473600e+01 0.0000000000e+00 0.0000e+00 1.0000e+00
</event>
<event>
 5      1 +2.4041262e-06 9.11880000e+01 7.81860800e-03 1.13011600e-01
       25 -1    0    0    0    0 +0.0000000000e+00 +0.0000000000e+00 +9.9999998245e-15 1.2500000000e+02 1.2500000000e+02 0.0000e+00 0.0000e+00
       23  2    1    0    0    0 +2.0610668318e+01 +1.2462573477e+01 +1.4191467816e+01 9.7044443397e+01 9.2930677655e+01 0.0000e+00 0.0000e+00
      -13  1    2    2    0    0 -2.5197510889e+01 -2.5344601069e+01 -9.4300461350e-01 3.5751416476e+01 1.0566000000e-01 0.0000e+00 -1.0000e+00
       13  1    2    2    0    0 +4.5808179207e+01 +3.7807174546e+01 +1.5134472430e+01 6.1293026921e+01 1.0566000000e-01 0.0000e+00 -1.0000e+00
       22  1    1    0    0    0 -2.0610668318e+01 -1.2462573477e+01 -1.4191467816e+01 2.7955556603e+01 0.0000000000e+00 0.0000e+00 -1.0000e+00
</event>
<event>
 4      1 +2.4041262e-06 9.11880000e+01 7.81860800e-03 1.13011600e-01
       25 -1    0    0    0    0 +0.0000000000e+00 +0.0000000000e+00 +9.9999998245e-15 1.2500000000e+02 1.2500000000e+02 0.0000e+00 0.0000e+00
      -13  1    1    0    0    0 +2.7685729773e+01 +5.5049576325e+01 -1.0453861098e+01 6.2499998900e+01 1.0566000000e-01 0.0000e+00 -1.0000e+00
       13  1    1    0    0    0 -2.7685730264e+01 -5.5049577293e+01 +1.0453861276e+01 6.2500000000e+01 1.0566000000e-01 0.0000e+00 -1.0000e+00
       22  1    1    0    0    0 +4.9109330035e-07 +9.6771503171e-07 -1.7833266129e-07 1.0997488578e-06 0.0000000000e+00 0.0000e+00 -1.0000e+00
</event>
<event>
 5      1 +2.4041262e-06 9.11880000e+01 7.81860800e-03 1.13011600e-01
       25 -1    0    0    0    0 +0.0000000000e+00 +0.0000000000e+00 +9.9999998245e-15 1.2500000000e+02 1.2500000000e+02 0.0000e+00 0.0000e+00
       23  2    1    0    0    0 +1.3924466148e+00 -2.6828378225e+01 -1.0916888263e+01 9.6002082228e+01 9.1517870152e+01 0.0000e+00 0.0000e+00
      -11  1    2    2    0    0 +3.5570742533e+00 -6.0799677694e+01 -1.1385202413e+01 6.1958667023e+01 5.1100000000e-04 0.0000e+00 1.0000e+00
       11  1    2    2    0    0 -2.1646276385e+00 +3.3971299470e+01 +4.6831414952e-01 3.4043415206e+01 5.1100000000e-04 0.0000e+00 -1.0000e+00
       22  1    1    0    0    0 -1.3924466148e+00 +2.6828378225e+01 +1.0916888263e+01 2.8997917772e+01 0.0000000000e+00 0.0000e+00 1.0000e+00
</event>
<event>
 5      1 +2.4041262e-06 9.11880000e+01 7.81860800e-03 1.13011600e-01
       25 -1    0    0    0    0 +0.0000000000e+00 +0.0000000000e+00 +9.9999998245e-15 1.2500000000e+02 1.2500000000e+02 0.0000e+00 0.0000e+00
       23  2    1    0    0    0 +2.8584885405e+01 +5.1872857826e+00 -1.0165186811e+01 9.4221198362e+01 8.9052229564e+01 0.0000e+00 0.0000e+00
      -11  1    2    2    0    0 -4.8622770342e+00 -1.7110429678e+01 -4.0254172858e+01 4.4009169209e+01 5.1100000000e-04 0.0000e+00 1.0000e+00
       11  1    2    2    0    0 +3.3447162439e+01 +2.2297715461e+01 +3.0088986047e+01 5.0212029152e+01 5.1100000000e-04 0.0000e+00 -1.0000e+00
       22  1    1    0    0    0 -2.8584885405e+01 -5.1872857826e+00 +1.0165186811e+01 3.0778801638e+01 0.0000000000e+00 0.0000e+00 -1.0000e+00
</event>
<event>
 4      1 +2.4041262e-06 9.11880000e+01 7.81860800e-03 1.13011600e-01
       25 -1    0    0    0    0 +0.0000000000e+00 +0.0000000000e+00 +9.9999998245e-15 1.2500000000e+02 1.2500000000e+02 0.0000e+00 0.0000e+00
      -13  1    1    0    0    0 +2.3206803921e+01 +5.7207915810e+01 +9.7019421626e+00 6.2493521466e+01 1.0566000000e-01 0.0000e+00 -1.0000e+00
       13  1    1    0    0    0 -2.3209123886e+01 -5.7214036303e+01 -9.7015112839e+00 6.2499918935e+01 1.0566000000e-01 0.0000e+00 -1.0000e+00
       22  1    1    0    0    0 +2.3199651759e-03 +6.1204933328e-03 -4.3087862796e-04 6.5595985736e-03 0.0000000000e+00 0.0000e+00 1.0000e+00
</event>
<event>
 4      1 +2.4041262e-06 9.11880000e+01 7.81860800e-03 1.13011600e-01
       25 -1    0    0    0    0 +0.0000000000e+00 +0.0000000000e+00 +9.9999998245e-15 1.2500000000e+02 1.2500000000e+02 0.0000e+00 0.0000e+00
      -13  1    1    0    0    0 -3.8564606181e+01 -7.8609767197e+00 -4.8550887413e+01 6.2499789100e+01 1.0566000000e-01 0.0000e+00 1.0000e+00
       13  1    1    0    0    0 +3.8564791163e+01 +7.8609109005e+00 +4.8551001681e+01 6.2499983727e+01 1.0566000000e-01 0.0000e+00 1.0000e+00
       22  1    1    0    0    0 -1.8498175489e-04 +6.5819178466e-05 -1.1426850494e-04 2.2717329315e-04 0.0000000000e+00 0.0000e+00 1.0000e+00
</event>
<event>
 4      1 +2.4041262e-06 9.11880000e+01 7.81860800e-03 1.13011600e-01
       25 -1    0    0    0    0 +0.0000000000e+00 +0.0000000000e+00 +9.9999998245e-15 1.2500000000e+02 1.2500000000e+02 0.0000e+00 0.0000e+00
      -11  1    1    0    0    0 +1.1070400211e+01 -1.2269691094e+01 -1.2812762484e+01 2.0910905363e+01 5.1100000000e-04 0.0000e+00 1.0000e+00
       11  1    1    0    0    0 +2.2019093947e+01 -2.4402802038e+01 -2.5481670823e+01 4.1589094650e+01 5.1100000000e-04 0.0000e+00 1.0000e+00
       22  1    1    0    0    0 -3.3089494158e+01 +3.6672493132e+01 +3.8294433307e+01 6.2499999988e+01 0.0000000000e+00 0.0000e+00 1.0000e+00
</event>
<event>
 4      1 +2.4041262e-06 9.11880000e+01 7.81860800e-03 1.13011600e-01
       25 -1    0    0    0    0 +0.0000000000e+00 +0.0000000000e+00 +9.9999998245e-15 1.2500000000e+02 1.2500000000e+02 0.0000e+00 0.0000e+00
      -11  1    1    0    0    0 +1.0227137021e+01 -8.6649481330e-01 +1.8548394163e+00 1.0430032331e+01 5.1100000000e-04 0.0000e+00 1.0000e+00
       11  1    1    0    0    0 +5.1056809890e+01 -4.3293277954e+00 +9.2596230616e+00 5.2069967686e+01 5.1100000000e-04 0.0000e+00 -1.0000e+00
       22  1    1    0    0    0 -6.1283946912e+01 +5.1958226087e+00 -1.1114462478e+01 6.2499999982e+01 0.0000000000e+00 0.0000e+00 -1.0000e+00
</event>
<event>
 4      1 +2.4041262e-06 9.11880000e+01 7.81860800e-03 1.13011600e-01
       25 -1    0    0    0    0 +0.0000000000e+00 +0.0000000000e+00 +9.9999998245e-15 1.2500000000e+02 1.2500000000e+02 0.0000e+00 0.0000e+00
      -13  1    1    0    0    0 +4.5470800410e+01 -7.2407164364e+00 -2.8529943267e+01 5.4166322483e+01 1.0566000000e-01 0.0000e+00 1.0000e+00
       13  1    1    0    0    0 +5.9940503059e+00 +3.6042030859e+00 -5.6108841662e+00 8.9672796386e+00 1.0566000000e-01 0.0000e+00 -1.0000e+00
       22  1    1    0    0    0 -5.1464850716e+01 +3.6365133505e+00 +3.4140827433e+01 6.1866397878e+01 0.0000000000e+00 0.0000e+00 1.0000e+00
</event>
<event>
 4      1 +2.4041262e-06 9.11880000e+01 7.81860800e-03 1.13011600e-01
       25 -1    0    0    0    0 +0.0000000000e+00 +0.0000000000e+00 +9.9999998245e-15 1.2500000000e+02 1.2500000000e+02 0.0000e+00 0.0000e+00
      -13  1    1    0    0    0 -4.3844697753e+01 -4.3577233657e+01 +9.1748856476e+00 6.2494179769e+01 1.0566000000e-01 0.0000e+00 1.0000e+00
       13  1    1    0    0    0 +4.3321880962e+01 +4.3214976336e+01 -9.1283309769e+00 6.1868062360e+01 1.0566000000e-01 0.0000e+00 1.0000e+00
       22  1    1    0    0    0 +5.2281679146e-01 +3.6225732143e-01 -4.6554670761e-02 6.3775787077e-01 0.0000000000e+00 0.0000e+00 1.0000e+00
</event>
<event>
 5      1 +2.4041262e-06 9.11880000e+01 7.81860800e-03 1.13011600e-01
       25 -1    0    0    0    0 +0.0000000000e+00 +0.0000000000e+00 +9.9999998245e-15 1.2500000000e+02 1.2500000000e+02 0.0000e+00 0.0000e+00
       23  2    1    0    0    0 -1.5456561047e+00 +2.4420135017e+01 +1.6540023598e+01 9.5465199719e+01 9.0781605680e+01 0.0000e+00 0.0000e+00
      -11  1    2    2    0    0 +2.6071026231e+01 -1.9390248526e+01 -1.3959614278e+01 3.5363130202e+01 5.1100000000e-04 0.0000e+00 -1.0000e+00
       11  1    2    2    0    0 -2.7616682336e+01 +4.3810383543e+01 +3.0499637875e+01 6.0102069517e+01 5.1100000000e-04 0.0000e+00 1.0000e+00
       22  1    1    0    0    0 +1.5456561047e+00 -2.4420135017e+01 -1.6540023598e+01 2.9534800281e+01 0.0000000000e+00 0.0000e+00 1.0000e+00
</event>
<event>
 4      1 +2.4041262e-06 9.11880000e+01 7.81860800e-03 1.13011600e-01
       25 -1    0    0    0    0 +0.0000000000e+00 +0.0000000000e+00 +9.9999998245e-15 1.2500000000e+02 1.2500000000e+02 0.0000e+00 0.0000e+00
      -13  1    1    0    0    0 +3.1957653972e+01 -2.8447238825e+01 +4.5559870410e+01 6.2500000000e+01 1.0566000000e-01 0.0000e+00 1.0000e+00
       13  1    1    0    0    0 -3.1957651207e+01 +2.8447236350e+01 -4.5559866451e+01 6.2499994574e+01 1.0566000000e-01 0.0000e+00 1.0000e+00
       22  1    1    0    0    0 -2.7651665404e-06 +2.4753618449e-06 -3.9586168611e-06 5.4262519027e-06 0.0000000000e+00 0.0000e+00 -1.0000e+00
</event>
<event>
 5      1 +2.4041262e-06 9.11880000e+01 7.81860800e-03 1.13011600e-01
       25 -1    0    0    0    0 +0.0000000000e+00 +0.0000000000e+00 +9.9999998245e-15 1.2500000000e+02 1.2500000000e+02 0.0000e+00 0.0000e+00
       23  2    1    0    0    0 +8.9518341248e+00 +9.5233977751e+00 -2.7007224937e+01 9.4996322922e+01 9.0133682553e+01 0.0000e+00 0.0000e+00
      -11  1    2    2    0    0 -3.5294691880e+01 -1.3407145626e+01 -2.4680872203e+01 4.5106676687e+01 5.1100000000e-04 0.0000e+00 -1.0000e+00
       11  1    2    2    0    0 +4.4246526005e+01 +2.2930543401e+01 -2.3263527342e+00 4.9889646236e+01 5.1100000000e-04 0.0000e+00 1.0000e+00
       22  1    1    0    0    0 -8.9518341248e+00 -9.5233977751e+00 +2.7007224937e+01 3.0003677078e+01 0.0000000000e+00 0.0000e+00 1.0000e+00
</event>
<event>
 4      1 +2.4041262e-06 9.11880000e+01 7.81860800e-03 1.13011600e-01
       25 -1    0    0    0    0 +0.0000000000e+00 +0.0000000000e+00 +9.9999998245e-15 1.2500000000e+02 1.2500000000e+02 0.0000e+00 0.0000e+00
      -11  1    1    0    0    0 +8.1617451433e+00 +4.2653898430e+00 -2.2722652424e+01 2.4517882611e+01 5.1100000000e-04 0.0000e+00 -1.0000e+00
       11  1    1    0    0    0 +1.2641727255e+01 +6.6078008737e+00 -3.5201774700e+01 3.7982117406e+01 5.1100000000e-04 0.0000e+00 1.0000e+00
       22  1    1    0    0    0 -2.0803472399e+01 -1.0873190717e+01 +5.7924427124e+01 6.2499999983e+01 0.0000000000e+00 0.0000e+00 1.0000e+00
</event>
<event>
 4      1 +2.4041262e-06 9.11880000e+01 7.81860800e-03 1.13011600e-01
       25 -1    0    0    0    0 +0.0000000000e+00 +0.0000000000e+00 +9.9999998245e-15 1.2500000000e+02 1.2500000000e+02 0.0000e+00 0.0000e+00
      -13  1    1    0    0    0 +4.6036806107e+01 +3.8735385947e+01 -1.6923289469e+01 6.2499812251e+01 1.0566000000e-01 0.0000e+00 -1.0000e+00
       13  1    1    0    0    0 -4.6029513919e+01 -3.8727961758e+01 +1.6917466782e+01 6.2488263057e+01 1.0566000000e-01 0.0000e+00 -1.0000e+00
       22  1    1    0    0    0 -7.2921882111e-03 -7.4241884496e-03 +5.8226866892e-03 1.1924691330e-02 0.0000000000e+00 0.0000e+00 -1.0000e+00
</event>
<event>
 5      1 +2.4041262e-06 9.11880000e+01 7.81860800e-03 1.13011600e-01
       25 -1    0    0    0    0 +0.0000000000e+00 +0.0000000000e+00 +9.9999998245e-15 1.2500000000e+02 1.2500000000e+02 0.0000e+00 0.0000e+00
       23  2    1    0    0    0 +4.9515510406e+00 +4.0231034509e+00 -2.7206351727e+01 9.7055612489e+01 9.2945699859e+01 0.0000e+00 0.0000e+00
      -11  1    2    2    0    0 +1.3884643553e-01 +2.9159738595e+01 -5.3143083727e+01 6.0617629297e+01 5.1100000000e-04 0.0000e+00 -1.0000e+00
       11  1    2    2    0    0 +4.8127046051e+00 -2.5136635144e+01 +2.5936732001e+01 3.6437983192e+01 5.1100000000e-04 0.0000e+00 1.0000e+00
       22  1    1    0    0    0 -4.9515510406e+00 -4.0231034509e+00 +2.7206351727e+01 2.7944387511e+01 0.0000000000e+00 0.0000e+00 -1.0000e+00
</event>
<event>
 4      1 +2.4041262e-06 9.11880000e+01 7.81860800e-03 1.13011600e-01
       25 -1    0    0    0    0 +0.0000000000e+00 +0.0000000000e+00 +9.9999998245e-15 1.2500000000e+02 1.2500000000e+02 0.0000e+00 0.0000e+00
      -13  1    1    0    0    0 -1.4238997346e+01 +1.4384960433e+01 +5.9125397184e+01 6.2493998818e+01 1.0566000000e-01 0.0000e+00 -1.0000e+00
       13  1    1    0    0    0 +1.4239112194e+01 -1.4385341730e+01 -5.9131499360e+01 6.2499886026e+01 1.0566000000e-01 0.0000e+00 -1.0000e+00
       22  1    1    0    0    0 -1.1484798528e-04 +3.8129668600e-04 +6.1021754934e-03 6.1151551881e-03 0.0000000000e+00 0.0000e+00 -1.0000e+00
</event>
<event>
 5      1 +2.4041262e-06 9.11880000e+01 7.81860800e-03 1.13011600e-01
       25 -1    0    0    0    0 +0.0000000000e+00 +0.0000000000e+00 +9.9999998245e-15 1.2500000000e+02 1.2500000000e+02 0.0000e+00 0.0000e+00
       23  2    1    0    0    0 +1.8320159649e+01 -5.7750476065e-01 +2.2366593498e+01 9.6082422888e+01 9.1627538011e+01 0.0000e+00 0.0000e+00
      -13  1    2    2    0    0 -2.6504508541e+01 +1.9956457249e+01 -1.2758007495e+01 3.5546126065e+01 1.0566000000e-01 0.0000e+00 1.0000e+00
       13  1    2    2    0    0 +4.4824668190e+01 -2.0533962010e+01 +3.5124600993e+01 6.0536296823e+01 1.0566000000e-01 0.0000e+00 -1.0000e+00
       22  1    1    0    0    0 -1.8320159649e+01 +5.7750476065e-01 -2.2366593498e+01 2.8917577112e+01 0.0000000000e+00 0.0000e+00 -1.0000e+00
</event>
<event>
 4      1 +2.4041262e-06 9.11880000e+01 7.81860800e-03 1.13011600e-01
       25 -1    0    0    0    0 +0.0000000000e+00 +0.0000000000e+00 +9.9999998245e-15 1.2500000000e+02 1.2500000000e+02 0.0000e+00 0.0000e+00
      -13  1    1    0    0    0 +3.4653389834e+01 -4.8857936717e+01 +1.7840499676e+01 6.2500000000e+01 1.0566000000e-01 0.0000e+00 1.0000e+00
       13  1    1    0    0    0 -3.4653389831e+01 +4.8857936713e+01 -1.7840499675e+01 6.2499999994e+01 1.0566000000e-01 0.0000e+00 1.0000e+00
       22  1    1    0    0    0 -3.1395296593e-09 +4.2366947318e-09 -1.6370598783e-09 5.5214304104e-09 0.0000000000e+00 0.0000e+00 1.0000e+00
</event>
<event>
 5      1 +2.4041262e-06 9.11880000e+01 7.81860800e-03 1.13011600e-01
       25 -1    0    0    0    0 +0.0000000000e+00 +0.0000000000e+00 +9.9999998245e-15 1.2500000000e+02 1.2500000000e+02 0.0000e+00 0.0000e+00
       23  2    1    0    0    0 +7.4279536979e+00 -3.0434789182e-02 +3.1186972153e+01 9.2940638583e+01 8.7236228975e+01 0.0000e+00 0.0000e+00
      -13  1    2    2    0    0 -2.9750087396e+01 -1.1204410861e+01 +4.1969160807e+01 5.2650053615e+01 1.0566000000e-01 0.0000e+00 1.0000e+00
       13  1    2    2    0    0 +3.7178041094e+01 +1.1173976072e+01 -1.0782188655e+01 4.0290584968e+01 1.0566000000e-01 0.0000e+00 -1.0000e+00
       22  1    1    0    0    0 -7.4279536979e+00 +3.0434789182e-02 -3.1186972153e+01 3.2059361417e+01 0.0000000000e+00 0.0000e+00 1.0000e+00
</event>
<event>
 4      1 +2.4041262e-06 9.11880000e+01 7.81860800e-03 1.13011600e-01
       25 -1    0    0    0    0 +0.0000000000e+00 +0.0000000000e+00 +9.9999998245e-15 1.2500000000e+02 1.2500000000e+02 0.0000e+00 0.0000e+00
      -13  1    1    0    0    0 -3.3604936338e+01 -4.2080613943e+01 -3.1720167398e+01 6.2499999999e+01 1.0566000000e-01 0.0000e+00 1.0000e+00
       13  1    1    0    0    0 +3.3604936338e+01 +4.2080613944e+01 +3.1720167399e+01 6.2500000000e+01 1.0566000000e-01 0.0000e+00 1.0000e+00
       22  1    1    0    0    0 -3.6409264335e-10 -5.4738377206e-10 -3.8955358817e-10 7.6416257754e-10 0.0000000000e+00 0.0000e+00 -1.0000e+00
</event>
<event>
 5      1 +2.4041262e-06 9.11880000e+01 7.81860800e-03 1.13011600e-01
       25 -1    0    0    0    0 +0.0000000000e+00 +0.0000000000e+00 +9.9999998245e-15 1.2500000000e+02 1.2500000000e+02 0.0000e+00 0.0000e+00
       23  2    1    0    0    0 +1.3461078252e+01 +1.7791016514e+01 -1.8039882659e+01 9.6309265212e+01 9.1936479718e+01 0.0000e+00 0.0000e+00
      -11  1    2    2    0    0 +2.2617045025e+01 +2.7329009195e+01 -5.0239272370e+01 6.1501137857e+01 5.1100000000e-04 0.0000e+00 -1.0000e+00
       11  1    2    2    0    0 -9.1559667736e+00 -9.5379926803e+00 +3.2199389711e+01 3.4808127355e+01 5.1100000000e-04 0.0000e+00 1.0000e+00
       22  1    1    0    0    0 -1.3461078252e+01 -1.7791016514e+01 +1.8039882659e+01 2.8690734788e+01 0.0000000000e+00 0.0000e+00 -1.0000e+00
</event>
<event>
 4      1 +2.4041262e-06 9.11880000e+01 7.81860800e-03 1.13011600e-01
       25 -1    0    0    0    0 +0.0000000000e+00 +0.0000000000e+00 +9.9999998245e-15 1.2500000000e+02 1.2500000000e+02 0.0000e+00 0.0000e+00
      -13  1    1    0    0    0 -1.8219505151e+00 +2.1565013574e+01 +5.8633274620e+01 6.2499930967e+01 1.0566000000e-01 0.0000e+00 -1.0000e+00
       13  1    1    0    0    0 +1.8219524391e+00 -2.1565037193e+01 -5.8633339459e+01 6.2500000000e+01 1.0566000000e-01 0.0000e+00 -1.0000e+00
       22  1    1    0    0    0 -1.9239597290e-06 +2.3618854793e-05 +6.4838548408e-05 6.9033247660e-05 0.0000000000e+00 0.0000e+00 1.0000e+00
</event>
<event>
 4      1 +2.4041262e-06 9.11880000e+01 7.81860800e-03 1.13011600e-01
       25 -1    0    0    0    0 +0.0000000000e+00 +0.0000000000e+00 +9.9999998245e-15 1.2500000000e+02 1.2500000000e+02 0.0000e+00 0.0000e+00
      -11  1    1    0    0    0 -3.3638761739e+01 +2.3244189900e+01 +1.0851211461e+01 4.2303752148e+01 5.1100000000e-04 0.0000e+00 -1.0000e+00
       11  1    1    0    0    0 -1.6065014979e+01 +1.1085700172e+01 +5.1875855075e+00 2.0196249608e+01 5.1100000000e-04 0.0000e+00 1.0000e+00
       22  1    1    0    0    0 +4.9703776717e+01 -3.4329890071e+01 -1.6038796968e+01 6.2499998244e+01 0.0000000000e+00 0.0000e+00 -1.0000e+00
</event>
<event>
 4      1 +2.4041262e-06 9.11880000e+01 7.81860800e-03 1.13011600e-01
       25 -1    0    0    0    0 +0.0000000000e+00 +0.0000000000e+00 +9.9999998245e-15 1.2500000000e+02 1.2500000000e+02 0.0000e+00 0.0000e+00
      -13  1    1    0    0    0 -5.9446360924e+01 -2.5003905264e+00 -1.8603405516e+01 6.2339551175e+01 1.0566000000e-01 0.0000e+00 -1.0000e+00
       13  1    1    0    0    0 +3.9485054721e+01 +3.6811708451e+00 +1.4658219022e+01 4.2278778531e+01 1.0566000000e-01 0.0000e+00 -1.0000e+00
       22  1    1    0    0    0 +1.9961306203e+01 -1.1807803187e+00 +3.9451864942e+00 2.0381670294e+01 0.0000000000e+00 0.0000e+00 -1.0000e+00
</event>
<event>
 4      1 +2.4041262e-06 9.11880000e+01 7.81860800e-03 1.13011600e-01
       25 -1    0    0    0    0 +0.0000000000e+00 +0.0000000000e+00 +9.9999998245e-15 1.2500000000e+02 1.2500000000e+02 0.0000e+00 0.0000e+00
      -13  1    1    0    0    0 -4.7469124173e+00 -5.6250174672e+01 +2.6825779220e+01 6.2499991383e+01 1.0566000000e-01 0.0000e+00 -1.0000e+00
       13  1    1    0    0    0 +4.7468868998e+00 +5.6250164196e+01 -2.6825781389e+01 6.2499980947e+01 1.0566000000e-01 0.0000e+00 -1.0000e+00
       22  1    1    0    0    0 +2.5517472060e-05 +1.0476303173e-05 +2.1696334721e-06 2.7669507006e-05 0.0000000000e+00 0.0000e+00 -1.0000e+00
</event>
<event>
 4      1 +2.4041262e-06 9.11880000e+01 7.81860800e-03 1.13011600e-01
       25 -1    0    0    0    0 +0.0000000000e+00 +0.0000000000e+00 +9.9999998245e-15 1.2500000000e+02 1.2500000000e+02 0.0000e+00 0.0000e+00
      -13  1    1    0    0    0 -4.4671855120e-01 +1.6177346147e+01 -6.0368278668e+01 6.2499970554e+01 1.0566000000e-01 0.0000e+00 -1.0000e+00
       13  1    1    0    0    0 +4.4742823408e-01 -1.6174371432e+01 +6.0359796816e+01 6.2491013105e+01 1.0566000000e-01 0.0000e+00 -1.0000e+00
       22  1    1    0    0    0 -7.0968287799e-04 -2.9747151847e-03 +8.4818526815e-03 9.0163410056e-03 0.0000000000e+00 0.0000e+00 1.0000e+00
</event>
<event>
 5      1 +2.4041262e-06 9.11880000e+01 7.81860800e-03 1.13011600e-01
       25 -1    0    0    0    0 +0.0000000000e+00 +0.0000000000e+00 +9.9999998245e-15 1.2500000000e+02 1.2500000000e+02 0.0000e+00 0.0000e+00
       23  2    1    0    0    0 -2.3231179901e+01 -1.0708181550e+01 +1.5963736841e+01 9.4847159908e+01 8.9926581036e+01 0.0000e+00 0.0000e+00
      -13  1    2    2    0    0 +1.0202348508e+01 -2.8929333113e+01 -2.4519466558e+01 3.9270976990e+01 1.0566000000e-01 0.0000e+00 1.0000e+00
       13  1    2    2    0    0 -3.3433528410e+01 +1.8221151563e+01 +4.0483203399e+01 5.5576182917e+01 1.0566000000e-01 0.0000e+00 -1.0000e+00
       22  1    1    0    0    0 +2.3231179901e+01 +1.0708181550e+01 -1.5963736841e+01 3.0152840092e+01 0.0000000000e+00 0.0000e+00 -1.0000e+00
</event>
<event>
 4      1 +2.4041262e-06 9.11880000e+01 7.81860800e-03 1.13011600e-01
       25 -1    0    0    0    0 +0.0000000000e+00 +0.0000000000e+00 +9.9999998245e-15 1.2500000000e+02 1.2500000000e+02 0.0000e+00 0.0000e+00
      -13  1    1    0    0    0 +2.3514282267e+01 +4.1804730673e+01 -4.0070959971e+01 6.2499999793e+01 1.0566000000e-01 0.0000e+00 1.0000e+00
       13  1    1    0    0    0 -2.3513085941e+01 -4.1802498981e+01 +4.0068834983e+01 6.2496694572e+01 1.0566000000e-01 0.0000e+00 1.0000e+00
       22  1    1    0    0    0 -1.1963259252e-03 -2.2316920822e-03 +2.1249877556e-03 3.3056343159e-03 0.0000000000e+00 0.0000e+00 1.0000e+00
</event>
<event>
 4      1 +2.4041262e-06 9.11880000e+01 7.81860800e-03 1.13011600e-01
       25 -1    0    0    0    0 +0.0000000000e+00 +0.0000000000e+00 +9.9999998245e-15 1.2500000000e+02 1.2500000000e+02 0.0000e+00 0.0000e+00
      -13  1    1    0    0    0 +1.3816391430e+01 +5.8963746756e+01 -1.5446905782e+01 6.2499873327e+01 1.0566000000e-01 0.0000e+00 1.0000e+00
       13  1    1    0    0    0 -1.3816425462e+01 -5.8963859502e+01 +1.5446954445e+01 6.2499999245e+01 1.0566000000e-01 0.0000e+00 1.0000e+00
       22  1    1    0    0    0 +3.4032558793e-05 +1.1274627834e-04 -4.8662493659e-05 1.2742831956e-04 0.0000000000e+00 0.0000e+00 1.0000e+00
</event>
<event>
 4      1 +2.4041262e-06 9.11880000e+01 7.81860800e-03 1.13011600e-01
       25 -1    0    0    0    0 +0.0000000000e+00 +0.0000000000e+00 +9.9999998245e-15 1.2500000000e+02 1.2500000000e+02 0.0000e+00 0.0000e+00
      -13  1    1    0    0    0 +1.8406244299e+01 -3.7288642426e-01 -5.9726961767e+01 6.2499999995e+01 1.0566000000e-01 0.0000e+00 1.0000e+00
       13  1    1    0    0    0 -1.8406244298e+01 +3.7288642883e-01 +5.9726961771e+01 6.2499999999e+01 1.0566000000e-01 0.0000e+00 1.0000e+00
       22  1    1    0    0    0 -2.4771192876e-10 -4.5739263612e-09 -4.0172294487e-09 6.0926427765e-09 0.0000000000e+00 0.0000e+00 1.0000e+00
</event>
<event>
 4      1 +2.4041262e-06 9.11880000e+01 7.81860800e-03 1.13011600e-01
       25 -1    0    0    0    0 +0.0000000000e+00 +0.0000000000e+00 +9.9999998245e-15 1.2500000000e+02 1.2500000000e+02 0.0000e+00 0.0000e+00
      -13  1    1    0    0    0 -5.5519892064e+01 +2.4532657255e+00 -2.8596536651e+01 6.2500000000e+01 1.0566000000e-01 0.0000e+00 -1.0000e+00
       13  1    1    0    0    0 +5.5519892061e+01 -2.4532657248e+00 +2.8596536649e+01 6.2499999997e+01 1.0566000000e-01 0.0000e+00 -1.0000e+00
       22  1    1    0    0    0 +2.5364804652e-09 -7.0445901680e-10 +1.7872227239e-09 3.1818486327e-09 0.0000000000e+00 0.0000e+00 -1.0000e+00
</event>
<event>
 5      1 +2.4041262e-06 9.11880000e+01 7.81860800e-03 1.13011600e-01
       25 -1    0    0    0    0 +0.0000000000e+00 +0.0000000000e+00 +9.9999998245e-15 1.2500000000e+02 1.2500000000e+02 0.0000e+00 0.0000e+00
       23  2    1    0    0    0 -8.4519475006e+00 +3.2643351374e+01 -8.8577499352e+00 9.0136214500e+01 8.3120717182e+01 0.0000e+00 0.0000e+00
      -13  1    2    2    0    0 +3.0750031331e-01 +5.9662996266e+01 -1.3965138514e+01 6.1276455003e+01 1.0566000000e-01 0.0000e+00 1.0000e+00
       13  1    2    2    0    0 -8.7594478139e+00 -2.7019644892e+01 +5.1073885792e+00 2.8859759497e+01 1.0566000000e-01 0.0000e+00 -1.0000e+00
       22  1    1    0    0    0 +8.4519475006e+00 -3.2643351374e+01 +8.8577499352e+00 3.4863785500e+01 0.0000000000e+00 0.0000e+00 1.0000e+00
</event>
<event>
 4      1 +2.4041262e-06 9.11880000e+01 7.81860800e-03 1.13011600e-01
       25 -1    0    0    0    0 +0.0000000000e+00 +0.0000000000e+00 +9.9999998245e-15 1.2500000000e+02 1.2500000000e+02 0.0000e+00 0.0000e+00
      -11  1    1    0    0    0 -1.1410710229e+01 +5.0807812705e+01 -2.5630362691e+01 5.8039242170e+01 5.1100000000e-04 0.0000e+00 1.0000e+00
       11  1    1    0    0    0 -7.1915922647e-01 +4.0946135666e+00 -1.6412679534e+00 4.4695425950e+00 5.1100000000e-04 0.0000e+00 -1.0000e+00
       22  1    1    0    0    0 +1.2129869456e+01 -5.4902426272e+01 +2.7271630644e+01 6.2491215235e+01 0.0000000000e+00 0.0000e+00 1.0000e+00
</event>
<event>
 4      1 +2.4041262e-06 9.11880000e+01 7.81860800e-03 1.13011600e-01
       25 -1    0    0    0    0 +0.0000000000e+00 +0.0000000000e+00 +9.9999998245e-15 1.2500000000e+02 1.2500000000e+02 0.0000e+00 0.0000e+00
      -13  1    1    0    0    0 +5.4696631375e+01 +2.9811690542e+01 +4.9478613566e+00 6.2489606118e+01 1.0566000000e-01 0.0000e+00 -1.0000e+00
       13  1    1    0    0    0 -5.4705949743e+01 -2.9816103570e+01 -4.9493084845e+00 6.2499982303e+01 1.0566000000e-01 0.0000e+00 -1.0000e+00
       22  1    1    0    0    0 +9.3183685733e-03 +4.4130276509e-03 +1.4471279293e-03 1.0411579379e-02 0.0000000000e+00 0.0000e+00 -1.0000e+00
</event>
<event>
 4      1 +2.4041262e-06 9.11880000e+01 7.81860800e-03 1.13011600e-01
       25 -1    0    0    0    0 +0.0000000000e+00 +0.0000000000e+00 +9.9999998245e-15 1.2500000000e+02 1.2500000000e+02 0.0000e+00 0.0000e+00
      -13  1    1    0    0    0 -5.6138023069e+01 -1.3564075712e+01 +1.4186293530e+01 5.9470361292e+01 1.0566000000e-01 0.0000e+00 -1.0000e+00
       13  1    1    0    0    0 +5.8991931700e+01 +1.4271370275e+01 -1.4916935454e+01 6.2499969140e+01 1.0566000000e-01 0.0000e+00 -1.0000e+00
       22  1    1    0    0    0 -2.8539086304e+00 -7.0729456338e-01 +7.3064192371e-01 3.0296695679e+00 0.0000000000e+00 0.0000e+00 1.0000e+00
</event>
<event>
 5      1 +2.4041262e-06 9.11880000e+01 7.81860800e-03 1.13011600e-01
       25 -1    0    0    0    0 +0.0000000000e+00 +0.0000000000e+00 +9.9999998245e-15 1.2500000000e+02 1.2500000000e+02 0.0000e+00 0.0000e+00
       23  2    1    0    0    0 +9.4720865592e+00 -8.7742155371e+00 +2.7590700520e+01 9.4537661986e+01 8.9495337848e+01 0.0000e+00 0.0000e+00
      -11  1    2    2    0    0 +2.5147205983e+01 -1.2301959501e+01 +5.5598317810e+01 6.2248639502e+01 5.1100000000e-04 0.0000e+00 1.0000e+00
       11  1    2    2    0    0 -1.5675119424e+01 +3.5277439638e+00 -2.8007617291e+01 3.2289022484e+01 5.1100000000e-04 0.0000e+00 -1.0000e+00
       22  1    1    0    0    0 -9.4720865592e+00 +8.7742155371e+00 -2.7590700520e+01 3.0462338014e+01 0.0000000000e+00 0.0000e+00 1.0000e+00
</event>
<event>
 4      1 +2.4041262e-06 9.11880000e+01 7.81860800e-03 1.13011600e-01
       25 -1    0    0    0    0 +0.0000000000e+00 +0.0000000000e+00 +9.9999998245e-15 1.2500000000e+02 1.2500000000e+02 0.0000e+00 0.0000e+00
      -13  1    1    0    0    0 -2.6137554278e+01 +4.0191496341e+00 +5.6629617062e+01 6.2500000000e+01 1.0566000000e-01 0.0000e+00 -1.0000e+00
       13  1    1    0    0    0 +2.6137552276e+01 -4.0191493192e+00 -5.6629612703e+01 6.2499995193e+01 1.0566000000e-01 0.0000e+00 -1.0000e+00
       22  1    1    0    0    0 +2.0018804591e-06 -3.1490339116e-07 -4.3586081317e-06 4.8066781007e-06 0.0000000000e+00 0.0000e+00 -1.0000e+00
</event>
<event>
 5      1 +2.4041262e-06 9.11880000e+01 7.81860800e-03 1.13011600e-01
       25 -1    0    0    0    0 +0.0000000000e+00 +0.0000000000e+00 +9.9999998245e-15 1.2500000000e+02 1.2500000000e+02 0.0000e+00 0.0000e+00
       23  2    1    0    0    0 +9.7051963731e+00 +2.2892862701e+01 +1.3756897576e+01 9.6582993996e+01 9.2307900524e+01 0.0000e+00 0.0000e+00
      -13  1    2    2    0    0 -3.1171888910e+01 -1.0423259017e+01 +2.6627312820e+01 4.2300779412e+01 1.0566000000e-01 0.0000e+00 -1.0000e+00
       13  1    2    2    0    0 +4.0877085283e+01 +3.3316121718e+01 -1.2870415244e+01 5.4282214584e+01 1.0566000000e-01 0.0000e+00 1.0000e+00
       22  1    1    0    0    0 -9.7051963731e+00 -2.2892862701e+01 -1.3756897576e+01 2.8417006004e+01 0.0000000000e+00 0.0000e+00 1.0000e+00
</event>
<event>
 4      1 +2.4041262e-06 9.11880000e+01 7.81860800e-03 1.13011600e-01
       25 -1    0    0    0    0 +0.0000000000e+00 +0.0000000000e+00 +9.9999998245e-15 1.2500000000e+02 1.2500000000e+02 0.0000e+00 0.0000e+00
      -13  1    1    0    0    0 -4.2527686921e+01 +1.9140483328e+01 +4.1370868344e+01 6.2341977579e+01 1.0566000000e-01 0.0000e+00 -1.0000e+00
       13  1    1    0    0    0 +4.2008731298e+01 -1.7813245289e+01 -3.9981906107e+01 6.0668024469e+01 1.0566000000e-01 0.0000e+00 -1.0000e+00
       22  1    1    0    0    0 +5.1895562304e-01 -1.3272380391e+00 -1.3889622377e+00 1.9899979520e+00 0.0000000000e+00 0.0000e+00 1.0000e+00
</event>
<event>
 4      1 +2.4041262e-06 9.11880000e+01 7.81860800e-03 1.13011600e-01
       25 -1    0    0    0    0 +0.0000000000e+00 +0.0000000000e+00 +9.9999998245e-15 1.2500000000e+02 1.2500000000e+02 0.0000e+00 0.0000e+00
      -13  1    1    0    0    0 +4.1107208991e+01 -3.3204924726e+01 -3.3372095200e+01 6.2498620458e+01 1.0566000000e-01 0.0000e+00 -1.0000e+00
       13  1    1    0    0    0 -4.0749126639e+01 +3.2962556416e+01 +3.3052642623e+01 6.1963778095e+01 1.0566000000e-01 0.0000e+00 -1.0000e+00
       22  1    1    0    0    0 -3.5808235155e-01 +2.4236830956e-01 +3.1945257652e-01 5.3760144774e-01 0.0000000000e+00 0.0000e+00 -1.0000e+00
</event>
<event>
 4      1 +2.4041262e-06 9.11880000e+01 7.81860800e-03 1.13011600e-01
       25 -1    0    0    0    0 +0.0000000000e+00 +0.0000000000e+00 +9.9999998245e-15 1.2500000000e+02 1.2500000000e+02 0.0000e+00 0.0000e+00
      -11  1    1    0    0    0 -4.3007777028e+01 -4.2261817154e+00 -1.9677362233e+01 4.7483977102e+01 5.1100000000e-04 0.0000e+00 1.0000e+00
       11  1    1    0    0    0 -1.3681584895e+01 -8.1806918395e-01 -6.1427156795e+00 1.5019585833e+01 5.1100000000e-04 0.0000e+00 -1.0000e+00
       22  1    1    0    0    0 +5.6689361923e+01 +5.0442508993e+00 +2.5820077912e+01 6.2496437064e+01 0.0000000000e+00 0.0000e+00 1.0000e+00
</event>
<event>
 4      1 +2.4041262e-06 9.11880000e+01 7.81860800e-03 1.13011600e-01
       25 -1    0    0    0    0 +0.0000000000e+00 +0.0000000000e+00 +9.9999998245e-15 1.2500000000e+02 1.2500000000e+02 0.0000e+00 0.0000e+00
      -13  1    1    0    0    0 -5.6913136051e+01 -6.2516816005e+00 +2.5060894943e+01 6.2499985579e+01 1.0566000000e-01 0.0000e+00 -1.0000e+00
       13  1    1    0    0    0 +5.6913149444e+01 +6.2516833993e+00 -2.5060900013e+01 6.2499999988e+01 1.0566000000e-01 0.0000e+00 -1.0000e+00
       22  1    1    0    0    0 -1.3392868239e-05 -1.7988432068e-06 +5.0704400604e-06 1.4433091109e-05 0.0000000000e+00 0.0000e+00 1.0000e+00
</event>
<event>
 4      1 +2.4041262e-06 9.11880000e+01 7.81860800e-03 1.13011600e-01
       25 -1    0    0    0    0 +0.0000000000e+00 +0.0000000000e+00 +9.9999998245e-15 1.2500000000e+02 1.2500000000e+02 0.0000e+00 0.0000e+00
      -13  1    1    0    0    0 -8.4749773577e+00 +2.4797929082e+00 -1.4984379353e+01 1.7393027416e+01 1.0566000000e-01 0.0000e+00 -1.0000e+00
       13  1    1    0    0    0 -1.8640329301e+01 +6.9528948877e+00 -4.0506909670e+01 4.5128987567e+01 1.0566000000e-01 0.0000e+00 1.0000e+00
       22  1    1    0    0    0 +2.7115306659e+01 -9.4326877960e+00 +5.5491289023e+01 6.2477985016e+01 0.0000000000e+00 0.0000e+00 1.0000e+00
</event>
<event>
 4      1 +2.4041262e-06 9.11880000e+01 7.81860800e-03 1.13011600e-01
       25 -1    0    0    0    0 +0.0000000000e+00 +0.0000000000e+00 +9.9999998245e-15 1.2500000000e+02 1.2500000000e+02 0.0000e+00 0.0000e+00
      -13  1    1    0    0    0 -4.9153853554e-01 +2.0352581605e+01 -5.9091197719e+01 6.2500000000e+01 1.0566000000e-01 0.0000e+00 1.0000e+00
       13  1    1    0    0    0 +4.9153852847e-01 -2.0352581434e+01 +5.9091197273e+01 6.2499999523e+01 1.0566000000e-01 0.0000e+00 1.0000e+00
       22  1    1    0    0    0 +7.0698663048e-09 -1.7135270890e-07 +4.4562502704e-07 4.7748654283e-07 0.0000000000e+00 0.0000e+00 1.0000e+00
</event>
<event>
 5      1 +2.4041262e-06 9.11880000e+01 7.81860800e-03 1.13011600e-01
       25 -1    0    0    0    0 +0.0000000000e+00 +0.0000000000e+00 +9.9999998245e-15 1.2500000000e+02 1.2500000000e+02 0.0000e+00 0.0000e+00
       23  2    1    0    0    0 +8.8575866694e-01 -1.9983205265e+01 -1.8942748161e+01 9.7451120368e+01 9.3476093693e+01 0.0000e+00 0.0000e+00
      -11  1    2    2    0    0 +3.6296507578e+01 +4.3381914944e+00 +1.8042114014e+01 4.0764865340e+01 5.1100000000e-04 0.0000e+00 -1.0000e+00
       11  1    2    2    0    0 -3.5410748911e+01 -2.4321396759e+01 -3.6984862175e+01 5.6686255028e+01 5.1100000000e-04 0.0000e+00 1.0000e+00
       22  1    1    0    0    0 -8.8575866694e-01 +1.9983205265e+01 +1.8942748161e+01 2.7548879632e+01 0.0000000000e+00 0.0000e+00 1.0000e+00
</event>
<event>
 4      1 +2.4041262e-06 9.11880000e+01 7.81860800e-03 1.13011600e-01
       25 -1    0    0    0    0 +0.0000000000e+00 +0.0000000000e+00 +9.9999998245e-15 1.2500000000e+02 1.2500000000e+02 0.0000e+00 0.0000e+00
      -11  1    1    0    0    0 +1.8416399464e+01 +4.3991923277e+01 -1.1049536211e+01 4.8954523117e+01 5.1100000000e-04 0.0000e+00 1.0000e+00
       11  1    1    0    0    0 +4.3560492812e+00 +1.2466174218e+01 -3.0573541723e+00 1.3554633147e+01 5.1100000000e-04 0.0000e+00 -1.0000e+00
       22  1    1    0    0    0 -2.2772448745e+01 -5.6458097495e+01 +1.4106890383e+01 6.2490843736e+01 0.0000000000e+00 0.0000e+00 1.0000e+00
</event>
<event>
 4      1 +2.4041262e-06 9.11880000e+01 7.81860800e-03 1.13011600e-01
       25 -1    0    0    0    0 +0.0000000000e+00 +0.0000000000e+00 +9.9999998245e-15 1.2500000000e+02 1.2500000000e+02 0.0000e+00 0.0000e+00
      -13  1    1    0    0    0 -2.0001288164e+00 -1.6306202794e+01 +5.6749205112e+01 5.9079405969e+01 1.0566000000e-01 0.0000e+00 1.0000e+00
       13  1    1    0    0    0 +2.1621914113e+00 +1.7235358908e+01 -6.0037366558e+01 6.2499833725e+01 1.0566000000e-01 0.0000e+00 1.0000e+00
       22  1    1    0    0    0 -1.6206259495e-01 -9.2915611435e-01 +3.2881614464e+00 3.4207603054e+00 0.0000000000e+00 0.0000e+00 1.0000e+00
</event>
<event>
 4      1 +2.4041262e-06 9.11880000e+01 7.81860800e-03 1.13011600e-01
       25 -1    0    0    0    0 +0.0000000000e+00 +0.0000000000e+00 +9.9999998245e-15 1.2500000000e+02 1.2500000000e+02 0.0000e+00 0.0000e+00
      -13  1    1    0    0    0 +5.9032709515e+01 +1.9806960415e+01 -5.3909518959e+00 6.2500000000e+01 1.0566000000e-01 0.0000e+00 1.0000e+00
       13  1    1    0    0    0 -5.9032709516e+01 -1.9806960415e+01 +5.3909518960e+00 6.2500000000e+01 1.0566000000e-01 0.0000e+00 1.0000e+00
       22  1    1    0    0    0 +1.9284027986e-10 +7.2921774902e-12 -4.7989599448e-11 1.9885560350e-10 0.0000000000e+00 0.0000e+00 -1.0000e+00
</event>
<event>
 5      1 +2.4041262e-06 9.11880000e+01 7.81860800e-03 1.13011600e-01
       25 -1    0    0    0    0 +0.0000000000e+00 +0.0000000000e+00 +9.9999998245e-15 1.2500000000e+02 1.2500000000e+02 0.0000e+00 0.0000e+00
       23  2    1    0    0    0 -2.3773779288e+01 -1.1849798554e-01 -1.8671755764e+01 9.4770195391e+01 8.9819534889e+01 0.0000e+00 0.0000e+00
      -11  1    2    2    0    0 -5.1908467986e+01 +2.0436365947e+01 -2.1558936792e+01 5.9807372937e+01 5.1100000000e-04 0.0000e+00 -1.0000e+00
       11  1    2    2    0    0 +2.8134688698e+01 -2.0554863932e+01 +2.8871810277e+00 3.4962822454e+01 5.1100000000e-04 0.0000e+00 1.0000e+00
       22  1    1    0    0    0 +2.3773779288e+01 +1.1849798554e-01 +1.8671755764e+01 3.0229804609e+01 0.0000000000e+00 0.0000e+00 -1.0000e+00
</event>
<event>
 5      1 +2.4041262e-06 9.11880000e+01 7.81860800e-03 1.13011600e-01
       25 -1    0    0    0    0 +0.0000000000e+00 +0.0000000000e+00 +9.9999998245e-15 1.2500000000e+02 1.2500000000e+02 0.0000e+00 0.0000e+00
       23  2    1    0    0    0 -2.6305555681e+01 +1.8446507989e+00 +1.2384564271e+01 9.5866472434e+01 9.1332459227e+01 0.0000e+00 0.0000e+00
      -13  1    2    2    0    0 +3.3857002364e+01 -3.3254573083e-01 +1.1164799077e+01 3.5652084066e+01 1.0566000000e-01 0.0000e+00 -1.0000e+00
       13  1    2    2    0    0 -6.0162558046e+01 +2.1771965297e+00 +1.2197651943e+00 6.0214388368e+01 1.0566000000e-01 0.0000e+00 1.0000e+00
       22  1    1    0    0    0 +2.6305555681e+01 -1.8446507989e+00 -1.2384564271e+01 2.9133527566e+01 0.0000000000e+00 0.0000e+00 1.0000e+00
</event>
<event>
 4      1 +2.4041262e-06 9.11880000e+01 7.81860800e-03 1.13011600e-01
       25 -1    0    0    0    0 +0.0000000000e+00 +0.0000000000e+00 +9.9999998245e-15 1.2500000000e+02 1.2500000000e+02 0.0000e+00 0.0000e+00
      -13  1    1    0    0    0 -1.0758330545e+01 -1.6055554741e+01 +5.9403683894e+01 6.2468642841e+01 1.0566000000e-01 0.0000e+00 -1.0000e+00
       13  1    1    0    0    0 +1.0766319001e+01 +1.6064591336e+01 -5.9432700201e+01 6.2499933895e+01 1.0566000000e-01 0.0000e+00 -1.0000e+00
       22  1    1    0    0    0 -7.9884562754e-03 -9.0365952260e-03 +2.9016307148e-02 3.1423264749e-02 0.0000000000e+00 0.0000e+00 -1.0000e+00
</event>
<event>
 4      1 +2.4041262e-06 9.11880000e+01 7.81860800e-03 1.13011600e-01
       25 -1    0    0    0    0 +0.0000000000e+00 +0.0000000000e+00 +9.9999998245e-15 1.2500000000e+02 1.2500000000e+02 0.0000e+00 0.0000e+00
      -13  1    1    0    0    0 +2.1254492085e+01 -5.6739381930e+01 +1.5333882103e+01 6.2500000000e+01 1.0566000000e-01 0.0000e+00 1.0000e+00
       13  1    1    0    0    0 -2.1254492084e+01 +5.6739381929e+01 -1.5333882103e+01 6.2499999999e+01 1.0566000000e-01 0.0000e+00 1.0000e+00
       22  1    1    0    0    0 -3.6166033669e-10 +1.0644389343e-09 -3.8328065390e-10 1.1877426083e-09 0.0000000000e+00 0.0000e+00 1.0000e+00
</event>
<event>
 5      1 +2.4041262e-06 9.11880000e+01 7.81860800e-03 1.13011600e-01
       25 -1    0    0    0    0 +0.0000000000e+00 +0.0000000000e+00 +9.9999998245e-15 1.2500000000e+02 1.2500000000e+02 0.0000e+00 0.0000e+00
       23  2    1    0    0    0 -1.8333495450e+01 +1.0480134732e+01 +6.4743082424e+00 1.0291228969e+02 1.0051404093e+02 0.0000e+00 0.0000e+00
      -13  1    2    2    0    0 -2.6730350309e+00 +5.4414926507e+01 +1.2459772836e+01 5.5887265510e+01 1.0566000000e-01 0.0000e+00 -1.0000e+00
       13  1    2    2    0    0 -1.5660460419e+01 -4.3934791775e+01 -5.9854645932e+00 4.7025024182e+01 1.0566000000e-01 0.0000e+00 1.0000e+00
       22  1    1    0    0    0 +1.8333495450e+01 -1.0480134732e+01 -6.4743082424e+00 2.2087710308e+01 0.0000000000e+00 0.0000e+00 -1.0000e+00
</event>
<event>
 4      1 +2.4041262e-06 9.11880000e+01 7.81860800e-03 1.13011600e-01
       25 -1    0    0    0    0 +0.0000000000e+00 +0.0000000000e+00 +9.9999998245e-15 1.2500000000e+02 1.2500000000e+02 0.0000e+00 0.0000e+00
      -13  1    1    0    0    0 +2.6811323424e+01 -5.5211850492e+01 +1.1791663896e+01 6.2500000000e+01 1.0566000000e-01 0.0000e+00 -1.0000e+00
       13  1    1    0    0    0 -2.6811323418e+01 +5.5211850480e+01 -1.1791663894e+01 6.2499999987e+01 1.0566000000e-01 0.0000e+00 -1.0000e+00
       22  1    1    0    0    0 -5.5849514683e-09 +1.1892871235e-08 -2.1448262102e-09 1.3312864026e-08 0.0000000000e+00 0.0000e+00 -1.0000e+00
</event>
<event>
 4      1 +2.4041262e-06 9.11880000e+01 7.81860800e-03 1.13011600e-01
       25 -1    0    0    0    0 +0.0000000000e+00 +0.0000000000e+00 +9.9999998245e-15 1.2500000000e+02 1.2500000000e+02 0.0000e+00 0.0000e+00
      -13  1    1    0    0    0 -3.3261054948e+01 -1.8641363952e+01 +3.0034018134e+01 4.8537116061e+01 1.0566000000e-01 0.0000e+00 1.0000e+00
       13  1    1    0    0    0 -1.3581352852e+01 +3.1277233787e+00 +6.1896004451e+00 1.5249856279e+01 1.0566000000e-01 0.0000e+00 -1.0000e+00
       22  1    1    0    0    0 +4.6842407800e+01 +1.5513640573e+01 -3.6223618579e+01 6.1213027660e+01 0.0000000000e+00 0.0000e+00 1.0000e+00
</event>
<event>
 5      1 +2.4041262e-06 9.11880000e+01 7.81860800e-03 1.13011600e-01
       25 -1    0    0    0    0 +0.0000000000e+00 +0.0000000000e+00 +9.9999998245e-15 1.2500000000e+02 1.2500000000e+02 0.0000e+00 0.0000e+00
       23  2    1    0    0    0 -2.1841504304e+01 -2.0247785085e+01 -1.1574277085e+01 9.3047097140e+01 8.7388639337e+01 0.0000e+00 0.0000e+00
      -11  1    2    2    0    0 +1.6252802645e+01 -6.8877631542e+00 -3.9968032856e+01 4.3692545425e+01 5.1100000000e-04 0.0000e+00 -1.0000e+00
       11  1    2    2    0    0 -3.8094306949e+01 -1.3360021931e+01 +2.8393755772e+01 4.9354551715e+01 5.1100000000e-04 0.0000e+00 1.0000e+00
       22  1    1    0    0    0 +2.1841504304e+01 +2.0247785085e+01 +1.1574277085e+01 3.1952902860e+01 0.0000000000e+00 0.0000e+00 1.0000e+00
</event>
<event>
 4      1 +2.4041262e-06 9.11880000e+01 7.81860800e-03 1.13011600e-01
       25 -1    0    0    0    0 +0.0000000000e+00 +0.0000000000e+00 +9.9999998245e-15 1.2500000000e+02 1.2500000000e+02 0.0000e+00 0.0000e+00
      -13  1    1    0    0    0 +1.3267599579e+01 +6.1047116582e+01 +1.8598909374e+00 6.2499999999e+01 1.0566000000e-01 0.0000e+00 1.0000e+00
       13  1    1    0    0    0 -1.3267599580e+01 -6.1047116583e+01 -1.8598909375e+00 6.2500000000e+01 1.0566000000e-01 0.0000e+00 1.0000e+00
       22  1    1    0    0    0 +3.9112258185e-10 +5.3868392644e-10 +1.2182103924e-10 6.7675520850e-10 0.0000000000e+00 0.0000e+00 1.0000e+00
</event>
<event>
 5      1 +2.4041262e-06 9.11880000e+01 7.81860800e-03 1.13011600e-01
       25 -1    0    0    0    0 +0.0000000000e+00 +0.0000000000e+00 +9.9999998245e-15 1.2500000000e+02 1.2500000000e+02 0.0000e+00 0.0000e+00
       23  2    1    0    0    0 -1.0269213326e+01 +1.1100619221e+01 -2.5923943097e+01 9.4987813889e+01 9.0121881207e+01 0.0000e+00 0.0000e+00
      -13  1    2    2    0    0 -4.1282931211e+01 +1.0877958913e+01 -4.2142546152e+01 5.9988463556e+01 1.0566000000e-01 0.0000e+00 -1.0000e+00
       13  1    2    2    0    0 +3.1013717886e+01 +2.2266030755e-01 +1.6218603055e+01 3.4999350334e+01 1.0566000000e-01 0.0000e+00 1.0000e+00
       22  1    1    0    0    0 +1.0269213326e+01 -1.1100619221e+01 +2.5923943097e+01 3.0012186111e+01 0.0000000000e+00 0.0000e+00 -1.0000e+00
</event>
<event>
 4      1 +2.4041262e-06 9.11880000e+01 7.81860800e-03 1.13011600e-01
       25 -1    0    0    0    0 +0.0000000000e+00 +0.0000000000e+00 +9.9999998245e-15 1.2500000000e+02 1.2500000000e+02 0.0000e+00 0.0000e+00
      -13  1    1    0    0    0 +5.7469603458e+00 -4.2138700557e+00 +1.0330373529e+01 1.2550379889e+01 1.0566000000e-01 0.0000e+00 -1.0000e+00
       13  1    1    0    0    0 +2.2282356042e+01 -1.7461776618e+01 +4.1153945127e+01 4.9950729694e+01 1.0566000000e-01 0.0000e+00 1.0000e+00
       22  1    1    0    0    0 -2.8029316388e+01 +2.1675646674e+01 -5.1484318656e+01 6.2498890417e+01 0.0000000000e+00 0.0000e+00 1.0000e+00
</event>
<event>
 4      1 +2.4041262e-06 9.11880000e+01 7.81860800e-03 1.13011600e-01
       25 -1    0    0    0    0 +0.0000000000e+00 +0.0000000000e+00 +9.9999998245e-15 1.2500000000e+02 1.2500000000e+02 0.0000e+00 0.0000e+00
      -13  1    1    0    0    0 -5.7572086002e+01 +2.3917495941e+01 +4.4325091164e+00 6.2499999999e+01 1.0566000000e-01 0.0000e+00 -1.0000e+00
       13  1    1    0    0    0 +5.7571988320e+01 -2.3917455178e+01 -4.4325022612e+00 6.2499893933e+01 1.0566000000e-01 0.0000e+00 -1.0000e+00
       22  1    1    0    0    0 +9.7682209258e-05 -4.0762897231e-05 -6.8551366463e-06 1.0606800033e-04 0.0000000000e+00 0.0000e+00 -1.0000e+00
</event>
<event>
 4      1 +2.4041262e-06 9.11880000e+01 7.81860800e-03 1.13011600e-01
       25 -1    0    0    0    0 +0.0000000000e+00 +0.0000000000e+00 +9.9999998245e-15 1.2500000000e+02 1.2500000000e+02 0.0000e+00 0.0000e+00
      -11  1    1    0    0    0 +1.0900385435e+01 -1.0377341313e+01 +6.0731471381e+00 1.6229317046e+01 5.1100000000e-04 0.0000e+00 1.0000e+00
       11  1    1    0    0    0 +3.1103112836e+01 -2.9559768443e+01 +1.7314523938e+01 4.6270684866e+01 5.1100000000e-04 0.0000e+00 -1.0000e+00
       22  1    1    0    0    0 -4.2003498272e+01 +3.9937109755e+01 -2.3387671076e+01 6.2499998088e+01 0.0000000000e+00 0.0000e+00 -1.0000e+00
</event>
<event>
 4      1 +2.4041262e-06 9.11880000e+01 7.81860800e-03 1.13011600e-01
       25 -1    0    0    0    0 +0.0000000000e+00 +0.0000000000e+00 +9.9999998245e-15 1.2500000000e+02 1.2500000000e+02 0.0000e+00 0.0000e+00
      -13  1    1    0    0    0 +4.3634596175e+01 +2.2346430646e+01 +3.8767224971e+01 6.2499998736e+01 1.0566000000e-01 0.0000e+00 1.0000e+00
       13  1    1    0    0    0 -4.3634447160e+01 -2.2346323250e+01 -3.8767052836e+01 6.2499749531e+01 1.0566000000e-01 0.0000e+00 1.0000e+00
       22  1    1    0    0    0 -1.4901531915e-04 -1.0739514116e-04 -1.7213484205e-04 2.5173336198e-04 0.0000000000e+00 0.0000e+00 1.0000e+00
</event>
<event>
 4      1 +2.4041262e-06 9.11880000e+01 7.81860800e-03 1.13011600e-01
       25 -1    0    0    0    0 +0.0000000000e+00 +0.0000000000e+00 +9.9999998245e-15 1.2500000000e+02 1.2500000000e+02 0.0000e+00 0.0000e+00
      -13  1    1    0    0    0 -2.8106624182e+01 -1.1627713436e+01 -4.3361914768e+00 3.0724579138e+01 1.0566000000e-01 0.0000e+00 -1.0000e+00
       13  1    1    0    0    0 +3.0372950806e+01 -3.5653230607e+01 +1.7400157738e+00 4.6869049621e+01 1.0566000000e-01 0.0000e+00 1.0000e+00
       22  1    1    0    0    0 -2.2663266237e+00 +4.7280944043e+01 +2.5961757030e+00 4.7406371241e+01 0.0000000000e+00 0.0000e+00 1.0000e+00
</event>
<event>
 4      1 +2.4041262e-06 9.11880000e+01 7.81860800e-03 1.13011600e-01
       25 -1    0    0    0    0 +0.0000000000e+00 +0.0000000000e+00 +9.9999998245e-15 1.2500000000e+02 1.2500000000e+02 0.0000e+00 0.0000e+00
      -13  1    1    0    0    0 +2.7316912106e+01 +3.8146158155e+01 +4.1290349499e+01 6.2499977558e+01 1.0566000000e-01 0.0000e+00 1.0000e+00
       13  1    1    0    0    0 -2.7316756869e+01 -3.8146054574e+01 -4.1290332129e+01 6.2499835014e+01 1.0566000000e-01 0.0000e+00 1.0000e+00
       22  1    1    0    0    0 -1.5523710244e-04 -1.0358070043e-04 -1.7369358308e-05 1.8742789035e-04 0.0000000000e+00 0.0000e+00 1.0000e+00
</event>
<event>
 4      1 +2.4041262e-06 9.11880000e+01 7.81860800e-03 1.13011600e-01
       25 -1    0    0    0    0 +0.0000000000e+00 +0.0000000000e+00 +9.9999998245e-15 1.2500000000e+02 1.2500000000e+02 0.0000e+00 0.0000e+00
      -11  1    1    0    0    0 +2.7497603802e+01 -3.4479110820e+01 -3.0253709352e+01 5.3480970706e+01 5.1100000000e-04 0.0000e+00 1.0000e+00
       11  1    1    0    0    0 +4.6362527629e+00 -5.8118664437e+00 -5.1059052195e+00 9.0190298598e+00 5.1100000000e-04 0.0000e+00 -1.0000e+00
       22  1    1    0    0    0 -3.2133856565e+01 +4.0290977264e+01 +3.5359614572e+01 6.2499999434e+01 0.0000000000e+00 0.0000e+00 1.0000e+00
</event>
<event>
 4      1 +2.4041262e-06 9.11880000e+01 7.81860800e-03 1.13011600e-01
       25 -1    0    0    0    0 +0.0000000000e+00 +0.0000000000e+00 +9.9999998245e-15 1.2500000000e+02 1.2500000000e+02 0.0000e+00 0.0000e+00
      -13  1    1    0    0    0 -4.4996986427e+01 -2.6972485823e+01 +3.3932382554e+01 6.2479288799e+01 1.0566000000e-01 0.0000e+00 1.0000e+00
       13  1    1    0    0    0 +4.4977124471e+01 +2.7009789168e+01 -3.3926827952e+01 6.2478086203e+01 1.0566000000e-01 0.0000e+00 1.0000e+00
       22  1    1    0    0    0 +1.9861956088e-02 -3.7303345214e-02 -5.5546017459e-03 4.2624998116e-02 0.0000000000e+00 0.0000e+00 -1.0000e+00
</event>
<event>
 4      1 +2.4041262e-06 9.11880000e+01 7.81860800e-03 1.13011600e-01
       25 -1    0    0    0    0 +0.0000000000e+00 +0.0000000000e+00 +9.9999998245e-15 1.2500000000e+02 1.2500000000e+02 0.0000e+00 0.0000e+00
      -13  1    1    0    0    0 -3.5667416398e+01 +2.8396044782e+00 +5.1244618151e+01 6.2499999996e+01 1.0566000000e-01 0.0000e+00 1.0000e+00
       13  1    1    0    0    0 +3.5666818221e+01 -2.8395555494e+00 -5.1243764263e+01 6.2498956292e+01 1.0566000000e-01 0.0000e+00 1.0000e+00
       22  1    1    0    0    0 +5.9817675186e-04 -4.8928735573e-05 -8.5388798455e-04 1.0437117120e-03 0.0000000000e+00 0.0000e+00 1.0000e+00
</event>
<event>
 4      1 +2.4041262e-06 9.11880000e+01 7.81860800e-03 1.13011600e-01
       25 -1    0    0    0    0 +0.0000000000e+00 +0.0000000000e+00 +9.9999998245e-15 1.2500000000e+02 1.2500000000e+02 0.0000e+00 0.0000e+00
      -13  1    1    0    0    0 +7.3021966153e+00 -5.8665868477e+01 +2.0278870778e+01 6.2499999709e+01 1.0566000000e-01 0.0000e+00 1.0000e+00
       13  1    1    0    0    0 -7.3021964203e+00 +5.8665868673e+01 -2.0278870994e+01 6.2499999940e+01 1.0566000000e-01 0.0000e+00 1.0000e+00
       22  1    1    0    0    0 -1.9499586579e-07 -1.9532790697e-07 +2.1611981961e-07 3.5054836378e-07 0.0000000000e+00 0.0000e+00 1.0000e+00
</event>
<event>
 4      1 +2.4041262e-06 9.11880000e+01 7.81860800e-03 1.13011600e-01
       25 -1    0    0    0    0 +0.0000000000e+00 +0.0000000000e+00 +9.9999998245e-15 1.2500000000e+02 1.2500000000e+02 0.0000e+00 0.0000e+00
      -13  1    1    0    0    0 +3.5486965424e+01 +4.9063220832e+01 +1.5482715582e+01 6.2499999994e+01 1.0566000000e-01 0.0000e+00 -1.0000e+00
       13  1    1    0    0    0 -3.5486965427e+01 -4.9063220837e+01 -1.5482715584e+01 6.2500000000e+01 1.0566000000e-01 0.0000e+00 -1.0000e+00
       22  1    1    0    0    0 +2.7955029018e-09 +4.6908511595e-09 +1.6057813060e-09 5.6918762002e-09 0.0000000000e+00 0.0000e+00 -1.0000e+00
</event>
<event>
 4      1 +2.4041262e-06 9.11880000e+01 7.81860800e-03 1.13011600e-01
       25 -1    0    0    0    0 +0.0000000000e+00 +0.0000000000e+00 +9.9999998245e-15 1.2500000000e+02 1.2500000000e+02 0.0000e+00 0.0000e+00
      -11  1    1    0    0    0 -3.4617878658e+00 -4.3357875677e+00 -2.1536411863e+00 5.9515711943e+00 5.1100000000e-04 0.0000e+00 -1.0000e+00
       11  1    1    0    0    0 -5.4558976804e+01 +2.0402504782e+01 +6.9059191721e+00 5.8656933701e+01 5.1100000000e-04 0.0000e+00 1.0000e+00
       22  1    1    0    0    0 +5.8020764670e+01 -1.6066717214e+01 -4.7522779858e+00 6.0391495105e+01 0.0000000000e+00 0.0000e+00 1.0000e+00
</event>
<event>
 4      1 +2.4041262e-06 9.11880000e+01 7.81860800e-03 1.13011600e-01
       25 -1    0    0    0    0 +0.0000000000e+00 +0.0000000000e+00 +9.9999998245e-15 1.2500000000e+02 1.2500000000e+02 0.0000e+00 0.0000e+00
      -13  1    1    0    0    0 +1.8942430377e+01 +4.9286399033e+01 +3.3261051692e+01 6.2404114623e+01 1.0566000000e-01 0.0000e+00 -1.0000e+00
       13  1    1    0    0    0 -1.8969129277e+01 -4.9363676361e+01 -3.3311191060e+01 6.2499976186e+01 1.0566000000e-01 0.0000e+00 -1.0000e+00
       22  1    1    0    0    0 +2.6698900364e-02 +7.7277327491e-02 +5.0139368253e-02 9.5909190767e-02 0.0000000000e+00 0.0000e+00 -1.0000e+00
</event>
<event>
 4      1 +2.4041262e-06 9.11880000e+01 7.81860800e-03 1.13011600e-01
       25 -1    0    0    0    0 +0.0000000000e+00 +0.0000000000e+00 +9.9999998245e-15 1.2500000000e+02 1.2500000000e+02 0.0000e+00 0.0000e+00
      -11  1    1    0    0    0 +3.2910422338e+00 -1.6375740120e+01 -2.8739842352e+01 3.3241154645e+01 5.1100000000e-04 0.0000e+00 -1.0000e+00
       11  1    1    0    0    0 +2.9357374243e+00 -1.4377185967e+01 -2.5313214635e+01 2.9258859615e+01 5.1100000000e-04 0.0000e+00 1.0000e+00
       22  1    1    0    0    0 -6.2267796582e+00 +3.0752926087e+01 +5.4053056987e+01 6.2499985740e+01 0.0000000000e+00 0.0000e+00 -1.0000e+00
</event>
<event>
 5      1 +2.4041262e-06 9.11880000e+01 7.81860800e-03 1.13011600e-01
       25 -1    0    0    0    0 +0.0000000000e+00 +0.0000000000e+00 +9.9999998245e-15 1.2500000000e+02 1.2500000000e+02 0.0000e+00 0.0000e+00
       23  2    1    0    0    0 +8.4941246169e+00 +2.6784059916e+01 -1.0240836140e+01 9.5093299356e+01 9.0268072090e+01 0.0000e+00 0.0000e+00
      -13  1    2    2    0    0 +1.2313617593e+01 +4.4269653650e+01 +2.7339428979e+01 5.3468523016e+01 1.0566000000e-01 0.0000e+00 -1.0000e+00
       13  1    2    2    0    0 -3.8194929765e+00 -1.7485593735e+01 -3.7580265119e+01 4.1624776340e+01 1.0566000000e-01 0.0000e+00 1.0000e+00
       22  1    1    0    0    0 -8.4941246169e+00 -2.6784059916e+01 +1.0240836140e+01 2.9906700644e+01 0.0000000000e+00 0.0000e+00 1.0000e+00
</event>
<event>
 4      1 +2.4041262e-06 9.11880000e+01 7.81860800e-03 1.13011600e-01
       25 -1    0    0    0    0 +0.0000000000e+00 +0.0000000000e+00 +9.9999998245e-15 1.2500000000e+02 1.2500000000e+02 0.0000e+00 0.0000e+00
      -13  1    1    0    0    0 -3.0133747851e+01 +5.4456670142e+01 -5.7155186533e+00 6.2500000000e+01 1.0566000000e-01 0.0000e+00 1.0000e+00
       13  1    1    0    0    0 +3.0133747282e+01 -5.4456669044e+01 +5.7155185374e+00 6.2499998758e+01 1.0566000000e-01 0.0000e+00 1.0000e+00
       22  1    1    0    0    0 +5.6869964736e-07 -1.0977968105e-06 +1.1593303104e-07 1.2417800102e-06 0.0000000000e+00 0.0000e+00 1.0000e+00
</event>
<event>
 4      1 +2.4041262e-06 9.11880000e+01 7.81860800e-03 1.13011600e-01
       25 -1    0    0    0    0 +0.0000000000e+00 +0.0000000000e+00 +9.9999998245e-15 1.2500000000e+02 1.2500000000e+02 0.0000e+00 0.0000e+00
      -13  1    1    0    0    0 +4.5452245820e+01 -1.9351875401e+01 -3.8286252067e+01 6.2499999944e+01 1.0566000000e-01 0.0000e+00 -1.0000e+00
       13  1    1    0    0    0 -4.5452245858e+01 +1.9351875455e+01 +3.8286252068e+01 6.2499999989e+01 1.0566000000e-01 0.0000e+00 -1.0000e+00
       22  1    1    0    0    0 +3.8249920289e-08 -5.4397779417e-08 -1.2013793091e-09 6.6510285819e-08 0.0000000000e+00 0.0000e+00 -1.0000e+00
</event>
<event>
 5      1 +2.4041262e-06 9.11880000e+01 7.81860800e-03 1.13011600e-01
       25 -1    0    0    0    0 +0.0000000000e+00 +0.0000000000e+00 +9.9999998245e-15 1.2500000000e+02 1.2500000000e+02 0.0000e+00 0.0000e+00
       23  2    1    0    0    0 -1.5999973327e+00 +7.3806088582e+00 +2.8470304408e+01 9.5545091892e+01 9.0891545112e+01 0.0000e+00 0.0000e+00
      -13  1    2    2    0    0 -7.7095657532e+00 -4.1357776262e+01 +1.3983270527e+01 4.4333351781e+01 1.0566000000e-01 0.0000e+00 -1.0000e+00
       13  1    2    2    0    0 +6.1095684205e+00 +4.8738385121e+01 +1.4487033881e+01 5.1211740111e+01 1.0566000000e-01 0.0000e+00 1.0000e+00
       22  1    1    0    0    0 +1.5999973327e+00 -7.3806088582e+00 -2.8470304408e+01 2.9454908108e+01 0.0000000000e+00 0.0000e+00 1.0000e+00
</event>
<event>
 4      1 +2.4041262e-06 9.11880000e+01 7.81860800e-03 1.13011600e-01
       25 -1    0    0    0    0 +0.0000000000e+00 +0.0000000000e+00 +9.9999998245e-15 1.2500000000e+02 1.2500000000e+02 0.0000e+00 0.0000e+00
      -13  1    1    0    0    0 -5.0415771394e+01 +2.1326832385e+01 +3.0958280188e+00 5.4828633942e+01 1.0566000000e-01 0.0000e+00 -1.0000e+00
       13  1    1    0    0    0 -7.4467903139e+00 +2.0054503751e+00 -2.5431143034e-01 7.7170172687e+00 1.0566000000e-01 0.0000e+00 1.0000e+00
       22  1    1    0    0    0 +5.7862561708e+01 -2.3332282760e+01 -2.8415165885e+00 6.2454348789e+01 0.0000000000e+00 0.0000e+00 -1.0000e+00
</event>
<event>
 5      1 +2.4041262e-06 9.11880000e+01 7.81860800e-03 1.13011600e-01
       25 -1    0    0    0    0 +0.0000000000e+00 +0.0000000000e+00 +9.9999998245e-15 1.2500000000e+02 1.2500000000e+02 0.0000e+00 0.0000e+00
       23  2    1    0    0    0 -1.2372585963e+01 +2.4985572544e+01 +8.3088923167e+00 9.5907090034e+01 9.1388032633e+01 0.0000e+00 0.0000e+00
      -13  1    2    2    0    0 +2.3988022984e+01 +1.9687894407e+01 +3.7717286516e+01 4.8843047602e+01 1.0566000000e-01 0.0000e+00 -1.0000e+00
       13  1    2    2    0    0 -3.6360608947e+01 +5.2976781373e+00 -2.9408394199e+01 4.7064042432e+01 1.0566000000e-01 0.0000e+00 1.0000e+00
       22  1    1    0    0    0 +1.2372585963e+01 -2.4985572544e+01 -8.3088923167e+00 2.9092909966e+01 0.0000000000e+00 0.0000e+00 1.0000e+00
</event>
<event>
 4      1 +2.4041262e-06 9.11880000e+01 7.81860800e-03 1.13011600e-01
       25 -1    0    0    0    0 +0.0000000000e+00 +0.0000000000e+00 +9.9999998245e-15 1.2500000000e+02 1.2500000000e+02 0.0000e+00 0.0000e+00
      -13  1    1    0    0    0 -4.7427241341e+01 +3.6586423277e+01 +1.7837886235e+01 6.2498887500e+01 1.0566000000e-01 0.0000e+00 1.0000e+00
       13  1    1    0    0    0 +4.7427709702e+01 -3.6587421711e+01 -1.7838282732e+01 6.2499940560e+01 1.0566000000e-01 0.0000e+00 1.0000e+00
       22  1    1    0    0    0 -4.6836143240e-04 +9.9843412769e-04 +3.9649721096e-04 1.1719399204e-03 0.0000000000e+00 0.0000e+00 1.0000e+00
</event>
<event>
 4      1 +2.4041262e-06 9.11880000e+01 7.81860800e-03 1.13011600e-01
       25 -1    0    0    0    0 +0.0000000000e+00 +0.0000000000e+00 +9.9999998245e-15 1.2500000000e+02 1.2500000000e+02 0.0000e+00 0.0000e+00
      -13  1    1    0    0    0 -1.5620663781e+00 +4.1372006171e+01 +4.6820445793e+01 6.2499986034e+01 1.0566000000e-01 0.0000e+00 1.0000e+00
       13  1    1    0    0    0 +1.5620764054e+00 -4.1372020169e+01 -4.6820381411e+01 6.2499947321e+01 1.0566000000e-01 0.0000e+00 1.0000e+00
       22  1    1    0    0    0 -1.0027297191e-05 +1.3998759207e-05 -6.4382291564e-05 6.6645265514e-05 0.0000000000e+00 0.0000e+00 1.0000e+00
</event>
<event>
 4      1 +2.4041262e-06 9.11880000e+01 7.81860800e-03 1.13011600e-01
       25 -1    0    0    0    0 +0.0000000000e+00 +0.0000000000e+00 +9.9999998245e-15 1.2500000000e+02 1.2500000000e+02 0.0000e+00 0.0000e+00
      -13  1    1    0    0    0 +2.3864497499e+01 +1.1805885563e+01 -5.6545073985e+01 6.2499997846e+01 1.0566000000e-01 0.0000e+00 1.0000e+00
       13  1    1    0    0    0 -2.3857872962e+01 -1.1802174923e+01 +5.6528855689e+01 6.2482094433e+01 1.0566000000e-01 0.0000e+00 1.0000e+00
       22  1    1    0    0    0 -6.6245374313e-03 -3.7106405584e-03 +1.6218295886e-02 1.7907720988e-02 0.0000000000e+00 0.0000e+00 -1.0000e+00
</event>
<event>
 4      1 +2.4041262e-06 9.11880000e+01 7.81860800e-03 1.13011600e-01
       25 -1    0    0    0    0 +0.0000000000e+00 +0.0000000000e+00 +9.9999998245e-15 1.2500000000e+02 1.2500000000e+02 0.0000e+00 0.0000e+00
      -13  1    1    0    0    0 -1.6553997721e+01 +3.5600940755e+01 -4.8628972977e+01 6.2500000000e+01 1.0566000000e-01 0.0000e+00 1.0000e+00
       13  1    1    0    0    0 +1.6553989437e+01 -3.5600922990e+01 +4.8628948740e+01 6.2499968828e+01 1.0566000000e-01 0.0000e+00 1.0000e+00
       22  1    1    0    0    0 +8.2846672691e-06 -1.7765226678e-05 +2.4237006601e-05 3.1171645443e-05 0.0000000000e+00 0.0000e+00 -1.0000e+00
</event>
<event>
 4      1 +2.4041262e-06 9.11880000e+01 7.81860800e-03 1.13011600e-01
       25 -1    0    0    0    0 +0.0000000000e+00 +0.0000000000e+00 +9.9999998245e-15 1.2500000000e+02 1.2500000000e+02 0.0000e+00 0.0000e+00
      -13  1    1    0    0    0 -3.3319429634e+01 +3.3219823474e+01 +4.1139976143e+01 6.2499998911e+01 1.0566000000e-01 0.0000e+00 1.0000e+00
       13  1    1    0    0    0 +3.3319430216e+01 -3.3219824056e+01 -4.1139976856e+01 6.2500000000e+01 1.0566000000e-01 0.0000e+00 1.0000e+00
       22  1    1    0    0    0 -5.8250701953e-07 +5.8223611028e-07 +7.1315985674e-07 1.0894541281e-06 0.0000000000e+00 0.0000e+00 1.0000e+00
</event>
<event>
 5      1 +2.4041262e-06 9.11880000e+01 7.81860800e-03 1.13011600e-01
       25 -1    0    0    0    0 +0.0000000000e+00 +0.0000000000e+00 +9.9999998245e-15 1.2500000000e+02 1.2500000000e+02 0.0000e+00 0.0000e+00
       23  2    1    0    0    0 -1.1414599376e+00 -1.3320582900e+01 +2.4816326691e+01 9.6811510682e+01 9.2616832545e+01 0.0000e+00 0.0000e+00
      -13  1    2    2    0    0 +2.2126763111e+01 +2.9283436259e+01 -8.8259400752e+00 3.7749459164e+01 1.0566000000e-01 0.0000e+00 -1.0000e+00
       13  1    2    2    0    0 -2.3268223049e+01 -4.2604019159e+01 +3.3642266766e+01 5.9062051518e+01 1.0566000000e-01 0.0000e+00 1.0000e+00
       22  1    1    0    0    0 +1.1414599376e+00 +1.3320582900e+01 -2.4816326691e+01 2.8188489318e+01 0.0000000000e+00 0.0000e+00 1.0000e+00
</event>
<event>
 5      1 +2.4041262e-06 9.11880000e+01 7.81860800e-03 1.13011600e-01
       25 -1    0    0    0    0 +0.0000000000e+00 +0.0000000000e+00 +9.9999998245e-15 1.2500000000e+02 1.2500000000e+02 0.0000e+00 0.0000e+00
       23  2    1    0    0    0 +1.7246353157e+01 -6.4956745926e+00 +2.3554572453e+01 9.5092670312e+01 9.0267201009e+01 0.0000e+00 0.0000e+00
      -11  1    2    2    0    0 -1.9101687962e+01 -3.7581611780e+01 +8.9132479241e-01 4.2166888516e+01 5.1100000000e-04 0.0000e+00 1.0000e+00
       11  1    2    2    0    0 +3.6348041119e+01 +3.1085937187e+01 +2.2663247661e+01 5.2925781796e+01 5.1100000000e-04 0.0000e+00 -1.0000e+00
       22  1    1    0    0    0 -1.7246353157e+01 +6.4956745926e+00 -2.3554572453e+01 2.9907329688e+01 0.0000000000e+00 0.0000e+00 -1.0000e+00
</event>
<event>
 4      1 +2.4041262e-06 9.11880000e+01 7.81860800e-03 1.13011600e-01
       25 -1    0    0    0    0 +0.0000000000e+00 +0.0000000000e+00 +9.9999998245e-15 1.2500000000e+02 1.2500000000e+02 0.0000e+00 0.0000e+00
      -13  1    1    0    0    0 +1.4431738023e+01 -6.0802945158e+01 +9.8266666485e-01 6.2500000000e+01 1.0566000000e-01 0.0000e+00 -1.0000e+00
       13  1    1    0    0    0 -1.4431738017e+01 +6.0802945135e+01 -9.8266666487e-01 6.2499999976e+01 1.0566000000e-01 0.0000e+00 -1.0000e+00
       22  1    1    0    0    0 -5.7030767044e-09 +2.2818843675e-08 +2.3047078848e-11 2.3520740672e-08 0.0000000000e+00 0.0000e+00 1.0000e+00
</event>
<event>
 5      1 +2.4041262e-06 9.11880000e+01 7.81860800e-03 1.13011600e-01
       25 -1    0    0    0    0 +0.0000000000e+00 +0.0000000000e+00 +9.9999998245e-15 1.2500000000e+02 1.2500000000e+02 0.0000e+00 0.0000e+00
       23  2    1    0    0    0 -3.4309573792e+00 -2.0382290910e+01 -2.0678392069e+01 9.5762949023e+01 9.1190664301e+01 0.0000e+00 0.0000e+00
      -13  1    2    2    0    0 +2.0039993606e+01 -3.7086679104e+01 -4.2318659669e+01 5.9731928070e+01 1.0566000000e-01 0.0000e+00 -1.0000e+00
       13  1    2    2    0    0 -2.3470950985e+01 +1.6704388194e+01 +2.1640267600e+01 3.6031020953e+01 1.0566000000e-01 0.0000e+00 1.0000e+00
       22  1    1    0    0    0 +3.4309573792e+00 +2.0382290910e+01 +2.0678392069e+01 2.9237050977e+01 0.0000000000e+00 0.0000e+00 -1.0000e+00
</event>
<event>
 4      1 +2.4041262e-06 9.11880000e+01 7.81860800e-03 1.13011600e-01
       25 -1    0    0    0    0 +0.0000000000e+00 +0.0000000000e+00 +9.9999998245e-15 1.2500000000e+02 1.2500000000e+02 0.0000e+00 0.0000e+00
      -13  1    1    0    0    0 -5.2846515790e+01 -2.2960782294e+01 -2.4213298870e+01 6.2499974087e+01 1.0566000000e-01 0.0000e+00 1.0000e+00
       13  1    1    0    0    0 +5.2843784714e+01 +2.2959097398e+01 +2.4212362479e+01 6.2496683089e+01 1.0566000000e-01 0.0000e+00 1.0000e+00
       22  1    1    0    0    0 +2.7310759642e-03 +1.6848952833e-03 +9.3639112377e-04 3.3428246102e-03 0.0000000000e+00 0.0000e+00 1.0000e+00
</event>
<event>
 5      1 +2.4041262e-06 9.11880000e+01 7.81860800e-03 1.13011600e-01
       25 -1    0    0    0    0 +0.0000000000e+00 +0.0000000000e+00 +9.9999998245e-15 1.2500000000e+02 1.2500000000e+02 0.0000e+00 0.0000e+00
       23  2    1    0    0    0 +1.8107664095e+01 +1.5612839110e+01 -1.7059822081e+01 9.5628487042e+01 9.1006163310e+01 0.0000e+00 0.0000e+00
      -13  1    2    2    0    0 -3.6456579088e+00 +4.3878745591e+01 -3.4489399470e+01 5.5930000680e+01 1.0566000000e-01 0.0000e+00 1.0000e+00
       13  1    2    2    0    0 +2.1753322003e+01 -2.8265906481e+01 +1.7429577390e+01 3.9698486362e+01 1.0566000000e-01 0.0000e+00 -1.0000e+00
       22  1    1    0    0    0 -1.8107664095e+01 -1.5612839110e+01 +1.7059822081e+01 2.9371512958e+01 0.0000000000e+00 0.0000e+00 1.0000e+00
</event>
<event>
 5      1 +2.4041262e-06 9.11880000e+01 7.81860800e-03 1.13011600e-01
       25 -1    0    0    0    0 +0.0000000000e+00 +0.0000000000e+00 +9.9999998245e-15 1.2500000000e+02 1.2500000000e+02 0.0000e+00 0.0000e+00
       23  2    1    0    0    0 -9.9641360511e+00 +2.3698825034e+01 -7.5866361872e+00 9.8195609243e+01 9.4466408372e+01 0.0000e+00 0.0000e+00
      -11  1    2    2    0    0 -1.4867496971e+01 -2.2406840322e+01 +2.8692045598e+01 3.9323560879e+01 5.1100000000e-04 0.0000e+00 -1.0000e+00
       11  1    2    2    0    0 +4.9033609201e+00 +4.6105665356e+01 -3.6278681785e+01 5.8872048363e+01 5.1100000000e-04 0.0000e+00 1.0000e+00
       22  1    1    0    0    0 +9.9641360511e+00 -2.3698825034e+01 +7.5866361872e+00 2.6804390757e+01 0.0000000000e+00 0.0000e+00 1.0000e+00
</event>
<event>
 4      1 +2.4041262e-06 9.11880000e+01 7.81860800e-03 1.13011600e-01
       25 -1    0    0    0    0 +0.0000000000e+00 +0.0000000000e+00 +9.9999998245e-15 1.2500000000e+02 1.2500000000e+02 0.0000e+00 0.0000e+00
      -13  1    1    0    0    0 +5.4999570037e+01 -8.8091578753e+00 -2.8349335639e+01 6.2499999695e+01 1.0566000000e-01 0.0000e+00 -1.0000e+00
       13  1    1    0    0    0 -5.4999563109e+01 +8.8091566302e+00 +2.8349328146e+01 6.2499990025e+01 1.0566000000e-01 0.0000e+00 -1.0000e+00
       22  1    1    0    0    0 -6.9278258041e-06 +1.2451367579e-06 +7.4926809394e-06 1.0280340635e-05 0.0000000000e+00 0.0000e+00 1.0000e+00
</event>
<event>
 4      1 +2.4041262e-06 9.11880000e+01 7.81860800e-03 1.13011600e-01
       25 -1    0    0    0    0 +0.0000000000e+00 +0.0000000000e+00 +9.9999998245e-15 1.2500000000e+02 1.2500000000e+02 0.0000e+00 0.0000e+00
      -13  1    1    0    0    0 -1.5698400539e+01 +2.5755411490e+01 +5.4739910761e+01 6.2499999957e+01 1.0566000000e-01 0.0000e+00 1.0000e+00
       13  1    1    0    0    0 +1.5698400547e+01 -2.5755411507e+01 -5.4739910800e+01 6.2500000000e+01 1.0566000000e-01 0.0000e+00 1.0000e+00
       22  1    1    0    0    0 -8.3884943757e-09 +1.6625122752e-08 +3.8547761049e-08 4.2809945413e-08 0.0000000000e+00 0.0000e+00 -1.0000e+00
</event>
<event>
 4      1 +2.4041262e-06 9.11880000e+01 7.81860800e-03 1.13011600e-01
       25 -1    0    0    0    0 +0.0000000000e+00 +0.0000000000e+00 +9.9999998245e-15 1.2500000000e+02 1.2500000000e+02 0.0000e+00 0.0000e+00
      -11  1    1    0    0    0 -3.5430581741e+01 +4.7022326037e+01 -6.6680122871e+00 5.9252743874e+01 5.1100000000e-04 0.0000e+00 -1.0000e+00
       11  1    1    0    0    0 -1.9413129320e+00 +2.5764926292e+00 -3.7104880603e-01 3.2472584815e+00 5.1100000000e-04 0.0000e+00 1.0000e+00
       22  1    1    0    0    0 +3.7371894673e+01 -4.9598818666e+01 +7.0390610931e+00 6.2499997645e+01 0.0000000000e+00 0.0000e+00 -1.0000e+00
</event>
<event>
 5      1 +2.4041262e-06 9.11880000e+01 7.81860800e-03 1.13011600e-01
       25 -1    0    0    0    0 +0.0000000000e+00 +0.0000000000e+00 +9.9999998245e-15 1.2500000000e+02 1.2500000000e+02 0.0000e+00 0.0000e+00
       23  2    1    0    0    0 +5.6188071258e+00 -1.7487297224e+01 +2.1809628176e+01 9.6486206165e+01 9.2176740782e+01 0.0000e+00 0.0000e+00
      -13  1    2    2    0    0 +2.8561113702e+01 +7.4295409775e+00 +4.6148360654e+01 5.4777893808e+01 1.0566000000e-01 0.0000e+00 1.0000e+00
       13  1    2    2    0    0 -2.2942306576e+01 -2.4916838201e+01 -2.4338732478e+01 4.1708312356e+01 1.0566000000e-01 0.0000e+00 -1.0000e+00
       22  1    1    0    0    0 -5.6188071258e+00 +1.7487297224e+01 -2.1809628176e+01 2.8513793835e+01 0.0000000000e+00 0.0000e+00 -1.0000e+00
</event>
<event>
 4      1 +2.4041262e-06 9.11880000e+01 7.81860800e-03 1.13011600e-01
       25 -1    0    0    0    0 +0.0000000000e+00 +0.0000000000e+00 +9.9999998245e-15 1.2500000000e+02 1.2500000000e+02 0.0000e+00 0.0000e+00
      -13  1    1    0    0    0 -3.4774861091e+01 -7.2463048749e+00 -5.1418765711e+01 6.2495604081e+01 1.0566000000e-01 0.0000e+00 -1.0000e+00
       13  1    1    0    0    0 +3.3447758597e+01 +7.1721652758e+00 +4.9479156706e+01 6.0153059958e+01 1.0566000000e-01 0.0000e+00 -1.0000e+00
       22  1    1    0    0    0 +1.3271024941e+00 +7.4139599030e-02 +1.9396090046e+00 2.3513359609e+00 0.0000000000e+00 0.0000e+00 1.0000e+00
</event>
<event>
 4      1 +2.4041262e-06 9.11880000e+01 7.81860800e-03 1.13011600e-01
       25 -1    0    0    0    0 +0.0000000000e+00 +0.0000000000e+00 +9.9999998245e-15 1.2500000000e+02 1.2500000000e+02 0.0000e+00 0.0000e+00
      -13  1    1    0    0    0 -3.9683362514e+01 -1.4497621984e+01 +4.6057447112e+01 6.2499999217e+01 1.0566000000e-01 0.0000e+00 -1.0000e+00
       13  1    1    0    0    0 +3.9683363010e+01 +1.4497622157e+01 -4.6057447693e+01 6.2500000000e+01 1.0566000000e-01 0.0000e+00 -1.0000e+00
       22  1    1    0    0    0 -4.9637655545e-07 -1.7284997134e-07 +5.8105455312e-07 7.8351208740e-07 0.0000000000e+00 0.0000e+00 -1.0000e+00
</event>
<event>
 4      1 +2.4041262e-06 9.11880000e+01 7.81860800e-03 1.13011600e-01
       25 -1    0    0    0    0 +0.0000000000e+00 +0.0000000000e+00 +9.9999998245e-15 1.2500000000e+02 1.2500000000e+02 0.0000e+00 0.0000e+00
      -13  1    1    0    0    0 +2.1860623735e+01 -5.0455262285e+01 -2.9708894942e+01 6.2499999720e+01 1.0566000000e-01 0.0000e+00 1.0000e+00
       13  1    1    0    0    0 -2.1860623849e+01 +5.0455262501e+01 +2.9708895079e+01 6.2500000000e+01 1.0566000000e-01 0.0000e+00 1.0000e+00
       22  1    1    0    0    0 +1.1373278244e-07 -2.1657696262e-07 -1.3672443684e-07 2.8023971554e-07 0.0000000000e+00 0.0000e+00 -1.0000e+00
</event>
<event>
 4      1 +2.4041262e-06 9.11880000e+01 7.81860800e-03 1.13011600e-01
       25 -1    0    0    0    0 +0.0000000000e+00 +0.0000000000e+00 +9.9999998245e-15 1.2500000000e+02 1.2500000000e+02 0.0000e+00 0.0000e+00
      -13  1    1    0    0    0 -6.2021786248e+01 -6.0576659122e+00 +4.2542789661e+00 6.2462047191e+01 1.0566000000e-01 0.0000e+00 -1.0000e+00
       13  1    1    0    0    0 +6.2054800272e+01 +6.0538368615e+00 -4.2795767241e+00 6.2496184832e+01 1.0566000000e-01 0.0000e+00 -1.0000e+00
       22  1    1    0    0    0 -3.3014024102e-02 +3.8290507392e-03 +2.5297758015e-02 4.1767977897e-02 0.0000000000e+00 0.0000e+00 1.0000e+00
</event>
<event>
 4      1 +2.4041262e-06 9.11880000e+01 7.81860800e-03 1.13011600e-01
       25 -1    0    0    0    0 +0.0000000000e+00 +0.0000000000e+00 +9.9999998245e-15 1.2500000000e+02 1.2500000000e+02 0.0000e+00 0.0000e+00
      -13  1    1    0    0    0 -2.2435117380e+01 -1.1205577761e+00 -3.4206638676e+01 4.0923042838e+01 1.0566000000e-01 0.0000e+00 -1.0000e+00
       13  1    1    0    0    0 +3.4911954596e+01 +1.0219274125e+00 +5.1820164276e+01 6.2491835459e+01 1.0566000000e-01 0.0000e+00 -1.0000e+00
       22  1    1    0    0    0 -1.2476837216e+01 +9.8630363695e-02 -1.7613525600e+01 2.1585121703e+01 0.0000000000e+00 0.0000e+00 1.0000e+00
</event>
<event>
 4      1 +2.4041262e-06 9.11880000e+01 7.81860800e-03 1.13011600e-01
       25 -1    0    0    0    0 +0.0000000000e+00 +0.0000000000e+00 +9.9999998245e-15 1.2500000000e+02 1.2500000000e+02 0.0000e+00 0.0000e+00
      -11  1    1    0    0    0 -3.9194663731e+01 -4.7476819212e+01 +1.4045863219e+00 6.1581189420e+01 5.1100000000e-04 0.0000e+00 -1.0000e+00
       11  1    1    0    0    0 -5.8517245059e-01 -7.0805585471e-01 +2.1047193001e-02 9.1881071814e-01 5.1100000000e-04 0.0000e+00 -1.0000e+00
       22  1    1    0    0    0 +3.9779836181e+01 +4.8184875067e+01 -1.4256335149e+00 6.2499999862e+01 0.0000000000e+00 0.0000e+00 -1.0000e+00
</event>
<event>
 4      1 +2.4041262e-06 9.11880000e+01 7.81860800e-03 1.13011600e-01
       25 -1    0    0    0    0 +0.0000000000e+00 +0.0000000000e+00 +9.9999998245e-15 1.2500000000e+02 1.2500000000e+02 0.0000e+00 0.0000e+00
      -13  1    1    0    0    0 -5.7444543206e+01 -2.3370805363e+01 +7.7568483032e+00 6.2499999577e+01 1.0566000000e-01 0.0000e+00 1.0000e+00
       13  1    1    0    0    0 +5.7444538261e+01 +2.3370805549e+01 -7.7568455487e+00 6.2499994760e+01 1.0566000000e-01 0.0000e+00 1.0000e+00
       22  1    1    0    0    0 +4.9451175867e-06 -1.8657885524e-07 -2.7544718692e-06 5.6635779233e-06 0.0000000000e+00 0.0000e+00 -1.0000e+00
</event>
<event>
 4      1 +2.4041262e-06 9.11880000e+01 7.81860800e-03 1.13011600e-01
       25 -1    0    0    0    0 +0.0000000000e+00 +0.0000000000e+00 +9.9999998245e-15 1.2500000000e+02 1.2500000000e+02 0.0000e+00 0.0000e+00
      -13  1    1    0    0    0 +3.1890420373e+01 +5.2158360766e+01 -1.2990200985e+01 6.2499999960e+01 1.0566000000e-01 0.0000e+00 -1.0000e+00
       13  1    1    0    0    0 -3.1890047585e+01 -5.2157771009e+01 +1.2990054542e+01 6.2499287137e+01 1.0566000000e-01 0.0000e+00 -1.0000e+00
       22  1    1    0    0    0 -3.7278836443e-04 -5.8975657805e-04 +1.4644311807e-04 7.1290221829e-04 0.0000000000e+00 0.0000e+00 1.0000e+00
</event>
<event>
 5      1 +2.4041262e-06 9.11880000e+01 7.81860800e-03 1.13011600e-01
       25 -1    0    0    0    0 +0.0000000000e+00 +0.0000000000e+00 +9.9999998245e-15 1.2500000000e+02 1.2500000000e+02 0.0000e+00 0.0000e+00
       23  2    1    0    0    0 +1.5443556345e+01 -2.0219917459e+01 +1.4851154967e+01 9.5539767508e+01 9.0884222377e+01 0.0000e+00 0.0000e+00
      -13  1    2    2    0    0 +3.7251002693e+01 +1.2473106298e+01 +3.3880527329e+01 5.1875975928e+01 1.0566000000e-01 0.0000e+00 1.0000e+00
       13  1    2    2    0    0 -2.1807446349e+01 -3.2693023757e+01 -1.9029372361e+01 4.3663791580e+01 1.0566000000e-01 0.0000e+00 -1.0000e+00
       22  1    1    0    0    0 -1.5443556345e+01 +2.0219917459e+01 -1.4851154967e+01 2.9460232492e+01 0.0000000000e+00 0.0000e+00 1.0000e+00
</event>
<event>
 4      1 +2.4041262e-06 9.11880000e+01 7.81860800e-03 1.13011600e-01
       25 -1    0    0    0    0 +0.0000000000e+00 +0.0000000000e+00 +9.9999998245e-15 1.2500000000e+02 1.2500000000e+02 0.0000e+00 0.0000e+00
      -13  1    1    0    0    0 +1.6720633860e+00 +2.6128850113e+01 +5.6751286719e+01 6.2499858500e+01 1.0566000000e-01 0.0000e+00 -1.0000e+00
       13  1    1    0    0    0 -1.6720543549e+00 -2.6128936767e+01 -5.6751400731e+01 6.2499998011e+01 1.0566000000e-01 0.0000e+00 -1.0000e+00
       22  1    1    0    0    0 -9.0310425559e-06 +8.6653916169e-05 +1.1401210121e-04 1.4348944260e-04 0.0000000000e+00 0.0000e+00 1.0000e+00
</event>
<event>
 5      1 +2.4041262e-06 9.11880000e+01 7.81860800e-03 1.13011600e-01
       25 -1    0    0    0    0 +0.0000000000e+00 +0.0000000000e+00 +9.9999998245e-15 1.2500000000e+02 1.2500000000e+02 0.0000e+00 0.0000e+00
       23  2    1    0    0    0 +4.2318397817e+00 -3.0534324379e+01 +5.7660922690e+00 9.3639176457e+01 8.8231480291e+01 0.0000e+00 0.0000e+00
      -13  1    2    2    0    0 +4.1117552832e+01 -3.2192751744e+01 +1.7209051280e+01 5.4983534133e+01 1.0566000000e-01 0.0000e+00 1.0000e+00
       13  1    2    2    0    0 -3.6885713050e+01 +1.6584273646e+00 -1.1442959011e+01 3.8655642325e+01 1.0566000000e-01 0.0000e+00 -1.0000e+00
       22  1    1    0    0    0 -4.2318397817e+00 +3.0534324379e+01 -5.7660922690e+00 3.1360823543e+01 0.0000000000e+00 0.0000e+00 -1.0000e+00
</event>
<event>
 4      1 +2.4041262e-06 9.11880000e+01 7.81860800e-03 1.13011600e-01
       25 -1    0    0    0    0 +0.0000000000e+00 +0.0000000000e+00 +9.9999998245e-15 1.2500000000e+02 1.2500000000e+02 0.0000e+00 0.0000e+00
      -13  1    1    0    0    0 -1.4398241066e+01 +4.6246126362e+01 +3.9499678330e+01 6.2499994412e+01 1.0566000000e-01 0.0000e+00 -1.0000e+00
       13  1    1    0    0    0 +1.4398242087e+01 -4.6246126468e+01 -3.9499684938e+01 6.2499998901e+01 1.0566000000e-01 0.0000e+00 -1.0000e+00
       22  1    1    0    0    0 -1.0208501832e-06 +1.0570310010e-07 +6.6074188781e-06 6.6866503179e-06 0.0000000000e+00 0.0000e+00 -1.0000e+00
</event>
<event>
 4      1 +2.4041262e-06 9.11880000e+01 7.81860800e-03 1.13011600e-01
       25 -1    0    0    0    0 +0.0000000000e+00 +0.0000000000e+00 +9.9999998245e-15 1.2500000000e+02 1.2500000000e+02 0.0000e+00 0.0000e+00
      -13  1    1    0    0    0 -1.7872226481e+01 -8.1812804159e+00 -9.6750790917e+00 2.1908175371e+01 1.0566000000e-01 0.0000e+00 -1.0000e+00
       13  1    1    0    0    0 -3.4363748616e+01 -1.3832800880e+01 -1.6624268052e+01 4.0602845362e+01 1.0566000000e-01 0.0000e+00 1.0000e+00
       22  1    1    0    0    0 +5.2235975097e+01 +2.2014081296e+01 +2.6299347144e+01 6.2488979267e+01 0.0000000000e+00 0.0000e+00 -1.0000e+00
</event>
<event>
 4      1 +2.4041262e-06 9.11880000e+01 7.81860800e-03 1.13011600e-01
       25 -1    0    0    0    0 +0.0000000000e+00 +0.0000000000e+00 +9.9999998245e-15 1.2500000000e+02 1.2500000000e+02 0.0000e+00 0.0000e+00
      -13  1    1    0    0    0 -4.9690067866e+01 +2.8217968088e+01 +2.5314532314e+01 6.2499546221e+01 1.0566000000e-01 0.0000e+00 -1.0000e+00
       13  1    1    0    0    0 +4.9656231072e+01 -2.8193988590e+01 -2.5286949345e+01 6.2450646499e+01 1.0566000000e-01 0.0000e+00 -1.0000e+00
       22  1    1    0    0    0 +3.3836793601e-02 -2.3979497600e-02 -2.7582969231e-02 4.9807279568e-02 0.0000000000e+00 0.0000e+00 -1.0000e+00
</event>
<event>
 4      1 +2.4041262e-06 9.11880000e+01 7.81860800e-03 1.13011600e-01
       25 -1    0    0    0    0 +0.0000000000e+00 +0.0000000000e+00 +9.9999998245e-15 1.2500000000e+02 1.2500000000e+02 0.0000e+00 0.0000e+00
      -13  1    1    0    0    0 +4.1392008930e-02 -4.1644239750e+01 -4.6604660813e+01 6.2499999930e+01 1.0566000000e-01 0.0000e+00 -1.0000e+00
       13  1    1    0    0    0 -4.1392160662e-02 +4.1644238384e+01 +4.6604660207e+01 6.2499998568e+01 1.0566000000e-01 0.0000e+00 -1.0000e+00
       22  1    1    0    0    0 +1.5173196840e-07 +1.3661770656e-06 +6.0650985637e-07 1.5024368775e-06 0.0000000000e+00 0.0000e+00 1.0000e+00
</event>
<event>
 4      1 +2.4041262e-06 9.11880000e+01 7.81860800e-03 1.13011600e-01
       25 -1    0    0    0    0 +0.0000000000e+00 +0.0000000000e+00 +9.9999998245e-15 1.2500000000e+02 1.2500000000e+02 0.0000e+00 0.0000e+00
      -13  1    1    0    0    0 +6.5451395745e+00 -4.9136461347e+01 -3.8006348181e+01 6.2463784322e+01 1.0566000000e-01 0.0000e+00 1.0000e+00
       13  1    1    0    0    0 -6.6264258470e+00 +4.9127086419e+01 +3.7891349507e+01 6.2395077298e+01 1.0566000000e-01 0.0000e+00 1.0000e+00
       22  1    1    0    0    0 +8.1286272503e-02 +9.3749284654e-03 +1.1499867405e-01 1.4113838037e-01 0.0000000000e+00 0.0000e+00 1.0000e+00
</event>
<event>
 4      1 +2.4041262e-06 9.11880000e+01 7.81860800e-03 1.13011600e-01
       25 -1    0    0    0    0 +0.0000000000e+00 +0.0000000000e+00 +9.9999998245e-15 1.2500000000e+02 1.2500000000e+02 0.0000e+00 0.0000e+00
      -11  1    1    0    0    0 -7.1724406936e+00 -5.7406157770e-02 -6.7113623557e+00 9.8229112742e+00 5.1100000000e-04 0.0000e+00 -1.0000e+00
       11  1    1    0    0    0 -3.8461224767e+01 -3.1382709873e-01 -3.5993213011e+01 5.2677088768e+01 5.1100000000e-04 0.0000e+00 -1.0000e+00
       22  1    1    0    0    0 +4.5633665460e+01 +3.7123325650e-01 +4.2704575367e+01 6.2499999958e+01 0.0000000000e+00 0.0000e+00 -1.0000e+00
</event>
<event>
 4      1 +2.4041262e-06 9.11880000e+01 7.81860800e-03 1.13011600e-01
       25 -1    0    0    0    0 +0.0000000000e+00 +0.0000000000e+00 +9.9999998245e-15 1.2500000000e+02 1.2500000000e+02 0.0000e+00 0.0000e+00
      -13  1    1    0    0    0 +3.6227888244e+01 -4.6142923011e+01 -2.1554804687e+01 6.2499999998e+01 1.0566000000e-01 0.0000e+00 -1.0000e+00
       13  1    1    0    0    0 -3.6227888235e+01 +4.6142923004e+01 +2.1554804693e+01 6.2499999990e+01 1.0566000000e-01 0.0000e+00 -1.0000e+00
       22  1    1    0    0    0 -8.8527954008e-09 +6.2997843290e-09 -5.9509807991e-09 1.2388439832e-08 0.0000000000e+00 0.0000e+00 -1.0000e+00
</event>
<event>
 4      1 +2.4041262e-06 9.11880000e+01 7.81860800e-03 1.13011600e-01
       25 -1    0    0    0    0 +0.0000000000e+00 +0.0000000000e+00 +9.9999998245e-15 1.2500000000e+02 1.2500000000e+02 0.0000e+00 0.0000e+00
      -13  1    1    0    0    0 +1.4266171478e+01 +3.8590455037e+01 +3.0850646910e+01 5.1424901044e+01 1.0566000000e-01 0.0000e+00 1.0000e+00
       13  1    1    0    0    0 -1.7323541006e+01 -4.6853445765e+01 -3.7561562086e+01 6.2499860507e+01 1.0566000000e-01 0.0000e+00 1.0000e+00
       22  1    1    0    0    0 +3.0573695274e+00 +8.2629907276e+00 +6.7109151762e+00 1.1075238449e+01 0.0000000000e+00 0.0000e+00 1.0000e+00
</event>
<event>
 4      1 +2.4041262e-06 9.11880000e+01 7.81860800e-03 1.13011600e-01
       25 -1    0    0    0    0 +0.0000000000e+00 +0.0000000000e+00 +9.9999998245e-15 1.2500000000e+02 1.2500000000e+02 0.0000e+00 0.0000e+00
      -13  1    1    0    0    0 -3.9474883423e+01 +1.6203007402e+01 +4.5666562886e+01 6.2500000000e+01 1.0566000000e-01 0.0000e+00 1.0000e+00
       13  1    1    0    0    0 +3.9474883182e+01 -1.6203007311e+01 -4.5666562613e+01 6.2499999625e+01 1.0566000000e-01 0.0000e+00 1.0000e+00
       22  1    1    0    0    0 +2.4029548973e-07 -9.1150340610e-08 -2.7365497978e-07 3.7541624224e-07 0.0000000000e+00 0.0000e+00 1.0000e+00
</event>
<event>
 5      1 +2.4041262e-06 9.11880000e+01 7.81860800e-03 1.13011600e-01
       25 -1    0    0    0    0 +0.0000000000e+00 +0.0000000000e+00 +9.9999998245e-15 1.2500000000e+02 1.2500000000e+02 0.0000e+00 0.0000e+00
       23  2    1    0    0    0 +6.8063790157e+00 -2.6685399954e+01 -1.2054431162e+01 9.4937620243e+01 9.0052235180e+01 0.0000e+00 0.0000e+00
      -11  1    2    2    0    0 +8.9823777579e+00 +2.7726218074e+01 -2.5634933362e+01 3.8814637543e+01 5.1100000000e-04 0.0000e+00 1.0000e+00
       11  1    2    2    0    0 -2.1759987422e+00 -5.4411618028e+01 +1.3580502200e+01 5.6122982700e+01 5.1100000000e-04 0.0000e+00 -1.0000e+00
       22  1    1    0    0    0 -6.8063790157e+00 +2.6685399954e+01 +1.2054431162e+01 3.0062379757e+01 0.0000000000e+00 0.0000e+00 1.0000e+00
</event>
<event>
 4      1 +2.4041262e-06 9.11880000e+01 7.81860800e-03 1.13011600e-01
       25 -1    0    0    0    0 +0.0000000000e+00 +0.0000000000e+00 +9.9999998245e-15 1.2500000000e+02 1.2500000000e+02 0.0000e+00 0.0000e+00
      -13  1    1    0    0    0 +1.1594988923e+01 +6.1374811527e+01 -2.2170237269e+00 6.2499900931e+01 1.0566000000e-01 0.0000e+00 -1.0000e+00
       13  1    1    0    0    0 -1.1593668222e+01 -6.1370825236e+01 +2.2180437795e+00 6.2495777579e+01 1.0566000000e-01 0.0000e+00 -1.0000e+00
       22  1    1    0    0    0 -1.3207009537e-03 -3.9862912926e-03 -1.0200526503e-03 4.3214901004e-03 0.0000000000e+00 0.0000e+00 -1.0000e+00
</event>
<event>
 4      1 +2.4041262e-06 9.11880000e+01 7.81860800e-03 1.13011600e-01
       25 -1    0    0    0    0 +0.0000000000e+00 +0.0000000000e+00 +9.9999998245e-15 1.2500000000e+02 1.2500000000e+02 0.0000e+00 0.0000e+00
      -13  1    1    0    0    0 +1.7669159686e+01 -3.7099810673e+01 -4.7091358279e+01 6.2499618756e+01 1.0566000000e-01 0.0000e+00 1.0000e+00
       13  1    1    0    0    0 -1.7669268803e+01 +3.7100040555e+01 +4.7091642195e+01 6.2499999983e+01 1.0566000000e-01 0.0000e+00 1.0000e+00
       22  1    1    0    0    0 +1.0911684219e-04 -2.2988223918e-04 -2.8391544704e-04 3.8126147223e-04 0.0000000000e+00 0.0000e+00 1.0000e+00
</event>
<event>
 4      1 +2.4041262e-06 9.11880000e+01 7.81860800e-03 1.13011600e-01
       25 -1    0    0    0    0 +0.0000000000e+00 +0.0000000000e+00 +9.9999998245e-15 1.2500000000e+02 1.2500000000e+02 0.0000e+00 0.0000e+00
      -11  1    1    0    0    0 -6.7606018162e+00 -1.0885156708e+01 +6.8915282963e+00 1.4549417033e+01 5.1100000000e-04 0.0000e+00 1.0000e+00
       11  1    1    0    0    0 -2.2283836957e+01 -3.5871592510e+01 +2.2713825536e+01 4.7950582994e+01 5.1100000000e-04 0.0000e+00 -1.0000e+00
       22  1    1    0    0    0 +2.9044438774e+01 +4.6756749218e+01 -2.9605353832e+01 6.2499999973e+01 0.0000000000e+00 0.0000e+00 -1.0000e+00
</event>
<event>
 5      1 +2.4041262e-06 9.11880000e+01 7.81860800e-03 1.13011600e-01
       25 -1    0    0    0    0 +0.0000000000e+00 +0.0000000000e+00 +9.9999998245e-15 1.2500000000e+02 1.2500000000e+02 0.0000e+00 0.0000e+00
       23  2    1    0    0    0 +2.0378869721e+01 +3.9135380878e+00 +2.1421474567e+01 9.5175619300e+01 9.0381993921e+01 0.0000e+00 0.0000e+00
      -13  1    2    2    0    0 -1.4504033130e+01 +2.9177172736e+01 +3.7066162888e+01 4.9351656316e+01 1.0566000000e-01 0.0000e+00 1.0000e+00
       13  1    2    2    0    0 +3.4882902851e+01 -2.5263634648e+01 -1.5644688321e+01 4.5823962985e+01 1.0566000000e-01 0.0000e+00 -1.0000e+00
       22  1    1    0    0    0 -2.0378869721e+01 -3.9135380878e+00 -2.1421474567e+01 2.9824380700e+01 0.0000000000e+00 0.0000e+00 1.0000e+00
</event>
<event>
 4      1 +2.4041262e-06 9.11880000e+01 7.81860800e-03 1.13011600e-01
       25 -1    0    0    0    0 +0.0000000000e+00 +0.0000000000e+00 +9.9999998245e-15 1.2500000000e+02 1.2500000000e+02 0.0000e+00 0.0000e+00
      -13  1    1    0    0    0 +4.7218468231e+01 -2.8391582416e+01 -2.9505475738e+01 6.2499999653e+01 1.0566000000e-01 0.0000e+00 1.0000e+00
       13  1    1    0    0    0 -4.7218468434e+01 +2.8391582733e+01 +2.9505475774e+01 6.2499999968e+01 1.0566000000e-01 0.0000e+00 1.0000e+00
       22  1    1    0    0    0 +2.0378149680e-07 -3.1672773114e-07 -3.5890081120e-08 3.7832717590e-07 0.0000000000e+00 0.0000e+00 1.0000e+00
</event>
<event>
 4      1 +2.4041262e-06 9.11880000e+01 7.81860800e-03 1.13011600e-01
       25 -1    0    0    0    0 +0.0000000000e+00 +0.0000000000e+00 +9.9999998245e-15 1.2500000000e+02 1.2500000000e+02 0.0000e+00 0.0000e+00
      -11  1    1    0    0    0 -7.3410556021e-04 +4.2965528054e-03 -1.0968805459e-02 1.1814190246e-02 5.1100000000e-04 0.0000e+00 1.0000e+00
       11  1    1    0    0    0 +3.4734727611e+00 +4.7079618525e+01 -4.0942731817e+01 6.2488901274e+01 5.1100000000e-04 0.0000e+00 -1.0000e+00
       22  1    1    0    0    0 -3.4727386556e+00 -4.7083915078e+01 +4.0953700622e+01 6.2499284536e+01 0.0000000000e+00 0.0000e+00 -1.0000e+00
</event>
<event>
 4      1 +2.4041262e-06 9.11880000e+01 7.81860800e-03 1.13011600e-01
       25 -1    0    0    0    0 +0.0000000000e+00 +0.0000000000e+00 +9.9999998245e-15 1.2500000000e+02 1.2500000000e+02 0.0000e+00 0.0000e+00
      -13  1    1    0    0    0 +1.7319556298e+00 +3.8106320266e+01 -4.9509065017e+01 6.2499999979e+01 1.0566000000e-01 0.0000e+00 -1.0000e+00
       13  1    1    0    0    0 -1.7319484546e+00 -3.8106034372e+01 +4.9508697139e+01 6.2499534057e+01 1.0566000000e-01 0.0000e+00 -1.0000e+00
       22  1    1    0    0    0 -7.1752284667e-06 -2.8589449763e-04 +3.6787851488e-04 4.6596324897e-04 0.0000000000e+00 0.0000e+00 -1.0000e+00
</event>
<event>
 4      1 +2.4041262e-06 9.11880000e+01 7.81860800e-03 1.13011600e-01
       25 -1    0    0    0    0 +0.0000000000e+00 +0.0000000000e+00 +9.9999998245e-15 1.2500000000e+02 1.2500000000e+02 0.0000e+00 0.0000e+00
      -13  1    1    0    0    0 -2.1313982742e+01 -3.1273279212e+01 -4.9738666880e+01 6.2500000000e+01 1.0566000000e-01 0.0000e+00 1.0000e+00
       13  1    1    0    0    0 +2.1313982742e+01 +3.1273279211e+01 +4.9738666878e+01 6.2499999999e+01 1.0566000000e-01 0.0000e+00 1.0000e+00
       22  1    1    0    0    0 +2.5707748869e-10 +7.7230403256e-10 +1.1254667784e-09 1.3889628588e-09 0.0000000000e+00 0.0000e+00 -1.0000e+00
</event>
<event>
 4      1 +2.4041262e-06 9.11880000e+01 7.81860800e-03 1.13011600e-01
       25 -1    0    0    0    0 +0.0000000000e+00 +0.0000000000e+00 +9.9999998245e-15 1.2500000000e+02 1.2500000000e+02 0.0000e+00 0.0000e+00
      -13  1    1    0    0    0 -2.8299525792e+01 +4.2109019653e+01 -3.6499244561e+01 6.2499909710e+01 1.0566000000e-01 0.0000e+00 1.0000e+00
       13  1    1    0    0    0 +2.8299564041e+01 -4.2109082968e+01 +3.6499296403e+01 6.2499999961e+01 1.0566000000e-01 0.0000e+00 1.0000e+00
       22  1    1    0    0    0 -3.8248943511e-05 +6.3314390976e-05 -5.1841570662e-05 9.0328523917e-05 0.0000000000e+00 0.0000e+00 1.0000e+00
</event>
<event>
 4      1 +2.4041262e-06 9.11880000e+01 7.81860800e-03 1.13011600e-01
       25 -1    0    0    0    0 +0.0000000000e+00 +0.0000000000e+00 +9.9999998245e-15 1.2500000000e+02 1.2500000000e+02 0.0000e+00 0.0000e+00
      -13  1    1    0    0    0 +2.2077749452e+01 +3.0613363667e+01 -4.9815981222e+01 6.2499985640e+01 1.0566000000e-01 0.0000e+00 1.0000e+00
       13  1    1    0    0    0 -2.2077754834e+01 -3.0613370491e+01 +4.9815992656e+01 6.2499999998e+01 1.0566000000e-01 0.0000e+00 1.0000e+00
       22  1    1    0    0    0 +5.3821738343e-06 +6.8237969524e-06 -1.1434405773e-05 1.4362368726e-05 0.0000000000e+00 0.0000e+00 1.0000e+00
</event>
<event>
 4      1 +2.4041262e-06 9.11880000e+01 7.81860800e-03 1.13011600e-01
       25 -1    0    0    0    0 +0.0000000000e+00 +0.0000000000e+00 +9.9999998245e-15 1.2500000000e+02 1.2500000000e+02 0.0000e+00 0.0000e+00
      -11  1    1    0    0    0 +1.0294572800e+01 +1.4388356836e+01 -1.4153491756e+00 1.7748415567e+01 5.1100000000e-04 0.0000e+00 1.0000e+00
       11  1    1    0    0    0 +2.5926387131e+01 +3.6315991761e+01 -3.4174662013e+00 4.4751624358e+01 5.1100000000e-04 0.0000e+00 -1.0000e+00
       22  1    1    0    0    0 -3.6220959930e+01 -5.0704348597e+01 +4.8328153769e+00 6.2499960075e+01 0.0000000000e+00 0.0000e+00 1.0000e+00
</event>
<event>
 5      1 +2.4041262e-06 9.11880000e+01 7.81860800e-03 1.13011600e-01
       25 -1    0    0    0    0 +0.0000000000e+00 +0.0000000000e+00 +9.9999998245e-15 1.2500000000e+02 1.2500000000e+02 0.0000e+00 0.0000e+00
       23  2    1    0    0    0 +8.0612556358e+00 -1.2832750702e+01 -2.4748093144e+01 9.5980498845e+01 9.1488385663e+01 0.0000e+00 0.0000e+00
      -11  1    2    2    0    0 +2.4347937629e+01 +1.7624434413e+01 +2.2435087857e+01 3.7507011646e+01 5.1100000000e-04 0.0000e+00 -1.0000e+00
       11  1    2    2    0    0 -1.6286681994e+01 -3.0457185116e+01 -4.7183181001e+01 5.8473487199e+01 5.1100000000e-04 0.0000e+00 1.0000e+00
       22  1    1    0    0    0 -8.0612556358e+00 +1.2832750702e+01 +2.4748093144e+01 2.9019501155e+01 0.0000000000e+00 0.0000e+00 1.0000e+00
</event>
<event>
 4      1 +2.4041262e-06 9.11880000e+01 7.81860800e-03 1.13011600e-01
       25 -1    0    0    0    0 +0.0000000000e+00 +0.0000000000e+00 +9.9999998245e-15 1.2500000000e+02 1.2500000000e+02 0.0000e+00 0.0000e+00
      -13  1    1    0    0    0 +1.1146461783e+01 -4.9691672094e+01 +3.1382908756e+00 5.1023190016e+01 1.0566000000e-01 0.0000e+00 1.0000e+00
       13  1    1    0    0    0 +4.2595705246e+00 -1.0580883263e+01 -2.8857388955e+00 1.1765954474e+01 1.0566000000e-01 0.0000e+00 -1.0000e+00
       22  1    1    0    0    0 -1.5406032307e+01 +6.0272555357e+01 -2.5255198010e-01 6.2210855510e+01 0.0000000000e+00 0.0000e+00 1.0000e+00
</event>
<event>
 5      1 +2.4041262e-06 9.11880000e+01 7.81860800e-03 1.13011600e-01
       25 -1    0    0    0    0 +0.0000000000e+00 +0.0000000000e+00 +9.9999998245e-15 1.2500000000e+02 1.2500000000e+02 0.0000e+00 0.0000e+00
       23  2    1    0    0    0 -1.9434244678e+01 -1.9496474364e+01 -4.8892377227e+00 9.7040975977e+01 9.2926013549e+01 0.0000e+00 0.0000e+00
      -11  1    2    2    0    0 +3.3932176433e+01 -1.9829710309e+01 -1.6163694311e+01 4.2495588271e+01 5.1100000000e-04 0.0000e+00 1.0000e+00
       11  1    2    2    0    0 -5.3366421111e+01 +3.3323594541e-01 +1.1274456588e+01 5.4545387706e+01 5.1100000000e-04 0.0000e+00 -1.0000e+00
       22  1    1    0    0    0 +1.9434244678e+01 +1.9496474364e+01 +4.8892377227e+00 2.7959024023e+01 0.0000000000e+00 0.0000e+00 -1.0000e+00
</event>
<event>
 5      1 +2.4041262e-06 9.11880000e+01 7.81860800e-03 1.13011600e-01
       25 -1    0    0    0    0 +0.0000000000e+00 +0.0000000000e+00 +9.9999998245e-15 1.2500000000e+02 1.2500000000e+02 0.0000e+00 0.0000e+00
       23  2    1    0    0    0 -7.9485753509e+00 +2.7624761362e+01 -5.2392390014e+00 9.5780880990e+01 9.1215241312e+01 0.0000e+00 0.0000e+00
      -11  1    2    2    0    0 +3.1122373571e+01 +1.0163025234e+01 +2.6808948622e+01 4.2315587495e+01 5.1100000000e-04 0.0000e+00 1.0000e+00
       11  1    2    2    0    0 -3.9070948922e+01 +1.7461736128e+01 -3.2048187623e+01 5.3465293495e+01 5.1100000000e-04 0.0000e+00 -1.0000e+00
       22  1    1    0    0    0 +7.9485753509e+00 -2.7624761362e+01 +5.2392390014e+00 2.9219119010e+01 0.0000000000e+00 0.0000e+00 1.0000e+00
</event>
<event>
 4      1 +2.4041262e-06 9.11880000e+01 7.81860800e-03 1.13011600e-01
       25 -1    0    0    0    0 +0.0000000000e+00 +0.0000000000e+00 +9.9999998245e-15 1.2500000000e+02 1.2500000000e+02 0.0000e+00 0.0000e+00
      -13  1    1    0    0    0 +3.4173438292e+01 +1.5326247410e+01 +2.1025914291e+01 4.2951344334e+01 1.0566000000e-01 0.0000e+00 -1.0000e+00
       13  1    1    0    0    0 +1.5047204140e+01 +7.4931031044e+00 +9.9911547844e+00 1.9555032205e+01 1.0566000000e-01 0.0000e+00 1.0000e+00
       22  1    1    0    0    0 -4.9220642432e+01 -2.2819350514e+01 -3.1017069075e+01 6.2493623461e+01 0.0000000000e+00 0.0000e+00 -1.0000e+00
</event>
<event>
 4      1 +2.4041262e-06 9.11880000e+01 7.81860800e-03 1.13011600e-01
       25 -1    0    0    0    0 +0.0000000000e+00 +0.0000000000e+00 +9.9999998245e-15 1.2500000000e+02 1.2500000000e+02 0.0000e+00 0.0000e+00
      -13  1    1    0    0    0 +2.3781545076e+01 +2.9528033993e+01 +4.9686731049e+01 6.2499992672e+01 1.0566000000e-01 0.0000e+00 1.0000e+00
       13  1    1    0    0    0 -2.3781547747e+01 -2.9528037575e+01 -4.9686736858e+01 6.2499999999e+01 1.0566000000e-01 0.0000e+00 1.0000e+00
       22  1    1    0    0    0 +2.6714266043e-06 +3.5817970867e-06 +5.8088927189e-06 7.3286441510e-06 0.0000000000e+00 0.0000e+00 1.0000e+00
</event>
<event>
 4      1 +2.4041262e-06 9.11880000e+01 7.81860800e-03 1.13011600e-01
       25 -1    0    0    0    0 +0.0000000000e+00 +0.0000000000e+00 +9.9999998245e-15 1.2500000000e+02 1.2500000000e+02 0.0000e+00 0.0000e+00
      -13  1    1    0    0    0 -5.6557411158e+01 +1.9725159159e+01 +1.6947518199e+01 6.2249917252e+01 1.0566000000e-01 0.0000e+00 1.0000e+00
       13  1    1    0    0    0 +5.6792426294e+01 -1.9717651662e+01 -1.6670152602e+01 6.2386461859e+01 1.0566000000e-01 0.0000e+00 1.0000e+00
       22  1    1    0    0    0 -2.3501513673e-01 -7.5074961892e-03 -2.7736559633e-01 3.6362088914e-01 0.0000000000e+00 0.0000e+00 1.0000e+00
</event>
<event>
 4      1 +2.4041262e-06 9.11880000e+01 7.81860800e-03 1.13011600e-01
       25 -1    0    0    0    0 +0.0000000000e+00 +0.0000000000e+00 +9.9999998245e-15 1.2500000000e+02 1.2500000000e+02 0.0000e+00 0.0000e+00
      -13  1    1    0    0    0 +1.7835175638e+01 -1.0220534784e+01 +5.8882742331e+01 6.2367790804e+01 1.0566000000e-01 0.0000e+00 -1.0000e+00
       13  1    1    0    0    0 -1.7872557390e+01 +1.0236227770e+01 -5.9008655469e+01 6.2499930008e+01 1.0566000000e-01 0.0000e+00 -1.0000e+00
       22  1    1    0    0    0 +3.7381751902e-02 -1.5692986073e-02 +1.2591313857e-01 1.3227918828e-01 0.0000000000e+00 0.0000e+00 1.0000e+00
</event>
<event>
 4      1 +2.4041262e-06 9.11880000e+01 7.81860800e-03 1.13011600e-01
       25 -1    0    0    0    0 +0.0000000000e+00 +0.0000000000e+00 +9.9999998245e-15 1.2500000000e+02 1.2500000000e+02 0.0000e+00 0.0000e+00
      -13  1    1    0    0    0 +3.1603441059e+01 +3.5898429202e+01 -4.0233866661e+01 6.2499999172e+01 1.0566000000e-01 0.0000e+00 1.0000e+00
       13  1    1    0    0    0 -3.1590082542e+01 -3.5883515529e+01 +4.0217329498e+01 6.2474032667e+01 1.0566000000e-01 0.0000e+00 1.0000e+00
       22  1    1    0    0    0 -1.3358516997e-02 -1.4913673269e-02 +1.6537163192e-02 2.5968161144e-02 0.0000000000e+00 0.0000e+00 -1.0000e+00
</event>
<event>
 4      1 +2.4041262e-06 9.11880000e+01 7.81860800e-03 1.13011600e-01
       25 -1    0    0    0    0 +0.0000000000e+00 +0.0000000000e+00 +9.9999998245e-15 1.2500000000e+02 1.2500000000e+02 0.0000e+00 0.0000e+00
      -13  1    1    0    0    0 +4.4013123982e+01 +2.9656687345e+01 -3.3008554170e+01 6.2499999995e+01 1.0566000000e-01 0.0000e+00 -1.0000e+00
       13  1    1    0    0    0 -4.4013123985e+01 -2.9656687341e+01 +3.3008554175e+01 6.2499999998e+01 1.0566000000e-01 0.0000e+00 -1.0000e+00
       22  1    1    0    0    0 +2.6142706944e-09 -4.1805211363e-09 -5.1731473802e-09 7.1465111803e-09 0.0000000000e+00 0.0000e+00 1.0000e+00
</event>
<event>
 5      1 +2.4041262e-06 9.11880000e+01 7.81860800e-03 1.13011600e-01
       25 -1    0    0    0    0 +0.0000000000e+00 +0.0000000000e+00 +9.9999998245e-15 1.2500000000e+02 1.2500000000e+02 0.0000e+00 0.0000e+00
       23  2    1    0    0    0 -2.6061637708e+01 +6.8031076305e+00 +7.8000632221e+00 9.6958384146e+01 9.2814848147e+01 0.0000e+00 0.0000e+00
      -13  1    2    2    0    0 +3.1592296505e+01 -4.2674657852e+00 +1.9114591996e+01 3.7170731145e+01 1.0566000000e-01 0.0000e+00 1.0000e+00
       13  1    2    2    0    0 -5.7653934212e+01 +1.1070573416e+01 -1.1314528774e+01 5.9787653001e+01 1.0566000000e-01 0.0000e+00 -1.0000e+00
       22  1    1    0    0    0 +2.6061637708e+01 -6.8031076305e+00 -7.8000632221e+00 2.8041615854e+01 0.0000000000e+00 0.0000e+00 -1.0000e+00
</event>
<event>
 5      1 +2.4041262e-06 9.11880000e+01 7.81860800e-03 1.13011600e-01
       25 -1    0    0    0    0 +0.0000000000e+00 +0.0000000000e+00 +9.9999998245e-15 1.2500000000e+02 1.2500000000e+02 0.0000e+00 0.0000e+00
       23  2    1    0    0    0 -1.3591942726e+01 +2.4499860873e+01 +1.4808708002e+00 9.6943323999e+01 9.2794563417e+01 0.0000e+00 0.0000e+00
      -11  1    2    2    0    0 -1.9548144741e+01 +5.5623404744e+01 -1.5541428417e+01 6.0972363539e+01 5.1100000000e-04 0.0000e+00 1.0000e+00
       11  1    2    2    0    0 +5.9562020143e+00 -3.1123543870e+01 +1.7022299217e+01 3.5970960460e+01 5.1100000000e-04 0.0000e+00 -1.0000e+00
       22  1    1    0    0    0 +1.3591942726e+01 -2.4499860873e+01 -1.4808708002e+00 2.8056676001e+01 0.0000000000e+00 0.0000e+00 1.0000e+00
</event>
<event>
 4      1 +2.4041262e-06 9.11880000e+01 7.81860800e-03 1.13011600e-01
       25 -1    0    0    0    0 +0.0000000000e+00 +0.0000000000e+00 +9.9999998245e-15 1.2500000000e+02 1.2500000000e+02 0.0000e+00 0.0000e+00
      -13  1    1    0    0    0 +6.8997106724e+00 +5.8001121266e+01 -2.2237400446e+01 6.2499993745e+01 1.0566000000e-01 0.0000e+00 1.0000e+00
       13  1    1    0    0    0 -6.8997113963e+00 -5.8001127061e+01 +2.2237402688e+01 6.2500000000e+01 1.0566000000e-01 0.0000e+00 1.0000e+00
       22  1    1    0    0    0 +7.2386428528e-07 +5.7943959095e-06 -2.2418157239e-06 6.2549773140e-06 0.0000000000e+00 0.0000e+00 1.0000e+00
</event>
<event>
 5      1 +2.4041262e-06 9.11880000e+01 7.81860800e-03 1.13011600e-01
       25 -1    0    0    0    0 +0.0000000000e+00 +0.0000000000e+00 +9.9999998245e-15 1.2500000000e+02 1.2500000000e+02 0.0000e+00 0.0000e+00
       23  2    1    0    0    0 -2.7567602098e+01 -5.8550177774e+00 +7.0094423083e-01 9.6808773680e+01 9.2613138484e+01 0.0000e+00 0.0000e+00
      -11  1    2    2    0    0 +2.9220370432e+01 +1.8721904000e+01 -2.9101102477e+00 3.4825399918e+01 5.1100000000e-04 0.0000e+00 -1.0000e+00
       11  1    2    2    0    0 -5.6787972530e+01 -2.4576921777e+01 +3.6110544786e+00 6.1983373761e+01 5.1100000000e-04 0.0000e+00 1.0000e+00
       22  1    1    0    0    0 +2.7567602098e+01 +5.8550177774e+00 -7.0094423083e-01 2.8191226320e+01 0.0000000000e+00 0.0000e+00 1.0000e+00
</event>
<event>
 4      1 +2.4041262e-06 9.11880000e+01 7.81860800e-03 1.13011600e-01
       25 -1    0    0    0    0 +0.0000000000e+00 +0.0000000000e+00 +9.9999998245e-15 1.2500000000e+02 1.2500000000e+02 0.0000e+00 0.0000e+00
      -13  1    1    0    0    0 -2.6710505396e+01 +5.1685768865e+01 -2.2833502202e+01 6.2499998309e+01 1.0566000000e-01 0.0000e+00 -1.0000e+00
       13  1    1    0    0    0 +2.6710506139e+01 -5.1685770242e+01 +2.2833502845e+01 6.2500000000e+01 1.0566000000e-01 0.0000e+00 -1.0000e+00
       22  1    1    0    0    0 -7.4313228923e-07 +1.3770864076e-06 -6.4287821869e-07 1.6917165771e-06 0.0000000000e+00 0.0000e+00 1.0000e+00
</event>
<event>
 4      1 +2.4041262e-06 9.11880000e+01 7.81860800e-03 1.13011600e-01
       25 -1    0    0    0    0 +0.0000000000e+00 +0.0000000000e+00 +9.9999998245e-15 1.2500000000e+02 1.2500000000e+02 0.0000e+00 0.0000e+00
      -13  1    1    0    0    0 +2.6702874807e+01 -1.7883322983e+01 +5.3603937094e+01 6.2499999999e+01 1.0566000000e-01 0.0000e+00 1.0000e+00
       13  1    1    0    0    0 -2.6702874808e+01 +1.7883322985e+01 -5.3603937092e+01 6.2499999999e+01 1.0566000000e-01 0.0000e+00 1.0000e+00
       22  1    1    0    0    0 +9.1056469548e-10 -2.2665673205e-09 -1.1748864625e-09 2.7105006334e-09 0.0000000000e+00 0.0000e+00 -1.0000e+00
</event>
<event>
 4      1 +2.4041262e-06 9.11880000e+01 7.81860800e-03 1.13011600e-01
       25 -1    0    0    0    0 +0.0000000000e+00 +0.0000000000e+00 +9.9999998245e-15 1.2500000000e+02 1.2500000000e+02 0.0000e+00 0.0000e+00
      -11  1    1    0    0    0 -1.9976987092e+00 +8.2805635461e+00 +4.4749565503e+00 9.6220459967e+00 5.1100000000e-04 0.0000e+00 -1.0000e+00
       11  1    1    0    0    0 -1.1068075141e+01 +4.5502288717e+01 +2.4558464166e+01 5.2877960704e+01 5.1100000000e-04 0.0000e+00 1.0000e+00
       22  1    1    0    0    0 +1.3065773850e+01 -5.3782852263e+01 -2.9033420716e+01 6.2499993299e+01 0.0000000000e+00 0.0000e+00 1.0000e+00
</event>
<event>
 4      1 +2.4041262e-06 9.11880000e+01 7.81860800e-03 1.13011600e-01
       25 -1    0    0    0    0 +0.0000000000e+00 +0.0000000000e+00 +9.9999998245e-15 1.2500000000e+02 1.2500000000e+02 0.0000e+00 0.0000e+00
      -13  1    1    0    0    0 -1.7822738163e+01 -1.0699799436e+01 +5.8453507646e+01 6.2039982461e+01 1.0566000000e-01 0.0000e+00 1.0000e+00
       13  1    1    0    0    0 +1.7254044716e+01 +1.1944278980e+01 -5.7700796067e+01 6.1398378563e+01 1.0566000000e-01 0.0000e+00 1.0000e+00
       22  1    1    0    0    0 +5.6869344722e-01 -1.2444795433e+00 -7.5271157896e-01 1.5616389761e+00 0.0000000000e+00 0.0000e+00 -1.0000e+00
</event>
<event>
 4      1 +2.4041262e-06 9.11880000e+01 7.81860800e-03 1.13011600e-01
       25 -1    0    0    0    0 +0.0000000000e+00 +0.0000000000e+00 +9.9999998245e-15 1.2500000000e+02 1.2500000000e+02 0.0000e+00 0.0000e+00
      -13  1    1    0    0    0 -4.1372587263e+01 -4.1153414170e+01 -9.0019032031e+00 5.9045236048e+01 1.0566000000e-01 0.0000e+00 -1.0000e+00
       13  1    1    0    0    0 -3.5651792310e+00 -1.0160264057e+00 +6.7453348603e-01 3.7694790178e+00 1.0566000000e-01 0.0000e+00 -1.0000e+00
       22  1    1    0    0    0 +4.4937766494e+01 +4.2169440575e+01 +8.3273697170e+00 6.2185284934e+01 0.0000000000e+00 0.0000e+00 -1.0000e+00
</event>
<event>
 4      1 +2.4041262e-06 9.11880000e+01 7.81860800e-03 1.13011600e-01
       25 -1    0    0    0    0 +0.0000000000e+00 +0.0000000000e+00 +9.9999998245e-15 1.2500000000e+02 1.2500000000e+02 0.0000e+00 0.0000e+00
      -13  1    1    0    0    0 +3.5344200119e+01 +3.2379682559e+01 +4.0107130123e+01 6.2499995003e+01 1.0566000000e-01 0.0000e+00 -1.0000e+00
       13  1    1    0    0    0 -3.5325807231e+01 -3.2361795180e+01 -4.0086030626e+01 6.2466786848e+01 1.0566000000e-01 0.0000e+00 -1.0000e+00
       22  1    1    0    0    0 -1.8392888027e-02 -1.7887378120e-02 -2.1099497157e-02 3.3218148748e-02 0.0000000000e+00 0.0000e+00 1.0000e+00
</event>
<event>
 4      1 +2.4041262e-06 9.11880000e+01 7.81860800e-03 1.13011600e-01
       25 -1    0    0    0    0 +0.0000000000e+00 +0.0000000000e+00 +9.9999998245e-15 1.2500000000e+02 1.2500000000e+02 0.0000e+00 0.0000e+00
      -11  1    1    0    0    0 +1.2391367926e+00 +4.1166969672e+01 +2.2332665929e+00 4.1246118992e+01 5.1100000000e-04 0.0000e+00 1.0000e+00
       11  1    1    0    0    0 +6.3946571328e-01 +2.1213044280e+01 +1.1512142136e+00 2.1253881021e+01 5.1100000000e-04 0.0000e+00 -1.0000e+00
       22  1    1    0    0    0 -1.8786025059e+00 -6.2380013952e+01 -3.3844808065e+00 6.2499999987e+01 0.0000000000e+00 0.0000e+00 1.0000e+00
</event>
<event>
 4      1 +2.4041262e-06 9.11880000e+01 7.81860800e-03 1.13011600e-01
       25 -1    0    0    0    0 +0.0000000000e+00 +0.0000000000e+00 +9.9999998245e-15 1.2500000000e+02 1.2500000000e+02 0.0000e+00 0.0000e+00
      -13  1    1    0    0    0 +4.4418974941e+01 +2.5878157662e+01 +1.5630466559e+01 5.3731248149e+01 1.0566000000e-01 0.0000e+00 -1.0000e+00
       13  1    1    0    0    0 -5.1252562427e+01 -3.1413865130e+01 -1.6748954132e+01 6.2403483126e+01 1.0566000000e-01 0.0000e+00 -1.0000e+00
       22  1    1    0    0    0 +6.8335874863e+00 +5.5357074679e+00 +1.1184875725e+00 8.8652687243e+00 0.0000000000e+00 0.0000e+00 -1.0000e+00
</event>
<event>
 4      1 +2.4041262e-06 9.11880000e+01 7.81860800e-03 1.13011600e-01
       25 -1    0    0    0    0 +0.0000000000e+00 +0.0000000000e+00 +9.9999998245e-15 1.2500000000e+02 1.2500000000e+02 0.0000e+00 0.0000e+00
      -13  1    1    0    0    0 -1.8481085614e+01 +5.6276747487e+01 +1.9940281508e+01 6.2499990591e+01 1.0566000000e-01 0.0000e+00 1.0000e+00
       13  1    1    0    0    0 +1.8422534109e+01 -5.6089716887e+01 -1.9873827392e+01 6.2293067693e+01 1.0566000000e-01 0.0000e+00 1.0000e+00
       22  1    1    0    0    0 +5.8551505434e-02 -1.8703060045e-01 -6.6454115409e-02 2.0694171582e-01 0.0000000000e+00 0.0000e+00 -1.0000e+00
</event>
<event>
 4      1 +2.4041262e-06 9.11880000e+01 7.81860800e-03 1.13011600e-01
       25 -1    0    0    0    0 +0.0000000000e+00 +0.0000000000e+00 +9.9999998245e-15 1.2500000000e+02 1.2500000000e+02 0.0000e+00 0.0000e+00
      -13  1    1    0    0    0 +4.1233498270e+01 +4.1048786884e+01 +2.2826181270e+01 6.2499999997e+01 1.0566000000e-01 0.0000e+00 1.0000e+00
       13  1    1    0    0    0 -4.1233498261e+01 -4.1048786884e+01 -2.2826181255e+01 6.2499999986e+01 1.0566000000e-01 0.0000e+00 1.0000e+00
       22  1    1    0    0    0 -8.5308591423e-09 +2.3843683634e-10 -1.4650191108e-08 1.6954660401e-08 0.0000000000e+00 0.0000e+00 1.0000e+00
</event>
<event>
 4      1 +2.4041262e-06 9.11880000e+01 7.81860800e-03 1.13011600e-01
       25 -1    0    0    0    0 +0.0000000000e+00 +0.0000000000e+00 +9.9999998245e-15 1.2500000000e+02 1.2500000000e+02 0.0000e+00 0.0000e+00
      -11  1    1    0    0    0 -9.9552149846e-01 -1.6371938200e+01 -4.4425585593e+00 1.6993167754e+01 5.1100000000e-04 0.0000e+00 1.0000e+00
       11  1    1    0    0    0 -3.2828016555e+00 -3.7737516544e+01 -2.5838362588e+01 4.5853221513e+01 5.1100000000e-04 0.0000e+00 -1.0000e+00
       22  1    1    0    0    0 +4.2783231539e+00 +5.4109454744e+01 +3.0280921147e+01 6.2153610734e+01 0.0000000000e+00 0.0000e+00 1.0000e+00
</event>
<event>
 4      1 +2.4041262e-06 9.11880000e+01 7.81860800e-03 1.13011600e-01
       25 -1    0    0    0    0 +0.0000000000e+00 +0.0000000000e+00 +9.9999998245e-15 1.2500000000e+02 1.2500000000e+02 0.0000e+00 0.0000e+00
      -13  1    1    0    0    0 +7.3159598276e+00 +6.1722236668e+01 -6.5636169981e+00 6.2499999997e+01 1.0566000000e-01 0.0000e+00 1.0000e+00
       13  1    1    0    0    0 -7.3159598044e+00 -6.1722236369e+01 +6.5636170270e+00 6.2499999702e+01 1.0566000000e-01 0.0000e+00 1.0000e+00
       22  1    1    0    0    0 -2.3262239983e-08 -2.9857267809e-07 -2.8893768152e-08 3.0086812019e-07 0.0000000000e+00 0.0000e+00 1.0000e+00
</event>
<event>
 4      1 +2.4041262e-06 9.11880000e+01 7.81860800e-03 1.13011600e-01
       25 -1    0    0    0    0 +0.0000000000e+00 +0.0000000000e+00 +9.9999998245e-15 1.2500000000e+02 1.2500000000e+02 0.0000e+00 0.0000e+00
      -13  1    1    0    0    0 -9.2593082618e+00 +6.1414169203e+01 -6.8591840621e+00 6.2485954730e+01 1.0566000000e-01 0.0000e+00 -1.0000e+00
       13  1    1    0    0    0 +9.2614491626e+00 -6.1427963258e+01 +6.8607372569e+00 6.2499999922e+01 1.0566000000e-01 0.0000e+00 -1.0000e+00
       22  1    1    0    0    0 -2.1409008104e-03 +1.3794054104e-02 -1.5531948509e-03 1.4045347954e-02 0.0000000000e+00 0.0000e+00 1.0000e+00
</event>
<event>
 4      1 +2.4041262e-06 9.11880000e+01 7.81860800e-03 1.13011600e-01
       25 -1    0    0    0    0 +0.0000000000e+00 +0.0000000000e+00 +9.9999998245e-15 1.2500000000e+02 1.2500000000e+02 0.0000e+00 0.0000e+00
      -13  1    1    0    0    0 +6.2186905878e+01 -2.6611748798e+00 +5.6511353704e+00 6.2499916875e+01 1.0566000000e-01 0.0000e+00 1.0000e+00
       13  1    1    0    0    0 -6.2186988559e+01 +2.6611786438e+00 -5.6511430757e+00 6.2500000000e+01 1.0566000000e-01 0.0000e+00 1.0000e+00
       22  1    1    0    0    0 +8.2681403964e-05 -3.7639817106e-06 +7.7053137746e-06 8.3124929956e-05 0.0000000000e+00 0.0000e+00 1.0000e+00
</event>
<event>
 4      1 +2.4041262e-06 9.11880000e+01 7.81860800e-03 1.13011600e-01
       25 -1    0    0    0    0 +0.0000000000e+00 +0.0000000000e+00 +9.9999998245e-15 1.2500000000e+02 1.2500000000e+02 0.0000e+00 0.0000e+00
      -13  1    1    0    0    0 -2.3157075744e+01 -5.4333050925e+01 +2.0425895218e+01 6.2494471270e+01 1.0566000000e-01 0.0000e+00 1.0000e+00
       13  1    1    0    0    0 +1.1523870511e+01 +2.5550451973e+01 -9.6538339168e+00 2.9645115295e+01 1.0566000000e-01 0.0000e+00 1.0000e+00
       22  1    1    0    0    0 +1.1633205233e+01 +2.8782598952e+01 -1.0772061301e+01 3.2860413435e+01 0.0000000000e+00 0.0000e+00 -1.0000e+00
</event>
<event>
 5      1 +2.4041262e-06 9.11880000e+01 7.81860800e-03 1.13011600e-01
       25 -1    0    0    0    0 +0.0000000000e+00 +0.0000000000e+00 +9.9999998245e-15 1.2500000000e+02 1.2500000000e+02 0.0000e+00 0.0000e+00
       23  2    1    0    0    0 +1.1004497416e+01 +1.4563729615e+01 +1.8081914086e+01 9.9306483295e+01 9.5925079222e+01 0.0000e+00 0.0000e+00
      -11  1    2    2    0    0 +1.5039330649e+00 +2.0098762059e+01 -3.7539909112e+01 4.2608295288e+01 5.1100000000e-04 0.0000e+00 -1.0000e+00
       11  1    2    2    0    0 +9.5005643515e+00 -5.5350324443e+00 +5.5621823197e+01 5.6698188007e+01 5.1100000000e-04 0.0000e+00 1.0000e+00
       22  1    1    0    0    0 -1.1004497416e+01 -1.4563729615e+01 -1.8081914086e+01 2.5693516705e+01 0.0000000000e+00 0.0000e+00 1.0000e+00
</event>
<event>
 4      1 +2.4041262e-06 9.11880000e+01 7.81860800e-03 1.13011600e-01
       25 -1    0    0    0    0 +0.0000000000e+00 +0.0000000000e+00 +9.9999998245e-15 1.2500000000e+02 1.2500000000e+02 0.0000e+00 0.0000e+00
      -13  1    1    0    0    0 -4.2408385992e+01 +2.8886557601e+01 +3.5683779614e+01 6.2499981632e+01 1.0566000000e-01 0.0000e+00 -1.0000e+00
       13  1    1    0    0    0 +4.2396961621e+01 -2.8879664535e+01 -3.5673498809e+01 6.2483174212e+01 1.0566000000e-01 0.0000e+00 -1.0000e+00
       22  1    1    0    0    0 +1.1424371676e-02 -6.8930659885e-03 -1.0280804883e-02 1.6844155543e-02 0.0000000000e+00 0.0000e+00 1.0000e+00
</event>
<event>
 5      1 +2.4041262e-06 9.11880000e+01 7.81860800e-03 1.13011600e-01
       25 -1    0    0    0    0 +0.0000000000e+00 +0.0000000000e+00 +9.9999998245e-15 1.2500000000e+02 1.2500000000e+02 0.0000e+00 0.0000e+00
       23  2    1    0    0    0 -3.9495023572e+00 +2.5032052435e+01 -1.5777723614e+01 9.5148052318e+01 9.0343860220e+01 0.0000e+00 0.0000e+00
      -11  1    2    2    0    0 -4.4129205389e+01 +9.0370114408e+00 -2.4132285342e+01 5.1102069822e+01 5.1100000000e-04 0.0000e+00 1.0000e+00
       11  1    2    2    0    0 +4.0179703031e+01 +1.5995040994e+01 +8.3545617279e+00 4.4045982496e+01 5.1100000000e-04 0.0000e+00 -1.0000e+00
       22  1    1    0    0    0 +3.9495023572e+00 -2.5032052435e+01 +1.5777723614e+01 2.9851947682e+01 0.0000000000e+00 0.0000e+00 1.0000e+00
</event>
<event>
 4      1 +2.4041262e-06 9.11880000e+01 7.81860800e-03 1.13011600e-01
       25 -1    0    0    0    0 +0.0000000000e+00 +0.0000000000e+00 +9.9999998245e-15 1.2500000000e+02 1.2500000000e+02 0.0000e+00 0.0000e+00
      -13  1    1    0    0    0 -6.7260585213e+00 +7.6260800011e+00 +1.4761220609e+01 1.7924892115e+01 1.0566000000e-01 0.0000e+00 1.0000e+00
       13  1    1    0    0    0 -1.6522522183e+01 +4.1600444224e+01 +1.2100630201e+01 4.6368384856e+01 1.0566000000e-01 0.0000e+00 -1.0000e+00
       22  1    1    0    0    0 +2.3248580704e+01 -4.9226524225e+01 -2.6861850810e+01 6.0706723029e+01 0.0000000000e+00 0.0000e+00 -1.0000e+00
</event>
<event>
 4      1 +2.4041262e-06 9.11880000e+01 7.81860800e-03 1.13011600e-01
       25 -1    0    0    0    0 +0.0000000000e+00 +0.0000000000e+00 +9.9999998245e-15 1.2500000000e+02 1.2500000000e+02 0.0000e+00 0.0000e+00
      -11  1    1    0    0    0 +3.8207141382e+01 -7.6445930201e+00 -2.4240171694e+01 4.5889120486e+01 5.1100000000e-04 0.0000e+00 1.0000e+00
       11  1    1    0    0    0 +1.3828973316e+01 -2.7655870307e+00 -8.7768073407e+00 1.6610879626e+01 5.1100000000e-04 0.0000e+00 -1.0000e+00
       22  1    1    0    0    0 -5.2036114697e+01 +1.0410180051e+01 +3.3016979034e+01 6.2499999888e+01 0.0000000000e+00 0.0000e+00 1.0000e+00
</event>
<event>
 4      1 +2.4041262e-06 9.11880000e+01 7.81860800e-03 1.13011600e-01
       25 -1    0    0    0    0 +0.0000000000e+00 +0.0000000000e+00 +9.9999998245e-15 1.2500000000e+02 1.2500000000e+02 0.0000e+00 0.0000e+00
      -11  1    1    0    0    0 +5.0568121011e+01 -7.4661800283e+00 -1.9212300959e+01 5.4607611330e+01 5.1100000000e-04 0.0000e+00 1.0000e+00
       11  1    1    0    0    0 +7.1198400028e+00 -1.5200677053e+00 -3.0700513214e+00 7.9011355432e+00 5.1100000000e-04 0.0000e+00 -1.0000e+00
       22  1    1    0    0    0 -5.7687961013e+01 +8.9862477336e+00 +2.2282352281e+01 6.2491253127e+01 0.0000000000e+00 0.0000e+00 1.0000e+00
</event>
<event>
 5      1 +2.4041262e-06 9.11880000e+01 7.81860800e-03 1.13011600e-01
       25 -1    0    0    0    0 +0.0000000000e+00 +0.0000000000e+00 +9.9999998245e-15 1.2500000000e+02 1.2500000000e+02 0.0000e+00 0.0000e+00
       23  2    1    0    0    0 +8.2194400704e+00 -2.2670801737e+01 +1.6054583083e+01 9.6029772448e+01 9.1555683122e+01 0.0000e+00 0.0000e+00
      -13  1    2    2    0    0 -2.8679260881e+01 +2.1827590657e+01 +2.2810500267e-02 3.6041023888e+01 1.0566000000e-01 0.0000e+00 -1.0000e+00
       13  1    2    2    0    0 +3.6898700951e+01 -4.4498392394e+01 +1.6031772582e+01 5.9988748559e+01 1.0566000000e-01 0.0000e+00 1.0000e+00
       22  1    1    0    0    0 -8.2194400704e+00 +2.2670801737e+01 -1.6054583083e+01 2.8970227552e+01 0.0000000000e+00 0.0000e+00 1.0000e+00
</event>
<event>
 5      1 +2.4041262e-06 9.11880000e+01 7.81860800e-03 1.13011600e-01
       25 -1    0    0    0    0 +0.0000000000e+00 +0.0000000000e+00 +9.9999998245e-15 1.2500000000e+02 1.2500000000e+02 0.0000e+00 0.0000e+00
       23  2    1    0    0    0 +2.4781467472e+01 +9.8673100446e+00 -1.3986792749e+01 9.4881644982e+01 8.9974503308e+01 0.0000e+00 0.0000e+00
      -11  1    2    2    0    0 +5.7174711765e+01 -4.9243017090e+00 -2.4115914013e+00 5.7437028005e+01 5.1100000000e-04 0.0000e+00 1.0000e+00
       11  1    2    2    0    0 -3.2393244292e+01 +1.4791611754e+01 -1.1575201348e+01 3.7444616977e+01 5.1100000000e-04 0.0000e+00 -1.0000e+00
       22  1    1    0    0    0 -2.4781467472e+01 -9.8673100446e+00 +1.3986792749e+01 3.0118355018e+01 0.0000000000e+00 0.0000e+00 1.0000e+00
</event>
<event>
 5      1 +2.4041262e-06 9.11880000e+01 7.81860800e-03 1.13011600e-01
       25 -1    0    0    0    0 +0.0000000000e+00 +0.0000000000e+00 +9.9999998245e-15 1.2500000000e+02 1.2500000000e+02 0.0000e+00 0.0000e+00
       23  2    1    0    0    0 -9.4968052591e+00 +2.3655068976e+01 -3.1767423980e+00 9.9312584975e+01 9.5933029994e+01 0.0000e+00 0.0000e+00
      -13  1    2    2    0    0 +1.2152194714e+01 -3.1463560706e+01 +1.5637797478e+01 3.7177726702e+01 1.0566000000e-01 0.0000e+00 -1.0000e+00
       13  1    2    2    0    0 -2.1648999973e+01 +5.5118629682e+01 -1.8814539876e+01 6.2134858274e+01 1.0566000000e-01 0.0000e+00 -1.0000e+00
       22  1    1    0    0    0 +9.4968052591e+00 -2.3655068976e+01 +3.1767423980e+00 2.5687415025e+01 0.0000000000e+00 0.0000e+00 -1.0000e+00
</event>
<event>
 4      1 +2.4041262e-06 9.11880000e+01 7.81860800e-03 1.13011600e-01
       25 -1    0    0    0    0 +0.0000000000e+00 +0.0000000000e+00 +9.9999998245e-15 1.2500000000e+02 1.2500000000e+02 0.0000e+00 0.0000e+00
      -13  1    1    0    0    0 -5.7435779939e+01 +9.2421593585e+00 +9.6465637310e+00 5.8969090909e+01 1.0566000000e-01 0.0000e+00 -1.0000e+00
       13  1    1    0    0    0 +4.3652474285e+01 +5.3706156037e+00 -1.2543510861e+01 4.5735466018e+01 1.0566000000e-01 0.0000e+00 -1.0000e+00
       22  1    1    0    0    0 +1.3783305654e+01 -1.4612774962e+01 +2.8969471302e+00 2.0295443073e+01 0.0000000000e+00 0.0000e+00 -1.0000e+00
</event>
<event>
 5      1 +2.4041262e-06 9.11880000e+01 7.81860800e-03 1.13011600e-01
       25 -1    0    0    0    0 +0.0000000000e+00 +0.0000000000e+00 +9.9999998245e-15 1.2500000000e+02 1.2500000000e+02 0.0000e+00 0.0000e+00
       23  2    1    0    0    0 -1.2165205093e+01 +2.6573214979e+01 -1.7962678697e+00 9.5719382733e+01 9.1130926053e+01 0.0000e+00 0.0000e+00
      -13  1    2    2    0    0 +5.7307878630e+00 +5.4659283969e+01 -1.9107268867e+01 5.8185721111e+01 1.0566000000e-01 0.0000e+00 1.0000e+00
       13  1    2    2    0    0 -1.7895992956e+01 -2.8086068991e+01 +1.7311000997e+01 3.7533661623e+01 1.0566000000e-01 0.0000e+00 -1.0000e+00
       22  1    1    0    0    0 +1.2165205093e+01 -2.6573214979e+01 +1.7962678697e+00 2.9280617267e+01 0.0000000000e+00 0.0000e+00 1.0000e+00
</event>
<event>
 4      1 +2.4041262e-06 9.11880000e+01 7.81860800e-03 1.13011600e-01
       25 -1    0    0    0    0 +0.0000000000e+00 +0.0000000000e+00 +9.9999998245e-15 1.2500000000e+02 1.2500000000e+02 0.0000e+00 0.0000e+00
      -13  1    1    0    0    0 -2.7272082542e+01 -1.0191597563e+01 -5.5304620669e+01 6.2499979027e+01 1.0566000000e-01 0.0000e+00 -1.0000e+00
       13  1    1    0    0    0 +2.7272066985e+01 +1.0191607751e+01 +5.5304641938e+01 6.2499992721e+01 1.0566000000e-01 0.0000e+00 -1.0000e+00
       22  1    1    0    0    0 +1.5556834272e-05 -1.0188639889e-05 -2.1268827463e-05 2.8252194553e-05 0.0000000000e+00 0.0000e+00 1.0000e+00
</event>
<event>
 4      1 +2.4041262e-06 9.11880000e+01 7.81860800e-03 1.13011600e-01
       25 -1    0    0    0    0 +0.0000000000e+00 +0.0000000000e+00 +9.9999998245e-15 1.2500000000e+02 1.2500000000e+02 0.0000e+00 0.0000e+00
      -13  1    1    0    0    0 -5.0398969842e+01 +2.4136053368e+01 -2.7943773717e+01 6.2477763139e+01 1.0566000000e-01 0.0000e+00 1.0000e+00
       13  1    1    0    0    0 +5.0416926411e+01 -2.4144696568e+01 +2.7953639828e+01 6.2499999878e+01 1.0566000000e-01 0.0000e+00 1.0000e+00
       22  1    1    0    0    0 -1.7956568612e-02 +8.6432001762e-03 -9.8661113063e-03 2.2236983112e-02 0.0000000000e+00 0.0000e+00 -1.0000e+00
</event>
<event>
 4      1 +2.4041262e-06 9.11880000e+01 7.81860800e-03 1.13011600e-01
       25 -1    0    0    0    0 +0.0000000000e+00 +0.0000000000e+00 +9.9999998245e-15 1.2500000000e+02 1.2500000000e+02 0.0000e+00 0.0000e+00
      -13  1    1    0    0    0 -4.2070558291e+01 +4.2765184324e+01 -1.7534099168e+01 6.2499989303e+01 1.0566000000e-01 0.0000e+00 1.0000e+00
       13  1    1    0    0    0 +4.2070244546e+01 -4.2764910889e+01 +1.7533831683e+01 6.2499515975e+01 1.0566000000e-01 0.0000e+00 1.0000e+00
       22  1    1    0    0    0 +3.1374482204e-04 -2.7343473752e-04 +2.6748453851e-04 4.9472249533e-04 0.0000000000e+00 0.0000e+00 1.0000e+00
</event>
<event>
 4      1 +2.4041262e-06 9.11880000e+01 7.81860800e-03 1.13011600e-01
       25 -1    0    0    0    0 +0.0000000000e+00 +0.0000000000e+00 +9.9999998245e-15 1.2500000000e+02 1.2500000000e+02 0.0000e+00 0.0000e+00
      -13  1    1    0    0    0 +4.6212701213e+01 -6.4226740607e+00 -2.4289218442e+01 5.2600777485e+01 1.0566000000e-01 0.0000e+00 1.0000e+00
       13  1    1    0    0    0 +8.9142277587e+00 -1.1935577431e+00 -4.1470102328e+00 9.9043876402e+00 1.0566000000e-01 0.0000e+00 -1.0000e+00
       22  1    1    0    0    0 -5.5126928972e+01 +7.6162318039e+00 +2.8436228675e+01 6.2494834875e+01 0.0000000000e+00 0.0000e+00 1.0000e+00
</event>
<event>
 4      1 +2.4041262e-06 9.11880000e+01 7.81860800e-03 1.13011600e-01
       25 -1    0    0    0    0 +0.0000000000e+00 +0.0000000000e+00 +9.9999998245e-15 1.2500000000e+02 1.2500000000e+02 0.0000e+00 0.0000e+00
      -13  1    1    0    0    0 +1.1987298948e+01 -2.7345517307e+01 +5.4906880891e+01 6.2499995088e+01 1.0566000000e-01 0.0000e+00 1.0000e+00
       13  1    1    0    0    0 -1.1987305802e+01 +2.7345502849e+01 -5.4906879495e+01 6.2499988851e+01 1.0566000000e-01 0.0000e+00 1.0000e+00
       22  1    1    0    0    0 +6.8543866097e-06 +1.4457213312e-05 -1.3952332861e-06 1.6060520181e-05 0.0000000000e+00 0.0000e+00 1.0000e+00
</event>
<event>
 4      1 +2.4041262e-06 9.11880000e+01 7.81860800e-03 1.13011600e-01
       25 -1    0    0    0    0 +0.0000000000e+00 +0.0000000000e+00 +9.9999998245e-15 1.2500000000e+02 1.2500000000e+02 0.0000e+00 0.0000e+00
      -13  1    1    0    0    0 +3.5989855422e+01 +4.8715627472e+01 +1.3319683079e+01 6.2015378533e+01 1.0566000000e-01 0.0000e+00 1.0000e+00
       13  1    1    0    0    0 -2.8689979932e+01 -4.0558246958e+01 -6.5402473911e+00 5.0108605496e+01 1.0566000000e-01 0.0000e+00 1.0000e+00
       22  1    1    0    0    0 -7.2998754898e+00 -8.1573805137e+00 -6.7794356883e+00 1.2876015970e+01 0.0000000000e+00 0.0000e+00 1.0000e+00
</event>
<event>
 4      1 +2.4041262e-06 9.11880000e+01 7.81860800e-03 1.13011600e-01
       25 -1    0    0    0    0 +0.0000000000e+00 +0.0000000000e+00 +9.9999998245e-15 1.2500000000e+02 1.2500000000e+02 0.0000e+00 0.0000e+00
      -13  1    1    0    0    0 +5.2500855578e+01 -1.5847096707e+01 -2.9978809934e+01 6.2499684156e+01 1.0566000000e-01 0.0000e+00 1.0000e+00
       13  1    1    0    0    0 -5.2482440726e+01 +1.5836651791e+01 +2.9963836559e+01 6.2474385070e+01 1.0566000000e-01 0.0000e+00 1.0000e+00
       22  1    1    0    0    0 -1.8414852686e-02 +1.0444916173e-02 +1.4973375005e-02 2.5930773848e-02 0.0000000000e+00 0.0000e+00 1.0000e+00
</event>
<event>
 4      1 +2.4041262e-06 9.11880000e+01 7.81860800e-03 1.13011600e-01
       25 -1    0    0    0    0 +0.0000000000e+00 +0.0000000000e+00 +9.9999998245e-15 1.2500000000e+02 1.2500000000e+02 0.0000e+00 0.0000e+00
      -13  1    1    0    0    0 -5.6694393133e+01 +1.7217625859e+01 +1.9881897669e+01 6.2498014943e+01 1.0566000000e-01 0.0000e+00 1.0000e+00
       13  1    1    0    0    0 +5.6696181492e+01 -1.7218191614e+01 -1.9882547728e+01 6.2499999891e+01 1.0566000000e-01 0.0000e+00 1.0000e+00
       22  1    1    0    0    0 -1.7883591811e-03 +5.6575450259e-04 +6.5005864546e-04 1.9851657262e-03 0.0000000000e+00 0.0000e+00 1.0000e+00
</event>
<event>
 4      1 +2.4041262e-06 9.11880000e+01 7.81860800e-03 1.13011600e-01
       25 -1    0    0    0    0 +0.0000000000e+00 +0.0000000000e+00 +9.9999998245e-15 1.2500000000e+02 1.2500000000e+02 0.0000e+00 0.0000e+00
      -13  1    1    0    0    0 -3.0813280940e+01 -1.0233781260e+01 -2.0323397654e+01 3.8304571756e+01 1.0566000000e-01 0.0000e+00 -1.0000e+00
       13  1    1    0    0    0 -2.2229327848e+01 -3.0608983846e+00 -9.5468072044e+00 2.4385750087e+01 1.0566000000e-01 0.0000e+00 1.0000e+00
       22  1    1    0    0    0 +5.3042608787e+01 +1.3294679645e+01 +2.9870204858e+01 6.2309678157e+01 0.0000000000e+00 0.0000e+00 -1.0000e+00
</event>
<event>
 5      1 +2.4041262e-06 9.11880000e+01 7.81860800e-03 1.13011600e-01
       25 -1    0    0    0    0 +0.0000000000e+00 +0.0000000000e+00 +9.9999998245e-15 1.2500000000e+02 1.2500000000e+02 0.0000e+00 0.0000e+00
       23  2    1    0    0    0 -2.2230081808e-01 +1.8623321625e+00 +2.7150370776e+01 9.7784924545e+01 9.3921409361e+01 0.0000e+00 0.0000e+00
      -13  1    2    2    0    0 +4.3403038178e+01 -4.9066332563e-01 +3.1859020308e+01 5.3843038665e+01 1.0566000000e-01 0.0000e+00 -1.0000e+00
       13  1    2    2    0    0 -4.3625338996e+01 +2.3529954882e+00 -4.7086495324e+00 4.3941885881e+01 1.0566000000e-01 0.0000e+00 1.0000e+00
       22  1    1    0    0    0 +2.2230081808e-01 -1.8623321625e+00 -2.7150370776e+01 2.7215075455e+01 0.0000000000e+00 0.0000e+00 -1.0000e+00
</event>
<event>
 4      1 +2.4041262e-06 9.11880000e+01 7.81860800e-03 1.13011600e-01
       25 -1    0    0    0    0 +0.0000000000e+00 +0.0000000000e+00 +9.9999998245e-15 1.2500000000e+02 1.2500000000e+02 0.0000e+00 0.0000e+00
      -11  1    1    0    0    0 +2.2902952773e+01 +5.6187363105e+00 -8.6843450128e+00 2.5130326143e+01 5.1100000000e-04 0.0000e+00 1.0000e+00
       11  1    1    0    0    0 +3.4047946267e+01 +8.3970702634e+00 -1.2911989035e+01 3.7369678820e+01 5.1100000000e-04 0.0000e+00 -1.0000e+00
       22  1    1    0    0    0 -5.6950899040e+01 -1.4015806574e+01 +2.1596334048e+01 6.2499995038e+01 0.0000000000e+00 0.0000e+00 -1.0000e+00
</event>
<event>
 5      1 +2.4041262e-06 9.11880000e+01 7.81860800e-03 1.13011600e-01
       25 -1    0    0    0    0 +0.0000000000e+00 +0.0000000000e+00 +9.9999998245e-15 1.2500000000e+02 1.2500000000e+02 0.0000e+00 0.0000e+00
       23  2    1    0    0    0 +9.1123071686e+00 +2.3394851140e+01 +4.2150359521e-01 9.9889626306e+01 9.6681986825e+01 0.0000e+00 0.0000e+00
      -13  1    2    2    0    0 -3.8677535131e+01 -2.1913150656e+00 -1.7891470879e+01 4.2671647259e+01 1.0566000000e-01 0.0000e+00 1.0000e+00
       13  1    2    2    0    0 +4.7789842299e+01 +2.5586166205e+01 +1.8312974474e+01 5.7217979047e+01 1.0566000000e-01 0.0000e+00 -1.0000e+00
       22  1    1    0    0    0 -9.1123071686e+00 -2.3394851140e+01 -4.2150359521e-01 2.5110373694e+01 0.0000000000e+00 0.0000e+00 -1.0000e+00
</event>
<event>
 4      1 +2.4041262e-06 9.11880000e+01 7.81860800e-03 1.13011600e-01
       25 -1    0    0    0    0 +0.0000000000e+00 +0.0000000000e+00 +9.9999998245e-15 1.2500000000e+02 1.2500000000e+02 0.0000e+00 0.0000e+00
      -13  1    1    0    0    0 -5.3966390431e+01 -2.8507830170e+01 -1.3459844434e+01 6.2499970027e+01 1.0566000000e-01 0.0000e+00 -1.0000e+00
       13  1    1    0    0    0 +5.3946746700e+01 +2.8495658958e+01 +1.3455320683e+01 6.2476482597e+01 1.0566000000e-01 0.0000e+00 -1.0000e+00
       22  1    1    0    0    0 +1.9643731667e-02 +1.2171211914e-02 +4.5237514288e-03 2.3547376080e-02 0.0000000000e+00 0.0000e+00 -1.0000e+00
</event>
<event>
 5      1 +2.4041262e-06 9.11880000e+01 7.81860800e-03 1.13011600e-01
       25 -1    0    0    0    0 +0.0000000000e+00 +0.0000000000e+00 +9.9999998245e-15 1.2500000000e+02 1.2500000000e+02 0.0000e+00 0.0000e+00
       23  2    1    0    0    0 -2.4133944766e+01 -6.4514832749e+00 -1.5471699191e+01 9.5615609548e+01 9.0988473923e+01 0.0000e+00 0.0000e+00
      -11  1    2    2    0    0 +2.1026793768e-01 -4.1760577793e+01 +1.3465605873e+01 4.3878384337e+01 5.1100000000e-04 0.0000e+00 1.0000e+00
       11  1    2    2    0    0 -2.4344212704e+01 +3.5309094518e+01 -2.8937305064e+01 5.1737225211e+01 5.1100000000e-04 0.0000e+00 -1.0000e+00
       22  1    1    0    0    0 +2.4133944766e+01 +6.4514832749e+00 +1.5471699191e+01 2.9384390452e+01 0.0000000000e+00 0.0000e+00 -1.0000e+00
</event>
<event>
 4      1 +2.4041262e-06 9.11880000e+01 7.81860800e-03 1.13011600e-01
       25 -1    0    0    0    0 +0.0000000000e+00 +0.0000000000e+00 +9.9999998245e-15 1.2500000000e+02 1.2500000000e+02 0.0000e+00 0.0000e+00
      -13  1    1    0    0    0 -5.9654336520e+01 -5.3486615754e+00 -1.7766021557e+01 6.2473120078e+01 1.0566000000e-01 0.0000e+00 -1.0000e+00
       13  1    1    0    0    0 +5.9671709177e+01 +5.3501346464e+00 +1.7790525646e+01 6.2496806187e+01 1.0566000000e-01 0.0000e+00 -1.0000e+00
       22  1    1    0    0    0 -1.7372656561e-02 -1.4730710581e-03 -2.4504089512e-02 3.0073735005e-02 0.0000000000e+00 0.0000e+00 1.0000e+00
</event>
<event>
 4      1 +2.4041262e-06 9.11880000e+01 7.81860800e-03 1.13011600e-01
       25 -1    0    0    0    0 +0.0000000000e+00 +0.0000000000e+00 +9.9999998245e-15 1.2500000000e+02 1.2500000000e+02 0.0000e+00 0.0000e+00
      -13  1    1    0    0    0 +4.7642495830e+01 +9.1769870497e+00 -3.9398151416e+01 6.2499999994e+01 1.0566000000e-01 0.0000e+00 1.0000e+00
       13  1    1    0    0    0 -4.7642171874e+01 -9.1769252511e+00 +3.9397879716e+01 6.2499572703e+01 1.0566000000e-01 0.0000e+00 1.0000e+00
       22  1    1    0    0    0 -3.2395632222e-04 -6.1798679943e-05 +2.7169956150e-04 4.2730250089e-04 0.0000000000e+00 0.0000e+00 1.0000e+00
</event>
<event>
 4      1 +2.4041262e-06 9.11880000e+01 7.81860800e-03 1.13011600e-01
       25 -1    0    0    0    0 +0.0000000000e+00 +0.0000000000e+00 +9.9999998245e-15 1.2500000000e+02 1.2500000000e+02 0.0000e+00 0.0000e+00
      -13  1    1    0    0    0 -1.5767936100e+01 +6.0155387100e+01 +6.2397148446e+00 6.2499948891e+01 1.0566000000e-01 0.0000e+00 1.0000e+00
       13  1    1    0    0    0 +1.2455779041e+01 -4.7360270245e+01 -4.9162414019e+00 4.9217092790e+01 1.0566000000e-01 0.0000e+00 1.0000e+00
       22  1    1    0    0    0 +3.3121570589e+00 -1.2795116856e+01 -1.3234734427e+00 1.3282958318e+01 0.0000000000e+00 0.0000e+00 -1.0000e+00
</event>
<event>
 5      1 +2.4041262e-06 9.11880000e+01 7.81860800e-03 1.13011600e-01
       25 -1    0    0    0    0 +0.0000000000e+00 +0.0000000000e+00 +9.9999998245e-15 1.2500000000e+02 1.2500000000e+02 0.0000e+00 0.0000e+00
       23  2    1    0    0    0 +8.2569274063e+00 +2.6742484572e+01 +1.8568251387e+01 9.1412542656e+01 8.5018443081e+01 0.0000e+00 0.0000e+00
      -11  1    2    2    0    0 -1.0794378019e+01 -2.5876397701e+01 -8.4317832651e+00 2.9278004100e+01 5.1100000000e-04 0.0000e+00 -1.0000e+00
       11  1    2    2    0    0 +1.9051305425e+01 +5.2618882273e+01 +2.7000034652e+01 6.2134538556e+01 5.1100000000e-04 0.0000e+00 1.0000e+00
       22  1    1    0    0    0 -8.2569274063e+00 -2.6742484572e+01 -1.8568251387e+01 3.3587457344e+01 0.0000000000e+00 0.0000e+00 1.0000e+00
</event>
<event>
 4      1 +2.4041262e-06 9.11880000e+01 7.81860800e-03 1.13011600e-01
       25 -1    0    0    0    0 +0.0000000000e+00 +0.0000000000e+00 +9.9999998245e-15 1.2500000000e+02 1.2500000000e+02 0.0000e+00 0.0000e+00
      -13  1    1    0    0    0 +5.0535087324e+01 -9.4968545614e+00 +3.5528150858e+01 6.2499967718e+01 1.0566000000e-01 0.0000e+00 -1.0000e+00
       13  1    1    0    0    0 -5.0535113411e+01 +9.4968594173e+00 -3.5528169242e+01 6.2500000000e+01 1.0566000000e-01 0.0000e+00 -1.0000e+00
       22  1    1    0    0    0 +2.6087708865e-05 -4.8559199098e-06 +1.8384086840e-05 3.2281932423e-05 0.0000000000e+00 0.0000e+00 1.0000e+00
</event>
<event>
 4      1 +2.4041262e-06 9.11880000e+01 7.81860800e-03 1.13011600e-01
       25 -1    0    0    0    0 +0.0000000000e+00 +0.0000000000e+00 +9.9999998245e-15 1.2500000000e+02 1.2500000000e+02 0.0000e+00 0.0000e+00
      -13  1    1    0    0    0 +6.1469788339e+00 +6.2178484438e+01 +1.5129854935e+00 6.2499996520e+01 1.0566000000e-01 0.0000e+00 1.0000e+00
       13  1    1    0    0    0 -6.1469791361e+00 -6.2178487905e+01 -1.5129855625e+00 6.2500000000e+01 1.0566000000e-01 0.0000e+00 1.0000e+00
       22  1    1    0    0    0 +3.0220032276e-07 +3.4667730573e-06 +6.8954911266e-08 3.4806027129e-06 0.0000000000e+00 0.0000e+00 -1.0000e+00
</event>
<event>
 4      1 +2.4041262e-06 9.11880000e+01 7.81860800e-03 1.13011600e-01
       25 -1    0    0    0    0 +0.0000000000e+00 +0.0000000000e+00 +9.9999998245e-15 1.2500000000e+02 1.2500000000e+02 0.0000e+00 0.0000e+00
      -13  1    1    0    0    0 -1.1287507918e+01 -1.1026177099e+01 -6.0475238069e+01 6.2500000000e+01 1.0566000000e-01 0.0000e+00 -1.0000e+00
       13  1    1    0    0    0 +1.1287507918e+01 +1.1026177099e+01 +6.0475238069e+01 6.2500000000e+01 1.0566000000e-01 0.0000e+00 -1.0000e+00
       22  1    1    0    0    0 -3.0968059513e-12 -3.9695060786e-12 +9.0062746090e-12 1.0317953670e-11 0.0000000000e+00 0.0000e+00 1.0000e+00
</event>
<event>
 4      1 +2.4041262e-06 9.11880000e+01 7.81860800e-03 1.13011600e-01
       25 -1    0    0    0    0 +0.0000000000e+00 +0.0000000000e+00 +9.9999998245e-15 1.2500000000e+02 1.2500000000e+02 0.0000e+00 0.0000e+00
      -13  1    1    0    0    0 +1.9122900677e+01 +3.6010853664e+00 -5.9393481873e+01 6.2499999993e+01 1.0566000000e-01 0.0000e+00 -1.0000e+00
       13  1    1    0    0    0 -1.9122900438e+01 -3.6010854139e+00 +5.9393481418e+01 6.2499999491e+01 1.0566000000e-01 0.0000e+00 -1.0000e+00
       22  1    1    0    0    0 -2.3870603335e-07 +4.7502343981e-08 +4.5494275343e-07 5.1595537786e-07 0.0000000000e+00 0.0000e+00 1.0000e+00
</event>
<event>
 4      1 +2.4041262e-06 9.11880000e+01 7.81860800e-03 1.13011600e-01
       25 -1    0    0    0    0 +0.0000000000e+00 +0.0000000000e+00 +9.9999998245e-15 1.2500000000e+02 1.2500000000e+02 0.0000e+00 0.0000e+00
      -13  1    1    0    0    0 +4.7811345104e+01 +1.0758402795e+01 +3.7482734836e+01 6.1697929675e+01 1.0566000000e-01 0.0000e+00 -1.0000e+00
       13  1    1    0    0    0 -4.7410355088e+01 -1.0767357270e+01 -3.8623798963e+01 6.2092566081e+01 1.0566000000e-01 0.0000e+00 -1.0000e+00
       22  1    1    0    0    0 -4.0099001552e-01 +8.9544750761e-03 +1.1410641269e+00 1.2095042442e+00 0.0000000000e+00 0.0000e+00 -1.0000e+00
</event>
<event>
 5      1 +2.4041262e-06 9.11880000e+01 7.81860800e-03 1.13011600e-01
       25 -1    0    0    0    0 +0.0000000000e+00 +0.0000000000e+00 +9.9999998245e-15 1.2500000000e+02 1.2500000000e+02 0.0000e+00 0.0000e+00
       23  2    1    0    0    0 +7.0864925085e+00 -2.2805165322e+01 -1.6498218908e+01 9.5974404940e+01 9.1480059221e+01 0.0000e+00 0.0000e+00
      -13  1    2    2    0    0 +4.9293471855e+01 -1.1794381836e+01 -1.2279106065e+01 5.2151140162e+01 1.0566000000e-01 0.0000e+00 1.0000e+00
       13  1    2    2    0    0 -4.2206979347e+01 -1.1010783487e+01 -4.2191128433e+00 4.3823264778e+01 1.0566000000e-01 0.0000e+00 -1.0000e+00
       22  1    1    0    0    0 -7.0864925085e+00 +2.2805165322e+01 +1.6498218908e+01 2.9025595060e+01 0.0000000000e+00 0.0000e+00 1.0000e+00
</event>
<event>
 4      1 +2.4041262e-06 9.11880000e+01 7.81860800e-03 1.13011600e-01
       25 -1    0    0    0    0 +0.0000000000e+00 +0.0000000000e+00 +9.9999998245e-15 1.2500000000e+02 1.2500000000e+02 0.0000e+00 0.0000e+00
      -13  1    1    0    0    0 -2.1950333778e+01 -2.0381799130e+01 -4.9735819129e+01 5.8059432974e+01 1.0566000000e-01 0.0000e+00 1.0000e+00
       13  1    1    0    0    0 +2.2251205215e+01 +2.3035551450e+01 +5.3482795965e+01 6.2339180235e+01 1.0566000000e-01 0.0000e+00 1.0000e+00
       22  1    1    0    0    0 -3.0087143665e-01 -2.6537523200e+00 -3.7469768358e+00 4.6013867915e+00 0.0000000000e+00 0.0000e+00 1.0000e+00
</event>
<event>
 4      1 +2.4041262e-06 9.11880000e+01 7.81860800e-03 1.13011600e-01
       25 -1    0    0    0    0 +0.0000000000e+00 +0.0000000000e+00 +9.9999998245e-15 1.2500000000e+02 1.2500000000e+02 0.0000e+00 0.0000e+00
      -13  1    1    0    0    0 -4.9865335969e+01 +3.5970364724e+01 +5.6652548875e+00 6.1745648808e+01 1.0566000000e-01 0.0000e+00 -1.0000e+00
       13  1    1    0    0    0 +5.0505155187e+01 -3.6353774433e+01 -5.7933326945e+00 6.2497531821e+01 1.0566000000e-01 0.0000e+00 -1.0000e+00
       22  1    1    0    0    0 -6.3981921735e-01 +3.8340970957e-01 +1.2807780699e-01 7.5681937140e-01 0.0000000000e+00 0.0000e+00 1.0000e+00
</event>
<event>
 4      1 +2.4041262e-06 9.11880000e+01 7.81860800e-03 1.13011600e-01
       25 -1    0    0    0    0 +0.0000000000e+00 +0.0000000000e+00 +9.9999998245e-15 1.2500000000e+02 1.2500000000e+02 0.0000e+00 0.0000e+00
      -13  1    1    0    0    0 +2.5601365642e+01 -5.4793493972e+01 +1.5734552038e+01 6.2492753150e+01 1.0566000000e-01 0.0000e+00 1.0000e+00
       13  1    1    0    0    0 -2.5202555273e+01 +5.3479489830e+01 -1.5423543959e+01 6.1099275749e+01 1.0566000000e-01 0.0000e+00 1.0000e+00
       22  1    1    0    0    0 -3.9881036832e-01 +1.3140041422e+00 -3.1100807850e-01 1.4079711008e+00 0.0000000000e+00 0.0000e+00 1.0000e+00
</event>
<event>
 4      1 +2.4041262e-06 9.11880000e+01 7.81860800e-03 1.13011600e-01
       25 -1    0    0    0    0 +0.0000000000e+00 +0.0000000000e+00 +9.9999998245e-15 1.2500000000e+02 1.2500000000e+02 0.0000e+00 0.0000e+00
      -13  1    1    0    0    0 -5.3973835427e+01 -3.1429154146e+01 -2.2961260682e+00 6.2500000000e+01 1.0566000000e-01 0.0000e+00 -1.0000e+00
       13  1    1    0    0    0 +5.3973822961e+01 +3.1429146883e+01 +2.2961255733e+00 6.2499985564e+01 1.0566000000e-01 0.0000e+00 -1.0000e+00
       22  1    1    0    0    0 +1.2466046843e-05 +7.2637908366e-06 +4.9482821557e-07 1.4436406622e-05 0.0000000000e+00 0.0000e+00 -1.0000e+00
</event>
<event>
 4      1 +2.4041262e-06 9.11880000e+01 7.81860800e-03 1.13011600e-01
       25 -1    0    0    0    0 +0.0000000000e+00 +0.0000000000e+00 +9.9999998245e-15 1.2500000000e+02 1.2500000000e+02 0.0000e+00 0.0000e+00
      -13  1    1    0    0    0 -2.5269523323e-02 -2.7839288956e+01 -5.5957235349e+01 6.2500000000e+01 1.0566000000e-01 0.0000e+00 -1.0000e+00
       13  1    1    0    0    0 +2.5269522116e-02 +2.7839288945e+01 +5.5957235323e+01 6.2499999972e+01 1.0566000000e-01 0.0000e+00 -1.0000e+00
       22  1    1    0    0    0 +1.2072218677e-09 +1.0674948186e-08 +2.5431679047e-08 2.7607647538e-08 0.0000000000e+00 0.0000e+00 -1.0000e+00
</event>
<event>
 4      1 +2.4041262e-06 9.11880000e+01 7.81860800e-03 1.13011600e-01
       25 -1    0    0    0    0 +0.0000000000e+00 +0.0000000000e+00 +9.9999998245e-15 1.2500000000e+02 1.2500000000e+02 0.0000e+00 0.0000e+00
      -13  1    1    0    0    0 +4.1651419578e+01 +3.6774140098e+01 -2.8619236475e+01 6.2499999946e+01 1.0566000000e-01 0.0000e+00 -1.0000e+00
       13  1    1    0    0    0 -4.1651419614e+01 -3.6774140141e+01 +2.8619236482e+01 6.2499999998e+01 1.0566000000e-01 0.0000e+00 -1.0000e+00
       22  1    1    0    0    0 +3.5568461863e-08 +4.2948329354e-08 -7.3037401374e-09 5.6240724512e-08 0.0000000000e+00 0.0000e+00 -1.0000e+00
</event>
<event>
 4      1 +2.4041262e-06 9.11880000e+01 7.81860800e-03 1.13011600e-01
       25 -1    0    0    0    0 +0.0000000000e+00 +0.0000000000e+00 +9.9999998245e-15 1.2500000000e+02 1.2500000000e+02 0.0000e+00 0.0000e+00
      -13  1    1    0    0    0 -2.0095358527e+01 +5.6950246131e+01 +1.6095862824e+01 6.2499935462e+01 1.0566000000e-01 0.0000e+00 -1.0000e+00
       13  1    1    0    0    0 +2.0095340756e+01 -5.6950316332e+01 -1.6095855002e+01 6.2499991702e+01 1.0566000000e-01 0.0000e+00 -1.0000e+00
       22  1    1    0    0    0 +1.7770837635e-05 +7.0200520810e-05 -7.8211334298e-06 7.2836020761e-05 0.0000000000e+00 0.0000e+00 1.0000e+00
</event>
<event>
 4      1 +2.4041262e-06 9.11880000e+01 7.81860800e-03 1.13011600e-01
       25 -1    0    0    0    0 +0.0000000000e+00 +0.0000000000e+00 +9.9999998245e-15 1.2500000000e+02 1.2500000000e+02 0.0000e+00 0.0000e+00
      -11  1    1    0    0    0 +3.3721121092e-01 -8.0076190074e+00 +4.6905773291e+01 4.7585578087e+01 5.1100000000e-04 0.0000e+00 -1.0000e+00
       11  1    1    0    0    0 +1.4219403925e+01 -1.0676707022e+01 +6.5474252535e+00 1.8948675377e+01 5.1100000000e-04 0.0000e+00 1.0000e+00
       22  1    1    0    0    0 -1.4556615136e+01 +1.8684326030e+01 -5.3453198544e+01 5.8465746536e+01 0.0000000000e+00 0.0000e+00 -1.0000e+00
</event>
<event>
 4      1 +2.4041262e-06 9.11880000e+01 7.81860800e-03 1.13011600e-01
       25 -1    0    0    0    0 +0.0000000000e+00 +0.0000000000e+00 +9.9999998245e-15 1.2500000000e+02 1.2500000000e+02 0.0000e+00 0.0000e+00
      -13  1    1    0    0    0 +1.6926068372e+01 -5.2163301495e+01 +2.9978873431e+01 6.2499966637e+01 1.0566000000e-01 0.0000e+00 1.0000e+00
       13  1    1    0    0    0 -1.6926077310e+01 +5.2163329276e+01 -2.9978889600e+01 6.2500000000e+01 1.0566000000e-01 0.0000e+00 1.0000e+00
       22  1    1    0    0    0 +8.9374466406e-06 -2.7781397607e-05 +1.6168746779e-05 3.3363338829e-05 0.0000000000e+00 0.0000e+00 -1.0000e+00
</event>
<event>
 4      1 +2.4041262e-06 9.11880000e+01 7.81860800e-03 1.13011600e-01
       25 -1    0    0    0    0 +0.0000000000e+00 +0.0000000000e+00 +9.9999998245e-15 1.2500000000e+02 1.2500000000e+02 0.0000e+00 0.0000e+00
      -13  1    1    0    0    0 +2.3722729528e+01 +1.9892453768e+01 -5.4293284557e+01 6.2499996201e+01 1.0566000000e-01 0.0000e+00 -1.0000e+00
       13  1    1    0    0    0 -2.3722730678e+01 -1.9892455725e+01 +5.4293287658e+01 6.2499999955e+01 1.0566000000e-01 0.0000e+00 -1.0000e+00
       22  1    1    0    0    0 +1.1508083303e-06 +1.9577485472e-06 -3.1012450816e-06 3.8438080393e-06 0.0000000000e+00 0.0000e+00 -1.0000e+00
</event>
<event>
 5      1 +2.4041262e-06 9.11880000e+01 7.81860800e-03 1.13011600e-01
       25 -1    0    0    0    0 +0.0000000000e+00 +0.0000000000e+00 +9.9999998245e-15 1.2500000000e+02 1.2500000000e+02 0.0000e+00 0.0000e+00
       23  2    1    0    0    0 -1.5503364495e+01 +2.0051582650e+01 -8.4949597520e+00 9.8268284406e+01 9.4562524826e+01 0.0000e+00 0.0000e+00
      -13  1    2    2    0    0 +1.0715053103e+01 +2.7995768764e+01 -4.4112278792e+01 5.3333664190e+01 1.0566000000e-01 0.0000e+00 1.0000e+00
       13  1    2    2    0    0 -2.6218417597e+01 -7.9441861135e+00 +3.5617319040e+01 4.4934620216e+01 1.0566000000e-01 0.0000e+00 -1.0000e+00
       22  1    1    0    0    0 +1.5503364495e+01 -2.0051582650e+01 +8.4949597520e+00 2.6731715594e+01 0.0000000000e+00 0.0000e+00 1.0000e+00
</event>
<event>
 4      1 +2.4041262e-06 9.11880000e+01 7.81860800e-03 1.13011600e-01
       25 -1    0    0    0    0 +0.0000000000e+00 +0.0000000000e+00 +9.9999998245e-15 1.2500000000e+02 1.2500000000e+02 0.0000e+00 0.0000e+00
      -13  1    1    0    0    0 -5.8570908806e+01 +1.1489260206e+01 +1.8533462195e+01 6.2498438728e+01 1.0566000000e-01 0.0000e+00 1.0000e+00
       13  1    1    0    0    0 +5.8572374465e+01 -1.1489514390e+01 -1.8533936980e+01 6.2499999803e+01 1.0566000000e-01 0.0000e+00 1.0000e+00
       22  1    1    0    0    0 -1.4656582478e-03 +2.5418390890e-04 +4.7478503744e-04 1.5614686647e-03 0.0000000000e+00 0.0000e+00 -1.0000e+00
</event>
<event>
 4      1 +2.4041262e-06 9.11880000e+01 7.81860800e-03 1.13011600e-01
       25 -1    0    0    0    0 +0.0000000000e+00 +0.0000000000e+00 +9.9999998245e-15 1.2500000000e+02 1.2500000000e+02 0.0000e+00 0.0000e+00
      -13  1    1    0    0    0 +8.7547829220e+00 -6.1295980707e+01 +8.5062099758e+00 6.2499681975e+01 1.0566000000e-01 0.0000e+00 -1.0000e+00
       13  1    1    0    0    0 -8.7551153930e+00 +6.1296176133e+01 -8.5060418921e+00 6.2499897334e+01 1.0566000000e-01 0.0000e+00 -1.0000e+00
       22  1    1    0    0    0 +3.3247094173e-04 -1.9542645522e-04 -1.6808377133e-04 4.2069059970e-04 0.0000000000e+00 0.0000e+00 -1.0000e+00
</event>
<event>
 4      1 +2.4041262e-06 9.11880000e+01 7.81860800e-03 1.13011600e-01
       25 -1    0    0    0    0 +0.0000000000e+00 +0.0000000000e+00 +9.9999998245e-15 1.2500000000e+02 1.2500000000e+02 0.0000e+00 0.0000e+00
      -13  1    1    0    0    0 +2.3353934561e+00 -1.4857253904e+01 -6.0663389119e+01 6.2499999997e+01 1.0566000000e-01 0.0000e+00 1.0000e+00
       13  1    1    0    0    0 -2.3353934568e+00 +1.4857253904e+01 +6.0663389122e+01 6.2500000000e+01 1.0566000000e-01 0.0000e+00 1.0000e+00
       22  1    1    0    0    0 +7.3309756992e-10 -2.1881785945e-10 -2.8142045433e-09 2.9163436893e-09 0.0000000000e+00 0.0000e+00 -1.0000e+00
</event>
<event>
 4      1 +2.4041262e-06 9.11880000e+01 7.81860800e-03 1.13011600e-01
       25 -1    0    0    0    0 +0.0000000000e+00 +0.0000000000e+00 +9.9999998245e-15 1.2500000000e+02 1.2500000000e+02 0.0000e+00 0.0000e+00
      -13  1    1    0    0    0 +3.1885920868e+01 +2.6793168130e+01 -4.6600998010e+01 6.2499999901e+01 1.0566000000e-01 0.0000e+00 -1.0000e+00
       13  1    1    0    0    0 -3.1885920918e+01 -2.6793168173e+01 +4.6600998084e+01 6.2500000000e+01 1.0566000000e-01 0.0000e+00 -1.0000e+00
       22  1    1    0    0    0 +5.0152147307e-08 +4.2913163430e-08 -7.4015248114e-08 9.9171742086e-08 0.0000000000e+00 0.0000e+00 -1.0000e+00
</event>
<event>
 4      1 +2.4041262e-06 9.11880000e+01 7.81860800e-03 1.13011600e-01
       25 -1    0    0    0    0 +0.0000000000e+00 +0.0000000000e+00 +9.9999998245e-15 1.2500000000e+02 1.2500000000e+02 0.0000e+00 0.0000e+00
      -13  1    1    0    0    0 +5.1163280393e+01 +3.5842954897e+01 -1.6083418587e+00 6.2489972026e+01 1.0566000000e-01 0.0000e+00 -1.0000e+00
       13  1    1    0    0    0 -5.1171504922e+01 -3.5848683612e+01 +1.6086605114e+00 6.2499999883e+01 1.0566000000e-01 0.0000e+00 -1.0000e+00
       22  1    1    0    0    0 +8.2245294633e-03 +5.7287152510e-03 -3.1865275498e-04 1.0028090691e-02 0.0000000000e+00 0.0000e+00 -1.0000e+00
</event>
<event>
 5      1 +2.4041262e-06 9.11880000e+01 7.81860800e-03 1.13011600e-01
       25 -1    0    0    0    0 +0.0000000000e+00 +0.0000000000e+00 +9.9999998245e-15 1.2500000000e+02 1.2500000000e+02 0.0000e+00 0.0000e+00
       23  2    1    0    0    0 +3.9465736939e+00 +5.0257287605e+00 +2.1972453278e+01 1.0211720960e+02 9.9520361735e+01 0.0000e+00 0.0000e+00
      -13  1    2    2    0    0 -7.3276708414e+00 +8.7531394013e-02 -3.9118226649e+01 3.9798859806e+01 1.0566000000e-01 0.0000e+00 -1.0000e+00
       13  1    2    2    0    0 +1.1274244535e+01 +4.9381973665e+00 +6.1090679926e+01 6.2318349793e+01 1.0566000000e-01 0.0000e+00 -1.0000e+00
       22  1    1    0    0    0 -3.9465736939e+00 -5.0257287605e+00 -2.1972453278e+01 2.2882790401e+01 0.0000000000e+00 0.0000e+00 1.0000e+00
</event>
<event>
 4      1 +2.4041262e-06 9.11880000e+01 7.81860800e-03 1.13011600e-01
       25 -1    0    0    0    0 +0.0000000000e+00 +0.0000000000e+00 +9.9999998245e-15 1.2500000000e+02 1.2500000000e+02 0.0000e+00 0.0000e+00
      -13  1    1    0    0    0 -4.2682571549e+01 -2.7195010016e+00 -4.5562793887e+01 6.2491415015e+01 1.0566000000e-01 0.0000e+00 -1.0000e+00
       13  1    1    0    0    0 +4.2689559625e+01 +2.7191307312e+00 +4.5567920835e+01 6.2499909969e+01 1.0566000000e-01 0.0000e+00 -1.0000e+00
       22  1    1    0    0    0 -6.9880751754e-03 +3.7027046978e-04 -5.1269487621e-03 8.6750157629e-03 0.0000000000e+00 0.0000e+00 1.0000e+00
</event>
<event>
 4      1 +2.4041262e-06 9.11880000e+01 7.81860800e-03 1.13011600e-01
       25 -1    0    0    0    0 +0.0000000000e+00 +0.0000000000e+00 +9.9999998245e-15 1.2500000000e+02 1.2500000000e+02 0.0000e+00 0.0000e+00
      -11  1    1    0    0    0 -2.2168392023e+01 +5.0037416635e+00 +2.8906064915e+01 3.6770037050e+01 5.1100000000e-04 0.0000e+00 1.0000e+00
       11  1    1    0    0    0 -1.5612011594e+01 +3.5093460386e+00 +2.0149077057e+01 2.5730054842e+01 5.1100000000e-04 0.0000e+00 -1.0000e+00
       22  1    1    0    0    0 +3.7780403618e+01 -8.5130877021e+00 -4.9055141972e+01 6.2499908109e+01 0.0000000000e+00 0.0000e+00 1.0000e+00
</event>
<event>
 4      1 +2.4041262e-06 9.11880000e+01 7.81860800e-03 1.13011600e-01
       25 -1    0    0    0    0 +0.0000000000e+00 +0.0000000000e+00 +9.9999998245e-15 1.2500000000e+02 1.2500000000e+02 0.0000e+00 0.0000e+00
      -11  1    1    0    0    0 -3.9564992019e+01 +1.0866712796e+01 -3.3942051221e+01 5.3249759453e+01 5.1100000000e-04 0.0000e+00 -1.0000e+00
       11  1    1    0    0    0 -6.6791391837e+00 +1.8892367324e+00 -6.1174917890e+00 9.2522333367e+00 5.1100000000e-04 0.0000e+00 1.0000e+00
       22  1    1    0    0    0 +4.6244131203e+01 -1.2755949528e+01 +4.0059543010e+01 6.2498007210e+01 0.0000000000e+00 0.0000e+00 -1.0000e+00
</event>
<event>
 5      1 +2.4041262e-06 9.11880000e+01 7.81860800e-03 1.13011600e-01
       25 -1    0    0    0    0 +0.0000000000e+00 +0.0000000000e+00 +9.9999998245e-15 1.2500000000e+02 1.2500000000e+02 0.0000e+00 0.0000e+00
       23  2    1    0    0    0 +2.8832527982e+01 +3.5526249911e+00 -2.7581536140e+00 9.5818786428e+01 9.1267171574e+01 0.0000e+00 0.0000e+00
      -11  1    2    2    0    0 +5.2928047458e+01 +2.7693359155e+01 -1.0974319569e+01 6.0734965541e+01 5.1100000000e-04 0.0000e+00 -1.0000e+00
       11  1    2    2    0    0 -2.4095519476e+01 -2.4140734164e+01 +8.2161659546e+00 3.5083820887e+01 5.1100000000e-04 0.0000e+00 1.0000e+00
       22  1    1    0    0    0 -2.8832527982e+01 -3.5526249911e+00 +2.7581536140e+00 2.9181213572e+01 0.0000000000e+00 0.0000e+00 -1.0000e+00
</event>
<event>
 4      1 +2.4041262e-06 9.11880000e+01 7.81860800e-03 1.13011600e-01
       25 -1    0    0    0    0 +0.0000000000e+00 +0.0000000000e+00 +9.9999998245e-15 1.2500000000e+02 1.2500000000e+02 0.0000e+00 0.0000e+00
      -11  1    1    0    0    0 +2.0859548556e+01 +1.9330689478e+01 +4.0766860150e+01 4.9706470489e+01 5.1100000000e-04 0.0000e+00 -1.0000e+00
       11  1    1    0    0    0 +5.3834024546e+00 +4.9381778527e+00 +1.0502782946e+01 1.2793555892e+01 5.1100000000e-04 0.0000e+00 1.0000e+00
       22  1    1    0    0    0 -2.6242951011e+01 -2.4268867331e+01 -5.1269643096e+01 6.2499973620e+01 0.0000000000e+00 0.0000e+00 -1.0000e+00
</event>
<event>
 4      1 +2.4041262e-06 9.11880000e+01 7.81860800e-03 1.13011600e-01
       25 -1    0    0    0    0 +0.0000000000e+00 +0.0000000000e+00 +9.9999998245e-15 1.2500000000e+02 1.2500000000e+02 0.0000e+00 0.0000e+00
      -13  1    1    0    0    0 +3.3552498840e+01 -4.7675091626e+01 +2.2466000829e+01 6.2477331067e+01 1.0566000000e-01 0.0000e+00 -1.0000e+00
       13  1    1    0    0    0 -3.3465307513e+01 +4.7617214363e+01 -2.2518868969e+01 6.2405420713e+01 1.0566000000e-01 0.0000e+00 -1.0000e+00
       22  1    1    0    0    0 -8.7191326908e-02 +5.7877262853e-02 +5.2868140063e-02 1.1724822078e-01 0.0000000000e+00 0.0000e+00 -1.0000e+00
</event>
<event>
 4      1 +2.4041262e-06 9.11880000e+01 7.81860800e-03 1.13011600e-01
       25 -1    0    0    0    0 +0.0000000000e+00 +0.0000000000e+00 +9.9999998245e-15 1.2500000000e+02 1.2500000000e+02 0.0000e+00 0.0000e+00
      -13  1    1    0    0    0 -3.4377131087e+01 -5.1948948260e+01 +5.0752801732e+00 6.2500000000e+01 1.0566000000e-01 0.0000e+00 1.0000e+00
       13  1    1    0    0    0 +3.4377131018e+01 +5.1948948157e+01 -5.0752801639e+00 6.2499999875e+01 1.0566000000e-01 0.0000e+00 1.0000e+00
       22  1    1    0    0    0 +6.9069348330e-08 +1.0324803409e-07 -9.3183258215e-09 1.2456950918e-07 0.0000000000e+00 0.0000e+00 1.0000e+00
</event>
<event>
 4      1 +2.4041262e-06 9.11880000e+01 7.81860800e-03 1.13011600e-01
       25 -1    0    0    0    0 +0.0000000000e+00 +0.0000000000e+00 +9.9999998245e-15 1.2500000000e+02 1.2500000000e+02 0.0000e+00 0.0000e+00
      -13  1    1    0    0    0 -4.9529938822e+01 +2.8715518569e+01 -2.5067707625e+01 6.2499575807e+01 1.0566000000e-01 0.0000e+00 1.0000e+00
       13  1    1    0    0    0 +4.9530352119e+01 -2.8714822106e+01 +2.5067777386e+01 6.2499611332e+01 1.0566000000e-01 0.0000e+00 1.0000e+00
       22  1    1    0    0    0 -4.1329693635e-04 -6.9646357694e-04 -6.9760520633e-05 8.1286062879e-04 0.0000000000e+00 0.0000e+00 1.0000e+00
</event>
<event>
 4      1 +2.4041262e-06 9.11880000e+01 7.81860800e-03 1.13011600e-01
       25 -1    0    0    0    0 +0.0000000000e+00 +0.0000000000e+00 +9.9999998245e-15 1.2500000000e+02 1.2500000000e+02 0.0000e+00 0.0000e+00
      -13  1    1    0    0    0 -4.0917395377e+01 +4.7131812586e+01 +3.2554313903e+00 6.2499999997e+01 1.0566000000e-01 0.0000e+00 1.0000e+00
       13  1    1    0    0    0 +4.0917395379e+01 -4.7131812588e+01 -3.2554313908e+00 6.2500000000e+01 1.0566000000e-01 0.0000e+00 1.0000e+00
       22  1    1    0    0    0 -2.4521059884e-09 +1.5089685023e-09 +4.7583323957e-10 2.9182575265e-09 0.0000000000e+00 0.0000e+00 -1.0000e+00
</event>
<event>
 5      1 +2.4041262e-06 9.11880000e+01 7.81860800e-03 1.13011600e-01
       25 -1    0    0    0    0 +0.0000000000e+00 +0.0000000000e+00 +9.9999998245e-15 1.2500000000e+02 1.2500000000e+02 0.0000e+00 0.0000e+00
       23  2    1    0    0    0 +7.3184468823e+00 -2.7995085955e+01 -3.8453394631e+00 9.5809742413e+01 9.1254784003e+01 0.0000e+00 0.0000e+00
      -13  1    2    2    0    0 -2.0066083083e+01 +9.3438712835e+00 +3.0835284758e+01 3.7957628628e+01 1.0566000000e-01 0.0000e+00 1.0000e+00
       13  1    2    2    0    0 +2.7384529966e+01 -3.7338957238e+01 -3.4680624221e+01 5.7852113786e+01 1.0566000000e-01 0.0000e+00 -1.0000e+00
       22  1    1    0    0    0 -7.3184468823e+00 +2.7995085955e+01 +3.8453394631e+00 2.9190257587e+01 0.0000000000e+00 0.0000e+00 -1.0000e+00
</event>
<event>
 4      1 +2.4041262e-06 9.11880000e+01 7.81860800e-03 1.13011600e-01
       25 -1    0    0    0    0 +0.0000000000e+00 +0.0000000000e+00 +9.9999998245e-15 1.2500000000e+02 1.2500000000e+02 0.0000e+00 0.0000e+00
      -13  1    1    0    0    0 +5.9174442945e+00 -5.9716016945e+01 -1.7469549894e+01 6.2499721313e+01 1.0566000000e-01 0.0000e+00 1.0000e+00
       13  1    1    0    0    0 -5.9174885443e+00 +5.9716276990e+01 +1.7469641299e+01 6.2499999515e+01 1.0566000000e-01 0.0000e+00 1.0000e+00
       22  1    1    0    0    0 +4.4249811533e-05 -2.6004564692e-04 -9.1404679274e-05 2.7917127305e-04 0.0000000000e+00 0.0000e+00 1.0000e+00
</event>
<event>
 4      1 +2.4041262e-06 9.11880000e+01 7.81860800e-03 1.13011600e-01
       25 -1    0    0    0    0 +0.0000000000e+00 +0.0000000000e+00 +9.9999998245e-15 1.2500000000e+02 1.2500000000e+02 0.0000e+00 0.0000e+00
      -11  1    1    0    0    0 -4.9944367858e+01 +3.3057829656e+01 -8.8498501447e+00 6.0544032159e+01 5.1100000000e-04 0.0000e+00 1.0000e+00
       11  1    1    0    0    0 -1.6141572805e+00 +1.0670386087e+00 -2.8589433764e-01 1.9559680345e+00 5.1100000000e-04 0.0000e+00 -1.0000e+00
       22  1    1    0    0    0 +5.1558525138e+01 -3.4124868265e+01 +9.1357444823e+00 6.2499999806e+01 0.0000000000e+00 0.0000e+00 1.0000e+00
</event>
<event>
 4      1 +2.4041262e-06 9.11880000e+01 7.81860800e-03 1.13011600e-01
       25 -1    0    0    0    0 +0.0000000000e+00 +0.0000000000e+00 +9.9999998245e-15 1.2500000000e+02 1.2500000000e+02 0.0000e+00 0.0000e+00
      -13  1    1    0    0    0 +1.1644170891e+01 +6.0904614174e+01 -7.8281595781e+00 6.2499999918e+01 1.0566000000e-01 0.0000e+00 1.0000e+00
       13  1    1    0    0    0 -1.1644170907e+01 -6.0904614253e+01 +7.8281595885e+00 6.2500000000e+01 1.0566000000e-01 0.0000e+00 1.0000e+00
       22  1    1    0    0    0 +1.5638242094e-08 +7.9358753341e-08 -1.0364401123e-08 8.1546227124e-08 0.0000000000e+00 0.0000e+00 -1.0000e+00
</event>
<event>
 4      1 +2.4041262e-06 9.11880000e+01 7.81860800e-03 1.13011600e-01
       25 -1    0    0    0    0 +0.0000000000e+00 +0.0000000000e+00 +9.9999998245e-15 1.2500000000e+02 1.2500000000e+02 0.0000e+00 0.0000e+00
      -13  1    1    0    0    0 -5.0889832949e+01 +2.0479319584e+01 +2.9950964073e+01 6.2499992329e+01 1.0566000000e-01 0.0000e+00 1.0000e+00
       13  1    1    0    0    0 +5.0888525497e+01 -2.0478737097e+01 -2.9950422055e+01 6.2498477147e+01 1.0566000000e-01 0.0000e+00 1.0000e+00
       22  1    1    0    0    0 +1.3074518180e-03 -5.8248642066e-04 -5.4201769483e-04 1.5305240502e-03 0.0000000000e+00 0.0000e+00 1.0000e+00
</event>
<event>
 4      1 +2.4041262e-06 9.11880000e+01 7.81860800e-03 1.13011600e-01
       25 -1    0    0    0    0 +0.0000000000e+00 +0.0000000000e+00 +9.9999998245e-15 1.2500000000e+02 1.2500000000e+02 0.0000e+00 0.0000e+00
      -13  1    1    0    0    0 +6.1857578256e+01 +1.9127049124e+00 +8.4932911885e+00 6.2467316151e+01 1.0566000000e-01 0.0000e+00 -1.0000e+00
       13  1    1    0    0    0 -6.1890353314e+01 -1.9080425482e+00 -8.4929058811e+00 6.2499576591e+01 1.0566000000e-01 0.0000e+00 -1.0000e+00
       22  1    1    0    0    0 +3.2775058024e-02 -4.6623641969e-03 -3.8530732206e-04 3.3107257967e-02 0.0000000000e+00 0.0000e+00 -1.0000e+00
</event>
<event>
 4      1 +2.4041262e-06 9.11880000e+01 7.81860800e-03 1.13011600e-01
       25 -1    0    0    0    0 +0.0000000000e+00 +0.0000000000e+00 +9.9999998245e-15 1.2500000000e+02 1.2500000000e+02 0.0000e+00 0.0000e+00
      -13  1    1    0    0    0 +3.3110465421e+01 -2.7071138152e+01 -4.5575096190e+01 6.2499999984e+01 1.0566000000e-01 0.0000e+00 1.0000e+00
       13  1    1    0    0    0 -3.3110465422e+01 +2.7071138114e+01 +4.5575096202e+01 6.2499999977e+01 1.0566000000e-01 0.0000e+00 1.0000e+00
       22  1    1    0    0    0 +1.2848084455e-09 +3.7156064817e-08 -1.2442455966e-08 3.9205083801e-08 0.0000000000e+00 0.0000e+00 1.0000e+00
</event>
<event>
 4      1 +2.4041262e-06 9.11880000e+01 7.81860800e-03 1.13011600e-01
       25 -1    0    0    0    0 +0.0000000000e+00 +0.0000000000e+00 +9.9999998245e-15 1.2500000000e+02 1.2500000000e+02 0.0000e+00 0.0000e+00
      -13  1    1    0    0    0 -1.8418537025e+00 -1.5362808293e+01 +6.0554359897e+01 6.2499999762e+01 1.0566000000e-01 0.0000e+00 -1.0000e+00
       13  1    1    0    0    0 +1.8418528397e+00 +1.5362806053e+01 -6.0554357427e+01 6.2499996793e+01 1.0566000000e-01 0.0000e+00 -1.0000e+00
       22  1    1    0    0    0 +8.6277460640e-07 +2.2400373881e-06 -2.4702829492e-06 3.4444804211e-06 0.0000000000e+00 0.0000e+00 -1.0000e+00
</event>
<event>
 4      1 +2.4041262e-06 9.11880000e+01 7.81860800e-03 1.13011600e-01
       25 -1    0    0    0    0 +0.0000000000e+00 +0.0000000000e+00 +9.9999998245e-15 1.2500000000e+02 1.2500000000e+02 0.0000e+00 0.0000e+00
      -13  1    1    0    0    0 -2.1005751730e+01 -4.7618275325e+01 +3.4604869374e+01 6.2499999192e+01 1.0566000000e-01 0.0000e+00 1.0000e+00
       13  1    1    0    0    0 +2.1005752020e+01 +4.7618275928e+01 -3.4604869826e+01 6.2500000000e+01 1.0566000000e-01 0.0000e+00 1.0000e+00
       22  1    1    0    0    0 -2.9072464918e-07 -6.0316843956e-07 +4.5165932923e-07 8.0766895310e-07 0.0000000000e+00 0.0000e+00 -1.0000e+00
</event>
<event>
 4      1 +2.4041262e-06 9.11880000e+01 7.81860800e-03 1.13011600e-01
       25 -1    0    0    0    0 +0.0000000000e+00 +0.0000000000e+00 +9.9999998245e-15 1.2500000000e+02 1.2500000000e+02 0.0000e+00 0.0000e+00
      -13  1    1    0    0    0 +2.2213779970e+01 -2.4614295661e+01 +5.2980404533e+01 6.2500000000e+01 1.0566000000e-01 0.0000e+00 1.0000e+00
       13  1    1    0    0    0 -2.2213779968e+01 +2.4614295657e+01 -5.2980404526e+01 6.2499999992e+01 1.0566000000e-01 0.0000e+00 1.0000e+00
       22  1    1    0    0    0 -2.6673950328e-09 +3.6905372876e-09 -7.0022347955e-09 8.3526255670e-09 0.0000000000e+00 0.0000e+00 1.0000e+00
</event>
<event>
 4      1 +2.4041262e-06 9.11880000e+01 7.81860800e-03 1.13011600e-01
       25 -1    0    0    0    0 +0.0000000000e+00 +0.0000000000e+00 +9.9999998245e-15 1.2500000000e+02 1.2500000000e+02 0.0000e+00 0.0000e+00
      -13  1    1    0    0    0 -2.1426851462e+01 +8.1791749075e+00 +5.8139745185e+01 6.2500000000e+01 1.0566000000e-01 0.0000e+00 -1.0000e+00
       13  1    1    0    0    0 +2.1426847884e+01 -8.1791735058e+00 -5.8139735430e+01 6.2499989515e+01 1.0566000000e-01 0.0000e+00 -1.0000e+00
       22  1    1    0    0    0 +3.5779082758e-06 -1.4016571650e-06 -9.7556808888e-06 1.0485198140e-05 0.0000000000e+00 0.0000e+00 -1.0000e+00
</event>
<event>
 4      1 +2.4041262e-06 9.11880000e+01 7.81860800e-03 1.13011600e-01
       25 -1    0    0    0    0 +0.0000000000e+00 +0.0000000000e+00 +9.9999998245e-15 1.2500000000e+02 1.2500000000e+02 0.0000e+00 0.0000e+00
      -13  1    1    0    0    0 +2.2278263327e+01 +1.0121473048e-01 -4.5825026347e+01 5.0953659977e+01 1.0566000000e-01 0.0000e+00 1.0000e+00
       13  1    1    0    0    0 -1.2715110216e+01 -2.3064342584e+00 -1.0637015700e+01 1.6737709934e+01 1.0566000000e-01 0.0000e+00 -1.0000e+00
       22  1    1    0    0    0 -9.5631531111e+00 +2.2052195279e+00 +5.6462042047e+01 5.7308630089e+01 0.0000000000e+00 0.0000e+00 1.0000e+00
</event>
<event>
 4      1 +2.4041262e-06 9.11880000e+01 7.81860800e-03 1.13011600e-01
       25 -1    0    0    0    0 +0.0000000000e+00 +0.0000000000e+00 +9.9999998245e-15 1.2500000000e+02 1.2500000000e+02 0.0000e+00 0.0000e+00
      -11  1    1    0    0    0 -3.6477080953e+01 -3.3730418195e+00 +3.6142550779e+01 5.1461041799e+01 5.1100000000e-04 0.0000e+00 -1.0000e+00
       11  1    1    0    0    0 -7.8226863750e+00 -7.2938339093e-01 +7.7544949853e+00 1.1038958963e+01 5.1100000000e-04 0.0000e+00 1.0000e+00
       22  1    1    0    0    0 +4.4299767328e+01 +4.1024252104e+00 -4.3897045764e+01 6.2499999238e+01 0.0000000000e+00 0.0000e+00 -1.0000e+00
</event>
<event>
 4      1 +2.4041262e-06 9.11880000e+01 7.81860800e-03 1.13011600e-01
       25 -1    0    0    0    0 +0.0000000000e+00 +0.0000000000e+00 +9.9999998245e-15 1.2500000000e+02 1.2500000000e+02 0.0000e+00 0.0000e+00
      -13  1    1    0    0    0 +5.1037818135e+01 -3.7738255569e+00 -3.5876708275e+01 6.2500000000e+01 1.0566000000e-01 0.0000e+00 1.0000e+00
       13  1    1    0    0    0 -5.1037818111e+01 +3.7738255550e+00 +3.5876708259e+01 6.2499999971e+01 1.0566000000e-01 0.0000e+00 1.0000e+00
       22  1    1    0    0    0 -2.3288118987e-08 +1.9296283696e-09 +1.6336424704e-08 2.8512080311e-08 0.0000000000e+00 0.0000e+00 1.0000e+00
</event>
<event>
 4      1 +2.4041262e-06 9.11880000e+01 7.81860800e-03 1.13011600e-01
       25 -1    0    0    0    0 +0.0000000000e+00 +0.0000000000e+00 +9.9999998245e-15 1.2500000000e+02 1.2500000000e+02 0.0000e+00 0.0000e+00
      -13  1    1    0    0    0 -2.8340485829e+01 +3.5521170688e+01 +4.2910396529e+01 6.2499999987e+01 1.0566000000e-01 0.0000e+00 -1.0000e+00
       13  1    1    0    0    0 +2.8340483831e+01 -3.5521168788e+01 -4.2910394247e+01 6.2499996435e+01 1.0566000000e-01 0.0000e+00 -1.0000e+00
       22  1    1    0    0    0 +1.9974479534e-06 -1.8996745689e-06 -2.2818232127e-06 3.5784464462e-06 0.0000000000e+00 0.0000e+00 -1.0000e+00
</event>
<event>
 4      1 +2.4041262e-06 9.11880000e+01 7.81860800e-03 1.13011600e-01
       25 -1    0    0    0    0 +0.0000000000e+00 +0.0000000000e+00 +9.9999998245e-15 1.2500000000e+02 1.2500000000e+02 0.0000e+00 0.0000e+00
      -13  1    1    0    0    0 -6.2076979451e+01 -5.5264982502e+00 +4.7058677150e+00 6.2499999325e+01 1.0566000000e-01 0.0000e+00 -1.0000e+00
       13  1    1    0    0    0 +6.2076980082e+01 +5.5264984113e+00 -4.7058673747e+00 6.2499999940e+01 1.0566000000e-01 0.0000e+00 -1.0000e+00
       22  1    1    0    0    0 -6.3070662620e-07 -1.6111032793e-07 -3.4027982647e-07 7.3453233176e-07 0.0000000000e+00 0.0000e+00 -1.0000e+00
</event>
<event>
 4      1 +2.4041262e-06 9.11880000e+01 7.81860800e-03 1.13011600e-01
       25 -1    0    0    0    0 +0.0000000000e+00 +0.0000000000e+00 +9.9999998245e-15 1.2500000000e+02 1.2500000000e+02 0.0000e+00 0.0000e+00
      -11  1    1    0    0    0 +2.3208742327e+01 -2.7424372677e+01 +2.2615923704e+01 4.2452584637e+01 5.1100000000e-04 0.0000e+00 1.0000e+00
       11  1    1    0    0    0 +1.0865871146e+01 -1.2997894513e+01 +1.0718708687e+01 2.0047521885e+01 5.1100000000e-04 0.0000e+00 -1.0000e+00
       22  1    1    0    0    0 -3.4074613473e+01 +4.0422267190e+01 -3.3334632392e+01 6.2499893478e+01 0.0000000000e+00 0.0000e+00 -1.0000e+00
</event>
<event>
 4      1 +2.4041262e-06 9.11880000e+01 7.81860800e-03 1.13011600e-01
       25 -1    0    0    0    0 +0.0000000000e+00 +0.0000000000e+00 +9.9999998245e-15 1.2500000000e+02 1.2500000000e+02 0.0000e+00 0.0000e+00
      -13  1    1    0    0    0 -3.0875748392e+01 +6.6148257230e+00 -5.3668329026e+01 6.2268519033e+01 1.0566000000e-01 0.0000e+00 -1.0000e+00
       13  1    1    0    0    0 +3.0993824500e+01 -6.6455381993e+00 +5.3865118418e+01 6.2499939851e+01 1.0566000000e-01 0.0000e+00 -1.0000e+00
       22  1    1    0    0    0 -1.1807610859e-01 +3.0712476309e-02 -1.9678939233e-01 2.3154111634e-01 0.0000000000e+00 0.0000e+00 1.0000e+00
</event>
<event>
 4      1 +2.4041262e-06 9.11880000e+01 7.81860800e-03 1.13011600e-01
       25 -1    0    0    0    0 +0.0000000000e+00 +0.0000000000e+00 +9.9999998245e-15 1.2500000000e+02 1.2500000000e+02 0.0000e+00 0.0000e+00
      -11  1    1    0    0    0 -2.0190320106e+01 +7.6392653542e+00 +3.6828141741e+01 4.2688633446e+01 5.1100000000e-04 0.0000e+00 -1.0000e+00
       11  1    1    0    0    0 -9.2824257556e+00 +3.5363620719e+00 +1.7141308550e+01 1.9811454860e+01 5.1100000000e-04 0.0000e+00 1.0000e+00
       22  1    1    0    0    0 +2.9472745861e+01 -1.1175627426e+01 -5.3969450291e+01 6.2499911694e+01 0.0000000000e+00 0.0000e+00 -1.0000e+00
</event>
<event>
 4      1 +2.4041262e-06 9.11880000e+01 7.81860800e-03 1.13011600e-01
       25 -1    0    0    0    0 +0.0000000000e+00 +0.0000000000e+00 +9.9999998245e-15 1.2500000000e+02 1.2500000000e+02 0.0000e+00 0.0000e+00
      -13  1    1    0    0    0 +8.7819430682e+00 -5.8567812524e+01 -1.9972934609e+01 6.2499923751e+01 1.0566000000e-01 0.0000e+00 -1.0000e+00
       13  1    1    0    0    0 -8.7819661852e+00 +5.8567873713e+01 +1.9972977485e+01 6.2499998040e+01 1.0566000000e-01 0.0000e+00 -1.0000e+00
       22  1    1    0    0    0 +2.3116929770e-05 -6.1188628817e-05 -4.2875845996e-05 7.8209838949e-05 0.0000000000e+00 0.0000e+00 1.0000e+00
</event>
<event>
 4      1 +2.4041262e-06 9.11880000e+01 7.81860800e-03 1.13011600e-01
       25 -1    0    0    0    0 +0.0000000000e+00 +0.0000000000e+00 +9.9999998245e-15 1.2500000000e+02 1.2500000000e+02 0.0000e+00 0.0000e+00
      -13  1    1    0    0    0 -7.6723834042e+00 -5.1213052070e+01 +3.4994236275e+01 6.2499999248e+01 1.0566000000e-01 0.0000e+00 1.0000e+00
       13  1    1    0    0    0 +7.6723834929e+00 +5.1213052638e+01 -3.4994236765e+01 6.2499999998e+01 1.0566000000e-01 0.0000e+00 1.0000e+00
       22  1    1    0    0    0 -8.8709887441e-08 -5.6721396938e-07 +4.8941919539e-07 7.5440856305e-07 0.0000000000e+00 0.0000e+00 1.0000e+00
</event>
<event>
 4      1 +2.4041262e-06 9.11880000e+01 7.81860800e-03 1.13011600e-01
       25 -1    0    0    0    0 +0.0000000000e+00 +0.0000000000e+00 +9.9999998245e-15 1.2500000000e+02 1.2500000000e+02 0.0000e+00 0.0000e+00
      -11  1    1    0    0    0 +2.2294384360e+01 +1.6843018398e+01 +3.7960942680e+01 4.7135549346e+01 5.1100000000e-04 0.0000e+00 1.0000e+00
       11  1    1    0    0    0 +7.2651104311e+00 +5.4900244280e+00 +1.2375142350e+01 1.5364450730e+01 5.1100000000e-04 0.0000e+00 -1.0000e+00
       22  1    1    0    0    0 -2.9559494791e+01 -2.2333042826e+01 -5.0336085031e+01 6.2499999923e+01 0.0000000000e+00 0.0000e+00 1.0000e+00
</event>
<event>
 4      1 +2.4041262e-06 9.11880000e+01 7.81860800e-03 1.13011600e-01
       25 -1    0    0    0    0 +0.0000000000e+00 +0.0000000000e+00 +9.9999998245e-15 1.2500000000e+02 1.2500000000e+02 0.0000e+00 0.0000e+00
      -13  1    1    0    0    0 +5.0911715655e+01 -2.9314612159e+01 -2.1327929164e+01 6.2499928027e+01 1.0566000000e-01 0.0000e+00 -1.0000e+00
       13  1    1    0    0    0 -4.8969073112e+01 +2.8187514744e+01 +2.0538375162e+01 6.0119398926e+01 1.0566000000e-01 0.0000e+00 -1.0000e+00
       22  1    1    0    0    0 -1.9426425436e+00 +1.1270974147e+00 +7.8955400169e-01 2.3806730468e+00 0.0000000000e+00 0.0000e+00 1.0000e+00
</event>
<event>
 4      1 +2.4041262e-06 9.11880000e+01 7.81860800e-03 1.13011600e-01
       25 -1    0    0    0    0 +0.0000000000e+00 +0.0000000000e+00 +9.9999998245e-15 1.2500000000e+02 1.2500000000e+02 0.0000e+00 0.0000e+00
      -13  1    1    0    0    0 +5.6774918094e+01 +2.5854814183e+01 +3.7845357194e+00 6.2499572924e+01 1.0566000000e-01 0.0000e+00 1.0000e+00
       13  1    1    0    0    0 -5.6775310429e+01 -2.5854980559e+01 -3.7845649528e+00 6.2499999920e+01 1.0566000000e-01 0.0000e+00 1.0000e+00
       22  1    1    0    0    0 +3.9233534449e-04 +1.6637642423e-04 +2.9233377854e-05 4.2715656082e-04 0.0000000000e+00 0.0000e+00 1.0000e+00
</event>
<event>
 5      1 +2.4041262e-06 9.11880000e+01 7.81860800e-03 1.13011600e-01
       25 -1    0    0    0    0 +0.0000000000e+00 +0.0000000000e+00 +9.9999998245e-15 1.2500000000e+02 1.2500000000e+02 0.0000e+00 0.0000e+00
       23  2    1    0    0    0 -2.5421824516e+01 -2.1270590260e+00 +1.6604424752e+01 9.4561529881e+01 8.9528668427e+01 0.0000e+00 0.0000e+00
      -11  1    2    2    0    0 +3.2600590549e+01 +6.4841488787e+00 -1.2006228897e+00 3.3260850657e+01 5.1100000000e-04 0.0000e+00 1.0000e+00
       11  1    2    2    0    0 -5.8022415065e+01 -8.6112079047e+00 +1.7805047642e+01 6.1300679224e+01 5.1100000000e-04 0.0000e+00 -1.0000e+00
       22  1    1    0    0    0 +2.5421824516e+01 +2.1270590260e+00 -1.6604424752e+01 3.0438470119e+01 0.0000000000e+00 0.0000e+00 -1.0000e+00
</event>
<event>
 4      1 +2.4041262e-06 9.11880000e+01 7.81860800e-03 1.13011600e-01
       25 -1    0    0    0    0 +0.0000000000e+00 +0.0000000000e+00 +9.9999998245e-15 1.2500000000e+02 1.2500000000e+02 0.0000e+00 0.0000e+00
      -13  1    1    0    0    0 +4.5931580038e+01 +4.2373851131e+01 +9.9009333420e-01 6.2499958026e+01 1.0566000000e-01 0.0000e+00 -1.0000e+00
       13  1    1    0    0    0 -4.5418139077e+01 -4.1912902641e+01 -9.8423828279e-01 6.1810020661e+01 1.0566000000e-01 0.0000e+00 -1.0000e+00
       22  1    1    0    0    0 -5.1344096132e-01 -4.6094848960e-01 -5.8550514061e-03 6.9002131305e-01 0.0000000000e+00 0.0000e+00 -1.0000e+00
</event>
<event>
 4      1 +2.4041262e-06 9.11880000e+01 7.81860800e-03 1.13011600e-01
       25 -1    0    0    0    0 +0.0000000000e+00 +0.0000000000e+00 +9.9999998245e-15 1.2500000000e+02 1.2500000000e+02 0.0000e+00 0.0000e+00
      -13  1    1    0    0    0 -2.1989203398e+01 -2.3824683092e+01 -1.1512059332e+01 3.4404640161e+01 1.0566000000e-01 0.0000e+00 -1.0000e+00
       13  1    1    0    0    0 -2.4120614696e+01 -1.3709075802e+01 -6.4538606803e+00 2.8485194301e+01 1.0566000000e-01 0.0000e+00 1.0000e+00
       22  1    1    0    0    0 +4.6109818093e+01 +3.7533758894e+01 +1.7965920012e+01 6.2110165538e+01 0.0000000000e+00 0.0000e+00 -1.0000e+00
</event>
<event>
 4      1 +2.4041262e-06 9.11880000e+01 7.81860800e-03 1.13011600e-01
       25 -1    0    0    0    0 +0.0000000000e+00 +0.0000000000e+00 +9.9999998245e-15 1.2500000000e+02 1.2500000000e+02 0.0000e+00 0.0000e+00
      -11  1    1    0    0    0 +1.6971283906e+01 +1.8339194171e+01 -2.2249628111e+01 3.3457382916e+01 5.1100000000e-04 0.0000e+00 -1.0000e+00
       11  1    1    0    0    0 +1.5154797506e+01 +1.5883798236e+01 -1.9015328518e+01 2.9043857402e+01 5.1100000000e-04 0.0000e+00 1.0000e+00
       22  1    1    0    0    0 -3.2126081412e+01 -3.4222992408e+01 +4.1264956629e+01 6.2498759682e+01 0.0000000000e+00 0.0000e+00 -1.0000e+00
</event>
<event>
 4      1 +2.4041262e-06 9.11880000e+01 7.81860800e-03 1.13011600e-01
       25 -1    0    0    0    0 +0.0000000000e+00 +0.0000000000e+00 +9.9999998245e-15 1.2500000000e+02 1.2500000000e+02 0.0000e+00 0.0000e+00
      -13  1    1    0    0    0 -2.5738600689e+01 -2.5989480972e+01 +5.0678497900e+01 6.2500000000e+01 1.0566000000e-01 0.0000e+00 -1.0000e+00
       13  1    1    0    0    0 +2.5738600682e+01 +2.5989480964e+01 -5.0678497883e+01 6.2499999980e+01 1.0566000000e-01 0.0000e+00 -1.0000e+00
       22  1    1    0    0    0 +7.3077545393e-09 +7.9728233884e-09 -1.6561339048e-08 1.9779968156e-08 0.0000000000e+00 0.0000e+00 -1.0000e+00
</event>
<event>
 4      1 +2.4041262e-06 9.11880000e+01 7.81860800e-03 1.13011600e-01
       25 -1    0    0    0    0 +0.0000000000e+00 +0.0000000000e+00 +9.9999998245e-15 1.2500000000e+02 1.2500000000e+02 0.0000e+00 0.0000e+00
      -11  1    1    0    0    0 -1.4755933003e+01 +1.6064977957e+01 +2.9601958580e+01 3.6770871999e+01 5.1100000000e-04 0.0000e+00 1.0000e+00
       11  1    1    0    0    0 -2.2172521466e+01 -5.7581993433e+00 +1.6526868284e+01 2.8247388258e+01 5.1100000000e-04 0.0000e+00 -1.0000e+00
       22  1    1    0    0    0 +3.6928454469e+01 -1.0306778613e+01 -4.6128826864e+01 5.9981739744e+01 0.0000000000e+00 0.0000e+00 -1.0000e+00
</event>
<event>
 4      1 +2.4041262e-06 9.11880000e+01 7.81860800e-03 1.13011600e-01
       25 -1    0    0    0    0 +0.0000000000e+00 +0.0000000000e+00 +9.9999998245e-15 1.2500000000e+02 1.2500000000e+02 0.0000e+00 0.0000e+00
      -13  1    1    0    0    0 -5.7895929821e+01 -2.0571238333e+01 +1.1450881715e+01 6.2499987139e+01 1.0566000000e-01 0.0000e+00 -1.0000e+00
       13  1    1    0    0    0 +5.7895942304e+01 +2.0571241129e+01 -1.1450883479e+01 6.2499999947e+01 1.0566000000e-01 0.0000e+00 -1.0000e+00
       22  1    1    0    0    0 -1.2483470033e-05 -2.7963225283e-06 +1.7632108633e-06 1.2913766154e-05 0.0000000000e+00 0.0000e+00 -1.0000e+00
</event>
<event>
 4      1 +2.4041262e-06 9.11880000e+01 7.81860800e-03 1.13011600e-01
       25 -1    0    0    0    0 +0.0000000000e+00 +0.0000000000e+00 +9.9999998245e-15 1.2500000000e+02 1.2500000000e+02 0.0000e+00 0.0000e+00
      -13  1    1    0    0    0 +2.3602558783e+01 -4.3448498418e+01 -3.8228078809e+01 6.2499999754e+01 1.0566000000e-01 0.0000e+00 1.0000e+00
       13  1    1    0    0    0 -2.3602558878e+01 +4.3448498603e+01 +3.8228078940e+01 6.2499999999e+01 1.0566000000e-01 0.0000e+00 1.0000e+00
       22  1    1    0    0    0 +9.5656545298e-08 -1.8495359290e-07 -1.3155472064e-07 2.4630195028e-07 0.0000000000e+00 0.0000e+00 -1.0000e+00
</event>
<event>
 4      1 +2.4041262e-06 9.11880000e+01 7.81860800e-03 1.13011600e-01
       25 -1    0    0    0    0 +0.0000000000e+00 +0.0000000000e+00 +9.9999998245e-15 1.2500000000e+02 1.2500000000e+02 0.0000e+00 0.0000e+00
      -11  1    1    0    0    0 -1.8288590797e+01 +3.5908010607e+00 +9.2527233538e+00 2.0808154539e+01 5.1100000000e-04 0.0000e+00 1.0000e+00
       11  1    1    0    0    0 -3.6647971656e+01 +7.2135886378e+00 +1.8522969429e+01 4.1691846737e+01 5.1100000000e-04 0.0000e+00 -1.0000e+00
       22  1    1    0    0    0 +5.4936562453e+01 -1.0804389698e+01 -2.7775692783e+01 6.2499998724e+01 0.0000000000e+00 0.0000e+00 -1.0000e+00
</event>
<event>
 4      1 +2.4041262e-06 9.11880000e+01 7.81860800e-03 1.13011600e-01
       25 -1    0    0    0    0 +0.0000000000e+00 +0.0000000000e+00 +9.9999998245e-15 1.2500000000e+02 1.2500000000e+02 0.0000e+00 0.0000e+00
      -13  1    1    0    0    0 +3.1394399010e+01 +3.5152063219e+01 +4.1048297323e+01 6.2499997719e+01 1.0566000000e-01 0.0000e+00 1.0000e+00
       13  1    1    0    0    0 -3.1394400155e+01 -3.5152064473e+01 -4.1048298846e+01 6.2500000000e+01 1.0566000000e-01 0.0000e+00 1.0000e+00
       22  1    1    0    0    0 +1.1450915028e-06 +1.2542753005e-06 +1.5224333553e-06 2.2808429145e-06 0.0000000000e+00 0.0000e+00 -1.0000e+00
</event>
<event>
 4      1 +2.4041262e-06 9.11880000e+01 7.81860800e-03 1.13011600e-01
       25 -1    0    0    0    0 +0.0000000000e+00 +0.0000000000e+00 +9.9999998245e-15 1.2500000000e+02 1.2500000000e+02 0.0000e+00 0.0000e+00
      -13  1    1    0    0    0 +2.9365349908e+01 -4.4608920625e+01 -3.2464650455e+01 6.2499954141e+01 1.0566000000e-01 0.0000e+00 -1.0000e+00
       13  1    1    0    0    0 -2.9365371762e+01 +4.4608953339e+01 +3.2464674018e+01 6.2499999999e+01 1.0566000000e-01 0.0000e+00 -1.0000e+00
       22  1    1    0    0    0 +2.1854879332e-05 -3.2714733811e-05 -2.3562721646e-05 4.5859474597e-05 0.0000000000e+00 0.0000e+00 -1.0000e+00
</event>
<event>
 4      1 +2.4041262e-06 9.11880000e+01 7.81860800e-03 1.13011600e-01
       25 -1    0    0    0    0 +0.0000000000e+00 +0.0000000000e+00 +9.9999998245e-15 1.2500000000e+02 1.2500000000e+02 0.0000e+00 0.0000e+00
      -13  1    1    0    0    0 -1.5573809127e+01 -4.4411583215e+01 +4.1125497949e+01 6.2500000000e+01 1.0566000000e-01 0.0000e+00 -1.0000e+00
       13  1    1    0    0    0 +1.5573809127e+01 +4.4411583215e+01 -4.1125497949e+01 6.2500000000e+01 1.0566000000e-01 0.0000e+00 -1.0000e+00
       22  1    1    0    0    0 -5.3400046401e-11 +5.9667780163e-11 -6.5044388241e-13 8.0076413645e-11 0.0000000000e+00 0.0000e+00 -1.0000e+00
</event>
<event>
 5      1 +2.4041262e-06 9.11880000e+01 7.81860800e-03 1.13011600e-01
       25 -1    0    0    0    0 +0.0000000000e+00 +0.0000000000e+00 +9.9999998245e-15 1.2500000000e+02 1.2500000000e+02 0.0000e+00 0.0000e+00
       23  2    1    0    0    0 +1.4310304953e+01 +2.0700898092e+01 +1.4587682024e+01 9.5911987409e+01 9.1394730988e+01 0.0000e+00 0.0000e+00
      -13  1    2    2    0    0 +2.3380412189e+01 +1.7700600668e+01 +5.0692968362e+01 5.8564008943e+01 1.0566000000e-01 0.0000e+00 -1.0000e+00
       13  1    2    2    0    0 -9.0701072357e+00 +3.0002974238e+00 -3.6105286338e+01 3.7347978466e+01 1.0566000000e-01 0.0000e+00 1.0000e+00
       22  1    1    0    0    0 -1.4310304953e+01 -2.0700898092e+01 -1.4587682024e+01 2.9088012591e+01 0.0000000000e+00 0.0000e+00 -1.0000e+00
</event>
<event>
 5      1 +2.4041262e-06 9.11880000e+01 7.81860800e-03 1.13011600e-01
       25 -1    0    0    0    0 +0.0000000000e+00 +0.0000000000e+00 +9.9999998245e-15 1.2500000000e+02 1.2500000000e+02 0.0000e+00 0.0000e+00
       23  2    1    0    0    0 +9.3171319913e+00 +4.6322980856e+00 -2.6543654492e+01 9.6489778537e+01 9.2181585115e+01 0.0000e+00 0.0000e+00
      -13  1    2    2    0    0 -2.8227035561e+01 +4.4338417571e+00 +2.1324981299e+01 3.5653758297e+01 1.0566000000e-01 0.0000e+00 -1.0000e+00
       13  1    2    2    0    0 +3.7544167552e+01 +1.9845632850e-01 -4.7868635791e+01 6.0836020240e+01 1.0566000000e-01 0.0000e+00 1.0000e+00
       22  1    1    0    0    0 -9.3171319913e+00 -4.6322980856e+00 +2.6543654492e+01 2.8510221463e+01 0.0000000000e+00 0.0000e+00 1.0000e+00
</event>
<event>
 4      1 +2.4041262e-06 9.11880000e+01 7.81860800e-03 1.13011600e-01
       25 -1    0    0    0    0 +0.0000000000e+00 +0.0000000000e+00 +9.9999998245e-15 1.2500000000e+02 1.2500000000e+02 0.0000e+00 0.0000e+00
      -11  1    1    0    0    0 +1.0005148223e+01 -5.0722044087e+00 +2.7956373293e+01 3.0122899204e+01 5.1100000000e-04 0.0000e+00 1.0000e+00
       11  1    1    0    0    0 +1.0754017963e+01 -5.4513706723e+00 +3.0048466041e+01 3.2377100801e+01 5.1100000000e-04 0.0000e+00 -1.0000e+00
       22  1    1    0    0    0 -2.0759166186e+01 +1.0523575081e+01 -5.8004839334e+01 6.2499999995e+01 0.0000000000e+00 0.0000e+00 -1.0000e+00
</event>
<event>
 4      1 +2.4041262e-06 9.11880000e+01 7.81860800e-03 1.13011600e-01
       25 -1    0    0    0    0 +0.0000000000e+00 +0.0000000000e+00 +9.9999998245e-15 1.2500000000e+02 1.2500000000e+02 0.0000e+00 0.0000e+00
      -13  1    1    0    0    0 +8.5544799855e+00 -1.8363619087e+01 -2.6787160782e+01 3.3585186922e+01 1.0566000000e-01 0.0000e+00 -1.0000e+00
       13  1    1    0    0    0 +6.1359941091e+00 -1.4475950419e+01 -2.4293074406e+01 2.8937314878e+01 1.0566000000e-01 0.0000e+00 1.0000e+00
       22  1    1    0    0    0 -1.4690474095e+01 +3.2839569505e+01 +5.1080235188e+01 6.2477498200e+01 0.0000000000e+00 0.0000e+00 1.0000e+00
</event>
<event>
 4      1 +2.4041262e-06 9.11880000e+01 7.81860800e-03 1.13011600e-01
       25 -1    0    0    0    0 +0.0000000000e+00 +0.0000000000e+00 +9.9999998245e-15 1.2500000000e+02 1.2500000000e+02 0.0000e+00 0.0000e+00
      -13  1    1    0    0    0 -3.6182151523e+01 +4.2216856747e+01 -2.8545173504e+01 6.2499993415e+01 1.0566000000e-01 0.0000e+00 -1.0000e+00
       13  1    1    0    0    0 +3.6182154252e+01 -4.2216861489e+01 +2.8545177294e+01 6.2499999929e+01 1.0566000000e-01 0.0000e+00 -1.0000e+00
       22  1    1    0    0    0 -2.7289265047e-06 +4.7424486948e-06 -3.7901214311e-06 6.6560408617e-06 0.0000000000e+00 0.0000e+00 1.0000e+00
</event>
<event>
 4      1 +2.4041262e-06 9.11880000e+01 7.81860800e-03 1.13011600e-01
       25 -1    0    0    0    0 +0.0000000000e+00 +0.0000000000e+00 +9.9999998245e-15 1.2500000000e+02 1.2500000000e+02 0.0000e+00 0.0000e+00
      -13  1    1    0    0    0 -2.7762368406e+01 +5.2769601151e+01 +1.8717594124e+01 6.2495915058e+01 1.0566000000e-01 0.0000e+00 -1.0000e+00
       13  1    1    0    0    0 +2.7760946582e+01 -5.2774288400e+01 -1.8717399099e+01 6.2499182910e+01 1.0566000000e-01 0.0000e+00 -1.0000e+00
       22  1    1    0    0    0 +1.4218234538e-03 +4.6872494522e-03 -1.9502466868e-04 4.9020326378e-03 0.0000000000e+00 0.0000e+00 1.0000e+00
</event>
<event>
 4      1 +2.4041262e-06 9.11880000e+01 7.81860800e-03 1.13011600e-01
       25 -1    0    0    0    0 +0.0000000000e+00 +0.0000000000e+00 +9.9999998245e-15 1.2500000000e+02 1.2500000000e+02 0.0000e+00 0.0000e+00
      -13  1    1    0    0    0 +1.2269755842e+01 +2.6401579079e+01 -3.9553170283e+00 2.9381048026e+01 1.0566000000e-01 0.0000e+00 -1.0000e+00
       13  1    1    0    0    0 +2.3206920589e+01 +2.1527268369e+01 +1.4911216235e+01 3.4990569877e+01 1.0566000000e-01 0.0000e+00 1.0000e+00
       22  1    1    0    0    0 -3.5476676431e+01 -4.7928847448e+01 -1.0955899207e+01 6.0628382097e+01 0.0000000000e+00 0.0000e+00 -1.0000e+00
</event>
<event>
 4      1 +2.4041262e-06 9.11880000e+01 7.81860800e-03 1.13011600e-01
       25 -1    0    0    0    0 +0.0000000000e+00 +0.0000000000e+00 +9.9999998245e-15 1.2500000000e+02 1.2500000000e+02 0.0000e+00 0.0000e+00
      -13  1    1    0    0    0 +5.9661576999e+01 -1.0357559783e+01 -1.5472781353e+01 6.2499607531e+01 1.0566000000e-01 0.0000e+00 -1.0000e+00
       13  1    1    0    0    0 -5.9661935778e+01 +1.0357645031e+01 +1.5472920048e+01 6.2499998482e+01 1.0566000000e-01 0.0000e+00 -1.0000e+00
       22  1    1    0    0    0 +3.5877908017e-04 -8.5248172809e-05 -1.3869563912e-04 3.9398751205e-04 0.0000000000e+00 0.0000e+00 1.0000e+00
</event>
<event>
 4      1 +2.4041262e-06 9.11880000e+01 7.81860800e-03 1.13011600e-01
       25 -1    0    0    0    0 +0.0000000000e+00 +0.0000000000e+00 +9.9999998245e-15 1.2500000000e+02 1.2500000000e+02 0.0000e+00 0.0000e+00
      -13  1    1    0    0    0 -3.1164595029e+01 -8.3222424442e+00 +5.3532666746e+01 6.2499994205e+01 1.0566000000e-01 0.0000e+00 1.0000e+00
       13  1    1    0    0    0 +3.1164597903e+01 +8.3222432349e+00 -5.3532671716e+01 6.2500000000e+01 1.0566000000e-01 0.0000e+00 1.0000e+00
       22  1    1    0    0    0 -2.8733859422e-06 -7.9071681873e-07 +4.9704378130e-06 5.7954147317e-06 0.0000000000e+00 0.0000e+00 -1.0000e+00
</event>
<event>
 4      1 +2.4041262e-06 9.11880000e+01 7.81860800e-03 1.13011600e-01
       25 -1    0    0    0    0 +0.0000000000e+00 +0.0000000000e+00 +9.9999998245e-15 1.2500000000e+02 1.2500000000e+02 0.0000e+00 0.0000e+00
      -13  1    1    0    0    0 +4.3203096112e+01 -1.7551356594e+01 +4.1613472224e+01 6.2499998932e+01 1.0566000000e-01 0.0000e+00 -1.0000e+00
       13  1    1    0    0    0 -4.3203096863e+01 +1.7551356757e+01 -4.1613472972e+01 6.2499999995e+01 1.0566000000e-01 0.0000e+00 -1.0000e+00
       22  1    1    0    0    0 +7.5151579863e-07 -1.6293561728e-07 +7.4761262800e-07 1.0724964580e-06 0.0000000000e+00 0.0000e+00 -1.0000e+00
</event>
<event>
 5      1 +2.4041262e-06 9.11880000e+01 7.81860800e-03 1.13011600e-01
       25 -1    0    0    0    0 +0.0000000000e+00 +0.0000000000e+00 +9.9999998245e-15 1.2500000000e+02 1.2500000000e+02 0.0000e+00 0.0000e+00
       23  2    1    0    0    0 -2.2623847604e+01 +2.0128558854e+00 +1.8648071518e+01 9.5612236551e+01 9.0983839981e+01 0.0000e+00 0.0000e+00
      -11  1    2    2    0    0 +3.4473348402e+01 -1.4351493795e+00 -2.5788405871e+00 3.4599448302e+01 5.1100000000e-04 0.0000e+00 1.0000e+00
       11  1    2    2    0    0 -5.7097196006e+01 +3.4480052648e+00 +2.1226912105e+01 6.1012788248e+01 5.1100000000e-04 0.0000e+00 -1.0000e+00
       22  1    1    0    0    0 +2.2623847604e+01 -2.0128558854e+00 -1.8648071518e+01 2.9387763449e+01 0.0000000000e+00 0.0000e+00 -1.0000e+00
</event>
<event>
 4      1 +2.4041262e-06 9.11880000e+01 7.81860800e-03 1.13011600e-01
       25 -1    0    0    0    0 +0.0000000000e+00 +0.0000000000e+00 +9.9999998245e-15 1.2500000000e+02 1.2500000000e+02 0.0000e+00 0.0000e+00
      -11  1    1    0    0    0 +7.1498963175e+00 +6.3467206589e-01 -1.1076308950e+01 1.3198804726e+01 5.1100000000e-04 0.0000e+00 1.0000e+00
       11  1    1    0    0    0 +3.4524360614e+01 +2.6198338881e+01 +3.5982702764e+01 5.6329737567e+01 5.1100000000e-04 0.0000e+00 -1.0000e+00
       22  1    1    0    0    0 -4.1674256931e+01 -2.6833010947e+01 -2.4906393814e+01 5.5471457706e+01 0.0000000000e+00 0.0000e+00 -1.0000e+00
</event>
<event>
 4      1 +2.4041262e-06 9.11880000e+01 7.81860800e-03 1.13011600e-01
       25 -1    0    0    0    0 +0.0000000000e+00 +0.0000000000e+00 +9.9999998245e-15 1.2500000000e+02 1.2500000000e+02 0.0000e+00 0.0000e+00
      -13  1    1    0    0    0 -6.1422067301e+01 -1.0087408021e+01 +2.7876819643e+00 6.2307371048e+01 1.0566000000e-01 0.0000e+00 -1.0000e+00
       13  1    1    0    0    0 +5.9054350205e+01 +8.4534650169e+00 -1.9179153341e+00 5.9687242458e+01 1.0566000000e-01 0.0000e+00 -1.0000e+00
       22  1    1    0    0    0 +2.3677170965e+00 +1.6339430039e+00 -8.6976663023e-01 3.0053864943e+00 0.0000000000e+00 0.0000e+00 1.0000e+00
</event>
<event>
 4      1 +2.4041262e-06 9.11880000e+01 7.81860800e-03 1.13011600e-01
       25 -1    0    0    0    0 +0.0000000000e+00 +0.0000000000e+00 +9.9999998245e-15 1.2500000000e+02 1.2500000000e+02 0.0000e+00 0.0000e+00
      -11  1    1    0    0    0 -4.8480683756e+01 -3.1593844108e+01 +2.1891988364e+01 6.1869272161e+01 5.1100000000e-04 0.0000e+00 1.0000e+00
       11  1    1    0    0    0 -4.9370613024e-01 -3.2255137687e-01 +2.2367994085e-01 6.3072823848e-01 5.1100000000e-04 0.0000e+00 -1.0000e+00
       22  1    1    0    0    0 +4.8974389886e+01 +3.1916395485e+01 -2.2115668304e+01 6.2499999600e+01 0.0000000000e+00 0.0000e+00 1.0000e+00
</event>
<event>
 4      1 +2.4041262e-06 9.11880000e+01 7.81860800e-03 1.13011600e-01
       25 -1    0    0    0    0 +0.0000000000e+00 +0.0000000000e+00 +9.9999998245e-15 1.2500000000e+02 1.2500000000e+02 0.0000e+00 0.0000e+00
      -13  1    1    0    0    0 +3.3247868101e+01 -1.1640029771e+01 -5.1626808268e+01 6.2499996178e+01 1.0566000000e-01 0.0000e+00 -1.0000e+00
       13  1    1    0    0    0 -3.3247859304e+01 +1.1640005492e+01 +5.1626791161e+01 6.2499972846e+01 1.0566000000e-01 0.0000e+00 -1.0000e+00
       22  1    1    0    0    0 -8.7970075067e-06 +2.4279162649e-05 +1.7107140137e-05 3.0976108918e-05 0.0000000000e+00 0.0000e+00 1.0000e+00
</event>
<event>
 4      1 +2.4041262e-06 9.11880000e+01 7.81860800e-03 1.13011600e-01
       25 -1    0    0    0    0 +0.0000000000e+00 +0.0000000000e+00 +9.9999998245e-15 1.2500000000e+02 1.2500000000e+02 0.0000e+00 0.0000e+00
      -11  1    1    0    0    0 -5.2814307883e+01 +1.4410634323e+01 -1.3443418030e+01 5.6371473170e+01 5.1100000000e-04 0.0000e+00 -1.0000e+00
       11  1    1    0    0    0 -5.7451463469e+00 +1.5581827340e+00 -1.4574793257e+00 6.1285305111e+00 5.1100000000e-04 0.0000e+00 1.0000e+00
       22  1    1    0    0    0 +5.8559454230e+01 -1.5968817057e+01 +1.4900897356e+01 6.2499996319e+01 0.0000000000e+00 0.0000e+00 -1.0000e+00
</event>
<event>
 4      1 +2.4041262e-06 9.11880000e+01 7.81860800e-03 1.13011600e-01
       25 -1    0    0    0    0 +0.0000000000e+00 +0.0000000000e+00 +9.9999998245e-15 1.2500000000e+02 1.2500000000e+02 0.0000e+00 0.0000e+00
      -13  1    1    0    0    0 +5.1369286482e+01 -3.0449645109e+01 +1.8445984795e+01 6.2500000000e+01 1.0566000000e-01 0.0000e+00 1.0000e+00
       13  1    1    0    0    0 -5.1369286465e+01 +3.0449645103e+01 -1.8445984790e+01 6.2499999982e+01 1.0566000000e-01 0.0000e+00 1.0000e+00
       22  1    1    0    0    0 -1.6082281319e-08 +5.2917098527e-09 -5.4404531426e-09 1.7783152026e-08 0.0000000000e+00 0.0000e+00 1.0000e+00
</event>
<event>
 4      1 +2.4041262e-06 9.11880000e+01 7.81860800e-03 1.13011600e-01
       25 -1    0    0    0    0 +0.0000000000e+00 +0.0000000000e+00 +9.9999998245e-15 1.2500000000e+02 1.2500000000e+02 0.0000e+00 0.0000e+00
      -11  1    1    0    0    0 +9.3739757397e+00 +2.9688012465e+01 -4.3338302096e+01 5.3361577321e+01 5.1100000000e-04 0.0000e+00 1.0000e+00
       11  1    1    0    0    0 +1.6123723439e+00 +5.0805763660e+00 -7.4228562791e+00 9.1384241742e+00 5.1100000000e-04 0.0000e+00 -1.0000e+00
       22  1    1    0    0    0 -1.0986348084e+01 -3.4768588831e+01 +5.0761158375e+01 6.2499998505e+01 0.0000000000e+00 0.0000e+00 1.0000e+00
</event>
<event>
 4      1 +2.4041262e-06 9.11880000e+01 7.81860800e-03 1.13011600e-01
       25 -1    0    0    0    0 +0.0000000000e+00 +0.0000000000e+00 +9.9999998245e-15 1.2500000000e+02 1.2500000000e+02 0.0000e+00 0.0000e+00
      -13  1    1    0    0    0 +2.7988352533e+01 +4.9673750440e+01 -2.5600966022e+01 6.2499999885e+01 1.0566000000e-01 0.0000e+00 -1.0000e+00
       13  1    1    0    0    0 -2.7988352492e+01 -4.9673749793e+01 +2.5600966226e+01 6.2499999436e+01 1.0566000000e-01 0.0000e+00 -1.0000e+00
       22  1    1    0    0    0 -4.0394634452e-08 -6.4709883074e-07 -2.0380043406e-07 6.7963463726e-07 0.0000000000e+00 0.0000e+00 -1.0000e+00
</event>
<event>
 4      1 +2.4041262e-06 9.11880000e+01 7.81860800e-03 1.13011600e-01
       25 -1    0    0    0    0 +0.0000000000e+00 +0.0000000000e+00 +9.9999998245e-15 1.2500000000e+02 1.2500000000e+02 0.0000e+00 0.0000e+00
      -13  1    1    0    0    0 -5.8692030995e+01 -6.8690801706e+00 +1.8930976231e+01 6.2051041811e+01 1.0566000000e-01 0.0000e+00 1.0000e+00
       13  1    1    0    0    0 +5.9098562827e+01 +6.9652031785e+00 -1.9100755810e+01 6.2498033730e+01 1.0566000000e-01 0.0000e+00 1.0000e+00
       22  1    1    0    0    0 -4.0653183168e-01 -9.6123007918e-02 +1.6977957874e-01 4.5092445950e-01 0.0000000000e+00 0.0000e+00 1.0000e+00
</event>
<event>
 5      1 +2.4041262e-06 9.11880000e+01 7.81860800e-03 1.13011600e-01
       25 -1    0    0    0    0 +0.0000000000e+00 +0.0000000000e+00 +9.9999998245e-15 1.2500000000e+02 1.2500000000e+02 0.0000e+00 0.0000e+00
       23  2    1    0    0    0 -8.3824828232e+00 +1.5263608229e+01 +2.3576852668e+01 9.5689392087e+01 9.1089780008e+01 0.0000e+00 0.0000e+00
      -13  1    2    2    0    0 +3.0721513894e+01 +3.0134184239e+01 -7.3582516107e+00 4.3658166550e+01 1.0566000000e-01 0.0000e+00 1.0000e+00
       13  1    2    2    0    0 -3.9103996717e+01 -1.4870576010e+01 +3.0935104279e+01 5.2031225537e+01 1.0566000000e-01 0.0000e+00 -1.0000e+00
       22  1    1    0    0    0 +8.3824828232e+00 -1.5263608229e+01 -2.3576852668e+01 2.9310607913e+01 0.0000000000e+00 0.0000e+00 -1.0000e+00
</event>
<event>
 4      1 +2.4041262e-06 9.11880000e+01 7.81860800e-03 1.13011600e-01
       25 -1    0    0    0    0 +0.0000000000e+00 +0.0000000000e+00 +9.9999998245e-15 1.2500000000e+02 1.2500000000e+02 0.0000e+00 0.0000e+00
      -13  1    1    0    0    0 +2.8116023620e+01 -1.8196030729e+01 -5.2768787825e+01 6.2499299605e+01 1.0566000000e-01 0.0000e+00 -1.0000e+00
       13  1    1    0    0    0 -2.8116342158e+01 +1.8196229964e+01 +5.2769378935e+01 6.2499999987e+01 1.0566000000e-01 0.0000e+00 -1.0000e+00
       22  1    1    0    0    0 +3.1853762192e-04 -1.9923462141e-04 -5.9110979032e-04 7.0040804904e-04 0.0000000000e+00 0.0000e+00 1.0000e+00
</event>
<event>
 4      1 +2.4041262e-06 9.11880000e+01 7.81860800e-03 1.13011600e-01
       25 -1    0    0    0    0 +0.0000000000e+00 +0.0000000000e+00 +9.9999998245e-15 1.2500000000e+02 1.2500000000e+02 0.0000e+00 0.0000e+00
      -13  1    1    0    0    0 -1.7802580680e+01 +5.0253198861e+01 +3.2617744199e+01 6.2499954202e+01 1.0566000000e-01 0.0000e+00 1.0000e+00
       13  1    1    0    0    0 +1.7802589740e+01 -5.0253238930e+01 -3.2617764891e+01 6.2499999800e+01 1.0566000000e-01 0.0000e+00 1.0000e+00
       22  1    1    0    0    0 -9.0603882767e-06 +4.0069271980e-05 +2.0691986252e-05 4.5997776987e-05 0.0000000000e+00 0.0000e+00 -1.0000e+00
</event>
<event>
 5      1 +2.4041262e-06 9.11880000e+01 7.81860800e-03 1.13011600e-01
       25 -1    0    0    0    0 +0.0000000000e+00 +0.0000000000e+00 +9.9999998245e-15 1.2500000000e+02 1.2500000000e+02 0.0000e+00 0.0000e+00
       23  2    1    0    0    0 -2.3886307438e+01 +1.8078336104e+01 +5.0803605009e+00 9.4615925518e+01 8.9604583473e+01 0.0000e+00 0.0000e+00
      -11  1    2    2    0    0 -4.8345354856e+01 +2.4488099625e+01 +2.7545896688e+01 6.0792407289e+01 5.1100000000e-04 0.0000e+00 1.0000e+00
       11  1    2    2    0    0 +2.4459047417e+01 -6.4097635212e+00 -2.2465536187e+01 3.3823518229e+01 5.1100000000e-04 0.0000e+00 -1.0000e+00
       22  1    1    0    0    0 +2.3886307438e+01 -1.8078336104e+01 -5.0803605009e+00 3.0384074482e+01 0.0000000000e+00 0.0000e+00 1.0000e+00
</event>
<event>
 4      1 +2.4041262e-06 9.11880000e+01 7.81860800e-03 1.13011600e-01
       25 -1    0    0    0    0 +0.0000000000e+00 +0.0000000000e+00 +9.9999998245e-15 1.2500000000e+02 1.2500000000e+02 0.0000e+00 0.0000e+00
      -13  1    1    0    0    0 -3.2671078374e+01 +3.6322962694e+01 +3.8979571225e+01 6.2499400940e+01 1.0566000000e-01 0.0000e+00 -1.0000e+00
       13  1    1    0    0    0 +3.2670188646e+01 -3.6322303729e+01 -3.8980517137e+01 6.2499142831e+01 1.0566000000e-01 0.0000e+00 -1.0000e+00
       22  1    1    0    0    0 +8.8972832656e-04 -6.5896556824e-04 +9.4591203316e-04 1.4562285843e-03 0.0000000000e+00 0.0000e+00 -1.0000e+00
</event>
<event>
 4      1 +2.4041262e-06 9.11880000e+01 7.81860800e-03 1.13011600e-01
       25 -1    0    0    0    0 +0.0000000000e+00 +0.0000000000e+00 +9.9999998245e-15 1.2500000000e+02 1.2500000000e+02 0.0000e+00 0.0000e+00
      -13  1    1    0    0    0 +4.5403212544e+01 +5.3909622880e+00 +4.2599334375e+01 6.2491828561e+01 1.0566000000e-01 0.0000e+00 -1.0000e+00
       13  1    1    0    0    0 -4.5412102838e+01 -5.3915734161e+00 -4.2600560105e+01 6.2499176261e+01 1.0566000000e-01 0.0000e+00 -1.0000e+00
       22  1    1    0    0    0 +8.8902942592e-03 +6.1112815219e-04 +1.2257299346e-03 8.9951777918e-03 0.0000000000e+00 0.0000e+00 1.0000e+00
</event>
<event>
 4      1 +2.4041262e-06 9.11880000e+01 7.81860800e-03 1.13011600e-01
       25 -1    0    0    0    0 +0.0000000000e+00 +0.0000000000e+00 +9.9999998245e-15 1.2500000000e+02 1.2500000000e+02 0.0000e+00 0.0000e+00
      -13  1    1    0    0    0 -5.4395226528e+00 -6.2241921309e+01 +1.5849558416e+00 6.2499347389e+01 1.0566000000e-01 0.0000e+00 -1.0000e+00
       13  1    1    0    0    0 +4.7967807303e+00 +5.5575512671e+01 -1.5241476413e+00 5.5803054613e+01 1.0566000000e-01 0.0000e+00 -1.0000e+00
       22  1    1    0    0    0 +6.4274192253e-01 +6.6664086384e+00 -6.0808200342e-02 6.6975979985e+00 0.0000000000e+00 0.0000e+00 1.0000e+00
</event>
<event>
 4      1 +2.4041262e-06 9.11880000e+01 7.81860800e-03 1.13011600e-01
       25 -1    0    0    0    0 +0.0000000000e+00 +0.0000000000e+00 +9.9999998245e-15 1.2500000000e+02 1.2500000000e+02 0.0000e+00 0.0000e+00
      -11  1    1    0    0    0 +4.7348839548e+00 +4.8956900500e+00 -6.9667995091e+00 9.7428539347e+00 5.1100000000e-04 0.0000e+00 1.0000e+00
       11  1    1    0    0    0 +2.5977213646e+01 +2.6314314619e+01 -3.7630708994e+01 5.2757265304e+01 5.1100000000e-04 0.0000e+00 -1.0000e+00
       22  1    1    0    0    0 -3.0712097601e+01 -3.1210004669e+01 +4.4597508503e+01 6.2499880761e+01 0.0000000000e+00 0.0000e+00 -1.0000e+00
</event>
<event>
 4      1 +2.4041262e-06 9.11880000e+01 7.81860800e-03 1.13011600e-01
       25 -1    0    0    0    0 +0.0000000000e+00 +0.0000000000e+00 +9.9999998245e-15 1.2500000000e+02 1.2500000000e+02 0.0000e+00 0.0000e+00
      -13  1    1    0    0    0 -1.0702932749e+00 -5.9514854170e+01 -1.9054538599e+01 6.2499999999e+01 1.0566000000e-01 0.0000e+00 -1.0000e+00
       13  1    1    0    0    0 +1.0702932517e+00 +5.9514853720e+01 +1.9054538406e+01 6.2499999511e+01 1.0566000000e-01 0.0000e+00 -1.0000e+00
       22  1    1    0    0    0 +2.3132965890e-08 +4.4983176385e-07 +1.9334715102e-07 4.9017024663e-07 0.0000000000e+00 0.0000e+00 -1.0000e+00
</event>
<event>
 4      1 +2.4041262e-06 9.11880000e+01 7.81860800e-03 1.13011600e-01
       25 -1    0    0    0    0 +0.0000000000e+00 +0.0000000000e+00 +9.9999998245e-15 1.2500000000e+02 1.2500000000e+02 0.0000e+00 0.0000e+00
      -11  1    1    0    0    0 -3.6987612702e+00 +7.5796968742e+00 -1.2335594954e+01 1.4943210591e+01 5.1100000000e-04 0.0000e+00 -1.0000e+00
       11  1    1    0    0    0 -1.2507684817e+01 +2.2607730345e+01 -3.9931063316e+01 4.7560923757e+01 5.1100000000e-04 0.0000e+00 1.0000e+00
       22  1    1    0    0    0 +1.6206446087e+01 -3.0187427219e+01 +5.2266658270e+01 6.2495865652e+01 0.0000000000e+00 0.0000e+00 1.0000e+00
</event>
<event>
 5      1 +2.4041262e-06 9.11880000e+01 7.81860800e-03 1.13011600e-01
       25 -1    0    0    0    0 +0.0000000000e+00 +0.0000000000e+00 +9.9999998245e-15 1.2500000000e+02 1.2500000000e+02 0.0000e+00 0.0000e+00
       23  2    1    0    0    0 -2.0947570158e+01 +4.0205232834e+00 -3.1604761627e+01 8.6870926309e+01 7.8055951581e+01 0.0000e+00 0.0000e+00
      -11  1    2    2    0    0 -1.0153274879e+01 -3.6412611626e+01 -7.3777237197e+00 3.8514907292e+01 5.1100000000e-04 0.0000e+00 -1.0000e+00
       11  1    2    2    0    0 -1.0794295279e+01 +4.0433134909e+01 -2.4227037908e+01 4.8356019017e+01 5.1100000000e-04 0.0000e+00 1.0000e+00
       22  1    1    0    0    0 +2.0947570158e+01 -4.0205232834e+00 +3.1604761627e+01 3.8129073691e+01 0.0000000000e+00 0.0000e+00 1.0000e+00
</event>
<event>
 4      1 +2.4041262e-06 9.11880000e+01 7.81860800e-03 1.13011600e-01
       25 -1    0    0    0    0 +0.0000000000e+00 +0.0000000000e+00 +9.9999998245e-15 1.2500000000e+02 1.2500000000e+02 0.0000e+00 0.0000e+00
      -13  1    1    0    0    0 -5.3378171632e+01 -1.8662768980e+01 -2.2578531849e+01 6.0887842935e+01 1.0566000000e-01 0.0000e+00 1.0000e+00
       13  1    1    0    0    0 +5.4820113089e+01 +1.9232515029e+01 +2.3034818807e+01 6.2495987670e+01 1.0566000000e-01 0.0000e+00 1.0000e+00
       22  1    1    0    0    0 -1.4419414569e+00 -5.6974604862e-01 -4.5628695744e-01 1.6161693948e+00 0.0000000000e+00 0.0000e+00 1.0000e+00
</event>
<event>
 5      1 +2.4041262e-06 9.11880000e+01 7.81860800e-03 1.13011600e-01
       25 -1    0    0    0    0 +0.0000000000e+00 +0.0000000000e+00 +9.9999998245e-15 1.2500000000e+02 1.2500000000e+02 0.0000e+00 0.0000e+00
       23  2    1    0    0    0 +1.0806225184e+01 -1.6078177148e+01 +2.2187218803e+01 9.5545714041e+01 9.0892400729e+01 0.0000e+00 0.0000e+00
      -11  1    2    2    0    0 +7.6283658150e-01 +2.2256327728e+01 -2.5293899003e+01 3.3700257724e+01 5.1100000000e-04 0.0000e+00 -1.0000e+00
       11  1    2    2    0    0 +1.0043388603e+01 -3.8334504876e+01 +4.7481117806e+01 6.1845456317e+01 5.1100000000e-04 0.0000e+00 1.0000e+00
       22  1    1    0    0    0 -1.0806225184e+01 +1.6078177148e+01 -2.2187218803e+01 2.9454285959e+01 0.0000000000e+00 0.0000e+00 1.0000e+00
</event>
<event>
 5      1 +2.4041262e-06 9.11880000e+01 7.81860800e-03 1.13011600e-01
       25 -1    0    0    0    0 +0.0000000000e+00 +0.0000000000e+00 +9.9999998245e-15 1.2500000000e+02 1.2500000000e+02 0.0000e+00 0.0000e+00
       23  2    1    0    0    0 +2.2776744990e+01 -4.2697778617e+00 -6.3326230536e+00 1.0097681890e+02 9.8077544450e+01 0.0000e+00 0.0000e+00
      -13  1    2    2    0    0 -3.0069480423e+01 -2.9344501120e+01 +9.8940258964e-01 4.2026937557e+01 1.0566000000e-01 0.0000e+00 1.0000e+00
       13  1    2    2    0    0 +5.2846225414e+01 +2.5074723258e+01 -7.3220256433e+00 5.8949881344e+01 1.0566000000e-01 0.0000e+00 -1.0000e+00
       22  1    1    0    0    0 -2.2776744990e+01 +4.2697778617e+00 +6.3326230536e+00 2.4023181098e+01 0.0000000000e+00 0.0000e+00 -1.0000e+00
</event>
<event>
 4      1 +2.4041262e-06 9.11880000e+01 7.81860800e-03 1.13011600e-01
       25 -1    0    0    0    0 +0.0000000000e+00 +0.0000000000e+00 +9.9999998245e-15 1.2500000000e+02 1.2500000000e+02 0.0000e+00 0.0000e+00
      -13  1    1    0    0    0 +7.4659849671e+00 +2.5100160323e+01 +1.7347127839e+01 3.1411669616e+01 1.0566000000e-01 0.0000e+00 -1.0000e+00
       13  1    1    0    0    0 +6.6301794414e+00 +2.5192579134e+01 +1.6971868068e+01 3.1091490678e+01 1.0566000000e-01 0.0000e+00 1.0000e+00
       22  1    1    0    0    0 -1.4096164409e+01 -5.0292739457e+01 -3.4318995907e+01 6.2496839706e+01 0.0000000000e+00 0.0000e+00 1.0000e+00
</event>
<event>
 4      1 +2.4041262e-06 9.11880000e+01 7.81860800e-03 1.13011600e-01
       25 -1    0    0    0    0 +0.0000000000e+00 +0.0000000000e+00 +9.9999998245e-15 1.2500000000e+02 1.2500000000e+02 0.0000e+00 0.0000e+00
      -13  1    1    0    0    0 +1.9163017317e+01 +1.2063871924e+01 +2.7408333304e+01 3.5552582706e+01 1.0566000000e-01 0.0000e+00 1.0000e+00
       13  1    1    0    0    0 +1.2444504550e+01 +9.9768678160e+00 +2.1759207518e+01 2.6979211641e+01 1.0566000000e-01 0.0000e+00 -1.0000e+00
       22  1    1    0    0    0 -3.1607521868e+01 -2.2040739740e+01 -4.9167540823e+01 6.2468205653e+01 0.0000000000e+00 0.0000e+00 1.0000e+00
</event>
<event>
 4      1 +2.4041262e-06 9.11880000e+01 7.81860800e-03 1.13011600e-01
       25 -1    0    0    0    0 +0.0000000000e+00 +0.0000000000e+00 +9.9999998245e-15 1.2500000000e+02 1.2500000000e+02 0.0000e+00 0.0000e+00
      -13  1    1    0    0    0 -2.3490851864e+01 +1.8845485675e+01 -3.5429675100e+01 4.6499951541e+01 1.0566000000e-01 0.0000e+00 1.0000e+00
       13  1    1    0    0    0 -9.5989957492e+00 +5.6874832589e+00 -1.1522509783e+01 1.6039562991e+01 1.0566000000e-01 0.0000e+00 -1.0000e+00
       22  1    1    0    0    0 +3.3089847613e+01 -2.4532968933e+01 +4.6952184882e+01 6.2460485468e+01 0.0000000000e+00 0.0000e+00 1.0000e+00
</event>
<event>
 5      1 +2.4041262e-06 9.11880000e+01 7.81860800e-03 1.13011600e-01
       25 -1    0    0    0    0 +0.0000000000e+00 +0.0000000000e+00 +9.9999998245e-15 1.2500000000e+02 1.2500000000e+02 0.0000e+00 0.0000e+00
       23  2    1    0    0    0 -4.0299359092e+00 -3.7909545943e+01 +9.3214248058e+00 8.5753815250e+01 7.6246008501e+01 0.0000e+00 0.0000e+00
      -13  1    2    2    0    0 -7.3455866636e+00 -7.1219371985e+00 -3.2297115618e+01 3.3879115605e+01 1.0566000000e-01 0.0000e+00 -1.0000e+00
       13  1    2    2    0    0 +3.3156507544e+00 -3.0787608745e+01 +4.1618540424e+01 5.1874699644e+01 1.0566000000e-01 0.0000e+00 1.0000e+00
       22  1    1    0    0    0 +4.0299359092e+00 +3.7909545943e+01 -9.3214248058e+00 3.9246184750e+01 0.0000000000e+00 0.0000e+00 1.0000e+00
</event>
<event>
 4      1 +2.4041262e-06 9.11880000e+01 7.81860800e-03 1.13011600e-01
       25 -1    0    0    0    0 +0.0000000000e+00 +0.0000000000e+00 +9.9999998245e-15 1.2500000000e+02 1.2500000000e+02 0.0000e+00 0.0000e+00
      -13  1    1    0    0    0 -5.5953469483e+01 +1.4515524032e+01 -2.3764419705e+01 6.2499999945e+01 1.0566000000e-01 0.0000e+00 -1.0000e+00
       13  1    1    0    0    0 +5.5953469531e+01 -1.4515524047e+01 +2.3764419729e+01 6.2500000000e+01 1.0566000000e-01 0.0000e+00 -1.0000e+00
       22  1    1    0    0    0 -4.8149955254e-08 +1.5191131506e-08 -2.3148164228e-08 5.5543011933e-08 0.0000000000e+00 0.0000e+00 1.0000e+00
</event>
<event>
 4      1 +2.4041262e-06 9.11880000e+01 7.81860800e-03 1.13011600e-01
       25 -1    0    0    0    0 +0.0000000000e+00 +0.0000000000e+00 +9.9999998245e-15 1.2500000000e+02 1.2500000000e+02 0.0000e+00 0.0000e+00
      -13  1    1    0    0    0 -5.2928352587e+00 +3.5333273535e+01 +5.1281424622e+01 6.2499999992e+01 1.0566000000e-01 0.0000e+00 1.0000e+00
       13  1    1    0    0    0 +5.2928353496e+00 -3.5333272979e+01 -5.1281423862e+01 6.2499999062e+01 1.0566000000e-01 0.0000e+00 1.0000e+00
       22  1    1    0    0    0 -9.0843667812e-08 -5.5588821380e-07 -7.5995856521e-07 9.4593937388e-07 0.0000000000e+00 0.0000e+00 1.0000e+00
</event>
<event>
 4      1 +2.4041262e-06 9.11880000e+01 7.81860800e-03 1.13011600e-01
       25 -1    0    0    0    0 +0.0000000000e+00 +0.0000000000e+00 +9.9999998245e-15 1.2500000000e+02 1.2500000000e+02 0.0000e+00 0.0000e+00
      -13  1    1    0    0    0 -5.5654812484e+01 +1.6700554490e+01 +2.3018952259e+01 6.2500000000e+01 1.0566000000e-01 0.0000e+00 1.0000e+00
       13  1    1    0    0    0 +5.5654811879e+01 -1.6700554284e+01 -2.3018952001e+01 6.2499999312e+01 1.0566000000e-01 0.0000e+00 1.0000e+00
       22  1    1    0    0    0 +6.0459893735e-07 -2.0529029637e-07 -2.5736219298e-07 6.8841795387e-07 0.0000000000e+00 0.0000e+00 1.0000e+00
</event>
<event>
 5      1 +2.4041262e-06 9.11880000e+01 7.81860800e-03 1.13011600e-01
       25 -1    0    0    0    0 +0.0000000000e+00 +0.0000000000e+00 +9.9999998245e-15 1.2500000000e+02 1.2500000000e+02 0.0000e+00 0.0000e+00
       23  2    1    0    0    0 +1.8799679835e+01 +1.6863021713e+01 -1.5103185262e+01 9.5573894783e+01 9.0931148106e+01 0.0000e+00 0.0000e+00
      -11  1    2    2    0    0 +3.9869564882e+01 -5.8930625493e-01 -4.1503567775e+01 5.7554110401e+01 5.1100000000e-04 0.0000e+00 -1.0000e+00
       11  1    2    2    0    0 -2.1069885047e+01 +1.7452327967e+01 +2.6400382513e+01 3.8019784382e+01 5.1100000000e-04 0.0000e+00 1.0000e+00
       22  1    1    0    0    0 -1.8799679835e+01 -1.6863021713e+01 +1.5103185262e+01 2.9426105217e+01 0.0000000000e+00 0.0000e+00 -1.0000e+00
</event>
<event>
 4      1 +2.4041262e-06 9.11880000e+01 7.81860800e-03 1.13011600e-01
       25 -1    0    0    0    0 +0.0000000000e+00 +0.0000000000e+00 +9.9999998245e-15 1.2500000000e+02 1.2500000000e+02 0.0000e+00 0.0000e+00
      -13  1    1    0    0    0 -5.3776558638e+01 +3.0078271963e+01 +1.0469867847e+01 6.2500000000e+01 1.0566000000e-01 0.0000e+00 1.0000e+00
       13  1    1    0    0    0 +5.3776558294e+01 -3.0078271773e+01 -1.0469867775e+01 6.2499999600e+01 1.0566000000e-01 0.0000e+00 1.0000e+00
       22  1    1    0    0    0 +3.4372203694e-07 -1.9094066262e-07 -7.2217812462e-08 3.9977317038e-07 0.0000000000e+00 0.0000e+00 1.0000e+00
</event>
<event>
 4      1 +2.4041262e-06 9.11880000e+01 7.81860800e-03 1.13011600e-01
       25 -1    0    0    0    0 +0.0000000000e+00 +0.0000000000e+00 +9.9999998245e-15 1.2500000000e+02 1.2500000000e+02 0.0000e+00 0.0000e+00
      -13  1    1    0    0    0 +2.4469731759e+01 +4.3259480621e+00 +5.7343219306e+01 6.2495900373e+01 1.0566000000e-01 0.0000e+00 1.0000e+00
       13  1    1    0    0    0 -2.4377810910e+01 -4.3719329795e+00 -5.7124228090e+01 6.2262188057e+01 1.0566000000e-01 0.0000e+00 1.0000e+00
       22  1    1    0    0    0 -9.1920849424e-02 +4.5984917436e-02 -2.1899121534e-01 2.4191156976e-01 0.0000000000e+00 0.0000e+00 -1.0000e+00
</event>
<event>
 4      1 +2.4041262e-06 9.11880000e+01 7.81860800e-03 1.13011600e-01
       25 -1    0    0    0    0 +0.0000000000e+00 +0.0000000000e+00 +9.9999998245e-15 1.2500000000e+02 1.2500000000e+02 0.0000e+00 0.0000e+00
      -13  1    1    0    0    0 -2.7313025808e+01 -2.1022812867e+01 -5.1840768695e+01 6.2253003964e+01 1.0566000000e-01 0.0000e+00 1.0000e+00
       13  1    1    0    0    0 +2.7421553690e+01 +2.1106367741e+01 +5.2046310526e+01 6.2499999755e+01 1.0566000000e-01 0.0000e+00 1.0000e+00
       22  1    1    0    0    0 -1.0852788192e-01 -8.3554873549e-02 -2.0554183136e-01 2.4699628031e-01 0.0000000000e+00 0.0000e+00 1.0000e+00
</event>
<event>
 4      1 +2.4041262e-06 9.11880000e+01 7.81860800e-03 1.13011600e-01
       25 -1    0    0    0    0 +0.0000000000e+00 +0.0000000000e+00 +9.9999998245e-15 1.2500000000e+02 1.2500000000e+02 0.0000e+00 0.0000e+00
      -13  1    1    0    0    0 -3.6004189352e+01 +4.9520491846e+01 -1.2556087006e+01 6.2499977988e+01 1.0566000000e-01 0.0000e+00 1.0000e+00
       13  1    1    0    0    0 +3.6004200647e+01 -4.9520509871e+01 +1.2556092854e+01 6.2499999951e+01 1.0566000000e-01 0.0000e+00 1.0000e+00
       22  1    1    0    0    0 -1.1295351197e-05 +1.8024530629e-05 -5.8488957355e-06 2.2060785217e-05 0.0000000000e+00 0.0000e+00 1.0000e+00
</event>
<event>
 4      1 +2.4041262e-06 9.11880000e+01 7.81860800e-03 1.13011600e-01
       25 -1    0    0    0    0 +0.0000000000e+00 +0.0000000000e+00 +9.9999998245e-15 1.2500000000e+02 1.2500000000e+02 0.0000e+00 0.0000e+00
      -11  1    1    0    0    0 +2.5290800495e+00 -4.8606324087e+00 -2.4962515972e+00 6.0210684772e+00 5.1100000000e-04 0.0000e+00 1.0000e+00
       11  1    1    0    0    0 +2.3684947793e+01 -4.5618250072e+01 -2.3406587085e+01 5.6478932451e+01 5.1100000000e-04 0.0000e+00 -1.0000e+00
       22  1    1    0    0    0 -2.6214027842e+01 +5.0478882481e+01 +2.5902838682e+01 6.2499999072e+01 0.0000000000e+00 0.0000e+00 -1.0000e+00
</event>
<event>
 4      1 +2.4041262e-06 9.11880000e+01 7.81860800e-03 1.13011600e-01
       25 -1    0    0    0    0 +0.0000000000e+00 +0.0000000000e+00 +9.9999998245e-15 1.2500000000e+02 1.2500000000e+02 0.0000e+00 0.0000e+00
      -13  1    1    0    0    0 +4.0657389498e+01 +2.4193297110e+01 -4.0839774081e+01 6.2499898055e+01 1.0566000000e-01 0.0000e+00 1.0000e+00
       13  1    1    0    0    0 -4.0563315527e+01 -2.4145811299e+01 +4.0751177813e+01 6.2362428007e+01 1.0566000000e-01 0.0000e+00 1.0000e+00
       22  1    1    0    0    0 -9.4073971901e-02 -4.7485811879e-02 +8.8596267286e-02 1.3767393761e-01 0.0000000000e+00 0.0000e+00 -1.0000e+00
</event>
<event>
 4      1 +2.4041262e-06 9.11880000e+01 7.81860800e-03 1.13011600e-01
       25 -1    0    0    0    0 +0.0000000000e+00 +0.0000000000e+00 +9.9999998245e-15 1.2500000000e+02 1.2500000000e+02 0.0000e+00 0.0000e+00
      -13  1    1    0    0    0 -3.5660887356e+01 -1.8509657915e+01 +4.2637881762e+01 5.8585889498e+01 1.0566000000e-01 0.0000e+00 1.0000e+00
       13  1    1    0    0    0 +3.4555975035e+01 +1.2003298845e+01 -4.6188453025e+01 5.8920106506e+01 1.0566000000e-01 0.0000e+00 1.0000e+00
       22  1    1    0    0    0 +1.1049123215e+00 +6.5063590705e+00 +3.5505712635e+00 7.4940039958e+00 0.0000000000e+00 0.0000e+00 1.0000e+00
</event>
<event>
 5      1 +2.4041262e-06 9.11880000e+01 7.81860800e-03 1.13011600e-01
       25 -1    0    0    0    0 +0.0000000000e+00 +0.0000000000e+00 +9.9999998245e-15 1.2500000000e+02 1.2500000000e+02 0.0000e+00 0.0000e+00
       23  2    1    0    0    0 +8.8149228042e+00 +2.1293453559e+01 -1.6412828139e+01 9.6706980436e+01 9.2475646032e+01 0.0000e+00 0.0000e+00
      -13  1    2    2    0    0 +4.3915176260e+01 +2.8115624965e+01 -2.7913645498e+01 5.9145700116e+01 1.0566000000e-01 0.0000e+00 1.0000e+00
       13  1    2    2    0    0 -3.5100253456e+01 -6.8221714059e+00 +1.1500817359e+01 3.7561280321e+01 1.0566000000e-01 0.0000e+00 -1.0000e+00
       22  1    1    0    0    0 -8.8149228042e+00 -2.1293453559e+01 +1.6412828139e+01 2.8293019564e+01 0.0000000000e+00 0.0000e+00 1.0000e+00
</event>
<event>
 4      1 +2.4041262e-06 9.11880000e+01 7.81860800e-03 1.13011600e-01
       25 -1    0    0    0    0 +0.0000000000e+00 +0.0000000000e+00 +9.9999998245e-15 1.2500000000e+02 1.2500000000e+02 0.0000e+00 0.0000e+00
      -13  1    1    0    0    0 +2.3671289979e+01 -6.6086437234e+00 +5.7465073695e+01 6.2500000000e+01 1.0566000000e-01 0.0000e+00 1.0000e+00
       13  1    1    0    0    0 -2.3671289854e+01 +6.6086436918e+00 -5.7465073394e+01 6.2499999672e+01 1.0566000000e-01 0.0000e+00 1.0000e+00
       22  1    1    0    0    0 -1.2520666986e-07 +3.1646989465e-08 -3.0113887835e-07 3.2766273235e-07 0.0000000000e+00 0.0000e+00 -1.0000e+00
</event>
<event>
 4      1 +2.4041262e-06 9.11880000e+01 7.81860800e-03 1.13011600e-01
       25 -1    0    0    0    0 +0.0000000000e+00 +0.0000000000e+00 +9.9999998245e-15 1.2500000000e+02 1.2500000000e+02 0.0000e+00 0.0000e+00
      -13  1    1    0    0    0 +2.0937898912e+01 +5.5258496875e+01 +1.6549150026e+01 6.1365972806e+01 1.0566000000e-01 0.0000e+00 1.0000e+00
       13  1    1    0    0    0 -2.1331762308e+01 -5.6276457018e+01 -1.6856849075e+01 6.2499985779e+01 1.0566000000e-01 0.0000e+00 1.0000e+00
       22  1    1    0    0    0 +3.9386339596e-01 +1.0179601426e+00 +3.0769904866e-01 1.1340414151e+00 0.0000000000e+00 0.0000e+00 1.0000e+00
</event>
<event>
 5      1 +2.4041262e-06 9.11880000e+01 7.81860800e-03 1.13011600e-01
       25 -1    0    0    0    0 +0.0000000000e+00 +0.0000000000e+00 +9.9999998245e-15 1.2500000000e+02 1.2500000000e+02 0.0000e+00 0.0000e+00
       23  2    1    0    0    0 -1.5339768538e+01 -9.6092840649e+00 -2.3453412186e+01 9.5373839563e+01 9.0655721777e+01 0.0000e+00 0.0000e+00
      -11  1    2    2    0    0 -3.0061819593e+00 +9.2327635370e+00 -5.5423993252e+01 5.6268108914e+01 5.1100000000e-04 0.0000e+00 1.0000e+00
       11  1    2    2    0    0 -1.2333586579e+01 -1.8842047602e+01 +3.1970581066e+01 3.9105730650e+01 5.1100000000e-04 0.0000e+00 -1.0000e+00
       22  1    1    0    0    0 +1.5339768538e+01 +9.6092840649e+00 +2.3453412186e+01 2.9626160437e+01 0.0000000000e+00 0.0000e+00 1.0000e+00
</event>
<event>
 4      1 +2.4041262e-06 9.11880000e+01 7.81860800e-03 1.13011600e-01
       25 -1    0    0    0    0 +0.0000000000e+00 +0.0000000000e+00 +9.9999998245e-15 1.2500000000e+02 1.2500000000e+02 0.0000e+00 0.0000e+00
      -13  1    1    0    0    0 +2.7843435198e+01 -1.3924833099e+01 +5.3074617962e+01 6.1531163619e+01 1.0566000000e-01 0.0000e+00 -1.0000e+00
       13  1    1    0    0    0 -2.0812767146e+01 +1.6782725797e+01 -4.5316849505e+01 5.2616149370e+01 1.0566000000e-01 0.0000e+00 -1.0000e+00
       22  1    1    0    0    0 -7.0306680516e+00 -2.8578926983e+00 -7.7577684570e+00 1.0852687011e+01 0.0000000000e+00 0.0000e+00 -1.0000e+00
</event>
<event>
 5      1 +2.4041262e-06 9.11880000e+01 7.81860800e-03 1.13011600e-01
       25 -1    0    0    0    0 +0.0000000000e+00 +0.0000000000e+00 +9.9999998245e-15 1.2500000000e+02 1.2500000000e+02 0.0000e+00 0.0000e+00
       23  2    1    0    0    0 +8.9341474144e-01 -1.1904452816e+01 -1.6843764749e+01 1.0435474394e+02 1.0229215994e+02 0.0000e+00 0.0000e+00
      -13  1    2    2    0    0 +4.3752133939e+01 +2.0265170543e+00 -3.4701089165e+01 5.5879627315e+01 1.0566000000e-01 0.0000e+00 -1.0000e+00
       13  1    2    2    0    0 -4.2858719197e+01 -1.3930969871e+01 +1.7857324416e+01 4.8475116628e+01 1.0566000000e-01 0.0000e+00 -1.0000e+00
       22  1    1    0    0    0 -8.9341474144e-01 +1.1904452816e+01 +1.6843764749e+01 2.0645256057e+01 0.0000000000e+00 0.0000e+00 1.0000e+00
</event>
<event>
 4      1 +2.4041262e-06 9.11880000e+01 7.81860800e-03 1.13011600e-01
       25 -1    0    0    0    0 +0.0000000000e+00 +0.0000000000e+00 +9.9999998245e-15 1.2500000000e+02 1.2500000000e+02 0.0000e+00 0.0000e+00
      -13  1    1    0    0    0 -5.4674814930e+01 +1.3002260274e+01 +2.7346709254e+01 6.2499982647e+01 1.0566000000e-01 0.0000e+00 -1.0000e+00
       13  1    1    0    0    0 +5.4674831143e+01 -1.3002271079e+01 -2.7346692933e+01 6.2499991937e+01 1.0566000000e-01 0.0000e+00 -1.0000e+00
       22  1    1    0    0    0 -1.6212910914e-05 +1.0805084273e-05 -1.6320503496e-05 2.5415884026e-05 0.0000000000e+00 0.0000e+00 -1.0000e+00
</event>
<event>
 4      1 +2.4041262e-06 9.11880000e+01 7.81860800e-03 1.13011600e-01
       25 -1    0    0    0    0 +0.0000000000e+00 +0.0000000000e+00 +9.9999998245e-15 1.2500000000e+02 1.2500000000e+02 0.0000e+00 0.0000e+00
      -13  1    1    0    0    0 -3.9034657919e+01 -3.1446263893e+01 +3.7331838895e+01 6.2499995128e+01 1.0566000000e-01 0.0000e+00 1.0000e+00
       13  1    1    0    0    0 +3.9034611168e+01 +3.1446211242e+01 -3.7331829519e+01 6.2499933838e+01 1.0566000000e-01 0.0000e+00 1.0000e+00
       22  1    1    0    0    0 +4.6751667162e-05 +5.2651865852e-05 -9.3755167263e-06 7.1034059957e-05 0.0000000000e+00 0.0000e+00 1.0000e+00
</event>
<event>
 4      1 +2.4041262e-06 9.11880000e+01 7.81860800e-03 1.13011600e-01
       25 -1    0    0    0    0 +0.0000000000e+00 +0.0000000000e+00 +9.9999998245e-15 1.2500000000e+02 1.2500000000e+02 0.0000e+00 0.0000e+00
      -13  1    1    0    0    0 -3.1543024735e+01 -2.1488246560e+01 -1.8915995497e+00 3.8213825542e+01 1.0566000000e-01 0.0000e+00 1.0000e+00
       13  1    1    0    0    0 -2.0265674090e+01 -1.3349337115e+01 -9.8575685724e-01 2.4287552951e+01 1.0566000000e-01 0.0000e+00 1.0000e+00
       22  1    1    0    0    0 +5.1808698826e+01 +3.4837583675e+01 +2.8773564069e+00 6.2498621507e+01 0.0000000000e+00 0.0000e+00 1.0000e+00
</event>
<event>
 4      1 +2.4041262e-06 9.11880000e+01 7.81860800e-03 1.13011600e-01
       25 -1    0    0    0    0 +0.0000000000e+00 +0.0000000000e+00 +9.9999998245e-15 1.2500000000e+02 1.2500000000e+02 0.0000e+00 0.0000e+00
      -13  1    1    0    0    0 +2.7196774102e+01 +1.5944847864e+01 +5.3966064525e+01 6.2499999835e+01 1.0566000000e-01 0.0000e+00 1.0000e+00
       13  1    1    0    0    0 -2.7196295597e+01 -1.5944580904e+01 -5.3965077999e+01 6.2498871685e+01 1.0566000000e-01 0.0000e+00 1.0000e+00
       22  1    1    0    0    0 -4.7850442202e-04 -2.6695982050e-04 -9.8652595147e-04 1.1284801640e-03 0.0000000000e+00 0.0000e+00 -1.0000e+00
</event>
<event>
 4      1 +2.4041262e-06 9.11880000e+01 7.81860800e-03 1.13011600e-01
       25 -1    0    0    0    0 +0.0000000000e+00 +0.0000000000e+00 +9.9999998245e-15 1.2500000000e+02 1.2500000000e+02 0.0000e+00 0.0000e+00
      -11  1    1    0    0    0 -2.7921684637e+01 +1.9409751303e+01 -1.8037395213e+01 3.8492941495e+01 5.1100000000e-04 0.0000e+00 1.0000e+00
       11  1    1    0    0    0 -1.7415478250e+01 +1.2093166879e+01 -1.1260345160e+01 2.4007060237e+01 5.1100000000e-04 0.0000e+00 -1.0000e+00
       22  1    1    0    0    0 +4.5337162886e+01 -3.1502918182e+01 +2.9297740373e+01 6.2499998268e+01 0.0000000000e+00 0.0000e+00 -1.0000e+00
</event>
<event>
 5      1 +2.4041262e-06 9.11880000e+01 7.81860800e-03 1.13011600e-01
       25 -1    0    0    0    0 +0.0000000000e+00 +0.0000000000e+00 +9.9999998245e-15 1.2500000000e+02 1.2500000000e+02 0.0000e+00 0.0000e+00
       23  2    1    0    0    0 +1.0688872952e+01 +1.4990380530e+01 -2.1433533903e+01 9.6744736968e+01 9.2526667734e+01 0.0000e+00 0.0000e+00
      -11  1    2    2    0    0 +4.9109313451e+01 +2.3259596788e+01 -1.8224214231e+01 5.7313658886e+01 5.1100000000e-04 0.0000e+00 -1.0000e+00
       11  1    2    2    0    0 -3.8420440499e+01 -8.2692162573e+00 -3.2093196723e+00 3.9431078082e+01 5.1100000000e-04 0.0000e+00 1.0000e+00
       22  1    1    0    0    0 -1.0688872952e+01 -1.4990380530e+01 +2.1433533903e+01 2.8255263032e+01 0.0000000000e+00 0.0000e+00 -1.0000e+00
</event>
<event>
 4      1 +2.4041262e-06 9.11880000e+01 7.81860800e-03 1.13011600e-01
       25 -1    0    0    0    0 +0.0000000000e+00 +0.0000000000e+00 +9.9999998245e-15 1.2500000000e+02 1.2500000000e+02 0.0000e+00 0.0000e+00
      -13  1    1    0    0    0 +5.1708889455e+01 +1.7582711718e+01 +2.7828391080e+01 6.1297565320e+01 1.0566000000e-01 0.0000e+00 1.0000e+00
       13  1    1    0    0    0 -5.2254992716e+01 -1.6958094923e+01 -2.9111562319e+01 6.2174395629e+01 1.0566000000e-01 0.0000e+00 1.0000e+00
       22  1    1    0    0    0 +5.4610326075e-01 -6.2461679474e-01 +1.2831712389e+00 1.5280390506e+00 0.0000000000e+00 0.0000e+00 1.0000e+00
</event>
<event>
 4      1 +2.4041262e-06 9.11880000e+01 7.81860800e-03 1.13011600e-01
       25 -1    0    0    0    0 +0.0000000000e+00 +0.0000000000e+00 +9.9999998245e-15 1.2500000000e+02 1.2500000000e+02 0.0000e+00 0.0000e+00
      -13  1    1    0    0    0 -1.8351684557e+01 +2.0114506616e+01 -5.6154416116e+01 6.2407590210e+01 1.0566000000e-01 0.0000e+00 1.0000e+00
       13  1    1    0    0    0 +1.7747824305e+01 -2.0326253060e+01 +5.5210492815e+01 6.1452026101e+01 1.0566000000e-01 0.0000e+00 1.0000e+00
       22  1    1    0    0    0 +6.0386025225e-01 +2.1174644355e-01 +9.4392330068e-01 1.1403836890e+00 0.0000000000e+00 0.0000e+00 1.0000e+00
</event>
<event>
 4      1 +2.4041262e-06 9.11880000e+01 7.81860800e-03 1.13011600e-01
       25 -1    0    0    0    0 +0.0000000000e+00 +0.0000000000e+00 +9.9999998245e-15 1.2500000000e+02 1.2500000000e+02 0.0000e+00 0.0000e+00
      -13  1    1    0    0    0 -5.0226197359e+01 +3.6822430490e+01 +4.3387220597e+00 6.2429143526e+01 1.0566000000e-01 0.0000e+00 -1.0000e+00
       13  1    1    0    0    0 +5.0285457438e+01 -3.6859841589e+01 -4.3508671127e+00 6.2499730883e+01 1.0566000000e-01 0.0000e+00 -1.0000e+00
       22  1    1    0    0    0 -5.9260079158e-02 +3.7411099589e-02 +1.2145052974e-02 7.1125590795e-02 0.0000000000e+00 0.0000e+00 1.0000e+00
</event>
<event>
 4      1 +2.4041262e-06 9.11880000e+01 7.81860800e-03 1.13011600e-01
       25 -1    0    0    0    0 +0.0000000000e+00 +0.0000000000e+00 +9.9999998245e-15 1.2500000000e+02 1.2500000000e+02 0.0000e+00 0.0000e+00
      -11  1    1    0    0    0 -6.1228341579e+00 -2.8409917824e+00 +1.0594033593e+01 1.2561603419e+01 5.1100000000e-04 0.0000e+00 -1.0000e+00
       11  1    1    0    0    0 +3.5877655084e+01 +2.4944978080e+01 +3.3334925161e+01 5.4960670497e+01 5.1100000000e-04 0.0000e+00 1.0000e+00
       22  1    1    0    0    0 -2.9754820926e+01 -2.2103986298e+01 -4.3928958754e+01 5.7477726084e+01 0.0000000000e+00 0.0000e+00 1.0000e+00
</event>
<event>
 4      1 +2.4041262e-06 9.11880000e+01 7.81860800e-03 1.13011600e-01
       25 -1    0    0    0    0 +0.0000000000e+00 +0.0000000000e+00 +9.9999998245e-15 1.2500000000e+02 1.2500000000e+02 0.0000e+00 0.0000e+00
      -13  1    1    0    0    0 +3.2852334438e+01 -5.2576502198e+01 +7.9167148816e+00 6.2500000000e+01 1.0566000000e-01 0.0000e+00 -1.0000e+00
       13  1    1    0    0    0 -3.2852334425e+01 +5.2576502175e+01 -7.9167148779e+00 6.2499999973e+01 1.0566000000e-01 0.0000e+00 -1.0000e+00
       22  1    1    0    0    0 -1.3139909463e-08 +2.3634081743e-08 -3.7858825261e-09 2.7304943638e-08 0.0000000000e+00 0.0000e+00 1.0000e+00
</event>
<event>
 4      1 +2.4041262e-06 9.11880000e+01 7.81860800e-03 1.13011600e-01
       25 -1    0    0    0    0 +0.0000000000e+00 +0.0000000000e+00 +9.9999998245e-15 1.2500000000e+02 1.2500000000e+02 0.0000e+00 0.0000e+00
      -13  1    1    0    0    0 -3.3142644947e+01 -5.2680313746e+01 +5.7086307914e+00 6.2500000000e+01 1.0566000000e-01 0.0000e+00 -1.0000e+00
       13  1    1    0    0    0 +3.3142644932e+01 +5.2680313723e+01 -5.7086307882e+00 6.2499999973e+01 1.0566000000e-01 0.0000e+00 -1.0000e+00
       22  1    1    0    0    0 +1.5198806976e-08 +2.2683029893e-08 -3.1994057461e-09 2.7491085387e-08 0.0000000000e+00 0.0000e+00 -1.0000e+00
</event>
<event>
 5      1 +2.4041262e-06 9.11880000e+01 7.81860800e-03 1.13011600e-01
       25 -1    0    0    0    0 +0.0000000000e+00 +0.0000000000e+00 +9.9999998245e-15 1.2500000000e+02 1.2500000000e+02 0.0000e+00 0.0000e+00
       23  2    1    0    0    0 -1.8685121251e+01 -4.9274562787e+00 +2.1643925819e+01 9.5984950346e+01 9.1494467519e+01 0.0000e+00 0.0000e+00
      -13  1    2    2    0    0 -5.0281266923e+01 +1.0669867368e+00 +3.4883585431e+01 6.1206371896e+01 1.0566000000e-01 0.0000e+00 1.0000e+00
       13  1    2    2    0    0 +3.1596145672e+01 -5.9944430155e+00 -1.3239659612e+01 3.4778578451e+01 1.0566000000e-01 0.0000e+00 -1.0000e+00
       22  1    1    0    0    0 +1.8685121251e+01 +4.9274562787e+00 -2.1643925819e+01 2.9015049654e+01 0.0000000000e+00 0.0000e+00 1.0000e+00
</event>
<event>
 4      1 +2.4041262e-06 9.11880000e+01 7.81860800e-03 1.13011600e-01
       25 -1    0    0    0    0 +0.0000000000e+00 +0.0000000000e+00 +9.9999998245e-15 1.2500000000e+02 1.2500000000e+02 0.0000e+00 0.0000e+00
      -13  1    1    0    0    0 -1.7153103947e+01 -1.7593800641e+00 -6.0074241090e+01 6.2499999999e+01 1.0566000000e-01 0.0000e+00 1.0000e+00
       13  1    1    0    0    0 +1.7153103945e+01 +1.7593800731e+00 +6.0074241051e+01 6.2499999961e+01 1.0566000000e-01 0.0000e+00 1.0000e+00
       22  1    1    0    0    0 +2.0578353201e-09 -8.9112094686e-09 +3.9092127151e-08 4.0147711587e-08 0.0000000000e+00 0.0000e+00 -1.0000e+00
</event>
<event>
 4      1 +2.4041262e-06 9.11880000e+01 7.81860800e-03 1.13011600e-01
       25 -1    0    0    0    0 +0.0000000000e+00 +0.0000000000e+00 +9.9999998245e-15 1.2500000000e+02 1.2500000000e+02 0.0000e+00 0.0000e+00
      -13  1    1    0    0    0 -3.9186288659e+01 -4.8185971852e+01 +6.9834200283e+00 6.2499859372e+01 1.0566000000e-01 0.0000e+00 -1.0000e+00
       13  1    1    0    0    0 +3.6492317519e+01 +4.4827971142e+01 -6.5369540258e+00 5.8171979222e+01 1.0566000000e-01 0.0000e+00 -1.0000e+00
       22  1    1    0    0    0 +2.6939711391e+00 +3.3580007104e+00 -4.4646600249e-01 4.3281614065e+00 0.0000000000e+00 0.0000e+00 -1.0000e+00
</event>
<event>
 4      1 +2.4041262e-06 9.11880000e+01 7.81860800e-03 1.13011600e-01
       25 -1    0    0    0    0 +0.0000000000e+00 +0.0000000000e+00 +9.9999998245e-15 1.2500000000e+02 1.2500000000e+02 0.0000e+00 0.0000e+00
      -13  1    1    0    0    0 -1.8029971740e+01 +5.3888748192e+01 +2.6000031438e+01 6.2490718203e+01 1.0566000000e-01 0.0000e+00 1.0000e+00
       13  1    1    0    0    0 +1.7790538962e+01 -5.3549187771e+01 -2.5861520050e+01 6.2071315201e+01 1.0566000000e-01 0.0000e+00 1.0000e+00
       22  1    1    0    0    0 +2.3943277716e-01 -3.3956042144e-01 -1.3851138792e-01 4.3796659595e-01 0.0000000000e+00 0.0000e+00 1.0000e+00
</event>
<event>
 4      1 +2.4041262e-06 9.11880000e+01 7.81860800e-03 1.13011600e-01
       25 -1    0    0    0    0 +0.0000000000e+00 +0.0000000000e+00 +9.9999998245e-15 1.2500000000e+02 1.2500000000e+02 0.0000e+00 0.0000e+00
      -13  1    1    0    0    0 +2.6953326514e+01 +1.2035967131e+01 -5.5089828441e+01 6.2499973413e+01 1.0566000000e-01 0.0000e+00 1.0000e+00
       13  1    1    0    0    0 -2.6953338806e+01 -1.2035972260e+01 +5.5089851460e+01 6.2499999992e+01 1.0566000000e-01 0.0000e+00 1.0000e+00
       22  1    1    0    0    0 +1.2291811782e-05 +5.1286708067e-06 -2.3019545708e-05 2.6594950381e-05 0.0000000000e+00 0.0000e+00 -1.0000e+00
</event>
<event>
 5      1 +2.4041262e-06 9.11880000e+01 7.81860800e-03 1.13011600e-01
       25 -1    0    0    0    0 +0.0000000000e+00 +0.0000000000e+00 +9.9999998245e-15 1.2500000000e+02 1.2500000000e+02 0.0000e+00 0.0000e+00
       23  2    1    0    0    0 -1.5563434430e+01 +2.4233561547e+00 +2.4780373142e+01 9.5637438134e+01 9.1018457103e+01 0.0000e+00 0.0000e+00
      -13  1    2    2    0    0 -7.9256012883e+00 -1.8865705504e+01 +5.4543296978e+01 5.8255578353e+01 1.0566000000e-01 0.0000e+00 -1.0000e+00
       13  1    2    2    0    0 -7.6378331413e+00 +2.1289061659e+01 -2.9762923836e+01 3.7381859781e+01 1.0566000000e-01 0.0000e+00 1.0000e+00
       22  1    1    0    0    0 +1.5563434430e+01 -2.4233561547e+00 -2.4780373142e+01 2.9362561866e+01 0.0000000000e+00 0.0000e+00 -1.0000e+00
</event>
<event>
 4      1 +2.4041262e-06 9.11880000e+01 7.81860800e-03 1.13011600e-01
       25 -1    0    0    0    0 +0.0000000000e+00 +0.0000000000e+00 +9.9999998245e-15 1.2500000000e+02 1.2500000000e+02 0.0000e+00 0.0000e+00
      -13  1    1    0    0    0 +6.1537030428e+01 -1.0885421464e+01 -9.6964643172e-01 6.2499999141e+01 1.0566000000e-01 0.0000e+00 1.0000e+00
       13  1    1    0    0    0 -6.1537031290e+01 +1.0885421506e+01 +9.6964639150e-01 6.2499999996e+01 1.0566000000e-01 0.0000e+00 1.0000e+00
       22  1    1    0    0    0 +8.6151945994e-07 -4.1431962947e-08 +4.0220794976e-08 8.6345243052e-07 0.0000000000e+00 0.0000e+00 1.0000e+00
</event>
<event>
 4      1 +2.4041262e-06 9.11880000e+01 7.81860800e-03 1.13011600e-01
       25 -1    0    0    0    0 +0.0000000000e+00 +0.0000000000e+00 +9.9999998245e-15 1.2500000000e+02 1.2500000000e+02 0.0000e+00 0.0000e+00
      -13  1    1    0    0    0 -2.1767576895e+01 +2.7706365524e+01 -5.1621312094e+01 6.2499928966e+01 1.0566000000e-01 0.0000e+00 -1.0000e+00
       13  1    1    0    0    0 +2.1767412199e+01 -2.7706397553e+01 +5.1621331821e+01 6.2499902098e+01 1.0566000000e-01 0.0000e+00 -1.0000e+00
       22  1    1    0    0    0 +1.6469545955e-04 +3.2029475512e-05 -1.9726983415e-05 1.6893677981e-04 0.0000000000e+00 0.0000e+00 -1.0000e+00
</event>
<event>
 4      1 +2.4041262e-06 9.11880000e+01 7.81860800e-03 1.13011600e-01
       25 -1    0    0    0    0 +0.0000000000e+00 +0.0000000000e+00 +9.9999998245e-15 1.2500000000e+02 1.2500000000e+02 0.0000e+00 0.0000e+00
      -13  1    1    0    0    0 -1.8722898042e+01 -5.4550803489e+01 -2.4080989705e+01 6.2499938413e+01 1.0566000000e-01 0.0000e+00 -1.0000e+00
       13  1    1    0    0    0 +1.8722916423e+01 +5.4550857354e+01 +2.4081013235e+01 6.2500000000e+01 1.0566000000e-01 0.0000e+00 -1.0000e+00
       22  1    1    0    0    0 -1.8381087320e-05 -5.3865113580e-05 -2.3530170735e-05 6.1587204571e-05 0.0000000000e+00 0.0000e+00 1.0000e+00
</event>
<event>
 4      1 +2.4041262e-06 9.11880000e+01 7.81860800e-03 1.13011600e-01
       25 -1    0    0    0    0 +0.0000000000e+00 +0.0000000000e+00 +9.9999998245e-15 1.2500000000e+02 1.2500000000e+02 0.0000e+00 0.0000e+00
      -13  1    1    0    0    0 +2.1499091858e+01 -4.0274654970e+01 -4.2678609333e+01 6.2495869002e+01 1.0566000000e-01 0.0000e+00 1.0000e+00
       13  1    1    0    0    0 -2.1175840831e+01 +3.9891077780e+01 +4.2227644422e+01 6.1829600022e+01 1.0566000000e-01 0.0000e+00 1.0000e+00
       22  1    1    0    0    0 -3.2325102666e-01 +3.8357718964e-01 +4.5096491125e-01 6.7453097618e-01 0.0000000000e+00 0.0000e+00 1.0000e+00
</event>
<event>
 5      1 +2.4041262e-06 9.11880000e+01 7.81860800e-03 1.13011600e-01
       25 -1    0    0    0    0 +0.0000000000e+00 +0.0000000000e+00 +9.9999998245e-15 1.2500000000e+02 1.2500000000e+02 0.0000e+00 0.0000e+00
       23  2    1    0    0    0 -1.1351489433e+01 -1.6261356054e+01 -2.0659472325e+01 9.6362580252e+01 9.2008940126e+01 0.0000e+00 0.0000e+00
      -13  1    2    2    0    0 +1.4256662003e+01 -7.4032917813e+00 +3.2746982563e+01 3.6475158281e+01 1.0566000000e-01 0.0000e+00 -1.0000e+00
       13  1    2    2    0    0 -2.5608151436e+01 -8.8580642732e+00 -5.3406454887e+01 5.9887421971e+01 1.0566000000e-01 0.0000e+00 1.0000e+00
       22  1    1    0    0    0 +1.1351489433e+01 +1.6261356054e+01 +2.0659472325e+01 2.8637419748e+01 0.0000000000e+00 0.0000e+00 1.0000e+00
</event>
<event>
 5      1 +2.4041262e-06 9.11880000e+01 7.81860800e-03 1.13011600e-01
       25 -1    0    0    0    0 +0.0000000000e+00 +0.0000000000e+00 +9.9999998245e-15 1.2500000000e+02 1.2500000000e+02 0.0000e+00 0.0000e+00
       23  2    1    0    0    0 -6.2360622991e+00 -8.3389947313e+00 -2.7535609488e+01 9.5561299349e+01 9.0913831936e+01 0.0000e+00 0.0000e+00
      -11  1    2    2    0    0 -1.0785821416e+01 +3.2941396489e+01 +1.3480207175e+01 3.7191202347e+01 5.1100000000e-04 0.0000e+00 1.0000e+00
       11  1    2    2    0    0 +4.5497591168e+00 -4.1280391220e+01 -4.1015816663e+01 5.8370097003e+01 5.1100000000e-04 0.0000e+00 -1.0000e+00
       22  1    1    0    0    0 +6.2360622991e+00 +8.3389947313e+00 +2.7535609488e+01 2.9438700651e+01 0.0000000000e+00 0.0000e+00 -1.0000e+00
</event>
<event>
 5      1 +2.4041262e-06 9.11880000e+01 7.81860800e-03 1.13011600e-01
       25 -1    0    0    0    0 +0.0000000000e+00 +0.0000000000e+00 +9.9999998245e-15 1.2500000000e+02 1.2500000000e+02 0.0000e+00 0.0000e+00
       23  2    1    0    0    0 +1.2265181898e+00 -2.4103502349e+01 +1.7491396600e+01 9.5193421407e+01 9.0406611217e+01 0.0000e+00 0.0000e+00
      -11  1    2    2    0    0 -1.0221223388e+00 -9.1998325776e+00 +5.4475315276e+01 5.5256145615e+01 5.1100000000e-04 0.0000e+00 -1.0000e+00
       11  1    2    2    0    0 +2.2486405285e+00 -1.4903669772e+01 -3.6983918675e+01 3.9937275793e+01 5.1100000000e-04 0.0000e+00 1.0000e+00
       22  1    1    0    0    0 -1.2265181898e+00 +2.4103502349e+01 -1.7491396600e+01 2.9806578593e+01 0.0000000000e+00 0.0000e+00 -1.0000e+00
</event>
<event>
 4      1 +2.4041262e-06 9.11880000e+01 7.81860800e-03 1.13011600e-01
       25 -1    0    0    0    0 +0.0000000000e+00 +0.0000000000e+00 +9.9999998245e-15 1.2500000000e+02 1.2500000000e+02 0.0000e+00 0.0000e+00
      -13  1    1    0    0    0 -4.8202200722e+01 +3.9460822583e+01 -9.8109989132e-01 6.2302346620e+01 1.0566000000e-01 0.0000e+00 -1.0000e+00
       13  1    1    0    0    0 +4.8411742057e+01 -3.9486827286e+01 +9.2930822252e-01 6.2480245485e+01 1.0566000000e-01 0.0000e+00 -1.0000e+00
       22  1    1    0    0    0 -2.0954133490e-01 +2.6004703062e-02 +5.1791668801e-02 2.1740789445e-01 0.0000000000e+00 0.0000e+00 -1.0000e+00
</event>
<event>
 4      1 +2.4041262e-06 9.11880000e+01 7.81860800e-03 1.13011600e-01
       25 -1    0    0    0    0 +0.0000000000e+00 +0.0000000000e+00 +9.9999998245e-15 1.2500000000e+02 1.2500000000e+02 0.0000e+00 0.0000e+00
      -11  1    1    0    0    0 +1.6544960265e+01 -1.2111062666e+01 -5.2488411906e+01 5.6351104104e+01 5.1100000000e-04 0.0000e+00 1.0000e+00
       11  1    1    0    0    0 -1.1031716543e+01 +2.4964102267e+01 +2.1823364399e+01 3.4945162839e+01 5.1100000000e-04 0.0000e+00 -1.0000e+00
       22  1    1    0    0    0 -5.5132437219e+00 -1.2853039602e+01 +3.0665047508e+01 3.3703733057e+01 0.0000000000e+00 0.0000e+00 1.0000e+00
</event>
<event>
 4      1 +2.4041262e-06 9.11880000e+01 7.81860800e-03 1.13011600e-01
       25 -1    0    0    0    0 +0.0000000000e+00 +0.0000000000e+00 +9.9999998245e-15 1.2500000000e+02 1.2500000000e+02 0.0000e+00 0.0000e+00
      -13  1    1    0    0    0 +1.6111978509e+01 -1.6978058804e+01 -5.7951604840e+01 6.2499999999e+01 1.0566000000e-01 0.0000e+00 -1.0000e+00
       13  1    1    0    0    0 -1.6111978506e+01 +1.6978058808e+01 +5.7951604820e+01 6.2499999981e+01 1.0566000000e-01 0.0000e+00 -1.0000e+00
       22  1    1    0    0    0 -2.1882669679e-09 -3.9970487195e-09 +2.0101719658e-08 2.0611745292e-08 0.0000000000e+00 0.0000e+00 1.0000e+00
</event>
<event>
 4      1 +2.4041262e-06 9.11880000e+01 7.81860800e-03 1.13011600e-01
       25 -1    0    0    0    0 +0.0000000000e+00 +0.0000000000e+00 +9.9999998245e-15 1.2500000000e+02 1.2500000000e+02 0.0000e+00 0.0000e+00
      -11  1    1    0    0    0 -1.2784976557e+01 +4.3802711345e+00 -2.0224953104e+00 1.3665024271e+01 5.1100000000e-04 0.0000e+00 1.0000e+00
       11  1    1    0    0    0 -4.5658557368e+01 +1.5798915587e+01 -7.1097954268e+00 4.8835015981e+01 5.1100000000e-04 0.0000e+00 -1.0000e+00
       22  1    1    0    0    0 +5.8443533925e+01 -2.0179186722e+01 +9.1322907372e+00 6.2499959748e+01 0.0000000000e+00 0.0000e+00 -1.0000e+00
</event>
<event>
 4      1 +2.4041262e-06 9.11880000e+01 7.81860800e-03 1.13011600e-01
       25 -1    0    0    0    0 +0.0000000000e+00 +0.0000000000e+00 +9.9999998245e-15 1.2500000000e+02 1.2500000000e+02 0.0000e+00 0.0000e+00
      -13  1    1    0    0    0 -3.3602199849e+01 +3.9829648311e+01 +3.4506957481e+01 6.2499999984e+01 1.0566000000e-01 0.0000e+00 1.0000e+00
       13  1    1    0    0    0 +3.3602192834e+01 -3.9829639150e+01 -3.4506950759e+01 6.2499986663e+01 1.0566000000e-01 0.0000e+00 1.0000e+00
       22  1    1    0    0    0 +7.0152657913e-06 -9.1615020108e-06 -6.7215124621e-06 1.3353868466e-05 0.0000000000e+00 0.0000e+00 -1.0000e+00
</event>
<event>
 4      1 +2.4041262e-06 9.11880000e+01 7.81860800e-03 1.13011600e-01
       25 -1    0    0    0    0 +0.0000000000e+00 +0.0000000000e+00 +9.9999998245e-15 1.2500000000e+02 1.2500000000e+02 0.0000e+00 0.0000e+00
      -13  1    1    0    0    0 -3.7495263694e+01 +6.3630922834e+00 -4.9596926193e+01 6.2499999958e+01 1.0566000000e-01 0.0000e+00 -1.0000e+00
       13  1    1    0    0    0 +3.7495263717e+01 -6.3630922871e+00 +4.9596926228e+01 6.2500000000e+01 1.0566000000e-01 0.0000e+00 -1.0000e+00
       22  1    1    0    0    0 -2.3817754278e-08 +3.6549046494e-09 -3.4611895640e-08 4.2173772260e-08 0.0000000000e+00 0.0000e+00 -1.0000e+00
</event>
<event>
 4      1 +2.4041262e-06 9.11880000e+01 7.81860800e-03 1.13011600e-01
       25 -1    0    0    0    0 +0.0000000000e+00 +0.0000000000e+00 +9.9999998245e-15 1.2500000000e+02 1.2500000000e+02 0.0000e+00 0.0000e+00
      -13  1    1    0    0    0 -3.9478031401e+01 -3.7484005400e+01 -3.0663443908e+01 6.2480585629e+01 1.0566000000e-01 0.0000e+00 1.0000e+00
       13  1    1    0    0    0 +3.9490340639e+01 +3.7495395085e+01 +3.0673228750e+01 6.2499998259e+01 1.0566000000e-01 0.0000e+00 1.0000e+00
       22  1    1    0    0    0 -1.2309237874e-02 -1.1389684618e-02 -9.7848428277e-03 1.9416111915e-02 0.0000000000e+00 0.0000e+00 -1.0000e+00
</event>
<event>
 4      1 +2.4041262e-06 9.11880000e+01 7.81860800e-03 1.13011600e-01
       25 -1    0    0    0    0 +0.0000000000e+00 +0.0000000000e+00 +9.9999998245e-15 1.2500000000e+02 1.2500000000e+02 0.0000e+00 0.0000e+00
      -13  1    1    0    0    0 -4.0229196634e+01 +4.6517059431e+01 +1.1098497959e+01 6.2493302848e+01 1.0566000000e-01 0.0000e+00 -1.0000e+00
       13  1    1    0    0    0 +4.0233469191e+01 -4.6522038571e+01 -1.1099846578e+01 6.2499998992e+01 1.0566000000e-01 0.0000e+00 -1.0000e+00
       22  1    1    0    0    0 -4.2725566380e-03 +4.9791401657e-03 +1.3486187268e-03 6.6981601567e-03 0.0000000000e+00 0.0000e+00 1.0000e+00
</event>
<event>
 4      1 +2.4041262e-06 9.11880000e+01 7.81860800e-03 1.13011600e-01
       25 -1    0    0    0    0 +0.0000000000e+00 +0.0000000000e+00 +9.9999998245e-15 1.2500000000e+02 1.2500000000e+02 0.0000e+00 0.0000e+00
      -13  1    1    0    0    0 +7.6712293247e+00 +4.1846254855e+01 -4.5785172587e+01 6.2499999980e+01 1.0566000000e-01 0.0000e+00 -1.0000e+00
       13  1    1    0    0    0 -7.6712293376e+00 -4.1846254865e+01 +4.5785172600e+01 6.2499999998e+01 1.0566000000e-01 0.0000e+00 -1.0000e+00
       22  1    1    0    0    0 +1.2906503245e-08 +9.9510954560e-09 -1.3653128951e-08 2.1260528144e-08 0.0000000000e+00 0.0000e+00 1.0000e+00
</event>
<event>
 4      1 +2.4041262e-06 9.11880000e+01 7.81860800e-03 1.13011600e-01
       25 -1    0    0    0    0 +0.0000000000e+00 +0.0000000000e+00 +9.9999998245e-15 1.2500000000e+02 1.2500000000e+02 0.0000e+00 0.0000e+00
      -13  1    1    0    0    0 -8.1467953066e+00 -6.8350519729e+00 -2.9235374131e+01 3.1109588133e+01 1.0566000000e-01 0.0000e+00 1.0000e+00
       13  1    1    0    0    0 -1.4679528262e+01 -6.4313331452e+00 -2.7208042699e+01 3.1577513321e+01 1.0566000000e-01 0.0000e+00 -1.0000e+00
       22  1    1    0    0    0 +2.2826323569e+01 +1.3266385118e+01 +5.6443416829e+01 6.2312898545e+01 0.0000000000e+00 0.0000e+00 -1.0000e+00
</event>
<event>
 5      1 +2.4041262e-06 9.11880000e+01 7.81860800e-03 1.13011600e-01
       25 -1    0    0    0    0 +0.0000000000e+00 +0.0000000000e+00 +9.9999998245e-15 1.2500000000e+02 1.2500000000e+02 0.0000e+00 0.0000e+00
       23  2    1    0    0    0 +1.1629328700e+01 -2.6571926598e+01 +4.5181211628e+00 9.5644898434e+01 9.1028702113e+01 0.0000e+00 0.0000e+00
      -13  1    2    2    0    0 -1.2267496126e+01 -5.4601462852e+01 +1.3842505333e+01 5.7649261268e+01 1.0566000000e-01 0.0000e+00 1.0000e+00
       13  1    2    2    0    0 +2.3896824826e+01 +2.8029536255e+01 -9.3243841703e+00 3.7995637165e+01 1.0566000000e-01 0.0000e+00 -1.0000e+00
       22  1    1    0    0    0 -1.1629328700e+01 +2.6571926598e+01 -4.5181211628e+00 2.9355101566e+01 0.0000000000e+00 0.0000e+00 1.0000e+00
</event>
<event>
 4      1 +2.4041262e-06 9.11880000e+01 7.81860800e-03 1.13011600e-01
       25 -1    0    0    0    0 +0.0000000000e+00 +0.0000000000e+00 +9.9999998245e-15 1.2500000000e+02 1.2500000000e+02 0.0000e+00 0.0000e+00
      -13  1    1    0    0    0 +7.8620486663e+00 +1.5995642066e+01 -5.9904644741e+01 6.2499999999e+01 1.0566000000e-01 0.0000e+00 -1.0000e+00
       13  1    1    0    0    0 -7.8620486664e+00 -1.5995642066e+01 +5.9904644742e+01 6.2500000000e+01 1.0566000000e-01 0.0000e+00 -1.0000e+00
       22  1    1    0    0    0 +9.7921893881e-11 +2.1946310940e-10 -6.4347420453e-10 6.8688558406e-10 0.0000000000e+00 0.0000e+00 -1.0000e+00
</event>
<event>
 4      1 +2.4041262e-06 9.11880000e+01 7.81860800e-03 1.13011600e-01
       25 -1    0    0    0    0 +0.0000000000e+00 +0.0000000000e+00 +9.9999998245e-15 1.2500000000e+02 1.2500000000e+02 0.0000e+00 0.0000e+00
      -13  1    1    0    0    0 +3.0584480742e+01 +1.7935596815e+01 +5.1469247980e+01 6.2499525975e+01 1.0566000000e-01 0.0000e+00 -1.0000e+00
       13  1    1    0    0    0 -3.0584355945e+01 -1.7936257028e+01 -5.1469405323e+01 6.2499783944e+01 1.0566000000e-01 0.0000e+00 -1.0000e+00
       22  1    1    0    0    0 -1.2479723186e-04 +6.6021348347e-04 +1.5734221109e-04 6.9008170836e-04 0.0000000000e+00 0.0000e+00 1.0000e+00
</event>
<event>
 4      1 +2.4041262e-06 9.11880000e+01 7.81860800e-03 1.13011600e-01
       25 -1    0    0    0    0 +0.0000000000e+00 +0.0000000000e+00 +9.9999998245e-15 1.2500000000e+02 1.2500000000e+02 0.0000e+00 0.0000e+00
      -13  1    1    0    0    0 -1.5771004809e+01 +1.6224028607e+01 -5.8257292787e+01 6.2496936116e+01 1.0566000000e-01 0.0000e+00 1.0000e+00
       13  1    1    0    0    0 +1.5774612875e+01 -1.6228604740e+01 +5.8254826752e+01 6.2496736131e+01 1.0566000000e-01 0.0000e+00 1.0000e+00
       22  1    1    0    0    0 -3.6080654356e-03 +4.5761326882e-03 +2.4660352383e-03 6.3277528684e-03 0.0000000000e+00 0.0000e+00 1.0000e+00
</event>
<event>
 4      1 +2.4041262e-06 9.11880000e+01 7.81860800e-03 1.13011600e-01
       25 -1    0    0    0    0 +0.0000000000e+00 +0.0000000000e+00 +9.9999998245e-15 1.2500000000e+02 1.2500000000e+02 0.0000e+00 0.0000e+00
      -13  1    1    0    0    0 +3.9070292060e+00 -6.0400555631e+01 -1.5580334884e+01 6.2499999975e+01 1.0566000000e-01 0.0000e+00 1.0000e+00
       13  1    1    0    0    0 -3.9070292067e+00 +6.0400555656e+01 +1.5580334887e+01 6.2500000000e+01 1.0566000000e-01 0.0000e+00 1.0000e+00
       22  1    1    0    0    0 +7.0381570247e-10 -2.4633805663e-08 -3.1600021257e-09 2.4845630429e-08 0.0000000000e+00 0.0000e+00 1.0000e+00
</event>
<event>
 5      1 +2.4041262e-06 9.11880000e+01 7.81860800e-03 1.13011600e-01
       25 -1    0    0    0    0 +0.0000000000e+00 +0.0000000000e+00 +9.9999998245e-15 1.2500000000e+02 1.2500000000e+02 0.0000e+00 0.0000e+00
       23  2    1    0    0    0 -1.2463678252e+01 -2.4348127393e+01 +9.8818178215e+00 9.5916930929e+01 9.1401491959e+01 0.0000e+00 0.0000e+00
      -13  1    2    2    0    0 -6.3188903272e+00 -5.5899227584e+01 -1.1356544027e+01 5.7390193202e+01 1.0566000000e-01 0.0000e+00 -1.0000e+00
       13  1    2    2    0    0 -6.1447879251e+00 +3.1551100191e+01 +2.1238361848e+01 3.8526737727e+01 1.0566000000e-01 0.0000e+00 1.0000e+00
       22  1    1    0    0    0 +1.2463678252e+01 +2.4348127393e+01 -9.8818178215e+00 2.9083069071e+01 0.0000000000e+00 0.0000e+00 -1.0000e+00
</event>
<event>
 4      1 +2.4041262e-06 9.11880000e+01 7.81860800e-03 1.13011600e-01
       25 -1    0    0    0    0 +0.0000000000e+00 +0.0000000000e+00 +9.9999998245e-15 1.2500000000e+02 1.2500000000e+02 0.0000e+00 0.0000e+00
      -13  1    1    0    0    0 -2.8228592308e+01 -4.2926330164e+01 -3.5590948147e+01 6.2499999993e+01 1.0566000000e-01 0.0000e+00 -1.0000e+00
       13  1    1    0    0    0 +2.8228588373e+01 +4.2926324606e+01 +3.5590943942e+01 6.2499992004e+01 1.0566000000e-01 0.0000e+00 -1.0000e+00
       22  1    1    0    0    0 +3.9343037763e-06 +5.5578812640e-06 +4.2053604099e-06 8.0033647003e-06 0.0000000000e+00 0.0000e+00 1.0000e+00
</event>
<event>
 4      1 +2.4041262e-06 9.11880000e+01 7.81860800e-03 1.13011600e-01
       25 -1    0    0    0    0 +0.0000000000e+00 +0.0000000000e+00 +9.9999998245e-15 1.2500000000e+02 1.2500000000e+02 0.0000e+00 0.0000e+00
      -13  1    1    0    0    0 -9.8338380803e+00 -2.8015129039e+00 -6.3359067361e+00 1.2029452363e+01 1.0566000000e-01 0.0000e+00 1.0000e+00
       13  1    1    0    0    0 -2.8036300806e+01 -4.3260153921e+01 -6.5444911961e+00 5.1964570711e+01 1.0566000000e-01 0.0000e+00 -1.0000e+00
       22  1    1    0    0    0 +3.7870138886e+01 +4.6061666824e+01 +1.2880397932e+01 6.1005976927e+01 0.0000000000e+00 0.0000e+00 -1.0000e+00
</event>
<event>
 4      1 +2.4041262e-06 9.11880000e+01 7.81860800e-03 1.13011600e-01
       25 -1    0    0    0    0 +0.0000000000e+00 +0.0000000000e+00 +9.9999998245e-15 1.2500000000e+02 1.2500000000e+02 0.0000e+00 0.0000e+00
      -13  1    1    0    0    0 -2.8128908566e+01 -1.1017434490e+01 -5.4712367900e+01 6.2498589785e+01 1.0566000000e-01 0.0000e+00 -1.0000e+00
       13  1    1    0    0    0 +2.8129540296e+01 +1.1017693265e+01 +5.4713601885e+01 6.2499999979e+01 1.0566000000e-01 0.0000e+00 -1.0000e+00
       22  1    1    0    0    0 -6.3172991197e-04 -2.5877455028e-04 -1.2339847204e-03 1.4102358809e-03 0.0000000000e+00 0.0000e+00 -1.0000e+00
</event>
<event>
 4      1 +2.4041262e-06 9.11880000e+01 7.81860800e-03 1.13011600e-01
       25 -1    0    0    0    0 +0.0000000000e+00 +0.0000000000e+00 +9.9999998245e-15 1.2500000000e+02 1.2500000000e+02 0.0000e+00 0.0000e+00
      -13  1    1    0    0    0 +1.0092329413e+01 +5.2792521311e+01 -3.1894652706e+01 6.2499483635e+01 1.0566000000e-01 0.0000e+00 1.0000e+00
       13  1    1    0    0    0 -7.3517983279e+00 -3.7854484127e+01 +2.3012291407e+01 4.4906431912e+01 1.0566000000e-01 0.0000e+00 1.0000e+00
       22  1    1    0    0    0 -2.7405310852e+00 -1.4938037183e+01 +8.8823612991e+00 1.7594084454e+01 0.0000000000e+00 0.0000e+00 1.0000e+00
</event>
<event>
 4      1 +2.4041262e-06 9.11880000e+01 7.81860800e-03 1.13011600e-01
       25 -1    0    0    0    0 +0.0000000000e+00 +0.0000000000e+00 +9.9999998245e-15 1.2500000000e+02 1.2500000000e+02 0.0000e+00 0.0000e+00
      -13  1    1    0    0    0 -2.7705191091e+00 -1.2546533716e+01 -8.3171776170e+00 1.5306139028e+01 1.0566000000e-01 0.0000e+00 -1.0000e+00
       13  1    1    0    0    0 +2.2171893604e+01 -2.2163729183e+01 -3.7597854281e+01 4.8953381578e+01 1.0566000000e-01 0.0000e+00 1.0000e+00
       22  1    1    0    0    0 -1.9401374495e+01 +3.4710262899e+01 +4.5915031898e+01 6.0740479394e+01 0.0000000000e+00 0.0000e+00 1.0000e+00
</event>
<event>
 5      1 +2.4041262e-06 9.11880000e+01 7.81860800e-03 1.13011600e-01
       25 -1    0    0    0    0 +0.0000000000e+00 +0.0000000000e+00 +9.9999998245e-15 1.2500000000e+02 1.2500000000e+02 0.0000e+00 0.0000e+00
       23  2    1    0    0    0 -4.4139031224e+00 -1.7302423324e+01 -2.2106524056e+01 9.6582491321e+01 9.2307219817e+01 0.0000e+00 0.0000e+00
      -11  1    2    2    0    0 -2.7624160236e+01 +2.7482663571e+01 -2.4594258109e+01 4.6078938333e+01 5.1100000000e-04 0.0000e+00 1.0000e+00
       11  1    2    2    0    0 +2.3210257114e+01 -4.4785086895e+01 +2.4877340530e+00 5.0503552988e+01 5.1100000000e-04 0.0000e+00 -1.0000e+00
       22  1    1    0    0    0 +4.4139031224e+00 +1.7302423324e+01 +2.2106524056e+01 2.8417508679e+01 0.0000000000e+00 0.0000e+00 1.0000e+00
</event>
<event>
 4      1 +2.4041262e-06 9.11880000e+01 7.81860800e-03 1.13011600e-01
       25 -1    0    0    0    0 +0.0000000000e+00 +0.0000000000e+00 +9.9999998245e-15 1.2500000000e+02 1.2500000000e+02 0.0000e+00 0.0000e+00
      -13  1    1    0    0    0 +3.5097747104e+01 +7.4301917521e+00 +5.1177917452e+01 6.2500000000e+01 1.0566000000e-01 0.0000e+00 -1.0000e+00
       13  1    1    0    0    0 -3.5097746052e+01 -7.4301915333e+00 -5.1177915896e+01 6.2499998109e+01 1.0566000000e-01 0.0000e+00 -1.0000e+00
       22  1    1    0    0    0 -1.0520179388e-06 -2.1882055900e-07 -1.5564419041e-06 1.8913316953e-06 0.0000000000e+00 0.0000e+00 1.0000e+00
</event>
<event>
 5      1 +2.4041262e-06 9.11880000e+01 7.81860800e-03 1.13011600e-01
       25 -1    0    0    0    0 +0.0000000000e+00 +0.0000000000e+00 +9.9999998245e-15 1.2500000000e+02 1.2500000000e+02 0.0000e+00 0.0000e+00
       23  2    1    0    0    0 -1.5678069003e+01 +2.4605707650e+01 -1.8506749417e+00 9.5765299824e+01 9.1193886616e+01 0.0000e+00 0.0000e+00
      -11  1    2    2    0    0 -4.5847682983e+01 +4.0737269295e+01 -4.1864053222e+00 6.1474068796e+01 5.1100000000e-04 0.0000e+00 -1.0000e+00
       11  1    2    2    0    0 +3.0169613980e+01 -1.6131561645e+01 +2.3357303805e+00 3.4291231029e+01 5.1100000000e-04 0.0000e+00 1.0000e+00
       22  1    1    0    0    0 +1.5678069003e+01 -2.4605707650e+01 +1.8506749417e+00 2.9234700176e+01 0.0000000000e+00 0.0000e+00 -1.0000e+00
</event>
<event>
 4      1 +2.4041262e-06 9.11880000e+01 7.81860800e-03 1.13011600e-01
       25 -1    0    0    0    0 +0.0000000000e+00 +0.0000000000e+00 +9.9999998245e-15 1.2500000000e+02 1.2500000000e+02 0.0000e+00 0.0000e+00
      -13  1    1    0    0    0 -5.6112341238e+01 +2.5642775670e+01 +1.0004493565e+01 6.2499982710e+01 1.0566000000e-01 0.0000e+00 1.0000e+00
       13  1    1    0    0    0 +5.2905444189e+01 -2.4185350381e+01 -9.4211883502e+00 5.8929510025e+01 1.0566000000e-01 0.0000e+00 1.0000e+00
       22  1    1    0    0    0 +3.2068970491e+00 -1.4574252887e+00 -5.8330521477e-01 3.5705072650e+00 0.0000000000e+00 0.0000e+00 -1.0000e+00
</event>
<event>
 4      1 +2.4041262e-06 9.11880000e+01 7.81860800e-03 1.13011600e-01
       25 -1    0    0    0    0 +0.0000000000e+00 +0.0000000000e+00 +9.9999998245e-15 1.2500000000e+02 1.2500000000e+02 0.0000e+00 0.0000e+00
      -13  1    1    0    0    0 -4.7724259111e+01 +1.7185812465e+00 -1.7974103978e+01 5.1025856259e+01 1.0566000000e-01 0.0000e+00 1.0000e+00
       13  1    1    0    0    0 -1.0776044849e+01 +5.5711468451e-01 -3.9036664373e+00 1.1475334202e+01 1.0566000000e-01 0.0000e+00 -1.0000e+00
       22  1    1    0    0    0 +5.8500303960e+01 -2.2756959310e+00 +2.1877770415e+01 6.2498809538e+01 0.0000000000e+00 0.0000e+00 1.0000e+00
</event>
<event>
 4      1 +2.4041262e-06 9.11880000e+01 7.81860800e-03 1.13011600e-01
       25 -1    0    0    0    0 +0.0000000000e+00 +0.0000000000e+00 +9.9999998245e-15 1.2500000000e+02 1.2500000000e+02 0.0000e+00 0.0000e+00
      -13  1    1    0    0    0 +1.4976814090e+01 +3.7356885858e+00 -6.0563838270e+01 6.2499999997e+01 1.0566000000e-01 0.0000e+00 1.0000e+00
       13  1    1    0    0    0 -1.4976814082e+01 -3.7356885862e+00 +6.0563838271e+01 6.2499999996e+01 1.0566000000e-01 0.0000e+00 1.0000e+00
       22  1    1    0    0    0 -7.8248370272e-09 +4.0309781869e-10 -9.2312929438e-10 7.8894061912e-09 0.0000000000e+00 0.0000e+00 -1.0000e+00
</event>
<event>
 4      1 +2.4041262e-06 9.11880000e+01 7.81860800e-03 1.13011600e-01
       25 -1    0    0    0    0 +0.0000000000e+00 +0.0000000000e+00 +9.9999998245e-15 1.2500000000e+02 1.2500000000e+02 0.0000e+00 0.0000e+00
      -13  1    1    0    0    0 +3.8408144221e+01 -2.1396873023e+01 +4.4421016798e+01 6.2499996921e+01 1.0566000000e-01 0.0000e+00 1.0000e+00
       13  1    1    0    0    0 -3.7373054260e+01 +2.0820967260e+01 -4.3229096730e+01 6.0819600710e+01 1.0566000000e-01 0.0000e+00 1.0000e+00
       22  1    1    0    0    0 -1.0350899609e+00 +5.7590576304e-01 -1.1919200680e+00 1.6804023695e+00 0.0000000000e+00 0.0000e+00 -1.0000e+00
</event>
<event>
 4      1 +2.4041262e-06 9.11880000e+01 7.81860800e-03 1.13011600e-01
       25 -1    0    0    0    0 +0.0000000000e+00 +0.0000000000e+00 +9.9999998245e-15 1.2500000000e+02 1.2500000000e+02 0.0000e+00 0.0000e+00
      -13  1    1    0    0    0 +4.5483092908e+01 +3.4540601171e+01 +2.5386491804e+01 6.2499999999e+01 1.0566000000e-01 0.0000e+00 1.0000e+00
       13  1    1    0    0    0 -4.5483012388e+01 -3.4540540052e+01 -2.5386446301e+01 6.2499889142e+01 1.0566000000e-01 0.0000e+00 1.0000e+00
       22  1    1    0    0    0 -8.0520277261e-05 -6.1119453749e-05 -4.5503371813e-05 1.1085873679e-04 0.0000000000e+00 0.0000e+00 1.0000e+00
</event>
<event>
 4      1 +2.4041262e-06 9.11880000e+01 7.81860800e-03 1.13011600e-01
       25 -1    0    0    0    0 +0.0000000000e+00 +0.0000000000e+00 +9.9999998245e-15 1.2500000000e+02 1.2500000000e+02 0.0000e+00 0.0000e+00
      -13  1    1    0    0    0 -2.0318226753e+01 +4.3540224209e+01 +3.9970704423e+01 6.2499998709e+01 1.0566000000e-01 0.0000e+00 -1.0000e+00
       13  1    1    0    0    0 +2.0312166621e+01 -4.3527015805e+01 -3.9958997906e+01 6.2481340378e+01 1.0566000000e-01 0.0000e+00 -1.0000e+00
       22  1    1    0    0    0 +6.0601319548e-03 -1.3208404350e-02 -1.1706516984e-02 1.8660913286e-02 0.0000000000e+00 0.0000e+00 -1.0000e+00
</event>
<event>
 4      1 +2.4041262e-06 9.11880000e+01 7.81860800e-03 1.13011600e-01
       25 -1    0    0    0    0 +0.0000000000e+00 +0.0000000000e+00 +9.9999998245e-15 1.2500000000e+02 1.2500000000e+02 0.0000e+00 0.0000e+00
      -13  1    1    0    0    0 -1.9081619227e+01 +3.9503843831e+00 -2.5312647065e+00 1.9650246669e+01 1.0566000000e-01 0.0000e+00 -1.0000e+00
       13  1    1    0    0    0 -4.1443070662e+01 +9.7152753107e+00 -4.9437192526e+00 4.2852843597e+01 1.0566000000e-01 0.0000e+00 -1.0000e+00
       22  1    1    0    0    0 +6.0524689889e+01 -1.3665659694e+01 +7.4749839591e+00 6.2496909734e+01 0.0000000000e+00 0.0000e+00 -1.0000e+00
</event>
<event>
 4      1 +2.4041262e-06 9.11880000e+01 7.81860800e-03 1.13011600e-01
       25 -1    0    0    0    0 +0.0000000000e+00 +0.0000000000e+00 +9.9999998245e-15 1.2500000000e+02 1.2500000000e+02 0.0000e+00 0.0000e+00
      -11  1    1    0    0    0 +3.6460860384e+00 -1.2808039579e+01 +3.4346320645e+00 1.3752691334e+01 5.1100000000e-04 0.0000e+00 -1.0000e+00
       11  1    1    0    0    0 +3.9761664289e+01 -1.6333618408e+01 +2.6989943967e+01 5.0756616445e+01 5.1100000000e-04 0.0000e+00 1.0000e+00
       22  1    1    0    0    0 -4.3407750327e+01 +2.9141657987e+01 -3.0424576031e+01 6.0490692221e+01 0.0000000000e+00 0.0000e+00 1.0000e+00
</event>
<event>
 5      1 +2.4041262e-06 9.11880000e+01 7.81860800e-03 1.13011600e-01
       25 -1    0    0    0    0 +0.0000000000e+00 +0.0000000000e+00 +9.9999998245e-15 1.2500000000e+02 1.2500000000e+02 0.0000e+00 0.0000e+00
       23  2    1    0    0    0 -1.4331991953e+01 +3.2771604505e+01 +1.6171961098e+01 8.5745492221e+01 7.6232362257e+01 0.0000e+00 0.0000e+00
      -11  1    2    2    0    0 +2.6115925513e+01 +2.7119439204e+01 -7.7148293038e+00 3.8432071758e+01 5.1100000000e-04 0.0000e+00 -1.0000e+00
       11  1    2    2    0    0 -4.0447917467e+01 +5.6521653012e+00 +2.3886790401e+01 4.7313420463e+01 5.1100000000e-04 0.0000e+00 1.0000e+00
       22  1    1    0    0    0 +1.4331991953e+01 -3.2771604505e+01 -1.6171961098e+01 3.9254507779e+01 0.0000000000e+00 0.0000e+00 1.0000e+00
</event>
<event>
 4      1 +2.4041262e-06 9.11880000e+01 7.81860800e-03 1.13011600e-01
       25 -1    0    0    0    0 +0.0000000000e+00 +0.0000000000e+00 +9.9999998245e-15 1.2500000000e+02 1.2500000000e+02 0.0000e+00 0.0000e+00
      -13  1    1    0    0    0 -1.6964230785e+01 -3.2484707015e+00 +6.0063019780e+01 6.2497321520e+01 1.0566000000e-01 0.0000e+00 1.0000e+00
       13  1    1    0    0    0 +1.1775450298e+01 +2.4761568852e+00 -4.2914988058e+01 4.4570168798e+01 1.0566000000e-01 0.0000e+00 1.0000e+00
       22  1    1    0    0    0 +5.1887804863e+00 +7.7231381630e-01 -1.7148031722e+01 1.7932509682e+01 0.0000000000e+00 0.0000e+00 1.0000e+00
</event>
<event>
 4      1 +2.4041262e-06 9.11880000e+01 7.81860800e-03 1.13011600e-01
       25 -1    0    0    0    0 +0.0000000000e+00 +0.0000000000e+00 +9.9999998245e-15 1.2500000000e+02 1.2500000000e+02 0.0000e+00 0.0000e+00
      -13  1    1    0    0    0 +4.6485126452e+01 +4.8413562826e+00 -4.1464097712e+01 6.2478702571e+01 1.0566000000e-01 0.0000e+00 -1.0000e+00
       13  1    1    0    0    0 -4.6499151399e+01 -4.8393524692e+00 +4.1480328066e+01 6.2499753548e+01 1.0566000000e-01 0.0000e+00 -1.0000e+00
       22  1    1    0    0    0 +1.4024946899e-02 -2.0038133765e-03 -1.6230353933e-02 2.1543880624e-02 0.0000000000e+00 0.0000e+00 1.0000e+00
</event>
<event>
 5      1 +2.4041262e-06 9.11880000e+01 7.81860800e-03 1.13011600e-01
       25 -1    0    0    0    0 +0.0000000000e+00 +0.0000000000e+00 +9.9999998245e-15 1.2500000000e+02 1.2500000000e+02 0.0000e+00 0.0000e+00
       23  2    1    0    0    0 -6.6029637935e+00 +3.1951227136e+01 -1.6287498417e+01 8.8534089193e+01 8.0675413220e+01 0.0000e+00 0.0000e+00
      -13  1    2    2    0    0 +2.5871729847e+01 -1.2184247806e+01 -1.7859239093e+01 3.3715958905e+01 1.0566000000e-01 0.0000e+00 -1.0000e+00
       13  1    2    2    0    0 -3.2474693641e+01 +4.4135474942e+01 +1.5717406766e+00 5.4818130287e+01 1.0566000000e-01 0.0000e+00 1.0000e+00
       22  1    1    0    0    0 +6.6029637935e+00 -3.1951227136e+01 +1.6287498417e+01 3.6465910807e+01 0.0000000000e+00 0.0000e+00 1.0000e+00
</event>
<event>
 5      1 +2.4041262e-06 9.11880000e+01 7.81860800e-03 1.13011600e-01
       25 -1    0    0    0    0 +0.0000000000e+00 +0.0000000000e+00 +9.9999998245e-15 1.2500000000e+02 1.2500000000e+02 0.0000e+00 0.0000e+00
       23  2    1    0    0    0 -1.5303287565e+01 -7.6444756574e+00 +2.0772930044e+01 9.8090090283e+01 9.4326680058e+01 0.0000e+00 0.0000e+00
      -11  1    2    2    0    0 -3.4106576684e+01 -2.6545695969e+01 +4.4764302288e+01 6.2223591243e+01 5.1100000000e-04 0.0000e+00 -1.0000e+00
       11  1    2    2    0    0 +1.8803289119e+01 +1.8901220311e+01 -2.3991372244e+01 3.5866499040e+01 5.1100000000e-04 0.0000e+00 1.0000e+00
       22  1    1    0    0    0 +1.5303287565e+01 +7.6444756574e+00 -2.0772930044e+01 2.6909909717e+01 0.0000000000e+00 0.0000e+00 -1.0000e+00
</event>
<event>
 4      1 +2.4041262e-06 9.11880000e+01 7.81860800e-03 1.13011600e-01
       25 -1    0    0    0    0 +0.0000000000e+00 +0.0000000000e+00 +9.9999998245e-15 1.2500000000e+02 1.2500000000e+02 0.0000e+00 0.0000e+00
      -13  1    1    0    0    0 -1.4294035250e+01 +1.9887843832e+01 +5.7501243949e+01 6.2499999966e+01 1.0566000000e-01 0.0000e+00 -1.0000e+00
       13  1    1    0    0    0 +1.4294035259e+01 -1.9887843844e+01 -5.7501243980e+01 6.2500000000e+01 1.0566000000e-01 0.0000e+00 -1.0000e+00
       22  1    1    0    0    0 -8.5465017083e-09 +1.2066859924e-08 +3.0912009827e-08 3.4266662391e-08 0.0000000000e+00 0.0000e+00 1.0000e+00
</event>
<event>
 4      1 +2.4041262e-06 9.11880000e+01 7.81860800e-03 1.13011600e-01
       25 -1    0    0    0    0 +0.0000000000e+00 +0.0000000000e+00 +9.9999998245e-15 1.2500000000e+02 1.2500000000e+02 0.0000e+00 0.0000e+00
      -13  1    1    0    0    0 -4.8873591440e+01 -3.2330410604e+01 -2.1733709085e+01 6.2499989318e+01 1.0566000000e-01 0.0000e+00 1.0000e+00
       13  1    1    0    0    0 +4.8872775489e+01 +3.2329609539e+01 +2.1733353211e+01 6.2498813131e+01 1.0566000000e-01 0.0000e+00 1.0000e+00
       22  1    1    0    0    0 +8.1595128866e-04 +8.0106524606e-04 +3.5587368150e-04 1.1975508804e-03 0.0000000000e+00 0.0000e+00 1.0000e+00
</event>
<event>
 4      1 +2.4041262e-06 9.11880000e+01 7.81860800e-03 1.13011600e-01
       25 -1    0    0    0    0 +0.0000000000e+00 +0.0000000000e+00 +9.9999998245e-15 1.2500000000e+02 1.2500000000e+02 0.0000e+00 0.0000e+00
      -13  1    1    0    0    0 +2.8455435294e+01 +5.5594601931e+01 +2.4014785759e+00 6.2499998600e+01 1.0566000000e-01 0.0000e+00 -1.0000e+00
       13  1    1    0    0    0 -2.8455435997e+01 -5.5594603143e+01 -2.4014785656e+00 6.2499999998e+01 1.0566000000e-01 0.0000e+00 -1.0000e+00
       22  1    1    0    0    0 +7.0335579766e-07 +1.2128269415e-06 -1.0326702011e-08 1.4020574913e-06 0.0000000000e+00 0.0000e+00 -1.0000e+00
</event>
<event>
 4      1 +2.4041262e-06 9.11880000e+01 7.81860800e-03 1.13011600e-01
       25 -1    0    0    0    0 +0.0000000000e+00 +0.0000000000e+00 +9.9999998245e-15 1.2500000000e+02 1.2500000000e+02 0.0000e+00 0.0000e+00
      -13  1    1    0    0    0 -1.3488235066e+01 -4.0105508006e+01 -4.4003294599e+01 6.1046583501e+01 1.0566000000e-01 0.0000e+00 -1.0000e+00
       13  1    1    0    0    0 +1.4028206799e+01 +4.0862263306e+01 +4.5141203220e+01 6.2484034286e+01 1.0566000000e-01 0.0000e+00 -1.0000e+00
       22  1    1    0    0    0 -5.3997173267e-01 -7.5675530008e-01 -1.1379086214e+00 1.4693822127e+00 0.0000000000e+00 0.0000e+00 1.0000e+00
</event>
<event>
 4      1 +2.4041262e-06 9.11880000e+01 7.81860800e-03 1.13011600e-01
       25 -1    0    0    0    0 +0.0000000000e+00 +0.0000000000e+00 +9.9999998245e-15 1.2500000000e+02 1.2500000000e+02 0.0000e+00 0.0000e+00
      -13  1    1    0    0    0 -4.6015073027e+01 -3.4427111751e+01 +2.4568798593e+01 6.2499999980e+01 1.0566000000e-01 0.0000e+00 -1.0000e+00
       13  1    1    0    0    0 +4.6015073023e+01 +3.4427111773e+01 -2.4568798605e+01 6.2499999994e+01 1.0566000000e-01 0.0000e+00 -1.0000e+00
       22  1    1    0    0    0 +4.5272585429e-09 -2.2298671071e-08 +1.1743091418e-08 2.5605214264e-08 0.0000000000e+00 0.0000e+00 1.0000e+00
</event>
<event>
 4      1 +2.4041262e-06 9.11880000e+01 7.81860800e-03 1.13011600e-01
       25 -1    0    0    0    0 +0.0000000000e+00 +0.0000000000e+00 +9.9999998245e-15 1.2500000000e+02 1.2500000000e+02 0.0000e+00 0.0000e+00
      -13  1    1    0    0    0 -5.2826353428e+01 +1.7643746603e+01 -2.8331541831e+01 6.2486901325e+01 1.0566000000e-01 0.0000e+00 -1.0000e+00
       13  1    1    0    0    0 +5.2837421589e+01 -1.7647411180e+01 +2.8337512032e+01 6.2499999949e+01 1.0566000000e-01 0.0000e+00 -1.0000e+00
       22  1    1    0    0    0 -1.1068160703e-02 +3.6645774119e-03 -5.9702008394e-03 1.3098725396e-02 0.0000000000e+00 0.0000e+00 1.0000e+00
</event>
<event>
 4      1 +2.4041262e-06 9.11880000e+01 7.81860800e-03 1.13011600e-01
       25 -1    0    0    0    0 +0.0000000000e+00 +0.0000000000e+00 +9.9999998245e-15 1.2500000000e+02 1.2500000000e+02 0.0000e+00 0.0000e+00
      -11  1    1    0    0    0 +1.2157895283e+01 +4.8539592307e+01 -9.3992478361e+00 5.0914165998e+01 5.1100000000e-04 0.0000e+00 -1.0000e+00
       11  1    1    0    0    0 +2.7579662286e+00 +1.1047468218e+01 -2.1397780302e+00 1.1585835405e+01 5.1100000000e-04 0.0000e+00 1.0000e+00
       22  1    1    0    0    0 -1.4915861512e+01 -5.9587060526e+01 +1.1539025866e+01 6.2499998597e+01 0.0000000000e+00 0.0000e+00 -1.0000e+00
</event>
<event>
 4      1 +2.4041262e-06 9.11880000e+01 7.81860800e-03 1.13011600e-01
       25 -1    0    0    0    0 +0.0000000000e+00 +0.0000000000e+00 +9.9999998245e-15 1.2500000000e+02 1.2500000000e+02 0.0000e+00 0.0000e+00
      -13  1    1    0    0    0 -3.4777229027e+01 +3.1378884417e+01 +4.1378119594e+01 6.2499999930e+01 1.0566000000e-01 0.0000e+00 1.0000e+00
       13  1    1    0    0    0 +3.4777228793e+01 -3.1378883459e+01 -4.1378118943e+01 6.2499998888e+01 1.0566000000e-01 0.0000e+00 1.0000e+00
       22  1    1    0    0    0 +2.3445409006e-07 -9.5780818394e-07 -6.5163794076e-07 1.1819463792e-06 0.0000000000e+00 0.0000e+00 1.0000e+00
</event>
<event>
 5      1 +2.4041262e-06 9.11880000e+01 7.81860800e-03 1.13011600e-01
       25 -1    0    0    0    0 +0.0000000000e+00 +0.0000000000e+00 +9.9999998245e-15 1.2500000000e+02 1.2500000000e+02 0.0000e+00 0.0000e+00
       23  2    1    0    0    0 +1.6984589659e+00 +3.2616331902e+01 +3.7449859260e+00 9.2125468989e+01 8.6060253585e+01 0.0000e+00 0.0000e+00
      -11  1    2    2    0    0 +5.5962576528e-01 +6.2193859689e+01 -6.6105179475e-01 6.2199890303e+01 5.1100000000e-04 0.0000e+00 1.0000e+00
       11  1    2    2    0    0 +1.1388332006e+00 -2.9577527786e+01 +4.4060377207e+00 2.9925578686e+01 5.1100000000e-04 0.0000e+00 -1.0000e+00
       22  1    1    0    0    0 -1.6984589659e+00 -3.2616331902e+01 -3.7449859260e+00 3.2874531011e+01 0.0000000000e+00 0.0000e+00 1.0000e+00
</event>
<event>
 4      1 +2.4041262e-06 9.11880000e+01 7.81860800e-03 1.13011600e-01
       25 -1    0    0    0    0 +0.0000000000e+00 +0.0000000000e+00 +9.9999998245e-15 1.2500000000e+02 1.2500000000e+02 0.0000e+00 0.0000e+00
      -11  1    1    0    0    0 -1.6334589890e+01 +2.1030304483e+00 -2.9239579840e+01 3.3558822885e+01 5.1100000000e-04 0.0000e+00 1.0000e+00
       11  1    1    0    0    0 -1.8270765545e+01 +1.6256064851e+01 -1.7783972376e+01 3.0238224017e+01 5.1100000000e-04 0.0000e+00 -1.0000e+00
       22  1    1    0    0    0 +3.4605355435e+01 -1.8359095299e+01 +4.7023552215e+01 6.1202953098e+01 0.0000000000e+00 0.0000e+00 1.0000e+00
</event>
<event>
 4      1 +2.4041262e-06 9.11880000e+01 7.81860800e-03 1.13011600e-01
       25 -1    0    0    0    0 +0.0000000000e+00 +0.0000000000e+00 +9.9999998245e-15 1.2500000000e+02 1.2500000000e+02 0.0000e+00 0.0000e+00
      -11  1    1    0    0    0 -1.2825255615e+01 -6.6794144456e+00 +6.1190620068e+00 1.5701741274e+01 5.1100000000e-04 0.0000e+00 1.0000e+00
       11  1    1    0    0    0 -4.0261340543e+01 -2.0686413586e+01 +1.2103708340e+01 4.6855127843e+01 5.1100000000e-04 0.0000e+00 -1.0000e+00
       22  1    1    0    0    0 +5.3086596158e+01 +2.7365828031e+01 -1.8222770347e+01 6.2443130883e+01 0.0000000000e+00 0.0000e+00 -1.0000e+00
</event>
<event>
 4      1 +2.4041262e-06 9.11880000e+01 7.81860800e-03 1.13011600e-01
       25 -1    0    0    0    0 +0.0000000000e+00 +0.0000000000e+00 +9.9999998245e-15 1.2500000000e+02 1.2500000000e+02 0.0000e+00 0.0000e+00
      -13  1    1    0    0    0 +1.6185802025e-01 -1.5292754065e+01 -6.0599855566e+01 6.2499985469e+01 1.0566000000e-01 0.0000e+00 -1.0000e+00
       13  1    1    0    0    0 -1.6390386829e-01 +1.5270801425e+01 +6.0512274100e+01 6.2409700540e+01 1.0566000000e-01 0.0000e+00 -1.0000e+00
       22  1    1    0    0    0 +2.0458480412e-03 +2.1952640450e-02 +8.7581465979e-02 9.0313991718e-02 0.0000000000e+00 0.0000e+00 -1.0000e+00
</event>
<event>
 4      1 +2.4041262e-06 9.11880000e+01 7.81860800e-03 1.13011600e-01
       25 -1    0    0    0    0 +0.0000000000e+00 +0.0000000000e+00 +9.9999998245e-15 1.2500000000e+02 1.2500000000e+02 0.0000e+00 0.0000e+00
      -11  1    1    0    0    0 +2.0537464524e+01 -8.5951323620e+00 +9.5225006903e+00 2.4214495020e+01 5.1100000000e-04 0.0000e+00 1.0000e+00
       11  1    1    0    0    0 +3.5057190940e+01 -1.2779057629e+01 +9.0493208717e+00 3.8395327307e+01 5.1100000000e-04 0.0000e+00 -1.0000e+00
       22  1    1    0    0    0 -5.5594655465e+01 +2.1374189991e+01 -1.8571821562e+01 6.2390177673e+01 0.0000000000e+00 0.0000e+00 -1.0000e+00
</event>
<event>
 4      1 +2.4041262e-06 9.11880000e+01 7.81860800e-03 1.13011600e-01
       25 -1    0    0    0    0 +0.0000000000e+00 +0.0000000000e+00 +9.9999998245e-15 1.2500000000e+02 1.2500000000e+02 0.0000e+00 0.0000e+00
      -13  1    1    0    0    0 -2.6648598586e-01 -5.0787952678e+01 +3.6424552380e+01 6.2499970657e+01 1.0566000000e-01 0.0000e+00 1.0000e+00
       13  1    1    0    0    0 +2.6647683517e-01 +5.0787976797e+01 -3.6424567877e+01 6.2499999249e+01 1.0566000000e-01 0.0000e+00 1.0000e+00
       22  1    1    0    0    0 +9.1506890991e-06 -2.4119398260e-05 +1.5497097539e-05 3.0093861759e-05 0.0000000000e+00 0.0000e+00 1.0000e+00
</event>
<event>
 4      1 +2.4041262e-06 9.11880000e+01 7.81860800e-03 1.13011600e-01
       25 -1    0    0    0    0 +0.0000000000e+00 +0.0000000000e+00 +9.9999998245e-15 1.2500000000e+02 1.2500000000e+02 0.0000e+00 0.0000e+00
      -13  1    1    0    0    0 +2.2162019801e+01 +5.7929860226e+01 -7.6951288812e+00 6.2500000000e+01 1.0566000000e-01 0.0000e+00 -1.0000e+00
       13  1    1    0    0    0 -2.2162019801e+01 -5.7929860226e+01 +7.6951288812e+00 6.2500000000e+01 1.0566000000e-01 0.0000e+00 -1.0000e+00
       22  1    1    0    0    0 +1.3596802599e-11 -5.2356063834e-12 +1.8327809530e-11 2.3413526375e-11 0.0000000000e+00 0.0000e+00 1.0000e+00
</event>
<event>
 5      1 +2.4041262e-06 9.11880000e+01 7.81860800e-03 1.13011600e-01
       25 -1    0    0    0    0 +0.0000000000e+00 +0.0000000000e+00 +9.9999998245e-15 1.2500000000e+02 1.2500000000e+02 0.0000e+00 0.0000e+00
       23  2    1    0    0    0 -4.8509665456e+00 -1.0368555913e+01 +2.7195007161e+01 9.5493945661e+01 9.0821178231e+01 0.0000e+00 0.0000e+00
      -13  1    2    2    0    0 -3.8852788710e+01 -2.9577435638e+01 +2.8276246272e+01 5.6426245283e+01 1.0566000000e-01 0.0000e+00 1.0000e+00
       13  1    2    2    0    0 +3.4001822164e+01 +1.9208879725e+01 -1.0812391111e+00 3.9067700378e+01 1.0566000000e-01 0.0000e+00 -1.0000e+00
       22  1    1    0    0    0 +4.8509665456e+00 +1.0368555913e+01 -2.7195007161e+01 2.9506054339e+01 0.0000000000e+00 0.0000e+00 1.0000e+00
</event>
<event>
 4      1 +2.4041262e-06 9.11880000e+01 7.81860800e-03 1.13011600e-01
       25 -1    0    0    0    0 +0.0000000000e+00 +0.0000000000e+00 +9.9999998245e-15 1.2500000000e+02 1.2500000000e+02 0.0000e+00 0.0000e+00
      -13  1    1    0    0    0 -4.8011865961e+01 -3.7200183246e+00 -3.9840444454e+01 6.2499999902e+01 1.0566000000e-01 0.0000e+00 1.0000e+00
       13  1    1    0    0    0 +4.8011866039e+01 +3.7200181629e+00 +3.9840444376e+01 6.2499999902e+01 1.0566000000e-01 0.0000e+00 1.0000e+00
       22  1    1    0    0    0 -7.7954006924e-08 +1.6167744968e-07 +7.8221151246e-08 1.9579319048e-07 0.0000000000e+00 0.0000e+00 -1.0000e+00
</event>
<event>
 4      1 +2.4041262e-06 9.11880000e+01 7.81860800e-03 1.13011600e-01
       25 -1    0    0    0    0 +0.0000000000e+00 +0.0000000000e+00 +9.9999998245e-15 1.2500000000e+02 1.2500000000e+02 0.0000e+00 0.0000e+00
      -13  1    1    0    0    0 -1.1070409254e+01 +5.3263700544e+01 +3.0767889480e+01 6.2499999550e+01 1.0566000000e-01 0.0000e+00 -1.0000e+00
       13  1    1    0    0    0 +1.1068162823e+01 -5.3253448220e+01 -3.0762059103e+01 6.2487994206e+01 1.0566000000e-01 0.0000e+00 -1.0000e+00
       22  1    1    0    0    0 +2.2464311259e-03 -1.0252323739e-02 -5.8303767706e-03 1.2006243715e-02 0.0000000000e+00 0.0000e+00 1.0000e+00
</event>
<event>
 4      1 +2.4041262e-06 9.11880000e+01 7.81860800e-03 1.13011600e-01
       25 -1    0    0    0    0 +0.0000000000e+00 +0.0000000000e+00 +9.9999998245e-15 1.2500000000e+02 1.2500000000e+02 0.0000e+00 0.0000e+00
      -13  1    1    0    0    0 -6.0598910038e+00 -7.2254189706e+00 +1.5728615768e+01 1.8339287780e+01 1.0566000000e-01 0.0000e+00 1.0000e+00
       13  1    1    0    0    0 -2.0227559269e+01 -1.7839219085e+01 +3.5052028054e+01 4.4227228337e+01 1.0566000000e-01 0.0000e+00 -1.0000e+00
       22  1    1    0    0    0 +2.6287450273e+01 +2.5064638056e+01 -5.0780643822e+01 6.2433483883e+01 0.0000000000e+00 0.0000e+00 -1.0000e+00
</event>
<event>
 4      1 +2.4041262e-06 9.11880000e+01 7.81860800e-03 1.13011600e-01
       25 -1    0    0    0    0 +0.0000000000e+00 +0.0000000000e+00 +9.9999998245e-15 1.2500000000e+02 1.2500000000e+02 0.0000e+00 0.0000e+00
      -13  1    1    0    0    0 +7.6724538201e+00 -5.3677922176e+01 +3.1025387467e+01 6.2472167469e+01 1.0566000000e-01 0.0000e+00 -1.0000e+00
       13  1    1    0    0    0 -7.6759838746e+00 +5.3701712830e+01 -3.1039395520e+01 6.2499999421e+01 1.0566000000e-01 0.0000e+00 -1.0000e+00
       22  1    1    0    0    0 +3.5300544135e-03 -2.3790653681e-02 +1.4008052899e-02 2.7833110368e-02 0.0000000000e+00 0.0000e+00 -1.0000e+00
</event>
<event>
 4      1 +2.4041262e-06 9.11880000e+01 7.81860800e-03 1.13011600e-01
       25 -1    0    0    0    0 +0.0000000000e+00 +0.0000000000e+00 +9.9999998245e-15 1.2500000000e+02 1.2500000000e+02 0.0000e+00 0.0000e+00
      -13  1    1    0    0    0 -3.0660369883e+01 -5.4123131512e+01 +6.0718076760e+00 6.2499997268e+01 1.0566000000e-01 0.0000e+00 -1.0000e+00
       13  1    1    0    0    0 +3.0660371239e+01 +5.4123133864e+01 -6.0718079839e+00 6.2500000000e+01 1.0566000000e-01 0.0000e+00 -1.0000e+00
       22  1    1    0    0    0 -1.3563838022e-06 -2.3518505543e-06 +3.0786208153e-07 2.7323537674e-06 0.0000000000e+00 0.0000e+00 1.0000e+00
</event>
<event>
 4      1 +2.4041262e-06 9.11880000e+01 7.81860800e-03 1.13011600e-01
       25 -1    0    0    0    0 +0.0000000000e+00 +0.0000000000e+00 +9.9999998245e-15 1.2500000000e+02 1.2500000000e+02 0.0000e+00 0.0000e+00
      -13  1    1    0    0    0 +1.4463125737e-01 -4.3418851620e+00 +4.4184749639e+00 6.1973357181e+00 1.0566000000e-01 0.0000e+00 -1.0000e+00
       13  1    1    0    0    0 -2.8429364635e+01 -2.9411857253e+01 +3.9316847834e+01 5.6737217135e+01 1.0566000000e-01 0.0000e+00 1.0000e+00
       22  1    1    0    0    0 +2.8284733378e+01 +3.3753742415e+01 -4.3735322798e+01 6.2065447147e+01 0.0000000000e+00 0.0000e+00 1.0000e+00
</event>
<event>
 4      1 +2.4041262e-06 9.11880000e+01 7.81860800e-03 1.13011600e-01
       25 -1    0    0    0    0 +0.0000000000e+00 +0.0000000000e+00 +9.9999998245e-15 1.2500000000e+02 1.2500000000e+02 0.0000e+00 0.0000e+00
      -13  1    1    0    0    0 -3.2013838580e+01 -5.0044234562e+01 -1.9211280228e+01 6.2437134188e+01 1.0566000000e-01 0.0000e+00 -1.0000e+00
       13  1    1    0    0    0 +3.2046624871e+01 +5.0094215975e+01 +1.9230755269e+01 6.2499998016e+01 1.0566000000e-01 0.0000e+00 -1.0000e+00
       22  1    1    0    0    0 -3.2786291602e-02 -4.9981412987e-02 -1.9475040869e-02 6.2867796033e-02 0.0000000000e+00 0.0000e+00 1.0000e+00
</event>
<event>
 4      1 +2.4041262e-06 9.11880000e+01 7.81860800e-03 1.13011600e-01
       25 -1    0    0    0    0 +0.0000000000e+00 +0.0000000000e+00 +9.9999998245e-15 1.2500000000e+02 1.2500000000e+02 0.0000e+00 0.0000e+00
      -13  1    1    0    0    0 +3.6553086413e+01 +3.6616858359e+01 -3.5061608527e+01 6.2499999991e+01 1.0566000000e-01 0.0000e+00 -1.0000e+00
       13  1    1    0    0    0 -3.6553086419e+01 -3.6616858364e+01 +3.5061608531e+01 6.2500000000e+01 1.0566000000e-01 0.0000e+00 -1.0000e+00
       22  1    1    0    0    0 +5.6262609838e-09 +4.9058313804e-09 -4.1970372706e-09 8.5637092455e-09 0.0000000000e+00 0.0000e+00 -1.0000e+00
</event>
<event>
 5      1 +2.4041262e-06 9.11880000e+01 7.81860800e-03 1.13011600e-01
       25 -1    0    0    0    0 +0.0000000000e+00 +0.0000000000e+00 +9.9999998245e-15 1.2500000000e+02 1.2500000000e+02 0.0000e+00 0.0000e+00
       23  2    1    0    0    0 -2.5195682433e+01 +4.0792012668e+00 +1.1381765840e+01 9.7053499505e+01 9.2942858125e+01 0.0000e+00 0.0000e+00
      -13  1    2    2    0    0 -5.6830409578e+01 -1.3001462988e-01 +2.5335910811e+01 6.2222438857e+01 1.0566000000e-01 0.0000e+00 1.0000e+00
       13  1    2    2    0    0 +3.1634727145e+01 +4.2092158967e+00 -1.3954144971e+01 3.4831060649e+01 1.0566000000e-01 0.0000e+00 -1.0000e+00
       22  1    1    0    0    0 +2.5195682433e+01 -4.0792012668e+00 -1.1381765840e+01 2.7946500495e+01 0.0000000000e+00 0.0000e+00 1.0000e+00
</event>
<event>
 4      1 +2.4041262e-06 9.11880000e+01 7.81860800e-03 1.13011600e-01
       25 -1    0    0    0    0 +0.0000000000e+00 +0.0000000000e+00 +9.9999998245e-15 1.2500000000e+02 1.2500000000e+02 0.0000e+00 0.0000e+00
      -13  1    1    0    0    0 -2.6839544554e+01 +5.0093555992e+01 -1.7792610871e+01 5.9550933405e+01 1.0566000000e-01 0.0000e+00 1.0000e+00
       13  1    1    0    0    0 +2.8150740588e+01 -5.2584239110e+01 +1.8672651011e+01 6.2499963666e+01 1.0566000000e-01 0.0000e+00 1.0000e+00
       22  1    1    0    0    0 -1.3111960336e+00 +2.4906831187e+00 -8.8004013988e-01 2.9491029287e+00 0.0000000000e+00 0.0000e+00 1.0000e+00
</event>
<event>
 4      1 +2.4041262e-06 9.11880000e+01 7.81860800e-03 1.13011600e-01
       25 -1    0    0    0    0 +0.0000000000e+00 +0.0000000000e+00 +9.9999998245e-15 1.2500000000e+02 1.2500000000e+02 0.0000e+00 0.0000e+00
      -13  1    1    0    0    0 +1.8747930348e+01 +5.6105750981e+01 +2.0148358522e+01 6.2492461151e+01 1.0566000000e-01 0.0000e+00 1.0000e+00
       13  1    1    0    0    0 -1.8750725513e+01 -5.6112926890e+01 -2.0142469209e+01 6.2497843973e+01 1.0566000000e-01 0.0000e+00 1.0000e+00
       22  1    1    0    0    0 +2.7951654043e-03 +7.1759086992e-03 -5.8893136066e-03 9.6948764847e-03 0.0000000000e+00 0.0000e+00 -1.0000e+00
</event>
<event>
 5      1 +2.4041262e-06 9.11880000e+01 7.81860800e-03 1.13011600e-01
       25 -1    0    0    0    0 +0.0000000000e+00 +0.0000000000e+00 +9.9999998245e-15 1.2500000000e+02 1.2500000000e+02 0.0000e+00 0.0000e+00
       23  2    1    0    0    0 +3.2531188128e+00 -7.5885433453e+00 -2.8806240137e+01 9.5033881751e+01 9.0185755182e+01 0.0000e+00 0.0000e+00
      -11  1    2    2    0    0 +3.7960691425e+01 -3.0465427464e+01 -1.1549869616e+01 5.0025551995e+01 5.1100000000e-04 0.0000e+00 1.0000e+00
       11  1    2    2    0    0 -3.4707572612e+01 +2.2876884119e+01 -1.7256370521e+01 4.5008329756e+01 5.1100000000e-04 0.0000e+00 -1.0000e+00
       22  1    1    0    0    0 -3.2531188128e+00 +7.5885433453e+00 +2.8806240137e+01 2.9966118249e+01 0.0000000000e+00 0.0000e+00 1.0000e+00
</event>
<event>
 5      1 +2.4041262e-06 9.11880000e+01 7.81860800e-03 1.13011600e-01
       25 -1    0    0    0    0 +0.0000000000e+00 +0.0000000000e+00 +9.9999998245e-15 1.2500000000e+02 1.2500000000e+02 0.0000e+00 0.0000e+00
       23  2    1    0    0    0 -2.0604100110e+00 +2.5955797735e+01 +1.4604508533e+01 9.5146350391e+01 9.0341505400e+01 0.0000e+00 0.0000e+00
      -11  1    2    2    0    0 -3.7226156251e+01 -1.3736566086e+00 +3.0202695538e+01 4.7957027219e+01 5.1100000000e-04 0.0000e+00 -1.0000e+00
       11  1    2    2    0    0 +3.5165746240e+01 +2.7329454343e+01 -1.5598187005e+01 4.7189323172e+01 5.1100000000e-04 0.0000e+00 1.0000e+00
       22  1    1    0    0    0 +2.0604100110e+00 -2.5955797735e+01 -1.4604508533e+01 2.9853649609e+01 0.0000000000e+00 0.0000e+00 1.0000e+00
</event>
<event>
 4      1 +2.4041262e-06 9.11880000e+01 7.81860800e-03 1.13011600e-01
       25 -1    0    0    0    0 +0.0000000000e+00 +0.0000000000e+00 +9.9999998245e-15 1.2500000000e+02 1.2500000000e+02 0.0000e+00 0.0000e+00
      -13  1    1    0    0    0 -1.1518253088e+01 -3.4739198925e+00 +1.1974182502e-01 1.2031781903e+01 1.0566000000e-01 0.0000e+00 1.0000e+00
       13  1    1    0    0    0 -4.7354580397e+01 -1.7475379854e+01 +3.4130436218e-01 5.0477448810e+01 1.0566000000e-01 0.0000e+00 -1.0000e+00
       22  1    1    0    0    0 +5.8872833486e+01 +2.0949299747e+01 -4.6104618720e-01 6.2490769287e+01 0.0000000000e+00 0.0000e+00 -1.0000e+00
</event>
<event>
 4      1 +2.4041262e-06 9.11880000e+01 7.81860800e-03 1.13011600e-01
       25 -1    0    0    0    0 +0.0000000000e+00 +0.0000000000e+00 +9.9999998245e-15 1.2500000000e+02 1.2500000000e+02 0.0000e+00 0.0000e+00
      -11  1    1    0    0    0 +1.3173647081e+00 -1.8378402005e+00 +3.9145808042e+00 4.5207355055e+00 5.1100000000e-04 0.0000e+00 1.0000e+00
       11  1    1    0    0    0 -1.5526169958e+01 +1.6523983686e+01 +5.4267063050e+01 5.8813417880e+01 5.1100000000e-04 0.0000e+00 -1.0000e+00
       22  1    1    0    0    0 +1.4208805250e+01 -1.4686143486e+01 -5.8181643854e+01 6.1665846614e+01 0.0000000000e+00 0.0000e+00 -1.0000e+00
</event>
<event>
 4      1 +2.4041262e-06 9.11880000e+01 7.81860800e-03 1.13011600e-01
       25 -1    0    0    0    0 +0.0000000000e+00 +0.0000000000e+00 +9.9999998245e-15 1.2500000000e+02 1.2500000000e+02 0.0000e+00 0.0000e+00
      -13  1    1    0    0    0 +4.1198904780e+01 -2.3044872901e+01 -3.9707015468e+01 6.1685283200e+01 1.0566000000e-01 0.0000e+00 1.0000e+00
       13  1    1    0    0    0 -4.1730051278e+01 +2.3366155091e+01 +4.0234894174e+01 6.2499858053e+01 1.0566000000e-01 0.0000e+00 1.0000e+00
       22  1    1    0    0    0 +5.3114649776e-01 -3.2128219066e-01 -5.2787870617e-01 8.1485874638e-01 0.0000000000e+00 0.0000e+00 1.0000e+00
</event>
<event>
 4      1 +2.4041262e-06 9.11880000e+01 7.81860800e-03 1.13011600e-01
       25 -1    0    0    0    0 +0.0000000000e+00 +0.0000000000e+00 +9.9999998245e-15 1.2500000000e+02 1.2500000000e+02 0.0000e+00 0.0000e+00
      -13  1    1    0    0    0 +1.6100676433e+01 +5.6486719032e+01 +2.1360187906e+01 6.2500000000e+01 1.0566000000e-01 0.0000e+00 1.0000e+00
       13  1    1    0    0    0 -1.6100676432e+01 -5.6486719030e+01 -2.1360187905e+01 6.2499999998e+01 1.0566000000e-01 0.0000e+00 1.0000e+00
       22  1    1    0    0    0 -6.0195992340e-10 -1.9328250337e-09 -5.6805020989e-10 2.1025816039e-09 0.0000000000e+00 0.0000e+00 -1.0000e+00
</event>
<event>
 4      1 +2.4041262e-06 9.11880000e+01 7.81860800e-03 1.13011600e-01
       25 -1    0    0    0    0 +0.0000000000e+00 +0.0000000000e+00 +9.9999998245e-15 1.2500000000e+02 1.2500000000e+02 0.0000e+00 0.0000e+00
      -13  1    1    0    0    0 +2.8898853253e-02 +1.9078475519e+00 +8.3890754087e-01 2.0870187644e+00 1.0566000000e-01 0.0000e+00 1.0000e+00
       13  1    1    0    0    0 +1.5415883237e+01 +5.6917351683e+01 +1.3350823929e+01 6.0460648708e+01 1.0566000000e-01 0.0000e+00 -1.0000e+00
       22  1    1    0    0    0 -1.5444782090e+01 -5.8825199235e+01 -1.4189731470e+01 6.2452332527e+01 0.0000000000e+00 0.0000e+00 -1.0000e+00
</event>
<event>
 4      1 +2.4041262e-06 9.11880000e+01 7.81860800e-03 1.13011600e-01
       25 -1    0    0    0    0 +0.0000000000e+00 +0.0000000000e+00 +9.9999998245e-15 1.2500000000e+02 1.2500000000e+02 0.0000e+00 0.0000e+00
      -13  1    1    0    0    0 -5.4010841367e+00 +2.3343341306e+01 +5.7724826042e+01 6.2499999990e+01 1.0566000000e-01 0.0000e+00 1.0000e+00
       13  1    1    0    0    0 +5.4010841394e+00 -2.3343341309e+01 -5.7724826051e+01 6.2500000000e+01 1.0566000000e-01 0.0000e+00 1.0000e+00
       22  1    1    0    0    0 -2.6665677146e-09 +3.5506426050e-09 +9.1443573718e-09 1.0165476773e-08 0.0000000000e+00 0.0000e+00 -1.0000e+00
</event>
<event>
 4      1 +2.4041262e-06 9.11880000e+01 7.81860800e-03 1.13011600e-01
       25 -1    0    0    0    0 +0.0000000000e+00 +0.0000000000e+00 +9.9999998245e-15 1.2500000000e+02 1.2500000000e+02 0.0000e+00 0.0000e+00
      -13  1    1    0    0    0 +4.4565227611e+01 -1.7533758937e+01 +3.9627592825e+01 6.2159870427e+01 1.0566000000e-01 0.0000e+00 1.0000e+00
       13  1    1    0    0    0 -4.4597103409e+01 +1.7420624219e+01 -4.0037889863e+01 6.2413328459e+01 1.0566000000e-01 0.0000e+00 1.0000e+00
       22  1    1    0    0    0 +3.1875798396e-02 +1.1313471824e-01 +4.1029703806e-01 4.2680111344e-01 0.0000000000e+00 0.0000e+00 -1.0000e+00
</event>
<event>
 4      1 +2.4041262e-06 9.11880000e+01 7.81860800e-03 1.13011600e-01
       25 -1    0    0    0    0 +0.0000000000e+00 +0.0000000000e+00 +9.9999998245e-15 1.2500000000e+02 1.2500000000e+02 0.0000e+00 0.0000e+00
      -13  1    1    0    0    0 +5.0945173069e+00 +7.1236758307e+00 -3.0628964395e+00 9.2786509023e+00 1.0566000000e-01 0.0000e+00 1.0000e+00
       13  1    1    0    0    0 +2.2822094059e+01 +4.7546656156e+01 +1.0847080461e+01 5.3844245815e+01 1.0566000000e-01 0.0000e+00 -1.0000e+00
       22  1    1    0    0    0 -2.7916611366e+01 -5.4670331987e+01 -7.7841840211e+00 6.1877103282e+01 0.0000000000e+00 0.0000e+00 -1.0000e+00
</event>
<event>
 4      1 +2.4041262e-06 9.11880000e+01 7.81860800e-03 1.13011600e-01
       25 -1    0    0    0    0 +0.0000000000e+00 +0.0000000000e+00 +9.9999998245e-15 1.2500000000e+02 1.2500000000e+02 0.0000e+00 0.0000e+00
      -11  1    1    0    0    0 -2.9515758890e+01 +2.7098267717e+01 +1.2350352609e+01 4.1928836687e+01 5.1100000000e-04 0.0000e+00 -1.0000e+00
       11  1    1    0    0    0 -1.4480483619e+01 +1.3294620032e+01 +6.0614712755e+00 2.0571163358e+01 5.1100000000e-04 0.0000e+00 1.0000e+00
       22  1    1    0    0    0 +4.3996242509e+01 -4.0392887748e+01 -1.8411823885e+01 6.2499999955e+01 0.0000000000e+00 0.0000e+00 -1.0000e+00
</event>
<event>
 4      1 +2.4041262e-06 9.11880000e+01 7.81860800e-03 1.13011600e-01
       25 -1    0    0    0    0 +0.0000000000e+00 +0.0000000000e+00 +9.9999998245e-15 1.2500000000e+02 1.2500000000e+02 0.0000e+00 0.0000e+00
      -13  1    1    0    0    0 +9.4688831135e+00 +2.2416126520e+01 +5.7568109441e+01 6.2499926914e+01 1.0566000000e-01 0.0000e+00 1.0000e+00
       13  1    1    0    0    0 -9.4688961459e+00 -2.2416149732e+01 -5.7568177556e+01 6.2499999954e+01 1.0566000000e-01 0.0000e+00 1.0000e+00
       22  1    1    0    0    0 +1.3032417986e-05 +2.3211683105e-05 +6.8115351791e-05 7.3132258961e-05 0.0000000000e+00 0.0000e+00 1.0000e+00
</event>
<event>
 5      1 +2.4041262e-06 9.11880000e+01 7.81860800e-03 1.13011600e-01
       25 -1    0    0    0    0 +0.0000000000e+00 +0.0000000000e+00 +9.9999998245e-15 1.2500000000e+02 1.2500000000e+02 0.0000e+00 0.0000e+00
       23  2    1    0    0    0 +2.1260536559e+01 -1.4222359329e+01 -1.3949313620e+01 9.5864638836e+01 9.1329949683e+01 0.0000e+00 0.0000e+00
      -13  1    2    2    0    0 +5.4616357844e+01 +3.8018372967e+00 +1.8745888483e+00 5.4780706077e+01 1.0566000000e-01 0.0000e+00 1.0000e+00
       13  1    2    2    0    0 -3.3355821285e+01 -1.8024196626e+01 -1.5823902469e+01 4.1083932759e+01 1.0566000000e-01 0.0000e+00 -1.0000e+00
       22  1    1    0    0    0 -2.1260536559e+01 +1.4222359329e+01 +1.3949313620e+01 2.9135361164e+01 0.0000000000e+00 0.0000e+00 1.0000e+00
</event>
<event>
 4      1 +2.4041262e-06 9.11880000e+01 7.81860800e-03 1.13011600e-01
       25 -1    0    0    0    0 +0.0000000000e+00 +0.0000000000e+00 +9.9999998245e-15 1.2500000000e+02 1.2500000000e+02 0.0000e+00 0.0000e+00
      -13  1    1    0    0    0 -2.0425555145e+01 +6.6590311278e+00 +2.1715649106e+01 3.0547120628e+01 1.0566000000e-01 0.0000e+00 1.0000e+00
       13  1    1    0    0    0 -2.1719524394e+01 +6.6923676817e+00 +2.2461651070e+01 3.1954067940e+01 1.0566000000e-01 0.0000e+00 -1.0000e+00
       22  1    1    0    0    0 +4.2145079539e+01 -1.3351398809e+01 -4.4177300176e+01 6.2498811432e+01 0.0000000000e+00 0.0000e+00 1.0000e+00
</event>
<event>
 4      1 +2.4041262e-06 9.11880000e+01 7.81860800e-03 1.13011600e-01
       25 -1    0    0    0    0 +0.0000000000e+00 +0.0000000000e+00 +9.9999998245e-15 1.2500000000e+02 1.2500000000e+02 0.0000e+00 0.0000e+00
      -13  1    1    0    0    0 +5.9596792749e+01 +1.6275724083e+01 +9.4630513573e+00 6.2499899243e+01 1.0566000000e-01 0.0000e+00 -1.0000e+00
       13  1    1    0    0    0 -5.9232651651e+01 -1.6188001620e+01 -9.4105730600e+00 6.2121883966e+01 1.0566000000e-01 0.0000e+00 -1.0000e+00
       22  1    1    0    0    0 -3.6414109764e-01 -8.7722462488e-02 -5.2478297266e-02 3.7821679114e-01 0.0000000000e+00 0.0000e+00 1.0000e+00
</event>
<event>
 4      1 +2.4041262e-06 9.11880000e+01 7.81860800e-03 1.13011600e-01
       25 -1    0    0    0    0 +0.0000000000e+00 +0.0000000000e+00 +9.9999998245e-15 1.2500000000e+02 1.2500000000e+02 0.0000e+00 0.0000e+00
      -13  1    1    0    0    0 +5.7940095507e+01 +4.1133799901e+00 -2.3068775232e+01 6.2499232931e+01 1.0566000000e-01 0.0000e+00 -1.0000e+00
       13  1    1    0    0    0 -5.7661415006e+01 -4.1000875820e+00 +2.2989214873e+01 6.2210647506e+01 1.0566000000e-01 0.0000e+00 -1.0000e+00
       22  1    1    0    0    0 -2.7868050104e-01 -1.3292408069e-02 +7.9560359349e-02 2.9011956251e-01 0.0000000000e+00 0.0000e+00 1.0000e+00
</event>
<event>
 5      1 +2.4041262e-06 9.11880000e+01 7.81860800e-03 1.13011600e-01
       25 -1    0    0    0    0 +0.0000000000e+00 +0.0000000000e+00 +9.9999998245e-15 1.2500000000e+02 1.2500000000e+02 0.0000e+00 0.0000e+00
       23  2    1    0    0    0 +3.9184670462e+00 -2.3279020079e+01 +1.5855344764e+01 9.6563067721e+01 9.2280913142e+01 0.0000e+00 0.0000e+00
      -11  1    2    2    0    0 +1.8803348447e+01 +7.4069231018e+00 -3.1970276340e+01 3.7822308129e+01 5.1100000000e-04 0.0000e+00 1.0000e+00
       11  1    2    2    0    0 -1.4884881401e+01 -3.0685943181e+01 +4.7825621104e+01 5.8740759592e+01 5.1100000000e-04 0.0000e+00 -1.0000e+00
       22  1    1    0    0    0 -3.9184670462e+00 +2.3279020079e+01 -1.5855344764e+01 2.8436932279e+01 0.0000000000e+00 0.0000e+00 -1.0000e+00
</event>
<event>
 4      1 +2.4041262e-06 9.11880000e+01 7.81860800e-03 1.13011600e-01
       25 -1    0    0    0    0 +0.0000000000e+00 +0.0000000000e+00 +9.9999998245e-15 1.2500000000e+02 1.2500000000e+02 0.0000e+00 0.0000e+00
      -13  1    1    0    0    0 +1.9327139956e+01 -5.2141911602e+01 +2.8529309270e+01 6.2499999487e+01 1.0566000000e-01 0.0000e+00 1.0000e+00
       13  1    1    0    0    0 -1.9327140062e+01 +5.2141912026e+01 -2.8529309544e+01 6.2499999998e+01 1.0566000000e-01 0.0000e+00 1.0000e+00
       22  1    1    0    0    0 +1.0535035797e-07 -4.2332784038e-07 +2.7400675087e-07 5.1515517845e-07 0.0000000000e+00 0.0000e+00 -1.0000e+00
</event>
<event>
 4      1 +2.4041262e-06 9.11880000e+01 7.81860800e-03 1.13011600e-01
       25 -1    0    0    0    0 +0.0000000000e+00 +0.0000000000e+00 +9.9999998245e-15 1.2500000000e+02 1.2500000000e+02 0.0000e+00 0.0000e+00
      -11  1    1    0    0    0 -8.1755623303e-02 +6.0206279800e+00 +1.1948430394e+00 6.1385906694e+00 5.1100000000e-04 0.0000e+00 1.0000e+00
       11  1    1    0    0    0 -7.8358951179e-01 +5.5281246235e+01 +1.0953462139e+01 5.6361409945e+01 5.1100000000e-04 0.0000e+00 -1.0000e+00
       22  1    1    0    0    0 +8.6534513510e-01 -6.1301874215e+01 -1.2148305179e+01 6.2499999386e+01 0.0000000000e+00 0.0000e+00 -1.0000e+00
</event>
<event>
 5      1 +2.4041262e-06 9.11880000e+01 7.81860800e-03 1.13011600e-01
       25 -1    0    0    0    0 +0.0000000000e+00 +0.0000000000e+00 +9.9999998245e-15 1.2500000000e+02 1.2500000000e+02 0.0000e+00 0.0000e+00
       23  2    1    0    0    0 -1.8066652939e+01 +2.2918976240e+01 -4.0559476534e+00 9.5535883999e+01 9.0878880934e+01 0.0000e+00 0.0000e+00
      -13  1    2    2    0    0 -5.3785003443e+01 +2.1239544000e+01 +6.6538987284e+00 5.8208507600e+01 1.0566000000e-01 0.0000e+00 1.0000e+00
       13  1    2    2    0    0 +3.5718350503e+01 +1.6794322407e+00 -1.0709846382e+01 3.7327376400e+01 1.0566000000e-01 0.0000e+00 -1.0000e+00
       22  1    1    0    0    0 +1.8066652939e+01 -2.2918976240e+01 +4.0559476534e+00 2.9464116001e+01 0.0000000000e+00 0.0000e+00 1.0000e+00
</event>
<event>
 4      1 +2.4041262e-06 9.11880000e+01 7.81860800e-03 1.13011600e-01
       25 -1    0    0    0    0 +0.0000000000e+00 +0.0000000000e+00 +9.9999998245e-15 1.2500000000e+02 1.2500000000e+02 0.0000e+00 0.0000e+00
      -13  1    1    0    0    0 -3.1406257977e+01 +3.3494263729e+01 +4.1517827134e+01 6.1902826081e+01 1.0566000000e-01 0.0000e+00 1.0000e+00
       13  1    1    0    0    0 +3.1850485988e+01 -3.3710941328e+01 -4.1876678710e+01 6.2486385771e+01 1.0566000000e-01 0.0000e+00 1.0000e+00
       22  1    1    0    0    0 -4.4422801143e-01 +2.1667759920e-01 +3.5885157571e-01 6.1078814783e-01 0.0000000000e+00 0.0000e+00 -1.0000e+00
</event>
<event>
 4      1 +2.4041262e-06 9.11880000e+01 7.81860800e-03 1.13011600e-01
       25 -1    0    0    0    0 +0.0000000000e+00 +0.0000000000e+00 +9.9999998245e-15 1.2500000000e+02 1.2500000000e+02 0.0000e+00 0.0000e+00
      -13  1    1    0    0    0 +3.5994139529e+01 +6.1900601754e-01 +5.1090875772e+01 6.2500000000e+01 1.0566000000e-01 0.0000e+00 -1.0000e+00
       13  1    1    0    0    0 -3.5994139529e+01 -6.1900601769e-01 -5.1090875771e+01 6.2500000000e+01 1.0566000000e-01 0.0000e+00 -1.0000e+00
       22  1    1    0    0    0 +4.6279646645e-12 +1.4582890793e-10 -2.0264405937e-10 2.4970403129e-10 0.0000000000e+00 0.0000e+00 1.0000e+00
</event>
<event>
 5      1 +2.4041262e-06 9.11880000e+01 7.81860800e-03 1.13011600e-01
       25 -1    0    0    0    0 +0.0000000000e+00 +0.0000000000e+00 +9.9999998245e-15 1.2500000000e+02 1.2500000000e+02 0.0000e+00 0.0000e+00
       23  2    1    0    0    0 -1.6188753973e+01 -2.4795455094e+01 -3.4290306818e-01 9.5385680304e+01 9.0672046829e+01 0.0000e+00 0.0000e+00
      -13  1    2    2    0    0 +1.3998796626e+01 -1.2586836449e+00 -3.8713556949e+01 4.1186177865e+01 1.0566000000e-01 0.0000e+00 1.0000e+00
       13  1    2    2    0    0 -3.0187550599e+01 -2.3536771449e+01 +3.8370653881e+01 5.4199502439e+01 1.0566000000e-01 0.0000e+00 -1.0000e+00
       22  1    1    0    0    0 +1.6188753973e+01 +2.4795455094e+01 +3.4290306818e-01 2.9614319696e+01 0.0000000000e+00 0.0000e+00 -1.0000e+00
</event>
<event>
 4      1 +2.4041262e-06 9.11880000e+01 7.81860800e-03 1.13011600e-01
       25 -1    0    0    0    0 +0.0000000000e+00 +0.0000000000e+00 +9.9999998245e-15 1.2500000000e+02 1.2500000000e+02 0.0000e+00 0.0000e+00
      -13  1    1    0    0    0 -4.4261141707e+01 +2.5204844617e+01 -3.6179580125e+01 6.2476443876e+01 1.0566000000e-01 0.0000e+00 1.0000e+00
       13  1    1    0    0    0 +4.4277885505e+01 -2.5214510703e+01 +3.6193038773e+01 6.2499999316e+01 1.0566000000e-01 0.0000e+00 1.0000e+00
       22  1    1    0    0    0 -1.6743798540e-02 +9.6660858450e-03 -1.3458648170e-02 2.3556808266e-02 0.0000000000e+00 0.0000e+00 -1.0000e+00
</event>
<event>
 4      1 +2.4041262e-06 9.11880000e+01 7.81860800e-03 1.13011600e-01
       25 -1    0    0    0    0 +0.0000000000e+00 +0.0000000000e+00 +9.9999998245e-15 1.2500000000e+02 1.2500000000e+02 0.0000e+00 0.0000e+00
      -13  1    1    0    0    0 -2.2470446648e+01 -4.5367007251e+01 -3.6649045230e+01 6.2499999999e+01 1.0566000000e-01 0.0000e+00 -1.0000e+00
       13  1    1    0    0    0 +2.2470439556e+01 +4.5366993657e+01 +3.6649034017e+01 6.2499981006e+01 1.0566000000e-01 0.0000e+00 -1.0000e+00
       22  1    1    0    0    0 +7.0921887101e-06 +1.3594366410e-05 +1.1212766223e-05 1.8995580148e-05 0.0000000000e+00 0.0000e+00 -1.0000e+00
</event>
<event>
 5      1 +2.4041262e-06 9.11880000e+01 7.81860800e-03 1.13011600e-01
       25 -1    0    0    0    0 +0.0000000000e+00 +0.0000000000e+00 +9.9999998245e-15 1.2500000000e+02 1.2500000000e+02 0.0000e+00 0.0000e+00
       23  2    1    0    0    0 -1.9819359850e+00 -2.4665231791e+01 -4.8879491990e+00 9.9777117990e+01 9.6536415395e+01 0.0000e+00 0.0000e+00
      -13  1    2    2    0    0 +8.4865171890e+00 -6.0281480976e+01 -1.1818757979e+01 6.2012677146e+01 1.0566000000e-01 0.0000e+00 1.0000e+00
       13  1    2    2    0    0 -1.0468453174e+01 +3.5616249185e+01 +6.9308087799e+00 3.7764440844e+01 1.0566000000e-01 0.0000e+00 1.0000e+00
       22  1    1    0    0    0 +1.9819359850e+00 +2.4665231791e+01 +4.8879491990e+00 2.5222882010e+01 0.0000000000e+00 0.0000e+00 1.0000e+00
</event>
<event>
 4      1 +2.4041262e-06 9.11880000e+01 7.81860800e-03 1.13011600e-01
       25 -1    0    0    0    0 +0.0000000000e+00 +0.0000000000e+00 +9.9999998245e-15 1.2500000000e+02 1.2500000000e+02 0.0000e+00 0.0000e+00
      -13  1    1    0    0    0 +1.8936972015e+01 +2.0520747480e+01 -5.5814641068e+01 6.2409897515e+01 1.0566000000e-01 0.0000e+00 -1.0000e+00
       13  1    1    0    0    0 -1.8953711681e+01 -2.0511773300e+01 +5.5907625468e+01 6.2495198055e+01 1.0566000000e-01 0.0000e+00 -1.0000e+00
       22  1    1    0    0    0 +1.6739666164e-02 -8.9741798107e-03 -9.2984399222e-02 9.4904429956e-02 0.0000000000e+00 0.0000e+00 1.0000e+00
</event>
<event>
 4      1 +2.4041262e-06 9.11880000e+01 7.81860800e-03 1.13011600e-01
       25 -1    0    0    0    0 +0.0000000000e+00 +0.0000000000e+00 +9.9999998245e-15 1.2500000000e+02 1.2500000000e+02 0.0000e+00 0.0000e+00
      -13  1    1    0    0    0 -5.7616204799e+01 +1.8927162586e+01 +1.5111519461e+01 6.2499869788e+01 1.0566000000e-01 0.0000e+00 1.0000e+00
       13  1    1    0    0    0 +5.7616325310e+01 -1.8927201815e+01 -1.5111549375e+01 6.2499999995e+01 1.0566000000e-01 0.0000e+00 1.0000e+00
       22  1    1    0    0    0 -1.2051056673e-04 +3.9229355013e-05 +2.9914601585e-05 1.3021759626e-04 0.0000000000e+00 0.0000e+00 -1.0000e+00
</event>
<event>
 4      1 +2.4041262e-06 9.11880000e+01 7.81860800e-03 1.13011600e-01
       25 -1    0    0    0    0 +0.0000000000e+00 +0.0000000000e+00 +9.9999998245e-15 1.2500000000e+02 1.2500000000e+02 0.0000e+00 0.0000e+00
      -11  1    1    0    0    0 -4.0467022884e-01 +9.4227440193e+00 -3.8041959412e-01 9.4390985891e+00 5.1100000000e-04 0.0000e+00 -1.0000e+00
       11  1    1    0    0    0 -2.2349991722e+00 +5.2971662717e+01 -2.1135642823e+00 5.3060902994e+01 5.1100000000e-04 0.0000e+00 1.0000e+00
       22  1    1    0    0    0 +2.6396694011e+00 -6.2394406736e+01 +2.4939838764e+00 6.2499998417e+01 0.0000000000e+00 0.0000e+00 1.0000e+00
</event>
<event>
 4      1 +2.4041262e-06 9.11880000e+01 7.81860800e-03 1.13011600e-01
       25 -1    0    0    0    0 +0.0000000000e+00 +0.0000000000e+00 +9.9999998245e-15 1.2500000000e+02 1.2500000000e+02 0.0000e+00 0.0000e+00
      -13  1    1    0    0    0 -3.2504406134e+01 +3.7754683904e+01 +3.7739710730e+01 6.2499996039e+01 1.0566000000e-01 0.0000e+00 1.0000e+00
       13  1    1    0    0    0 +3.2503966795e+01 -3.7754224571e+01 -3.7739087194e+01 6.2499113567e+01 1.0566000000e-01 0.0000e+00 1.0000e+00
       22  1    1    0    0    0 +4.3933902680e-04 -4.5933319893e-04 -6.2353597279e-04 8.9039478743e-04 0.0000000000e+00 0.0000e+00 1.0000e+00
</event>
<event>
 5      1 +2.4041262e-06 9.11880000e+01 7.81860800e-03 1.13011600e-01
       25 -1    0    0    0    0 +0.0000000000e+00 +0.0000000000e+00 +9.9999998245e-15 1.2500000000e+02 1.2500000000e+02 0.0000e+00 0.0000e+00
       23  2    1    0    0    0 -4.6117054414e+00 -2.8052895717e+00 -2.8994072298e+01 9.5507734827e+01 9.0840154704e+01 0.0000e+00 0.0000e+00
      -13  1    2    2    0    0 +3.1179757692e+01 -1.1734279839e+01 +1.6303266139e+01 3.7090137017e+01 1.0566000000e-01 0.0000e+00 1.0000e+00
       13  1    2    2    0    0 -3.5791463133e+01 +8.9289902678e+00 -4.5297338437e+01 5.8417597810e+01 1.0566000000e-01 0.0000e+00 -1.0000e+00
       22  1    1    0    0    0 +4.6117054414e+00 +2.8052895717e+00 +2.8994072298e+01 2.9492265173e+01 0.0000000000e+00 0.0000e+00 -1.0000e+00
</event>
<event>
 4      1 +2.4041262e-06 9.11880000e+01 7.81860800e-03 1.13011600e-01
       25 -1    0    0    0    0 +0.0000000000e+00 +0.0000000000e+00 +9.9999998245e-15 1.2500000000e+02 1.2500000000e+02 0.0000e+00 0.0000e+00
      -13  1    1    0    0    0 +3.9468380895e+01 +4.2627205483e+00 +4.8273335507e+01 6.2499999695e+01 1.0566000000e-01 0.0000e+00 1.0000e+00
       13  1    1    0    0    0 -3.9468381097e+01 -4.2627206307e+00 -4.8273335724e+01 6.2499999997e+01 1.0566000000e-01 0.0000e+00 1.0000e+00
       22  1    1    0    0    0 +2.0214080560e-07 +8.2439003378e-08 +2.1734285015e-07 3.0805033530e-07 0.0000000000e+00 0.0000e+00 1.0000e+00
</event>
<event>
 4      1 +2.4041262e-06 9.11880000e+01 7.81860800e-03 1.13011600e-01
       25 -1    0    0    0    0 +0.0000000000e+00 +0.0000000000e+00 +9.9999998245e-15 1.2500000000e+02 1.2500000000e+02 0.0000e+00 0.0000e+00
      -13  1    1    0    0    0 -3.4731035946e+01 +1.4188865211e+01 +4.9959752996e+01 6.2478450983e+01 1.0566000000e-01 0.0000e+00 -1.0000e+00
       13  1    1    0    0    0 +3.4739241207e+01 -1.4193731302e+01 -4.9979329750e+01 6.2499771633e+01 1.0566000000e-01 0.0000e+00 -1.0000e+00
       22  1    1    0    0    0 -8.2052612575e-03 +4.8660911563e-03 +1.9576753931e-02 2.1777383909e-02 0.0000000000e+00 0.0000e+00 -1.0000e+00
</event>
<event>
 4      1 +2.4041262e-06 9.11880000e+01 7.81860800e-03 1.13011600e-01
       25 -1    0    0    0    0 +0.0000000000e+00 +0.0000000000e+00 +9.9999998245e-15 1.2500000000e+02 1.2500000000e+02 0.0000e+00 0.0000e+00
      -13  1    1    0    0    0 -4.0318232706e+01 +3.0466893387e+01 -3.5899925816e+01 6.1988767682e+01 1.0566000000e-01 0.0000e+00 -1.0000e+00
       13  1    1    0    0    0 +4.0599778450e+01 -3.0835434725e+01 +3.6136896897e+01 6.2490419475e+01 1.0566000000e-01 0.0000e+00 -1.0000e+00
       22  1    1    0    0    0 -2.8154574411e-01 +3.6854133794e-01 -2.3697108078e-01 5.2081284251e-01 0.0000000000e+00 0.0000e+00 1.0000e+00
</event>
<event>
 4      1 +2.4041262e-06 9.11880000e+01 7.81860800e-03 1.13011600e-01
       25 -1    0    0    0    0 +0.0000000000e+00 +0.0000000000e+00 +9.9999998245e-15 1.2500000000e+02 1.2500000000e+02 0.0000e+00 0.0000e+00
      -13  1    1    0    0    0 -5.9072072806e+00 +5.4718355391e+01 -2.9618312664e+01 6.2499992989e+01 1.0566000000e-01 0.0000e+00 -1.0000e+00
       13  1    1    0    0    0 +5.7586661018e+00 -5.3292765950e+01 +2.8850272119e+01 6.0873890160e+01 1.0566000000e-01 0.0000e+00 -1.0000e+00
       22  1    1    0    0    0 +1.4854117883e-01 -1.4255894407e+00 +7.6804054451e-01 1.6261168511e+00 0.0000000000e+00 0.0000e+00 1.0000e+00
</event>
<event>
 4      1 +2.4041262e-06 9.11880000e+01 7.81860800e-03 1.13011600e-01
       25 -1    0    0    0    0 +0.0000000000e+00 +0.0000000000e+00 +9.9999998245e-15 1.2500000000e+02 1.2500000000e+02 0.0000e+00 0.0000e+00
      -13  1    1    0    0    0 -2.0485072275e+01 -4.1634279912e+01 +4.1871079799e+01 6.2499999500e+01 1.0566000000e-01 0.0000e+00 -1.0000e+00
       13  1    1    0    0    0 +2.0485072431e+01 +4.1634280242e+01 -4.1871080141e+01 6.2500000000e+01 1.0566000000e-01 0.0000e+00 -1.0000e+00
       22  1    1    0    0    0 -1.5661509621e-07 -3.2994573305e-07 +3.4195647880e-07 5.0032660184e-07 0.0000000000e+00 0.0000e+00 -1.0000e+00
</event>
<event>
 4      1 +2.4041262e-06 9.11880000e+01 7.81860800e-03 1.13011600e-01
       25 -1    0    0    0    0 +0.0000000000e+00 +0.0000000000e+00 +9.9999998245e-15 1.2500000000e+02 1.2500000000e+02 0.0000e+00 0.0000e+00
      -13  1    1    0    0    0 -5.1022699948e+01 +1.5339304176e+01 -2.9930254591e+01 6.1110076637e+01 1.0566000000e-01 0.0000e+00 1.0000e+00
       13  1    1    0    0    0 +5.2180974692e+01 -1.5687924802e+01 +3.0614917259e+01 6.2499995418e+01 1.0566000000e-01 0.0000e+00 1.0000e+00
       22  1    1    0    0    0 -1.1582747441e+00 +3.4862062574e-01 -6.8466266853e-01 1.3899279453e+00 0.0000000000e+00 0.0000e+00 1.0000e+00
</event>
<event>
 4      1 +2.4041262e-06 9.11880000e+01 7.81860800e-03 1.13011600e-01
       25 -1    0    0    0    0 +0.0000000000e+00 +0.0000000000e+00 +9.9999998245e-15 1.2500000000e+02 1.2500000000e+02 0.0000e+00 0.0000e+00
      -11  1    1    0    0    0 +3.0367947390e+01 +3.0637212044e+00 +2.5383260822e+00 3.0627466690e+01 5.1100000000e-04 0.0000e+00 1.0000e+00
       11  1    1    0    0    0 +3.1602447876e+01 +3.1898459856e+00 +2.6398014619e+00 3.1872533335e+01 5.1100000000e-04 0.0000e+00 -1.0000e+00
       22  1    1    0    0    0 -6.1970395266e+01 -6.2535671900e+00 -5.1781275441e+00 6.2499999975e+01 0.0000000000e+00 0.0000e+00 1.0000e+00
</event>
<event>
 4      1 +2.4041262e-06 9.11880000e+01 7.81860800e-03 1.13011600e-01
       25 -1    0    0    0    0 +0.0000000000e+00 +0.0000000000e+00 +9.9999998245e-15 1.2500000000e+02 1.2500000000e+02 0.0000e+00 0.0000e+00
      -11  1    1    0    0    0 +1.5466395495e+01 -2.2262774187e+01 -2.0158028275e+01 3.3781453614e+01 5.1100000000e-04 0.0000e+00 1.0000e+00
       11  1    1    0    0    0 +1.3232408613e+01 -1.8926339396e+01 -1.7072052865e+01 2.8718599372e+01 5.1100000000e-04 0.0000e+00 -1.0000e+00
       22  1    1    0    0    0 -2.8698804108e+01 +4.1189113582e+01 +3.7230081140e+01 6.2499947013e+01 0.0000000000e+00 0.0000e+00 -1.0000e+00
</event>
<event>
 4      1 +2.4041262e-06 9.11880000e+01 7.81860800e-03 1.13011600e-01
       25 -1    0    0    0    0 +0.0000000000e+00 +0.0000000000e+00 +9.9999998245e-15 1.2500000000e+02 1.2500000000e+02 0.0000e+00 0.0000e+00
      -13  1    1    0    0    0 +3.2031895503e+01 -1.5857118349e+01 +5.1253842895e+01 6.2485663214e+01 1.0566000000e-01 0.0000e+00 -1.0000e+00
       13  1    1    0    0    0 -3.2039080623e+01 +1.5860742722e+01 -5.1265708851e+01 6.2499999319e+01 1.0566000000e-01 0.0000e+00 -1.0000e+00
       22  1    1    0    0    0 +7.1851203219e-03 -3.6243727897e-03 +1.1865956336e-02 1.4337466719e-02 0.0000000000e+00 0.0000e+00 1.0000e+00
</event>
<event>
 5      1 +2.4041262e-06 9.11880000e+01 7.81860800e-03 1.13011600e-01
       25 -1    0    0    0    0 +0.0000000000e+00 +0.0000000000e+00 +9.9999998245e-15 1.2500000000e+02 1.2500000000e+02 0.0000e+00 0.0000e+00
       23  2    1    0    0    0 -2.8519556201e+01 +1.2300711799e+01 +1.3101349987e+00 9.3913201349e+01 8.8618848657e+01 0.0000e+00 0.0000e+00
      -13  1    2    2    0    0 -2.6447347788e+01 -1.6594314072e+01 +3.6696116953e+01 4.8181424097e+01 1.0566000000e-01 0.0000e+00 1.0000e+00
       13  1    2    2    0    0 -2.0722084129e+00 +2.8895025871e+01 -3.5385981954e+01 4.5731777253e+01 1.0566000000e-01 0.0000e+00 -1.0000e+00
       22  1    1    0    0    0 +2.8519556201e+01 -1.2300711799e+01 -1.3101349987e+00 3.1086798651e+01 0.0000000000e+00 0.0000e+00 1.0000e+00
</event>
<event>
 4      1 +2.4041262e-06 9.11880000e+01 7.81860800e-03 1.13011600e-01
       25 -1    0    0    0    0 +0.0000000000e+00 +0.0000000000e+00 +9.9999998245e-15 1.2500000000e+02 1.2500000000e+02 0.0000e+00 0.0000e+00
      -13  1    1    0    0    0 +7.1099387144e+00 -1.3827023706e+01 +6.0427374102e+01 6.2395645024e+01 1.0566000000e-01 0.0000e+00 1.0000e+00
       13  1    1    0    0    0 -6.7132485106e+00 +1.4221545139e+01 -5.9236401961e+01 6.1288518770e+01 1.0566000000e-01 0.0000e+00 1.0000e+00
       22  1    1    0    0    0 -3.9669020372e-01 -3.9452143283e-01 -1.1909721414e+00 1.3158362057e+00 0.0000000000e+00 0.0000e+00 -1.0000e+00
</event>
<event>
 4      1 +2.4041262e-06 9.11880000e+01 7.81860800e-03 1.13011600e-01
       25 -1    0    0    0    0 +0.0000000000e+00 +0.0000000000e+00 +9.9999998245e-15 1.2500000000e+02 1.2500000000e+02 0.0000e+00 0.0000e+00
      -13  1    1    0    0    0 -4.3544713856e-02 +4.1212689104e+01 +4.6628649011e+01 6.2231259926e+01 1.0566000000e-01 0.0000e+00 -1.0000e+00
       13  1    1    0    0    0 +4.4049345739e-02 -4.1389903398e+01 -4.6830680520e+01 6.2499998765e+01 1.0566000000e-01 0.0000e+00 -1.0000e+00
       22  1    1    0    0    0 -5.0463188373e-04 +1.7721429454e-01 +2.0203150838e-01 2.6874130911e-01 0.0000000000e+00 0.0000e+00 1.0000e+00
</event>
<event>
 4      1 +2.4041262e-06 9.11880000e+01 7.81860800e-03 1.13011600e-01
       25 -1    0    0    0    0 +0.0000000000e+00 +0.0000000000e+00 +9.9999998245e-15 1.2500000000e+02 1.2500000000e+02 0.0000e+00 0.0000e+00
      -13  1    1    0    0    0 +2.9667165614e+01 -3.7921261758e+01 +3.9850671601e+01 6.2500000000e+01 1.0566000000e-01 0.0000e+00 1.0000e+00
       13  1    1    0    0    0 -2.9667165558e+01 +3.7921261678e+01 -3.9850671510e+01 6.2499999867e+01 1.0566000000e-01 0.0000e+00 1.0000e+00
       22  1    1    0    0    0 -5.6157750404e-08 +8.0366121114e-08 -9.0794993809e-08 1.3362685828e-07 0.0000000000e+00 0.0000e+00 1.0000e+00
</event>
<event>
 4      1 +2.4041262e-06 9.11880000e+01 7.81860800e-03 1.13011600e-01
       25 -1    0    0    0    0 +0.0000000000e+00 +0.0000000000e+00 +9.9999998245e-15 1.2500000000e+02 1.2500000000e+02 0.0000e+00 0.0000e+00
      -13  1    1    0    0    0 +4.5136748983e+01 -4.2244397807e+01 +4.2886874135e+00 6.1970309493e+01 1.0566000000e-01 0.0000e+00 -1.0000e+00
       13  1    1    0    0    0 -4.5527656547e+01 +4.2601035322e+01 -4.3143092855e+00 6.2499921198e+01 1.0566000000e-01 0.0000e+00 -1.0000e+00
       22  1    1    0    0    0 +3.9090756440e-01 -3.5663751411e-01 +2.5621871993e-02 5.2976930894e-01 0.0000000000e+00 0.0000e+00 1.0000e+00
</event>
<event>
 4      1 +2.4041262e-06 9.11880000e+01 7.81860800e-03 1.13011600e-01
       25 -1    0    0    0    0 +0.0000000000e+00 +0.0000000000e+00 +9.9999998245e-15 1.2500000000e+02 1.2500000000e+02 0.0000e+00 0.0000e+00
      -13  1    1    0    0    0 +2.7200175052e+00 -1.0125347740e+01 -4.5904688921e+01 4.7086864315e+01 1.0566000000e-01 0.0000e+00 -1.0000e+00
       13  1    1    0    0    0 +7.6381610737e-01 -4.2265038707e+00 -1.4813869809e+01 1.5424287756e+01 1.0566000000e-01 0.0000e+00 1.0000e+00
       22  1    1    0    0    0 -3.4838336125e+00 +1.4351851610e+01 +6.0718558730e+01 6.2488847929e+01 0.0000000000e+00 0.0000e+00 -1.0000e+00
</event>
<event>
 4      1 +2.4041262e-06 9.11880000e+01 7.81860800e-03 1.13011600e-01
       25 -1    0    0    0    0 +0.0000000000e+00 +0.0000000000e+00 +9.9999998245e-15 1.2500000000e+02 1.2500000000e+02 0.0000e+00 0.0000e+00
      -13  1    1    0    0    0 -1.5224166068e+01 -2.2411700080e+01 +5.6322103148e+01 6.2500000000e+01 1.0566000000e-01 0.0000e+00 -1.0000e+00
       13  1    1    0    0    0 +1.5224166068e+01 +2.2411700080e+01 -5.6322103148e+01 6.2500000000e+01 1.0566000000e-01 0.0000e+00 -1.0000e+00
       22  1    1    0    0    0 +1.1489912909e-11 +1.2362948169e-12 +2.5063125952e-11 2.7599036325e-11 0.0000000000e+00 0.0000e+00 -1.0000e+00
</event>
<event>
 4      1 +2.4041262e-06 9.11880000e+01 7.81860800e-03 1.13011600e-01
       25 -1    0    0    0    0 +0.0000000000e+00 +0.0000000000e+00 +9.9999998245e-15 1.2500000000e+02 1.2500000000e+02 0.0000e+00 0.0000e+00
      -13  1    1    0    0    0 +4.6442279898e+01 -3.2569850494e+01 -2.6240394247e+01 6.2499999821e+01 1.0566000000e-01 0.0000e+00 1.0000e+00
       13  1    1    0    0    0 -4.6440520232e+01 +3.2568566403e+01 +2.6239380794e+01 6.2497597597e+01 1.0566000000e-01 0.0000e+00 1.0000e+00
       22  1    1    0    0    0 -1.7596656382e-03 +1.2840911047e-03 +1.0134529962e-03 2.4025819650e-03 0.0000000000e+00 0.0000e+00 1.0000e+00
</event>
<event>
 4      1 +2.4041262e-06 9.11880000e+01 7.81860800e-03 1.13011600e-01
       25 -1    0    0    0    0 +0.0000000000e+00 +0.0000000000e+00 +9.9999998245e-15 1.2500000000e+02 1.2500000000e+02 0.0000e+00 0.0000e+00
      -13  1    1    0    0    0 +3.8688316366e+01 +3.7451266427e+01 +3.1730988651e+01 6.2499999881e+01 1.0566000000e-01 0.0000e+00 -1.0000e+00
       13  1    1    0    0    0 -3.8688316433e+01 -3.7451266498e+01 -3.1730988721e+01 6.2500000000e+01 1.0566000000e-01 0.0000e+00 -1.0000e+00
       22  1    1    0    0    0 +6.6743975597e-08 +7.0509079241e-08 +6.9957752522e-08 1.1966777207e-07 0.0000000000e+00 0.0000e+00 -1.0000e+00
</event>
<event>
 4      1 +2.4041262e-06 9.11880000e+01 7.81860800e-03 1.13011600e-01
       25 -1    0    0    0    0 +0.0000000000e+00 +0.0000000000e+00 +9.9999998245e-15 1.2500000000e+02 1.2500000000e+02 0.0000e+00 0.0000e+00
      -13  1    1    0    0    0 +3.7769578755e+01 -2.3533387625e+01 +4.3503768058e+01 6.2233033123e+01 1.0566000000e-01 0.0000e+00 1.0000e+00
       13  1    1    0    0    0 -3.7932031755e+01 +2.3728987886e+01 -4.3620395629e+01 6.2487230520e+01 1.0566000000e-01 0.0000e+00 1.0000e+00
       22  1    1    0    0    0 +1.6245299929e-01 -1.9560026131e-01 +1.1662757134e-01 2.7973635731e-01 0.0000000000e+00 0.0000e+00 1.0000e+00
</event>
<event>
 4      1 +2.4041262e-06 9.11880000e+01 7.81860800e-03 1.13011600e-01
       25 -1    0    0    0    0 +0.0000000000e+00 +0.0000000000e+00 +9.9999998245e-15 1.2500000000e+02 1.2500000000e+02 0.0000e+00 0.0000e+00
      -13  1    1    0    0    0 +4.1469616737e-02 -1.3104638366e+01 -8.3074685385e+00 1.5516393395e+01 1.0566000000e-01 0.0000e+00 -1.0000e+00
       13  1    1    0    0    0 +5.8446492239e-01 -3.8872744326e+01 -2.6388155076e+01 4.6986995468e+01 1.0566000000e-01 0.0000e+00 1.0000e+00
       22  1    1    0    0    0 -6.2593453913e-01 +5.1977382692e+01 +3.4695623615e+01 6.2496611137e+01 0.0000000000e+00 0.0000e+00 1.0000e+00
</event>
<event>
 4      1 +2.4041262e-06 9.11880000e+01 7.81860800e-03 1.13011600e-01
       25 -1    0    0    0    0 +0.0000000000e+00 +0.0000000000e+00 +9.9999998245e-15 1.2500000000e+02 1.2500000000e+02 0.0000e+00 0.0000e+00
      -13  1    1    0    0    0 -5.8390990433e+00 -2.9916843432e+01 +5.4111806035e+01 6.2106451476e+01 1.0566000000e-01 0.0000e+00 1.0000e+00
       13  1    1    0    0    0 +5.5021751548e+00 +2.9763375156e+01 -5.4510088547e+01 6.2349766235e+01 1.0566000000e-01 0.0000e+00 1.0000e+00
       22  1    1    0    0    0 +3.3692388845e-01 +1.5346827525e-01 +3.9828251192e-01 5.4378228862e-01 0.0000000000e+00 0.0000e+00 -1.0000e+00
</event>
<event>
 5      1 +2.4041262e-06 9.11880000e+01 7.81860800e-03 1.13011600e-01
       25 -1    0    0    0    0 +0.0000000000e+00 +0.0000000000e+00 +9.9999998245e-15 1.2500000000e+02 1.2500000000e+02 0.0000e+00 0.0000e+00
       23  2    1    0    0    0 +1.9832454997e+01 +1.9994121980e+01 +4.9653654158e+00 9.6403740828e+01 9.2064842404e+01 0.0000e+00 0.0000e+00
      -13  1    2    2    0    0 +2.2392537837e+01 +5.3764589956e+01 -1.0486194755e+01 5.9177937852e+01 1.0566000000e-01 0.0000e+00 -1.0000e+00
       13  1    2    2    0    0 -2.5600828402e+00 -3.3770467976e+01 +1.5451560171e+01 3.7225802976e+01 1.0566000000e-01 0.0000e+00 1.0000e+00
       22  1    1    0    0    0 -1.9832454997e+01 -1.9994121980e+01 -4.9653654158e+00 2.8596259172e+01 0.0000000000e+00 0.0000e+00 -1.0000e+00
</event>
<event>
 4      1 +2.4041262e-06 9.11880000e+01 7.81860800e-03 1.13011600e-01
       25 -1    0    0    0    0 +0.0000000000e+00 +0.0000000000e+00 +9.9999998245e-15 1.2500000000e+02 1.2500000000e+02 0.0000e+00 0.0000e+00
      -11  1    1    0    0    0 +2.9412665775e+00 -1.1631219973e+01 +1.2097925463e+00 1.2058189143e+01 5.1100000000e-04 0.0000e+00 -1.0000e+00
       11  1    1    0    0    0 -4.3809950227e-01 -4.2780465760e+01 +2.8003884400e+01 5.1132941668e+01 5.1100000000e-04 0.0000e+00 1.0000e+00
       22  1    1    0    0    0 -2.5031670753e+00 +5.4411685733e+01 -2.9213676946e+01 6.1808869189e+01 0.0000000000e+00 0.0000e+00 -1.0000e+00
</event>
<event>
 4      1 +2.4041262e-06 9.11880000e+01 7.81860800e-03 1.13011600e-01
       25 -1    0    0    0    0 +0.0000000000e+00 +0.0000000000e+00 +9.9999998245e-15 1.2500000000e+02 1.2500000000e+02 0.0000e+00 0.0000e+00
      -13  1    1    0    0    0 +5.6961883749e-01 +6.2315913630e+01 +4.7582852846e+00 6.2500000000e+01 1.0566000000e-01 0.0000e+00 1.0000e+00
       13  1    1    0    0    0 -5.6961883772e-01 -6.2315913629e+01 -4.7582852848e+00 6.2500000000e+01 1.0566000000e-01 0.0000e+00 1.0000e+00
       22  1    1    0    0    0 +2.2920938470e-10 -1.5992219487e-10 +1.7690041568e-10 3.3076548720e-10 0.0000000000e+00 0.0000e+00 -1.0000e+00
</event>
<event>
 4      1 +2.4041262e-06 9.11880000e+01 7.81860800e-03 1.13011600e-01
       25 -1    0    0    0    0 +0.0000000000e+00 +0.0000000000e+00 +9.9999998245e-15 1.2500000000e+02 1.2500000000e+02 0.0000e+00 0.0000e+00
      -13  1    1    0    0    0 +3.8135793272e+01 +5.9542327611e+00 -4.9157120599e+01 6.2499802287e+01 1.0566000000e-01 0.0000e+00 1.0000e+00
       13  1    1    0    0    0 -3.8135731816e+01 -5.9546178417e+00 +4.9157128488e+01 6.2499807680e+01 1.0566000000e-01 0.0000e+00 1.0000e+00
       22  1    1    0    0    0 -6.1455809413e-05 +3.8508061523e-04 -7.8889033004e-06 3.9003350052e-04 0.0000000000e+00 0.0000e+00 1.0000e+00
</event>
<event>
 4      1 +2.4041262e-06 9.11880000e+01 7.81860800e-03 1.13011600e-01
       25 -1    0    0    0    0 +0.0000000000e+00 +0.0000000000e+00 +9.9999998245e-15 1.2500000000e+02 1.2500000000e+02 0.0000e+00 0.0000e+00
      -13  1    1    0    0    0 +4.6379605770e+01 -3.1175032089e+01 +2.7938613159e+01 6.2478218016e+01 1.0566000000e-01 0.0000e+00 -1.0000e+00
       13  1    1    0    0    0 -4.6395811945e+01 +3.1185959624e+01 -2.7948226424e+01 6.2499999744e+01 1.0566000000e-01 0.0000e+00 -1.0000e+00
       22  1    1    0    0    0 +1.6206175057e-02 -1.0927535658e-02 +9.6132642391e-03 2.1782240354e-02 0.0000000000e+00 0.0000e+00 -1.0000e+00
</event>
<event>
 4      1 +2.4041262e-06 9.11880000e+01 7.81860800e-03 1.13011600e-01
       25 -1    0    0    0    0 +0.0000000000e+00 +0.0000000000e+00 +9.9999998245e-15 1.2500000000e+02 1.2500000000e+02 0.0000e+00 0.0000e+00
      -13  1    1    0    0    0 -6.0028540100e+01 -1.6884478641e+01 -4.1737989600e+00 6.2497544010e+01 1.0566000000e-01 0.0000e+00 1.0000e+00
       13  1    1    0    0    0 +6.0030956491e+01 +1.6884963672e+01 +4.1735661959e+00 6.2499980434e+01 1.0566000000e-01 0.0000e+00 1.0000e+00
       22  1    1    0    0    0 -2.4163905336e-03 -4.8503108420e-04 +2.3276408936e-04 2.4755559951e-03 0.0000000000e+00 0.0000e+00 -1.0000e+00
</event>
<event>
 4      1 +2.4041262e-06 9.11880000e+01 7.81860800e-03 1.13011600e-01
       25 -1    0    0    0    0 +0.0000000000e+00 +0.0000000000e+00 +9.9999998245e-15 1.2500000000e+02 1.2500000000e+02 0.0000e+00 0.0000e+00
      -13  1    1    0    0    0 -6.5311505930e+00 -4.3245791747e+01 -4.2822634076e+01 6.1209832422e+01 1.0566000000e-01 0.0000e+00 1.0000e+00
       13  1    1    0    0    0 +6.6538058332e+00 +4.4161714861e+01 +4.3723021499e+01 6.2499951716e+01 1.0566000000e-01 0.0000e+00 1.0000e+00
       22  1    1    0    0    0 -1.2265524025e-01 -9.1592311398e-01 -9.0038742289e-01 1.2902158618e+00 0.0000000000e+00 0.0000e+00 1.0000e+00
</event>
<event>
 5      1 +2.4041262e-06 9.11880000e+01 7.81860800e-03 1.13011600e-01
       25 -1    0    0    0    0 +0.0000000000e+00 +0.0000000000e+00 +9.9999998245e-15 1.2500000000e+02 1.2500000000e+02 0.0000e+00 0.0000e+00
       23  2    1    0    0    0 -1.7794502138e+01 -1.3176904024e+01 +1.5124119314e+01 9.8185561893e+01 9.4453112565e+01 0.0000e+00 0.0000e+00
      -13  1    2    2    0    0 -1.8315427499e+01 -3.5201824592e+01 +4.5684305702e+01 6.0511902057e+01 1.0566000000e-01 0.0000e+00 -1.0000e+00
       13  1    2    2    0    0 +5.2092536136e-01 +2.2024920568e+01 -3.0560186388e+01 3.7673659835e+01 1.0566000000e-01 0.0000e+00 1.0000e+00
       22  1    1    0    0    0 +1.7794502138e+01 +1.3176904024e+01 -1.5124119314e+01 2.6814438107e+01 0.0000000000e+00 0.0000e+00 -1.0000e+00
</event>
<event>
 4      1 +2.4041262e-06 9.11880000e+01 7.81860800e-03 1.13011600e-01
       25 -1    0    0    0    0 +0.0000000000e+00 +0.0000000000e+00 +9.9999998245e-15 1.2500000000e+02 1.2500000000e+02 0.0000e+00 0.0000e+00
      -13  1    1    0    0    0 -1.9106897109e+01 -5.1650097410e+01 +2.9553894873e+01 6.2499999566e+01 1.0566000000e-01 0.0000e+00 1.0000e+00
       13  1    1    0    0    0 +1.9106897239e+01 +5.1650097767e+01 -2.9553895083e+01 6.2500000000e+01 1.0566000000e-01 0.0000e+00 1.0000e+00
       22  1    1    0    0    0 -1.3006161906e-07 -3.5655770937e-07 +2.1007857476e-07 4.3379999129e-07 0.0000000000e+00 0.0000e+00 1.0000e+00
</event>
<event>
 5      1 +2.4041262e-06 9.11880000e+01 7.81860800e-03 1.13011600e-01
       25 -1    0    0    0    0 +0.0000000000e+00 +0.0000000000e+00 +9.9999998245e-15 1.2500000000e+02 1.2500000000e+02 0.0000e+00 0.0000e+00
       23  2    1    0    0    0 +7.5426043386e-02 +2.9589956720e+01 +2.2397481148e+00 9.5325302034e+01 9.0588771426e+01 0.0000e+00 0.0000e+00
      -11  1    2    2    0    0 -3.2988666476e+01 +3.5022154479e+01 -2.3046584350e+01 5.3347431716e+01 5.1100000000e-04 0.0000e+00 -1.0000e+00
       11  1    2    2    0    0 +3.3064092519e+01 -5.4321977595e+00 +2.5286332465e+01 4.1977870318e+01 5.1100000000e-04 0.0000e+00 1.0000e+00
       22  1    1    0    0    0 -7.5426043386e-02 -2.9589956720e+01 -2.2397481148e+00 2.9674697966e+01 0.0000000000e+00 0.0000e+00 -1.0000e+00
</event>
<event>
 5      1 +2.4041262e-06 9.11880000e+01 7.81860800e-03 1.13011600e-01
       25 -1    0    0    0    0 +0.0000000000e+00 +0.0000000000e+00 +9.9999998245e-15 1.2500000000e+02 1.2500000000e+02 0.0000e+00 0.0000e+00
       23  2    1    0    0    0 +1.7804678984e+01 -2.1526842905e+01 -5.7786971332e+00 9.6472734100e+01 9.2158469633e+01 0.0000e+00 0.0000e+00
      -11  1    2    2    0    0 -2.0569374089e+01 -1.0599486002e+01 +3.3348124957e+01 4.0589970342e+01 5.1100000000e-04 0.0000e+00 -1.0000e+00
       11  1    2    2    0    0 +3.8374053073e+01 -1.0927356903e+01 -3.9126822090e+01 5.5882763759e+01 5.1100000000e-04 0.0000e+00 1.0000e+00
       22  1    1    0    0    0 -1.7804678984e+01 +2.1526842905e+01 +5.7786971332e+00 2.8527265900e+01 0.0000000000e+00 0.0000e+00 1.0000e+00
</event>
<event>
 4      1 +2.4041262e-06 9.11880000e+01 7.81860800e-03 1.13011600e-01
       25 -1    0    0    0    0 +0.0000000000e+00 +0.0000000000e+00 +9.9999998245e-15 1.2500000000e+02 1.2500000000e+02 0.0000e+00 0.0000e+00
      -13  1    1    0    0    0 -9.9828010032e+00 +4.8229690690e+01 -3.8476999051e+01 6.2499999999e+01 1.0566000000e-01 0.0000e+00 -1.0000e+00
       13  1    1    0    0    0 +9.9828010032e+00 -4.8229690691e+01 +3.8476999051e+01 6.2500000000e+01 1.0566000000e-01 0.0000e+00 -1.0000e+00
       22  1    1    0    0    0 -5.8992788352e-11 +4.8544675036e-10 -2.6426032127e-10 5.5585269084e-10 0.0000000000e+00 0.0000e+00 1.0000e+00
</event>
<event>
 4      1 +2.4041262e-06 9.11880000e+01 7.81860800e-03 1.13011600e-01
       25 -1    0    0    0    0 +0.0000000000e+00 +0.0000000000e+00 +9.9999998245e-15 1.2500000000e+02 1.2500000000e+02 0.0000e+00 0.0000e+00
      -13  1    1    0    0    0 +3.5621478500e+01 -4.3567729075e+01 +2.7187858957e+01 6.2499820688e+01 1.0566000000e-01 0.0000e+00 1.0000e+00
       13  1    1    0    0    0 -3.5619839409e+01 +4.3562848690e+01 -2.7186256558e+01 6.2494787424e+01 1.0566000000e-01 0.0000e+00 1.0000e+00
       22  1    1    0    0    0 -1.6390916312e-03 +4.8803845460e-03 -1.6023993367e-03 5.3918881967e-03 0.0000000000e+00 0.0000e+00 -1.0000e+00
</event>
<event>
 4      1 +2.4041262e-06 9.11880000e+01 7.81860800e-03 1.13011600e-01
       25 -1    0    0    0    0 +0.0000000000e+00 +0.0000000000e+00 +9.9999998245e-15 1.2500000000e+02 1.2500000000e+02 0.0000e+00 0.0000e+00
      -13  1    1    0    0    0 -6.1712870398e+01 -9.6379741676e+00 +2.2067871897e+00 6.2499999940e+01 1.0566000000e-01 0.0000e+00 -1.0000e+00
       13  1    1    0    0    0 +6.1712867335e+01 +9.6379737955e+00 -2.2067879370e+00 6.2499996885e+01 1.0566000000e-01 0.0000e+00 -1.0000e+00
       22  1    1    0    0    0 +3.0630065376e-06 +3.7213753025e-07 +7.4721421161e-07 3.1747164391e-06 0.0000000000e+00 0.0000e+00 1.0000e+00
</event>
<event>
 5      1 +2.4041262e-06 9.11880000e+01 7.81860800e-03 1.13011600e-01
       25 -1    0    0    0    0 +0.0000000000e+00 +0.0000000000e+00 +9.9999998245e-15 1.2500000000e+02 1.2500000000e+02 0.0000e+00 0.0000e+00
       23  2    1    0    0    0 -2.0356098170e+01 +1.8491051590e+01 +6.6901143090e+00 9.6697220082e+01 9.2462451949e+01 0.0000e+00 0.0000e+00
      -13  1    2    2    0    0 +3.1810605222e+01 +7.1885211262e+00 +2.4101311761e+01 4.0552112562e+01 1.0566000000e-01 0.0000e+00 1.0000e+00
       13  1    2    2    0    0 -5.2166703392e+01 +1.1302530464e+01 -1.7411197452e+01 5.6145107520e+01 1.0566000000e-01 0.0000e+00 -1.0000e+00
       22  1    1    0    0    0 +2.0356098170e+01 -1.8491051590e+01 -6.6901143090e+00 2.8302779918e+01 0.0000000000e+00 0.0000e+00 -1.0000e+00
</event>
<event>
 4      1 +2.4041262e-06 9.11880000e+01 7.81860800e-03 1.13011600e-01
       25 -1    0    0    0    0 +0.0000000000e+00 +0.0000000000e+00 +9.9999998245e-15 1.2500000000e+02 1.2500000000e+02 0.0000e+00 0.0000e+00
      -13  1    1    0    0    0 -4.7275790163e+01 -1.3196393692e+01 -3.8692198613e+01 6.2499940316e+01 1.0566000000e-01 0.0000e+00 1.0000e+00
       13  1    1    0    0    0 +4.7269936305e+01 +1.3193456862e+01 +3.8686204303e+01 6.2491181375e+01 1.0566000000e-01 0.0000e+00 1.0000e+00
       22  1    1    0    0    0 +5.8538574538e-03 +2.9368303658e-03 +5.9943101202e-03 8.8783091580e-03 0.0000000000e+00 0.0000e+00 -1.0000e+00
</event>
<event>
 4      1 +2.4041262e-06 9.11880000e+01 7.81860800e-03 1.13011600e-01
       25 -1    0    0    0    0 +0.0000000000e+00 +0.0000000000e+00 +9.9999998245e-15 1.2500000000e+02 1.2500000000e+02 0.0000e+00 0.0000e+00
      -13  1    1    0    0    0 -1.1005737148e+01 -4.2816418379e+01 +4.4179902042e+01 6.2499974731e+01 1.0566000000e-01 0.0000e+00 -1.0000e+00
       13  1    1    0    0    0 +1.1005741473e+01 +4.2816435845e+01 -4.4179919783e+01 6.2499999999e+01 1.0566000000e-01 0.0000e+00 -1.0000e+00
       22  1    1    0    0    0 -4.3252570917e-06 -1.7466373796e-05 +1.7741093165e-05 2.5269120467e-05 0.0000000000e+00 0.0000e+00 1.0000e+00
</event>
<event>
 4      1 +2.4041262e-06 9.11880000e+01 7.81860800e-03 1.13011600e-01
       25 -1    0    0    0    0 +0.0000000000e+00 +0.0000000000e+00 +9.9999998245e-15 1.2500000000e+02 1.2500000000e+02 0.0000e+00 0.0000e+00
      -11  1    1    0    0    0 +1.8556428198e-01 -8.5164733944e+00 -1.9391985757e+00 8.7364320267e+00 5.1100000000e-04 0.0000e+00 1.0000e+00
       11  1    1    0    0    0 +1.1094190737e+00 -5.2426885674e+01 -1.1862231706e+01 5.3763572179e+01 5.1100000000e-04 0.0000e+00 -1.0000e+00
       22  1    1    0    0    0 -1.2949833557e+00 +6.0943359069e+01 +1.3801430281e+01 6.2499995794e+01 0.0000000000e+00 0.0000e+00 -1.0000e+00
</event>
<event>
 4      1 +2.4041262e-06 9.11880000e+01 7.81860800e-03 1.13011600e-01
       25 -1    0    0    0    0 +0.0000000000e+00 +0.0000000000e+00 +9.9999998245e-15 1.2500000000e+02 1.2500000000e+02 0.0000e+00 0.0000e+00
      -13  1    1    0    0    0 +4.9791308583e+01 +2.1534705035e+01 -3.1037411371e+01 6.2500000000e+01 1.0566000000e-01 0.0000e+00 1.0000e+00
       13  1    1    0    0    0 -4.9791308582e+01 -2.1534705034e+01 +3.1037411369e+01 6.2499999998e+01 1.0566000000e-01 0.0000e+00 1.0000e+00
       22  1    1    0    0    0 -1.2354383476e-09 -6.9383241923e-10 +1.3194090507e-09 1.9361176565e-09 0.0000000000e+00 0.0000e+00 1.0000e+00
</event>
<event>
 4      1 +2.4041262e-06 9.11880000e+01 7.81860800e-03 1.13011600e-01
       25 -1    0    0    0    0 +0.0000000000e+00 +0.0000000000e+00 +9.9999998245e-15 1.2500000000e+02 1.2500000000e+02 0.0000e+00 0.0000e+00
      -13  1    1    0    0    0 +3.4709956213e+01 +3.2186356984e+01 +1.4544946607e+00 4.7358941658e+01 1.0566000000e-01 0.0000e+00 -1.0000e+00
       13  1    1    0    0    0 +1.4716659705e+01 +2.4110369186e+00 +7.4243007351e+00 1.6659068921e+01 1.0566000000e-01 0.0000e+00 1.0000e+00
       22  1    1    0    0    0 -4.9426615918e+01 -3.4597393903e+01 -8.8787953957e+00 6.0981989420e+01 0.0000000000e+00 0.0000e+00 -1.0000e+00
</event>
<event>
 4      1 +2.4041262e-06 9.11880000e+01 7.81860800e-03 1.13011600e-01
       25 -1    0    0    0    0 +0.0000000000e+00 +0.0000000000e+00 +9.9999998245e-15 1.2500000000e+02 1.2500000000e+02 0.0000e+00 0.0000e+00
      -13  1    1    0    0    0 -5.0680819829e+01 +1.3339948399e+01 +2.0176390912e+01 5.6156901946e+01 1.0566000000e-01 0.0000e+00 1.0000e+00
       13  1    1    0    0    0 -5.6050180016e+00 +1.7453168890e+00 +2.4098261163e+00 6.3467144088e+00 1.0566000000e-01 0.0000e+00 1.0000e+00
       22  1    1    0    0    0 +5.6285837831e+01 -1.5085265288e+01 -2.2586217028e+01 6.2496383646e+01 0.0000000000e+00 0.0000e+00 1.0000e+00
</event>
<event>
 4      1 +2.4041262e-06 9.11880000e+01 7.81860800e-03 1.13011600e-01
       25 -1    0    0    0    0 +0.0000000000e+00 +0.0000000000e+00 +9.9999998245e-15 1.2500000000e+02 1.2500000000e+02 0.0000e+00 0.0000e+00
      -13  1    1    0    0    0 -4.7853699453e+01 +8.4710738164e+00 +3.5914132932e+01 6.0428236373e+01 1.0566000000e-01 0.0000e+00 1.0000e+00
       13  1    1    0    0    0 +4.9494576860e+01 -8.7570713316e+00 -3.7146183015e+01 6.2499996108e+01 1.0566000000e-01 0.0000e+00 1.0000e+00
       22  1    1    0    0    0 -1.6408774077e+00 +2.8599751515e-01 +1.2320500825e+00 2.0717675187e+00 0.0000000000e+00 0.0000e+00 1.0000e+00
</event>
<event>
 4      1 +2.4041262e-06 9.11880000e+01 7.81860800e-03 1.13011600e-01
       25 -1    0    0    0    0 +0.0000000000e+00 +0.0000000000e+00 +9.9999998245e-15 1.2500000000e+02 1.2500000000e+02 0.0000e+00 0.0000e+00
      -13  1    1    0    0    0 -2.2985661642e+01 -2.2030080497e+01 +5.3782645829e+01 6.2499993954e+01 1.0566000000e-01 0.0000e+00 1.0000e+00
       13  1    1    0    0    0 +2.2981878086e+01 +2.2026468566e+01 -5.3774748138e+01 6.2490533197e+01 1.0566000000e-01 0.0000e+00 1.0000e+00
       22  1    1    0    0    0 +3.7835558514e-03 +3.6119306758e-03 -7.8976914949e-03 9.4728490453e-03 0.0000000000e+00 0.0000e+00 -1.0000e+00
</event>
<event>
 4      1 +2.4041262e-06 9.11880000e+01 7.81860800e-03 1.13011600e-01
       25 -1    0    0    0    0 +0.0000000000e+00 +0.0000000000e+00 +9.9999998245e-15 1.2500000000e+02 1.2500000000e+02 0.0000e+00 0.0000e+00
      -13  1    1    0    0    0 -9.7693977929e+00 -2.1672056742e+01 -5.4143208076e+01 5.9132202068e+01 1.0566000000e-01 0.0000e+00 -1.0000e+00
       13  1    1    0    0    0 +9.0568591304e+00 +2.3405398268e+01 +5.7097249325e+01 6.2369434901e+01 1.0566000000e-01 0.0000e+00 -1.0000e+00
       22  1    1    0    0    0 +7.1253866256e-01 -1.7333415254e+00 -2.9540412492e+00 3.4983630303e+00 0.0000000000e+00 0.0000e+00 1.0000e+00
</event>
<event>
 4      1 +2.4041262e-06 9.11880000e+01 7.81860800e-03 1.13011600e-01
       25 -1    0    0    0    0 +0.0000000000e+00 +0.0000000000e+00 +9.9999998245e-15 1.2500000000e+02 1.2500000000e+02 0.0000e+00 0.0000e+00
      -13  1    1    0    0    0 -3.7397315286e+01 +8.6356898528e-01 -2.0606814743e+01 4.2707808652e+01 1.0566000000e-01 0.0000e+00 -1.0000e+00
       13  1    1    0    0    0 -1.7721357549e+01 -7.1474055715e-02 -8.8306862002e+00 1.9800096078e+01 1.0566000000e-01 0.0000e+00 1.0000e+00
       22  1    1    0    0    0 +5.5118672834e+01 -7.9209492956e-01 +2.9437500943e+01 6.2492095270e+01 0.0000000000e+00 0.0000e+00 -1.0000e+00
</event>
<event>
 5      1 +2.4041262e-06 9.11880000e+01 7.81860800e-03 1.13011600e-01
       25 -1    0    0    0    0 +0.0000000000e+00 +0.0000000000e+00 +9.9999998245e-15 1.2500000000e+02 1.2500000000e+02 0.0000e+00 0.0000e+00
       23  2    1    0    0    0 -2.2586182879e+01 +1.7133302280e+01 +9.0606530353e+00 9.5237924510e+01 9.0468122162e+01 0.0000e+00 0.0000e+00
      -13  1    2    2    0    0 +2.2263823151e+01 +3.2450680795e+01 -1.4963849474e+01 4.2102879480e+01 1.0566000000e-01 0.0000e+00 -1.0000e+00
       13  1    2    2    0    0 -4.4850006030e+01 -1.5317378515e+01 +2.4024502510e+01 5.3135045030e+01 1.0566000000e-01 0.0000e+00 1.0000e+00
       22  1    1    0    0    0 +2.2586182879e+01 -1.7133302280e+01 -9.0606530353e+00 2.9762075490e+01 0.0000000000e+00 0.0000e+00 1.0000e+00
</event>
<event>
 4      1 +2.4041262e-06 9.11880000e+01 7.81860800e-03 1.13011600e-01
       25 -1    0    0    0    0 +0.0000000000e+00 +0.0000000000e+00 +9.9999998245e-15 1.2500000000e+02 1.2500000000e+02 0.0000e+00 0.0000e+00
      -13  1    1    0    0    0 +3.4054873190e+01 -4.2669753008e+01 -3.0426683460e+01 6.2499891521e+01 1.0566000000e-01 0.0000e+00 -1.0000e+00
       13  1    1    0    0    0 -3.4054932458e+01 +4.2669826932e+01 +3.0426736283e+01 6.2500000000e+01 1.0566000000e-01 0.0000e+00 -1.0000e+00
       22  1    1    0    0    0 +5.9268219689e-05 -7.3924090445e-05 -5.2823442408e-05 1.0847953301e-04 0.0000000000e+00 0.0000e+00 1.0000e+00
</event>
<event>
 4      1 +2.4041262e-06 9.11880000e+01 7.81860800e-03 1.13011600e-01
       25 -1    0    0    0    0 +0.0000000000e+00 +0.0000000000e+00 +9.9999998245e-15 1.2500000000e+02 1.2500000000e+02 0.0000e+00 0.0000e+00
      -13  1    1    0    0    0 +3.5956384073e+00 +4.4850521479e+01 +4.3378019775e+01 6.2499293245e+01 1.0566000000e-01 0.0000e+00 -1.0000e+00
       13  1    1    0    0    0 -3.5959310340e+00 -4.4851134591e+01 -4.3378325063e+01 6.2499961948e+01 1.0566000000e-01 0.0000e+00 -1.0000e+00
       22  1    1    0    0    0 +2.9262669135e-04 +6.1311251725e-04 +3.0528802610e-04 7.4480743697e-04 0.0000000000e+00 0.0000e+00 1.0000e+00
</event>
<event>
 4      1 +2.4041262e-06 9.11880000e+01 7.81860800e-03 1.13011600e-01
       25 -1    0    0    0    0 +0.0000000000e+00 +0.0000000000e+00 +9.9999998245e-15 1.2500000000e+02 1.2500000000e+02 0.0000e+00 0.0000e+00
      -13  1    1    0    0    0 -6.8982099556e+00 -5.6381749288e+01 -2.6072051749e+01 6.2499999999e+01 1.0566000000e-01 0.0000e+00 1.0000e+00
       13  1    1    0    0    0 +6.8982011082e+00 +5.6381681808e+01 +2.6072020338e+01 6.2499925045e+01 1.0566000000e-01 0.0000e+00 1.0000e+00
       22  1    1    0    0    0 +8.8474163201e-06 +6.7480256196e-05 +3.1411079580e-05 7.4956772024e-05 0.0000000000e+00 0.0000e+00 1.0000e+00
</event>
<event>
 4      1 +2.4041262e-06 9.11880000e+01 7.81860800e-03 1.13011600e-01
       25 -1    0    0    0    0 +0.0000000000e+00 +0.0000000000e+00 +9.9999998245e-15 1.2500000000e+02 1.2500000000e+02 0.0000e+00 0.0000e+00
      -13  1    1    0    0    0 -2.3869271395e+01 +2.6029373429e+01 -5.1565186293e+01 6.2499999996e+01 1.0566000000e-01 0.0000e+00 -1.0000e+00
       13  1    1    0    0    0 +2.3869271396e+01 -2.6029373431e+01 +5.1565186296e+01 6.2500000000e+01 1.0566000000e-01 0.0000e+00 -1.0000e+00
       22  1    1    0    0    0 -1.4234350259e-09 +2.5290577674e-09 -2.3393368912e-09 3.7275726088e-09 0.0000000000e+00 0.0000e+00 -1.0000e+00
</event>
<event>
 4      1 +2.4041262e-06 9.11880000e+01 7.81860800e-03 1.13011600e-01
       25 -1    0    0    0    0 +0.0000000000e+00 +0.0000000000e+00 +9.9999998245e-15 1.2500000000e+02 1.2500000000e+02 0.0000e+00 0.0000e+00
      -11  1    1    0    0    0 -1.9249898676e+00 -8.2291055908e-01 +1.0559883871e-01 2.0961677305e+00 5.1100000000e-04 0.0000e+00 1.0000e+00
       11  1    1    0    0    0 -2.3808809538e+01 -3.9788736866e+01 +3.9266965655e+01 6.0760987361e+01 5.1100000000e-04 0.0000e+00 -1.0000e+00
       22  1    1    0    0    0 +2.5733799406e+01 +4.0611647425e+01 -3.9372564494e+01 6.2142844908e+01 0.0000000000e+00 0.0000e+00 -1.0000e+00
</event>
<event>
 5      1 +2.4041262e-06 9.11880000e+01 7.81860800e-03 1.13011600e-01
       25 -1    0    0    0    0 +0.0000000000e+00 +0.0000000000e+00 +9.9999998245e-15 1.2500000000e+02 1.2500000000e+02 0.0000e+00 0.0000e+00
       23  2    1    0    0    0 -1.5359969648e+00 +2.7317350243e+01 +9.3065937274e+00 9.6100006959e+01 9.1651523390e+01 0.0000e+00 0.0000e+00
      -13  1    2    2    0    0 -2.0099890411e+01 -8.9146983040e+00 -3.1528096655e+01 3.8438385542e+01 1.0566000000e-01 0.0000e+00 -1.0000e+00
       13  1    2    2    0    0 +1.8563893447e+01 +3.6232048547e+01 +4.0834690382e+01 5.7661621417e+01 1.0566000000e-01 0.0000e+00 1.0000e+00
       22  1    1    0    0    0 +1.5359969648e+00 -2.7317350243e+01 -9.3065937274e+00 2.8899993041e+01 0.0000000000e+00 0.0000e+00 1.0000e+00
</event>
<event>
 4      1 +2.4041262e-06 9.11880000e+01 7.81860800e-03 1.13011600e-01
       25 -1    0    0    0    0 +0.0000000000e+00 +0.0000000000e+00 +9.9999998245e-15 1.2500000000e+02 1.2500000000e+02 0.0000e+00 0.0000e+00
      -13  1    1    0    0    0 -8.8123369414e+00 -2.9180768203e+00 -6.9890861047e+00 1.1620281550e+01 1.0566000000e-01 0.0000e+00 -1.0000e+00
       13  1    1    0    0    0 -3.8328070183e+01 -1.2669666014e+01 -3.0971327107e+01 5.0880208998e+01 1.0566000000e-01 0.0000e+00 -1.0000e+00
       22  1    1    0    0    0 +4.7140407124e+01 +1.5587742835e+01 +3.7960413212e+01 6.2499509452e+01 0.0000000000e+00 0.0000e+00 -1.0000e+00
</event>
<event>
 4      1 +2.4041262e-06 9.11880000e+01 7.81860800e-03 1.13011600e-01
       25 -1    0    0    0    0 +0.0000000000e+00 +0.0000000000e+00 +9.9999998245e-15 1.2500000000e+02 1.2500000000e+02 0.0000e+00 0.0000e+00
      -13  1    1    0    0    0 -3.5286412501e+01 +1.9306330350e+01 +1.8831639953e+01 4.4412916209e+01 1.0566000000e-01 0.0000e+00 -1.0000e+00
       13  1    1    0    0    0 -1.3060092488e+01 +3.0199529922e+00 +1.2894399895e+01 1.8600076467e+01 1.0566000000e-01 0.0000e+00 1.0000e+00
       22  1    1    0    0    0 +4.8346504989e+01 -2.2326283343e+01 -3.1726039849e+01 6.1987007325e+01 0.0000000000e+00 0.0000e+00 1.0000e+00
</event>
<event>
 4      1 +2.4041262e-06 9.11880000e+01 7.81860800e-03 1.13011600e-01
       25 -1    0    0    0    0 +0.0000000000e+00 +0.0000000000e+00 +9.9999998245e-15 1.2500000000e+02 1.2500000000e+02 0.0000e+00 0.0000e+00
      -13  1    1    0    0    0 -5.2582057534e+01 -1.2360483405e+01 +3.1441763808e+01 6.2499999999e+01 1.0566000000e-01 0.0000e+00 1.0000e+00
       13  1    1    0    0    0 +5.2582040764e+01 +1.2360479323e+01 -3.1441753968e+01 6.2499980133e+01 1.0566000000e-01 0.0000e+00 1.0000e+00
       22  1    1    0    0    0 +1.6769636278e-05 +4.0819423197e-06 -9.8402193398e-06 1.9867382079e-05 0.0000000000e+00 0.0000e+00 1.0000e+00
</event>
<event>
 4      1 +2.4041262e-06 9.11880000e+01 7.81860800e-03 1.13011600e-01
       25 -1    0    0    0    0 +0.0000000000e+00 +0.0000000000e+00 +9.9999998245e-15 1.2500000000e+02 1.2500000000e+02 0.0000e+00 0.0000e+00
      -13  1    1    0    0    0 +2.3454157642e+01 -1.2327419879e+00 -5.7918765858e+01 6.2499694127e+01 1.0566000000e-01 0.0000e+00 -1.0000e+00
       13  1    1    0    0    0 -2.3379876234e+01 +1.2437504014e+00 +5.7721493630e+01 6.2289224740e+01 1.0566000000e-01 0.0000e+00 -1.0000e+00
       22  1    1    0    0    0 -7.4281408241e-02 -1.1008413473e-02 +1.9727222761e-01 2.1108113266e-01 0.0000000000e+00 0.0000e+00 -1.0000e+00
</event>
<event>
 5      1 +2.4041262e-06 9.11880000e+01 7.81860800e-03 1.13011600e-01
       25 -1    0    0    0    0 +0.0000000000e+00 +0.0000000000e+00 +9.9999998245e-15 1.2500000000e+02 1.2500000000e+02 0.0000e+00 0.0000e+00
       23  2    1    0    0    0 +9.9724908507e+00 -5.7181477725e+00 +2.6145568727e+01 9.6438862912e+01 9.2112516674e+01 0.0000e+00 0.0000e+00
      -11  1    2    2    0    0 +2.0554243303e+01 -1.0833507960e+00 -3.1510281228e+01 3.7637061390e+01 5.1100000000e-04 0.0000e+00 1.0000e+00
       11  1    2    2    0    0 -1.0581752452e+01 -4.6347969765e+00 +5.7655849955e+01 5.8801801522e+01 5.1100000000e-04 0.0000e+00 -1.0000e+00
       22  1    1    0    0    0 -9.9724908507e+00 +5.7181477725e+00 -2.6145568727e+01 2.8561137088e+01 0.0000000000e+00 0.0000e+00 -1.0000e+00
</event>
<event>
 4      1 +2.4041262e-06 9.11880000e+01 7.81860800e-03 1.13011600e-01
       25 -1    0    0    0    0 +0.0000000000e+00 +0.0000000000e+00 +9.9999998245e-15 1.2500000000e+02 1.2500000000e+02 0.0000e+00 0.0000e+00
      -13  1    1    0    0    0 +3.3625061630e+01 -5.0056558659e+01 -1.6429695750e+01 6.2499999207e+01 1.0566000000e-01 0.0000e+00 -1.0000e+00
       13  1    1    0    0    0 -3.3625062036e+01 +5.0056559307e+01 +1.6429695961e+01 6.2500000000e+01 1.0566000000e-01 0.0000e+00 -1.0000e+00
       22  1    1    0    0    0 +4.0622759775e-07 -6.4797918456e-07 -2.1113040791e-07 7.9339393365e-07 0.0000000000e+00 0.0000e+00 1.0000e+00
</event>
<event>
 4      1 +2.4041262e-06 9.11880000e+01 7.81860800e-03 1.13011600e-01
       25 -1    0    0    0    0 +0.0000000000e+00 +0.0000000000e+00 +9.9999998245e-15 1.2500000000e+02 1.2500000000e+02 0.0000e+00 0.0000e+00
      -13  1    1    0    0    0 -2.1305253197e+01 +5.8752315838e+01 +6.9187858447e-01 6.2499906321e+01 1.0566000000e-01 0.0000e+00 1.0000e+00
       13  1    1    0    0    0 +2.1305290042e+01 -5.8752400316e+01 -6.9185292360e-01 6.2499998010e+01 1.0566000000e-01 0.0000e+00 1.0000e+00
       22  1    1    0    0    0 -3.6845491217e-05 +8.4478370416e-05 -2.5660871101e-05 9.5669564632e-05 0.0000000000e+00 0.0000e+00 1.0000e+00
</event>
<event>
 4      1 +2.4041262e-06 9.11880000e+01 7.81860800e-03 1.13011600e-01
       25 -1    0    0    0    0 +0.0000000000e+00 +0.0000000000e+00 +9.9999998245e-15 1.2500000000e+02 1.2500000000e+02 0.0000e+00 0.0000e+00
      -13  1    1    0    0    0 -6.1482484202e+01 +2.6826484811e+00 -1.0906253686e+01 6.2500000000e+01 1.0566000000e-01 0.0000e+00 -1.0000e+00
       13  1    1    0    0    0 +6.1482484202e+01 -2.6826484811e+00 +1.0906253686e+01 6.2500000000e+01 1.0566000000e-01 0.0000e+00 -1.0000e+00
       22  1    1    0    0    0 -1.6057818387e-10 +1.0090160434e-11 -4.5426950688e-11 1.6718484477e-10 0.0000000000e+00 0.0000e+00 -1.0000e+00
</event>
<event>
 4      1 +2.4041262e-06 9.11880000e+01 7.81860800e-03 1.13011600e-01
       25 -1    0    0    0    0 +0.0000000000e+00 +0.0000000000e+00 +9.9999998245e-15 1.2500000000e+02 1.2500000000e+02 0.0000e+00 0.0000e+00
      -11  1    1    0    0    0 -3.0954929951e+01 +4.9941249652e+00 +1.9327286403e+00 3.1414716499e+01 5.1100000000e-04 0.0000e+00 -1.0000e+00
       11  1    1    0    0    0 -3.0631547636e+01 +4.9381393966e+00 +1.9020908972e+00 3.1085283999e+01 5.1100000000e-04 0.0000e+00 1.0000e+00
       22  1    1    0    0    0 +6.1586477587e+01 -9.9322643618e+00 -3.8348195375e+00 6.2499999502e+01 0.0000000000e+00 0.0000e+00 -1.0000e+00
</event>
<event>
 4      1 +2.4041262e-06 9.11880000e+01 7.81860800e-03 1.13011600e-01
       25 -1    0    0    0    0 +0.0000000000e+00 +0.0000000000e+00 +9.9999998245e-15 1.2500000000e+02 1.2500000000e+02 0.0000e+00 0.0000e+00
      -13  1    1    0    0    0 -3.8274081461e+01 +4.7946716322e+01 +1.1935070935e+01 6.2500000000e+01 1.0566000000e-01 0.0000e+00 -1.0000e+00
       13  1    1    0    0    0 +3.8274081318e+01 -4.7946716160e+01 -1.1935070909e+01 6.2499999783e+01 1.0566000000e-01 0.0000e+00 -1.0000e+00
       22  1    1    0    0    0 +1.4257145117e-07 -1.6192569551e-07 -2.5610089567e-08 2.1726119359e-07 0.0000000000e+00 0.0000e+00 -1.0000e+00
</event>
<event>
 4      1 +2.4041262e-06 9.11880000e+01 7.81860800e-03 1.13011600e-01
       25 -1    0    0    0    0 +0.0000000000e+00 +0.0000000000e+00 +9.9999998245e-15 1.2500000000e+02 1.2500000000e+02 0.0000e+00 0.0000e+00
      -13  1    1    0    0    0 +5.1054688491e+01 -3.5062636984e+01 +8.3824581720e+00 6.2499971986e+01 1.0566000000e-01 0.0000e+00 1.0000e+00
       13  1    1    0    0    0 -5.1053811299e+01 +3.5062378528e+01 -8.3821862434e+00 6.2499073965e+01 1.0566000000e-01 0.0000e+00 1.0000e+00
       22  1    1    0    0    0 -8.7719184296e-04 +2.5845596830e-04 -2.7192859703e-04 9.5404935867e-04 0.0000000000e+00 0.0000e+00 -1.0000e+00
</event>
<event>
 4      1 +2.4041262e-06 9.11880000e+01 7.81860800e-03 1.13011600e-01
       25 -1    0    0    0    0 +0.0000000000e+00 +0.0000000000e+00 +9.9999998245e-15 1.2500000000e+02 1.2500000000e+02 0.0000e+00 0.0000e+00
      -13  1    1    0    0    0 +5.9950713167e+01 -1.1620558354e+01 -1.3308332225e+01 6.2499986051e+01 1.0566000000e-01 0.0000e+00 1.0000e+00
       13  1    1    0    0    0 -5.9950483434e+01 +1.1620395343e+01 +1.3308315129e+01 6.2499731740e+01 1.0566000000e-01 0.0000e+00 1.0000e+00
       22  1    1    0    0    0 -2.2973310016e-04 +1.6301127419e-04 +1.7095654117e-05 2.8220955727e-04 0.0000000000e+00 0.0000e+00 1.0000e+00
</event>
<event>
 4      1 +2.4041262e-06 9.11880000e+01 7.81860800e-03 1.13011600e-01
       25 -1    0    0    0    0 +0.0000000000e+00 +0.0000000000e+00 +9.9999998245e-15 1.2500000000e+02 1.2500000000e+02 0.0000e+00 0.0000e+00
      -13  1    1    0    0    0 +3.7550779164e+01 -1.0676996249e+01 -4.8520576573e+01 6.2276133307e+01 1.0566000000e-01 0.0000e+00 -1.0000e+00
       13  1    1    0    0    0 -2.5353222005e+01 +5.5520736133e+00 +3.6907209526e+01 4.5119448872e+01 1.0566000000e-01 0.0000e+00 -1.0000e+00
       22  1    1    0    0    0 -1.2197557159e+01 +5.1249226354e+00 +1.1613367046e+01 1.7604417821e+01 0.0000000000e+00 0.0000e+00 1.0000e+00
</event>
<event>
 4      1 +2.4041262e-06 9.11880000e+01 7.81860800e-03 1.13011600e-01
       25 -1    0    0    0    0 +0.0000000000e+00 +0.0000000000e+00 +9.9999998245e-15 1.2500000000e+02 1.2500000000e+02 0.0000e+00 0.0000e+00
      -13  1    1    0    0    0 -6.2424328085e+01 -6.6659871759e-01 -2.9996241867e+00 6.2500000000e+01 1.0566000000e-01 0.0000e+00 1.0000e+00
       13  1    1    0    0    0 +6.2424328082e+01 +6.6659871595e-01 +2.9996241874e+00 6.2499999997e+01 1.0566000000e-01 0.0000e+00 1.0000e+00
       22  1    1    0    0    0 +2.4870870557e-09 +1.6389142864e-09 -6.7719490220e-10 3.0545433368e-09 0.0000000000e+00 0.0000e+00 -1.0000e+00
</event>
<event>
 4      1 +2.4041262e-06 9.11880000e+01 7.81860800e-03 1.13011600e-01
       25 -1    0    0    0    0 +0.0000000000e+00 +0.0000000000e+00 +9.9999998245e-15 1.2500000000e+02 1.2500000000e+02 0.0000e+00 0.0000e+00
      -11  1    1    0    0    0 +3.2481151228e+01 -1.7492896721e+01 +4.8005360860e+01 6.0543713896e+01 5.1100000000e-04 0.0000e+00 -1.0000e+00
       11  1    1    0    0    0 +1.3938766603e+00 -3.1448375330e-01 +1.3742829921e+00 1.9825352906e+00 5.1100000000e-04 0.0000e+00 1.0000e+00
       22  1    1    0    0    0 -3.3875027888e+01 +1.7807380474e+01 -4.9379643852e+01 6.2473750813e+01 0.0000000000e+00 0.0000e+00 -1.0000e+00
</event>
<event>
 4      1 +2.4041262e-06 9.11880000e+01 7.81860800e-03 1.13011600e-01
       25 -1    0    0    0    0 +0.0000000000e+00 +0.0000000000e+00 +9.9999998245e-15 1.2500000000e+02 1.2500000000e+02 0.0000e+00 0.0000e+00
      -13  1    1    0    0    0 -5.2053910326e+01 -4.0759647160e-01 -3.0385412593e+01 6.0274871859e+01 1.0566000000e-01 0.0000e+00 1.0000e+00
       13  1    1    0    0    0 +3.4939839982e+01 -8.6715744246e+00 +2.7134933027e+01 4.5081086671e+01 1.0566000000e-01 0.0000e+00 1.0000e+00
       22  1    1    0    0    0 +1.7114070344e+01 +9.0791708962e+00 +3.2504795659e+00 1.9644041471e+01 0.0000000000e+00 0.0000e+00 1.0000e+00
</event>
<event>
 4      1 +2.4041262e-06 9.11880000e+01 7.81860800e-03 1.13011600e-01
       25 -1    0    0    0    0 +0.0000000000e+00 +0.0000000000e+00 +9.9999998245e-15 1.2500000000e+02 1.2500000000e+02 0.0000e+00 0.0000e+00
      -13  1    1    0    0    0 -4.4696126551e+01 -3.0787017859e+01 +3.0994415955e+01 6.2499993454e+01 1.0566000000e-01 0.0000e+00 -1.0000e+00
       13  1    1    0    0    0 +4.4696131297e+01 +3.0787021029e+01 -3.0994419163e+01 6.2500000000e+01 1.0566000000e-01 0.0000e+00 -1.0000e+00
       22  1    1    0    0    0 -4.7459185931e-06 -3.1691330690e-06 +3.2073580274e-06 6.5463190586e-06 0.0000000000e+00 0.0000e+00 -1.0000e+00
</event>
<event>
 4      1 +2.4041262e-06 9.11880000e+01 7.81860800e-03 1.13011600e-01
       25 -1    0    0    0    0 +0.0000000000e+00 +0.0000000000e+00 +9.9999998245e-15 1.2500000000e+02 1.2500000000e+02 0.0000e+00 0.0000e+00
      -11  1    1    0    0    0 -2.5777499661e+00 -2.6905831346e+00 -6.3328041918e-01 3.7795604034e+00 5.1100000000e-04 0.0000e+00 1.0000e+00
       11  1    1    0    0    0 -3.9879251397e+01 -4.1910565739e+01 -1.0061935558e+01 5.8720462873e+01 5.1100000000e-04 0.0000e+00 -1.0000e+00
       22  1    1    0    0    0 +4.2457001363e+01 +4.4601148874e+01 +1.0695215977e+01 6.2499976724e+01 0.0000000000e+00 0.0000e+00 -1.0000e+00
</event>
<event>
 4      1 +2.4041262e-06 9.11880000e+01 7.81860800e-03 1.13011600e-01
       25 -1    0    0    0    0 +0.0000000000e+00 +0.0000000000e+00 +9.9999998245e-15 1.2500000000e+02 1.2500000000e+02 0.0000e+00 0.0000e+00
      -13  1    1    0    0    0 +1.6632094834e+01 +5.0059685320e+01 +3.3400899830e+01 6.2435806605e+01 1.0566000000e-01 0.0000e+00 -1.0000e+00
       13  1    1    0    0    0 -1.6650195175e+01 -5.0110835752e+01 -3.3435212501e+01 6.2499995666e+01 1.0566000000e-01 0.0000e+00 -1.0000e+00
       22  1    1    0    0    0 +1.8100340620e-02 +5.1150432245e-02 +3.4312671723e-02 6.4197729635e-02 0.0000000000e+00 0.0000e+00 -1.0000e+00
</event>
<event>
 4      1 +2.4041262e-06 9.11880000e+01 7.81860800e-03 1.13011600e-01
       25 -1    0    0    0    0 +0.0000000000e+00 +0.0000000000e+00 +9.9999998245e-15 1.2500000000e+02 1.2500000000e+02 0.0000e+00 0.0000e+00
      -13  1    1    0    0    0 +2.4926784664e+01 -3.0976371333e+01 -4.8221972794e+01 6.2499999991e+01 1.0566000000e-01 0.0000e+00 1.0000e+00
       13  1    1    0    0    0 -2.4926781050e+01 +3.0976367699e+01 +4.8221966651e+01 6.2499992009e+01 1.0566000000e-01 0.0000e+00 1.0000e+00
       22  1    1    0    0    0 -3.6140061294e-06 +3.6339563548e-06 +6.1429714862e-06 8.0001736089e-06 0.0000000000e+00 0.0000e+00 1.0000e+00
</event>
<event>
 4      1 +2.4041262e-06 9.11880000e+01 7.81860800e-03 1.13011600e-01
       25 -1    0    0    0    0 +0.0000000000e+00 +0.0000000000e+00 +9.9999998245e-15 1.2500000000e+02 1.2500000000e+02 0.0000e+00 0.0000e+00
      -13  1    1    0    0    0 +2.4646424927e+00 +5.3410155246e+01 -3.2321032976e+01 6.2477031641e+01 1.0566000000e-01 0.0000e+00 -1.0000e+00
       13  1    1    0    0    0 -2.6702603601e+00 -5.2595220307e+01 +3.2001420612e+01 6.1623774428e+01 1.0566000000e-01 0.0000e+00 -1.0000e+00
       22  1    1    0    0    0 +2.0561786737e-01 -8.1493493837e-01 +3.1961236460e-01 8.9919393056e-01 0.0000000000e+00 0.0000e+00 1.0000e+00
</event>
<event>
 4      1 +2.4041262e-06 9.11880000e+01 7.81860800e-03 1.13011600e-01
       25 -1    0    0    0    0 +0.0000000000e+00 +0.0000000000e+00 +9.9999998245e-15 1.2500000000e+02 1.2500000000e+02 0.0000e+00 0.0000e+00
      -11  1    1    0    0    0 +7.2042351079e+00 -7.6334831428e+00 -3.3907010987e+01 3.5494456789e+01 5.1100000000e-04 0.0000e+00 -1.0000e+00
       11  1    1    0    0    0 +5.6935279780e+00 -5.5632836108e+00 -2.5806254625e+01 2.7006094931e+01 5.1100000000e-04 0.0000e+00 1.0000e+00
       22  1    1    0    0    0 -1.2897763086e+01 +1.3196766754e+01 +5.9713265612e+01 6.2499448281e+01 0.0000000000e+00 0.0000e+00 1.0000e+00
</event>
<event>
 4      1 +2.4041262e-06 9.11880000e+01 7.81860800e-03 1.13011600e-01
       25 -1    0    0    0    0 +0.0000000000e+00 +0.0000000000e+00 +9.9999998245e-15 1.2500000000e+02 1.2500000000e+02 0.0000e+00 0.0000e+00
      -13  1    1    0    0    0 +5.0385472206e+01 -3.1429705602e+01 +1.9486299792e+01 6.2499993979e+01 1.0566000000e-01 0.0000e+00 1.0000e+00
       13  1    1    0    0    0 -5.0385477564e+01 +3.1429708289e+01 -1.9486300761e+01 6.2499999950e+01 1.0566000000e-01 0.0000e+00 1.0000e+00
       22  1    1    0    0    0 +5.3570476733e-06 -2.6866799165e-06 +9.6857178125e-07 6.0707775485e-06 0.0000000000e+00 0.0000e+00 1.0000e+00
</event>
<event>
 4      1 +2.4041262e-06 9.11880000e+01 7.81860800e-03 1.13011600e-01
       25 -1    0    0    0    0 +0.0000000000e+00 +0.0000000000e+00 +9.9999998245e-15 1.2500000000e+02 1.2500000000e+02 0.0000e+00 0.0000e+00
      -13  1    1    0    0    0 -3.0063421526e+01 -3.7761284017e+01 +3.9552685328e+01 6.2403124642e+01 1.0566000000e-01 0.0000e+00 1.0000e+00
       13  1    1    0    0    0 +3.2793526013e+00 +6.3229402317e+00 -7.2484867519e+00 1.0162944991e+01 1.0566000000e-01 0.0000e+00 1.0000e+00
       22  1    1    0    0    0 +2.6784068925e+01 +3.1438343785e+01 -3.2304198576e+01 5.2433930367e+01 0.0000000000e+00 0.0000e+00 1.0000e+00
</event>
<event>
 4      1 +2.4041262e-06 9.11880000e+01 7.81860800e-03 1.13011600e-01
       25 -1    0    0    0    0 +0.0000000000e+00 +0.0000000000e+00 +9.9999998245e-15 1.2500000000e+02 1.2500000000e+02 0.0000e+00 0.0000e+00
      -13  1    1    0    0    0 -4.4217251188e+01 -1.3711237216e+01 -4.1988814203e+01 6.2499880087e+01 1.0566000000e-01 0.0000e+00 -1.0000e+00
       13  1    1    0    0    0 +4.3669873782e+01 +1.3561400149e+01 +4.1474238171e+01 6.1734050945e+01 1.0566000000e-01 0.0000e+00 -1.0000e+00
       22  1    1    0    0    0 +5.4737740600e-01 +1.4983706740e-01 +5.1457603203e-01 7.6606896824e-01 0.0000000000e+00 0.0000e+00 -1.0000e+00
</event>
<event>
 4      1 +2.4041262e-06 9.11880000e+01 7.81860800e-03 1.13011600e-01
       25 -1    0    0    0    0 +0.0000000000e+00 +0.0000000000e+00 +9.9999998245e-15 1.2500000000e+02 1.2500000000e+02 0.0000e+00 0.0000e+00
      -13  1    1    0    0    0 +2.3604716823e+01 -4.8790458481e-01 -5.7868973800e+01 6.2499999999e+01 1.0566000000e-01 0.0000e+00 1.0000e+00
       13  1    1    0    0    0 -2.3604715522e+01 +4.8790466937e-01 +5.7868970632e+01 6.2499996575e+01 1.0566000000e-01 0.0000e+00 1.0000e+00
       22  1    1    0    0    0 -1.3016441656e-06 -8.4560213313e-08 +3.1676320637e-06 3.4256854576e-06 0.0000000000e+00 0.0000e+00 1.0000e+00
</event>
<event>
 4      1 +2.4041262e-06 9.11880000e+01 7.81860800e-03 1.13011600e-01
       25 -1    0    0    0    0 +0.0000000000e+00 +0.0000000000e+00 +9.9999998245e-15 1.2500000000e+02 1.2500000000e+02 0.0000e+00 0.0000e+00
      -13  1    1    0    0    0 +3.2148965952e+01 +3.4986116264e+01 -4.0603444459e+01 6.2499881671e+01 1.0566000000e-01 0.0000e+00 1.0000e+00
       13  1    1    0    0    0 -3.2149003373e+01 -3.4986209518e+01 +4.0603512211e+01 6.2499997138e+01 1.0566000000e-01 0.0000e+00 1.0000e+00
       22  1    1    0    0    0 +3.7421318468e-05 +9.3254875535e-05 -6.7751918697e-05 1.2119054985e-04 0.0000000000e+00 0.0000e+00 1.0000e+00
</event>
<event>
 5      1 +2.4041262e-06 9.11880000e+01 7.81860800e-03 1.13011600e-01
       25 -1    0    0    0    0 +0.0000000000e+00 +0.0000000000e+00 +9.9999998245e-15 1.2500000000e+02 1.2500000000e+02 0.0000e+00 0.0000e+00
       23  2    1    0    0    0 -8.2087062996e+00 +5.9263047066e+00 +2.7858581479e+01 9.5358736387e+01 9.0634894476e+01 0.0000e+00 0.0000e+00
      -13  1    2    2    0    0 +1.8457640758e+01 +4.0586292765e+01 +2.5944893658e+01 5.1585660156e+01 1.0566000000e-01 0.0000e+00 1.0000e+00
       13  1    2    2    0    0 -2.6666347057e+01 -3.4659988058e+01 +1.9136878208e+00 4.3773076231e+01 1.0566000000e-01 0.0000e+00 -1.0000e+00
       22  1    1    0    0    0 +8.2087062996e+00 -5.9263047066e+00 -2.7858581479e+01 2.9641263613e+01 0.0000000000e+00 0.0000e+00 -1.0000e+00
</event>
<event>
 4      1 +2.4041262e-06 9.11880000e+01 7.81860800e-03 1.13011600e-01
       25 -1    0    0    0    0 +0.0000000000e+00 +0.0000000000e+00 +9.9999998245e-15 1.2500000000e+02 1.2500000000e+02 0.0000e+00 0.0000e+00
      -13  1    1    0    0    0 +2.8251499172e+01 +5.4422027839e+01 +1.2095381778e+01 6.2499709951e+01 1.0566000000e-01 0.0000e+00 -1.0000e+00
       13  1    1    0    0    0 -2.8249699004e+01 -5.4421438564e+01 -1.2095442655e+01 6.2498394909e+01 1.0566000000e-01 0.0000e+00 -1.0000e+00
       22  1    1    0    0    0 -1.8001676095e-03 -5.8927524585e-04 +6.0877240853e-05 1.8951397775e-03 0.0000000000e+00 0.0000e+00 1.0000e+00
</event>
<event>
 4      1 +2.4041262e-06 9.11880000e+01 7.81860800e-03 1.13011600e-01
       25 -1    0    0    0    0 +0.0000000000e+00 +0.0000000000e+00 +9.9999998245e-15 1.2500000000e+02 1.2500000000e+02 0.0000e+00 0.0000e+00
      -13  1    1    0    0    0 -3.6332693803e+01 -4.1757759025e+01 +1.0973785178e+01 5.6428806499e+01 1.0566000000e-01 0.0000e+00 -1.0000e+00
       13  1    1    0    0    0 +9.0885919236e-01 +1.4478098378e+00 +1.0597272498e+01 1.0734781171e+01 1.0566000000e-01 0.0000e+00 1.0000e+00
       22  1    1    0    0    0 +3.5423834610e+01 +4.0309949187e+01 -2.1571057676e+01 5.7836412330e+01 0.0000000000e+00 0.0000e+00 -1.0000e+00
</event>
<event>
 4      1 +2.4041262e-06 9.11880000e+01 7.81860800e-03 1.13011600e-01
       25 -1    0    0    0    0 +0.0000000000e+00 +0.0000000000e+00 +9.9999998245e-15 1.2500000000e+02 1.2500000000e+02 0.0000e+00 0.0000e+00
      -13  1    1    0    0    0 +1.2548835644e+01 -5.0792170485e+01 +3.4189486316e+01 6.2499999978e+01 1.0566000000e-01 0.0000e+00 1.0000e+00
       13  1    1    0    0    0 -1.2548835649e+01 +5.0792170503e+01 -3.4189486328e+01 6.2500000000e+01 1.0566000000e-01 0.0000e+00 1.0000e+00
       22  1    1    0    0    0 +4.6270740138e-09 -1.7735168101e-08 +1.2569081665e-08 2.2224486842e-08 0.0000000000e+00 0.0000e+00 1.0000e+00
</event>
<event>
 4      1 +2.4041262e-06 9.11880000e+01 7.81860800e-03 1.13011600e-01
       25 -1    0    0    0    0 +0.0000000000e+00 +0.0000000000e+00 +9.9999998245e-15 1.2500000000e+02 1.2500000000e+02 0.0000e+00 0.0000e+00
      -13  1    1    0    0    0 +3.0402131129e+01 -3.2121807128e+01 +4.4160375506e+01 6.2499999994e+01 1.0566000000e-01 0.0000e+00 1.0000e+00
       13  1    1    0    0    0 -3.0402130963e+01 +3.2121806794e+01 -4.4160375176e+01 6.2499999508e+01 1.0566000000e-01 0.0000e+00 1.0000e+00
       22  1    1    0    0    0 -1.6547015003e-07 +3.3438599059e-07 -3.2967395139e-07 4.9787475883e-07 0.0000000000e+00 0.0000e+00 -1.0000e+00
</event>
<event>
 4      1 +2.4041262e-06 9.11880000e+01 7.81860800e-03 1.13011600e-01
       25 -1    0    0    0    0 +0.0000000000e+00 +0.0000000000e+00 +9.9999998245e-15 1.2500000000e+02 1.2500000000e+02 0.0000e+00 0.0000e+00
      -11  1    1    0    0    0 -7.5355282027e+00 -1.8570517871e+01 +6.9342890634e+00 2.1206901810e+01 5.1100000000e-04 0.0000e+00 -1.0000e+00
       11  1    1    0    0    0 -1.4381501498e+01 -3.6467890050e+01 +1.2979301281e+01 4.1294029254e+01 5.1100000000e-04 0.0000e+00 1.0000e+00
       22  1    1    0    0    0 +2.1917029701e+01 +5.5038407921e+01 -1.9913590345e+01 6.2499068936e+01 0.0000000000e+00 0.0000e+00 -1.0000e+00
</event>
<event>
 4      1 +2.4041262e-06 9.11880000e+01 7.81860800e-03 1.13011600e-01
       25 -1    0    0    0    0 +0.0000000000e+00 +0.0000000000e+00 +9.9999998245e-15 1.2500000000e+02 1.2500000000e+02 0.0000e+00 0.0000e+00
      -13  1    1    0    0    0 +6.2292231591e+01 +3.8575167352e+00 -3.3220885689e+00 6.2499999908e+01 1.0566000000e-01 0.0000e+00 1.0000e+00
       13  1    1    0    0    0 -6.2251079182e+01 -3.8549354491e+00 +3.3199899797e+00 6.2458713436e+01 1.0566000000e-01 0.0000e+00 1.0000e+00
       22  1    1    0    0    0 -4.1152409698e-02 -2.5812861626e-03 +2.0985892003e-03 4.1286655699e-02 0.0000000000e+00 0.0000e+00 -1.0000e+00
</event>
<event>
 4      1 +2.4041262e-06 9.11880000e+01 7.81860800e-03 1.13011600e-01
       25 -1    0    0    0    0 +0.0000000000e+00 +0.0000000000e+00 +9.9999998245e-15 1.2500000000e+02 1.2500000000e+02 0.0000e+00 0.0000e+00
      -11  1    1    0    0    0 -4.1447051536e+00 -2.9252395076e+01 -5.2119621663e+01 5.9911068769e+01 5.1100000000e-04 0.0000e+00 -1.0000e+00
       11  1    1    0    0    0 +1.4750308055e+00 -1.9068868701e+00 -1.6252223405e+00 2.9074527219e+00 5.1100000000e-04 0.0000e+00 1.0000e+00
       22  1    1    0    0    0 +2.6696743481e+00 +3.1159281946e+01 +5.3744844004e+01 6.2181478509e+01 0.0000000000e+00 0.0000e+00 -1.0000e+00
</event>
<event>
 5      1 +2.4041262e-06 9.11880000e+01 7.81860800e-03 1.13011600e-01
       25 -1    0    0    0    0 +0.0000000000e+00 +0.0000000000e+00 +9.9999998245e-15 1.2500000000e+02 1.2500000000e+02 0.0000e+00 0.0000e+00
       23  2    1    0    0    0 +2.5723071257e+01 +3.9302890190e+00 -1.1693801314e+01 9.6471618415e+01 9.2156956350e+01 0.0000e+00 0.0000e+00
      -11  1    2    2    0    0 -2.7510154728e+01 +2.9188039365e+00 -2.9392747439e+01 4.0364113168e+01 5.1100000000e-04 0.0000e+00 1.0000e+00
       11  1    2    2    0    0 +5.3233225985e+01 +1.0114850824e+00 +1.7698946125e+01 5.6107505247e+01 5.1100000000e-04 0.0000e+00 -1.0000e+00
       22  1    1    0    0    0 -2.5723071257e+01 -3.9302890190e+00 +1.1693801314e+01 2.8528381585e+01 0.0000000000e+00 0.0000e+00 -1.0000e+00
</event>
<event>
 4      1 +2.4041262e-06 9.11880000e+01 7.81860800e-03 1.13011600e-01
       25 -1    0    0    0    0 +0.0000000000e+00 +0.0000000000e+00 +9.9999998245e-15 1.2500000000e+02 1.2500000000e+02 0.0000e+00 0.0000e+00
      -13  1    1    0    0    0 +1.9448124572e+01 -5.3226645738e+01 -2.5828267632e+01 6.2276929427e+01 1.0566000000e-01 0.0000e+00 1.0000e+00
       13  1    1    0    0    0 -1.9500171419e+01 +5.3443001493e+01 +2.5872041285e+01 6.2496278114e+01 1.0566000000e-01 0.0000e+00 1.0000e+00
       22  1    1    0    0    0 +5.2046846111e-02 -2.1635575436e-01 -4.3773652328e-02 2.2679245859e-01 0.0000000000e+00 0.0000e+00 1.0000e+00
</event>
<event>
 4      1 +2.4041262e-06 9.11880000e+01 7.81860800e-03 1.13011600e-01
       25 -1    0    0    0    0 +0.0000000000e+00 +0.0000000000e+00 +9.9999998245e-15 1.2500000000e+02 1.2500000000e+02 0.0000e+00 0.0000e+00
      -11  1    1    0    0    0 +6.8308541546e+00 +2.2819343736e+01 +9.0803982638e+00 2.5491893808e+01 5.1100000000e-04 0.0000e+00 -1.0000e+00
       11  1    1    0    0    0 +6.3683239063e+00 +3.2996035191e+01 +1.5623527904e+01 3.7059256768e+01 5.1100000000e-04 0.0000e+00 1.0000e+00
       22  1    1    0    0    0 -1.3199178061e+01 -5.5815378928e+01 -2.4703926168e+01 6.2448849424e+01 0.0000000000e+00 0.0000e+00 1.0000e+00
</event>
<event>
 4      1 +2.4041262e-06 9.11880000e+01 7.81860800e-03 1.13011600e-01
       25 -1    0    0    0    0 +0.0000000000e+00 +0.0000000000e+00 +9.9999998245e-15 1.2500000000e+02 1.2500000000e+02 0.0000e+00 0.0000e+00
      -13  1    1    0    0    0 +1.4241736944e+01 -5.9316576602e+00 +2.1675724314e+01 2.6605635161e+01 1.0566000000e-01 0.0000e+00 -1.0000e+00
       13  1    1    0    0    0 +1.5773561288e+01 -4.8511879670e+00 +3.1973323407e+01 3.5981159432e+01 1.0566000000e-01 0.0000e+00 1.0000e+00
       22  1    1    0    0    0 -3.0015298232e+01 +1.0782845627e+01 -5.3649047721e+01 6.2413205406e+01 0.0000000000e+00 0.0000e+00 1.0000e+00
</event>
<event>
 5      1 +2.4041262e-06 9.11880000e+01 7.81860800e-03 1.13011600e-01
       25 -1    0    0    0    0 +0.0000000000e+00 +0.0000000000e+00 +9.9999998245e-15 1.2500000000e+02 1.2500000000e+02 0.0000e+00 0.0000e+00
       23  2    1    0    0    0 -2.5299258275e+01 +1.1270435804e+00 +1.5002062918e+01 9.5565588365e+01 9.0919728834e+01 0.0000e+00 0.0000e+00
      -13  1    2    2    0    0 -2.6887666345e+01 +6.1523782454e+00 -3.5406357546e+01 4.4882286910e+01 1.0566000000e-01 0.0000e+00 -1.0000e+00
       13  1    2    2    0    0 +1.5884080700e+00 -5.0253346650e+00 +5.0408420464e+01 5.0683301455e+01 1.0566000000e-01 0.0000e+00 1.0000e+00
       22  1    1    0    0    0 +2.5299258275e+01 -1.1270435804e+00 -1.5002062918e+01 2.9434411635e+01 0.0000000000e+00 0.0000e+00 1.0000e+00
</event>
<event>
 4      1 +2.4041262e-06 9.11880000e+01 7.81860800e-03 1.13011600e-01
       25 -1    0    0    0    0 +0.0000000000e+00 +0.0000000000e+00 +9.9999998245e-15 1.2500000000e+02 1.2500000000e+02 0.0000e+00 0.0000e+00
      -13  1    1    0    0    0 -6.0198281733e+01 +9.1952083663e+00 -1.4066053299e+01 6.2500000000e+01 1.0566000000e-01 0.0000e+00 1.0000e+00
       13  1    1    0    0    0 +6.0198281733e+01 -9.1952083662e+00 +1.4066053299e+01 6.2500000000e+01 1.0566000000e-01 0.0000e+00 1.0000e+00
       22  1    1    0    0    0 +2.9113111464e-10 -6.4666821226e-11 +1.2695254393e-10 3.2412354448e-10 0.0000000000e+00 0.0000e+00 -1.0000e+00
</event>
<event>
 4      1 +2.4041262e-06 9.11880000e+01 7.81860800e-03 1.13011600e-01
       25 -1    0    0    0    0 +0.0000000000e+00 +0.0000000000e+00 +9.9999998245e-15 1.2500000000e+02 1.2500000000e+02 0.0000e+00 0.0000e+00
      -13  1    1    0    0    0 +3.3814451862e+01 -4.8893696113e+01 +1.9293213655e+01 6.2499999452e+01 1.0566000000e-01 0.0000e+00 -1.0000e+00
       13  1    1    0    0    0 -3.3775355370e+01 +4.8837766727e+01 -1.9271234012e+01 6.2428308591e+01 1.0566000000e-01 0.0000e+00 -1.0000e+00
       22  1    1    0    0    0 -3.9096492450e-02 +5.5929386350e-02 -2.1979642898e-02 7.1691956880e-02 0.0000000000e+00 0.0000e+00 -1.0000e+00
</event>
<event>
 4      1 +2.4041262e-06 9.11880000e+01 7.81860800e-03 1.13011600e-01
       25 -1    0    0    0    0 +0.0000000000e+00 +0.0000000000e+00 +9.9999998245e-15 1.2500000000e+02 1.2500000000e+02 0.0000e+00 0.0000e+00
      -13  1    1    0    0    0 -4.7477413815e+01 -3.8063362293e+01 -1.4258838115e+01 6.2500000000e+01 1.0566000000e-01 0.0000e+00 -1.0000e+00
       13  1    1    0    0    0 +4.7477413808e+01 +3.8063362287e+01 +1.4258838112e+01 6.2499999991e+01 1.0566000000e-01 0.0000e+00 -1.0000e+00
       22  1    1    0    0    0 +6.9153792693e-09 +5.7068159443e-09 +2.0760658485e-09 9.2032748556e-09 0.0000000000e+00 0.0000e+00 1.0000e+00
</event>
<event>
 5      1 +2.4041262e-06 9.11880000e+01 7.81860800e-03 1.13011600e-01
       25 -1    0    0    0    0 +0.0000000000e+00 +0.0000000000e+00 +9.9999998245e-15 1.2500000000e+02 1.2500000000e+02 0.0000e+00 0.0000e+00
       23  2    1    0    0    0 +3.2752613810e+00 +2.6848550732e+01 -9.1602490350e+00 9.6443351459e+01 9.2118607592e+01 0.0000e+00 0.0000e+00
      -13  1    2    2    0    0 +3.5752952151e+01 -1.7788074358e+01 -1.0259702084e+01 4.1230593348e+01 1.0566000000e-01 0.0000e+00 1.0000e+00
       13  1    2    2    0    0 -3.2477690770e+01 +4.4636625090e+01 +1.0994530486e+00 5.5212758111e+01 1.0566000000e-01 0.0000e+00 -1.0000e+00
       22  1    1    0    0    0 -3.2752613810e+00 -2.6848550732e+01 +9.1602490350e+00 2.8556648541e+01 0.0000000000e+00 0.0000e+00 -1.0000e+00
</event>
<event>
 4      1 +2.4041262e-06 9.11880000e+01 7.81860800e-03 1.13011600e-01
       25 -1    0    0    0    0 +0.0000000000e+00 +0.0000000000e+00 +9.9999998245e-15 1.2500000000e+02 1.2500000000e+02 0.0000e+00 0.0000e+00
      -13  1    1    0    0    0 -3.0090380754e+01 -2.0105134872e+01 -5.0956759844e+01 6.2500000000e+01 1.0566000000e-01 0.0000e+00 -1.0000e+00
       13  1    1    0    0    0 +3.0090380754e+01 +2.0105134872e+01 +5.0956759844e+01 6.2500000000e+01 1.0566000000e-01 0.0000e+00 -1.0000e+00
       22  1    1    0    0    0 -1.4594374533e-10 -9.2409501178e-11 -2.0517945649e-12 1.7275214200e-10 0.0000000000e+00 0.0000e+00 1.0000e+00
</event>
<event>
 5      1 +2.4041262e-06 9.11880000e+01 7.81860800e-03 1.13011600e-01
       25 -1    0    0    0    0 +0.0000000000e+00 +0.0000000000e+00 +9.9999998245e-15 1.2500000000e+02 1.2500000000e+02 0.0000e+00 0.0000e+00
       23  2    1    0    0    0 +2.0404516461e+01 -5.5559447016e+00 -2.0847361014e+01 9.5304456988e+01 9.0560003573e+01 0.0000e+00 0.0000e+00
      -13  1    2    2    0    0 +1.1789467655e+01 +3.9062760703e+01 +7.8601148912e+00 4.1553380024e+01 1.0566000000e-01 0.0000e+00 1.0000e+00
       13  1    2    2    0    0 +8.6150488061e+00 -4.4618705404e+01 -2.8707475905e+01 5.3751076964e+01 1.0566000000e-01 0.0000e+00 -1.0000e+00
       22  1    1    0    0    0 -2.0404516461e+01 +5.5559447016e+00 +2.0847361014e+01 2.9695543012e+01 0.0000000000e+00 0.0000e+00 -1.0000e+00
</event>
<event>
 4      1 +2.4041262e-06 9.11880000e+01 7.81860800e-03 1.13011600e-01
       25 -1    0    0    0    0 +0.0000000000e+00 +0.0000000000e+00 +9.9999998245e-15 1.2500000000e+02 1.2500000000e+02 0.0000e+00 0.0000e+00
      -13  1    1    0    0    0 -3.2425245258e+01 +4.5952239246e+01 -2.7262318574e+01 6.2499999999e+01 1.0566000000e-01 0.0000e+00 1.0000e+00
       13  1    1    0    0    0 +3.2425236632e+01 -4.5952226887e+01 +2.7262311557e+01 6.2499983376e+01 1.0566000000e-01 0.0000e+00 1.0000e+00
       22  1    1    0    0    0 +8.6266823903e-06 -1.2359377237e-05 +7.0168357720e-06 1.6625577855e-05 0.0000000000e+00 0.0000e+00 1.0000e+00
</event>
<event>
 4      1 +2.4041262e-06 9.11880000e+01 7.81860800e-03 1.13011600e-01
       25 -1    0    0    0    0 +0.0000000000e+00 +0.0000000000e+00 +9.9999998245e-15 1.2500000000e+02 1.2500000000e+02 0.0000e+00 0.0000e+00
      -13  1    1    0    0    0 -5.3882090927e+01 +1.0074466852e+01 +3.0024391686e+01 6.2499998921e+01 1.0566000000e-01 0.0000e+00 -1.0000e+00
       13  1    1    0    0    0 +5.3882091864e+01 -1.0074467026e+01 -3.0024392192e+01 6.2500000000e+01 1.0566000000e-01 0.0000e+00 -1.0000e+00
       22  1    1    0    0    0 -9.3689384271e-07 +1.7368329680e-07 +5.0606378959e-07 1.0789052411e-06 0.0000000000e+00 0.0000e+00 1.0000e+00
</event>
<event>
 4      1 +2.4041262e-06 9.11880000e+01 7.81860800e-03 1.13011600e-01
       25 -1    0    0    0    0 +0.0000000000e+00 +0.0000000000e+00 +9.9999998245e-15 1.2500000000e+02 1.2500000000e+02 0.0000e+00 0.0000e+00
      -13  1    1    0    0    0 -1.9552308201e-01 +2.6982673385e+00 -3.0000187387e+00 4.0410583235e+00 1.0566000000e-01 0.0000e+00 -1.0000e+00
       13  1    1    0    0    0 -3.7922888834e+00 +3.9008277376e+01 -4.3376559808e+01 5.8459937253e+01 1.0566000000e-01 0.0000e+00 -1.0000e+00
       22  1    1    0    0    0 +3.9878119654e+00 -4.1706544715e+01 +4.6376578546e+01 6.2499004424e+01 0.0000000000e+00 0.0000e+00 -1.0000e+00
</event>
<event>
 4      1 +2.4041262e-06 9.11880000e+01 7.81860800e-03 1.13011600e-01
       25 -1    0    0    0    0 +0.0000000000e+00 +0.0000000000e+00 +9.9999998245e-15 1.2500000000e+02 1.2500000000e+02 0.0000e+00 0.0000e+00
      -13  1    1    0    0    0 +9.6831902399e+00 +4.4680647864e+01 +4.2615893387e+01 6.2500000000e+01 1.0566000000e-01 0.0000e+00 -1.0000e+00
       13  1    1    0    0    0 -9.6831902399e+00 -4.4680647864e+01 -4.2615893387e+01 6.2500000000e+01 1.0566000000e-01 0.0000e+00 -1.0000e+00
       22  1    1    0    0    0 +3.4106472761e-11 +6.9055809825e-11 +5.2485999736e-11 9.3202663712e-11 0.0000000000e+00 0.0000e+00 1.0000e+00
</event>
<event>
 4      1 +2.4041262e-06 9.11880000e+01 7.81860800e-03 1.13011600e-01
       25 -1    0    0    0    0 +0.0000000000e+00 +0.0000000000e+00 +9.9999998245e-15 1.2500000000e+02 1.2500000000e+02 0.0000e+00 0.0000e+00
      -13  1    1    0    0    0 -2.7199337689e+00 -6.2370617512e+01 -2.9570688361e+00 6.2499979109e+01 1.0566000000e-01 0.0000e+00 -1.0000e+00
       13  1    1    0    0    0 +2.7199266843e+00 +6.2370603759e+01 +2.9571199428e+00 6.2499967494e+01 1.0566000000e-01 0.0000e+00 -1.0000e+00
       22  1    1    0    0    0 +7.0845473312e-06 +1.3752890610e-05 -5.1106749381e-05 5.3396934771e-05 0.0000000000e+00 0.0000e+00 1.0000e+00
</event>
<event>
 4      1 +2.4041262e-06 9.11880000e+01 7.81860800e-03 1.13011600e-01
       25 -1    0    0    0    0 +0.0000000000e+00 +0.0000000000e+00 +9.9999998245e-15 1.2500000000e+02 1.2500000000e+02 0.0000e+00 0.0000e+00
      -13  1    1    0    0    0 -2.4810126269e+01 -4.3395506332e+01 +3.7516991549e+01 6.2499985234e+01 1.0566000000e-01 0.0000e+00 -1.0000e+00
       13  1    1    0    0    0 +2.4810131658e+01 +4.3395516633e+01 -3.7517000661e+01 6.2499999995e+01 1.0566000000e-01 0.0000e+00 -1.0000e+00
       22  1    1    0    0    0 -5.3888019421e-06 -1.0301571662e-05 +9.1117409486e-06 1.4771099763e-05 0.0000000000e+00 0.0000e+00 -1.0000e+00
</event>
<event>
 4      1 +2.4041262e-06 9.11880000e+01 7.81860800e-03 1.13011600e-01
       25 -1    0    0    0    0 +0.0000000000e+00 +0.0000000000e+00 +9.9999998245e-15 1.2500000000e+02 1.2500000000e+02 0.0000e+00 0.0000e+00
      -13  1    1    0    0    0 -1.4104542489e+01 -3.4401285458e+01 +5.0237955852e+01 6.2499999457e+01 1.0566000000e-01 0.0000e+00 -1.0000e+00
       13  1    1    0    0    0 +1.4104542754e+01 +3.4401285637e+01 -5.0237956310e+01 6.2499999984e+01 1.0566000000e-01 0.0000e+00 -1.0000e+00
       22  1    1    0    0    0 -2.6507050788e-07 -1.7947994194e-07 +4.5789449221e-07 5.5869740441e-07 0.0000000000e+00 0.0000e+00 1.0000e+00
</event>
<event>
 4      1 +2.4041262e-06 9.11880000e+01 7.81860800e-03 1.13011600e-01
       25 -1    0    0    0    0 +0.0000000000e+00 +0.0000000000e+00 +9.9999998245e-15 1.2500000000e+02 1.2500000000e+02 0.0000e+00 0.0000e+00
      -13  1    1    0    0    0 -4.5440262017e+01 +4.2796708825e+01 +3.1058994006e+00 6.2498267765e+01 1.0566000000e-01 0.0000e+00 -1.0000e+00
       13  1    1    0    0    0 +4.5439794223e+01 -4.2798592743e+01 -3.1041689131e+00 6.2499131742e+01 1.0566000000e-01 0.0000e+00 -1.0000e+00
       22  1    1    0    0    0 +4.6779389925e-04 +1.8839180926e-03 -1.7304875271e-03 2.6004933365e-03 0.0000000000e+00 0.0000e+00 -1.0000e+00
</event>
<event>
 4      1 +2.4041262e-06 9.11880000e+01 7.81860800e-03 1.13011600e-01
       25 -1    0    0    0    0 +0.0000000000e+00 +0.0000000000e+00 +9.9999998245e-15 1.2500000000e+02 1.2500000000e+02 0.0000e+00 0.0000e+00
      -11  1    1    0    0    0 -4.5590392180e+00 -8.0075816421e+00 -3.8695057901e+00 9.9939620606e+00 5.1100000000e-04 0.0000e+00 1.0000e+00
       11  1    1    0    0    0 -2.3954002131e+01 -4.2068309692e+01 -2.0330940039e+01 5.2506037954e+01 5.1100000000e-04 0.0000e+00 1.0000e+00
       22  1    1    0    0    0 +2.8513041349e+01 +5.0075891334e+01 +2.4200445829e+01 6.2499999986e+01 0.0000000000e+00 0.0000e+00 1.0000e+00
</event>
<event>
 4      1 +2.4041262e-06 9.11880000e+01 7.81860800e-03 1.13011600e-01
       25 -1    0    0    0    0 +0.0000000000e+00 +0.0000000000e+00 +9.9999998245e-15 1.2500000000e+02 1.2500000000e+02 0.0000e+00 0.0000e+00
      -13  1    1    0    0    0 +2.9555033865e+01 -5.0455768017e+01 +2.2067040605e+01 6.2499999984e+01 1.0566000000e-01 0.0000e+00 1.0000e+00
       13  1    1    0    0    0 -2.9555033830e+01 +5.0455767952e+01 -2.2067040648e+01 6.2499999930e+01 1.0566000000e-01 0.0000e+00 1.0000e+00
       22  1    1    0    0    0 -3.5259758666e-08 +6.4941092706e-08 +4.3308649335e-08 8.5651825493e-08 0.0000000000e+00 0.0000e+00 -1.0000e+00
</event>
<event>
 4      1 +2.4041262e-06 9.11880000e+01 7.81860800e-03 1.13011600e-01
       25 -1    0    0    0    0 +0.0000000000e+00 +0.0000000000e+00 +9.9999998245e-15 1.2500000000e+02 1.2500000000e+02 0.0000e+00 0.0000e+00
      -13  1    1    0    0    0 -2.7469839206e+01 +3.4709748350e+01 +4.3417060728e+01 6.2003314612e+01 1.0566000000e-01 0.0000e+00 -1.0000e+00
       13  1    1    0    0    0 +2.7898297650e+01 -3.4797729028e+01 -4.3727430954e+01 6.2460358142e+01 1.0566000000e-01 0.0000e+00 -1.0000e+00
       22  1    1    0    0    0 -4.2845844470e-01 +8.7980677571e-02 +3.1037022596e-01 5.3632724677e-01 0.0000000000e+00 0.0000e+00 -1.0000e+00
</event>
<event>
 4      1 +2.4041262e-06 9.11880000e+01 7.81860800e-03 1.13011600e-01
       25 -1    0    0    0    0 +0.0000000000e+00 +0.0000000000e+00 +9.9999998245e-15 1.2500000000e+02 1.2500000000e+02 0.0000e+00 0.0000e+00
      -13  1    1    0    0    0 -5.2982500246e+01 -2.1233105377e+01 -2.5460722457e+01 6.2499997187e+01 1.0566000000e-01 0.0000e+00 1.0000e+00
       13  1    1    0    0    0 +5.2931965645e+01 +2.1213689437e+01 +2.5436319765e+01 6.2440620864e+01 1.0566000000e-01 0.0000e+00 1.0000e+00
       22  1    1    0    0    0 +5.0534600637e-02 +1.9415940244e-02 +2.4402691851e-02 5.9381949838e-02 0.0000000000e+00 0.0000e+00 1.0000e+00
</event>
<event>
 4      1 +2.4041262e-06 9.11880000e+01 7.81860800e-03 1.13011600e-01
       25 -1    0    0    0    0 +0.0000000000e+00 +0.0000000000e+00 +9.9999998245e-15 1.2500000000e+02 1.2500000000e+02 0.0000e+00 0.0000e+00
      -13  1    1    0    0    0 +4.8880930971e+01 +3.4500189064e+01 -1.8072918357e+01 6.2500000000e+01 1.0566000000e-01 0.0000e+00 1.0000e+00
       13  1    1    0    0    0 -4.8880930971e+01 -3.4500189063e+01 +1.8072918356e+01 6.2500000000e+01 1.0566000000e-01 0.0000e+00 1.0000e+00
       22  1    1    0    0    0 -2.1231359651e-10 -1.8238258126e-10 +7.7141996899e-11 2.9032973822e-10 0.0000000000e+00 0.0000e+00 1.0000e+00
</event>
<event>
 5      1 +2.4041262e-06 9.11880000e+01 7.81860800e-03 1.13011600e-01
       25 -1    0    0    0    0 +0.0000000000e+00 +0.0000000000e+00 +9.9999998245e-15 1.2500000000e+02 1.2500000000e+02 0.0000e+00 0.0000e+00
       23  2    1    0    0    0 -4.1435520417e+00 +1.7922545234e+01 +2.2009675582e+01 9.6315292046e+01 9.1944673643e+01 0.0000e+00 0.0000e+00
      -11  1    2    2    0    0 -1.6116677169e+01 +5.3674407397e+01 +1.4167065943e+01 5.7804801272e+01 5.1100000000e-04 0.0000e+00 1.0000e+00
       11  1    2    2    0    0 +1.1973125127e+01 -3.5751862163e+01 +7.8426096386e+00 3.8510490773e+01 5.1100000000e-04 0.0000e+00 -1.0000e+00
       22  1    1    0    0    0 +4.1435520417e+00 -1.7922545234e+01 -2.2009675582e+01 2.8684707954e+01 0.0000000000e+00 0.0000e+00 1.0000e+00
</event>
<event>
 4      1 +2.4041262e-06 9.11880000e+01 7.81860800e-03 1.13011600e-01
       25 -1    0    0    0    0 +0.0000000000e+00 +0.0000000000e+00 +9.9999998245e-15 1.2500000000e+02 1.2500000000e+02 0.0000e+00 0.0000e+00
      -13  1    1    0    0    0 -7.3549771424e+00 +2.2290761250e+01 -5.7924648658e+01 6.2499998497e+01 1.0566000000e-01 0.0000e+00 -1.0000e+00
       13  1    1    0    0    0 +7.3549773192e+00 -2.2290761782e+01 +5.7924650053e+01 6.2500000000e+01 1.0566000000e-01 0.0000e+00 -1.0000e+00
       22  1    1    0    0    0 -1.7686779994e-07 +5.3239882112e-07 -1.3948045589e-06 1.5033996411e-06 0.0000000000e+00 0.0000e+00 1.0000e+00
</event>
<event>
 5      1 +2.4041262e-06 9.11880000e+01 7.81860800e-03 1.13011600e-01
       25 -1    0    0    0    0 +0.0000000000e+00 +0.0000000000e+00 +9.9999998245e-15 1.2500000000e+02 1.2500000000e+02 0.0000e+00 0.0000e+00
       23  2    1    0    0    0 -1.8399185184e+01 -1.6041738832e+01 +1.6412494118e+01 9.5585082638e+01 9.0946526374e+01 0.0000e+00 0.0000e+00
      -13  1    2    2    0    0 -1.0952738670e+01 +2.6309960885e+01 -2.3482587936e+01 3.6927220669e+01 1.0566000000e-01 0.0000e+00 -1.0000e+00
       13  1    2    2    0    0 -7.4464465144e+00 -4.2351699717e+01 +3.9895082054e+01 5.8657861969e+01 1.0566000000e-01 0.0000e+00 1.0000e+00
       22  1    1    0    0    0 +1.8399185184e+01 +1.6041738832e+01 -1.6412494118e+01 2.9414917362e+01 0.0000000000e+00 0.0000e+00 1.0000e+00
</event>
<event>
 5      1 +2.4041262e-06 9.11880000e+01 7.81860800e-03 1.13011600e-01
       25 -1    0    0    0    0 +0.0000000000e+00 +0.0000000000e+00 +9.9999998245e-15 1.2500000000e+02 1.2500000000e+02 0.0000e+00 0.0000e+00
       23  2    1    0    0    0 -1.0123513937e+01 +5.7349486644e+00 -2.0682417554e+01 1.0126948027e+02 9.8449835288e+01 0.0000e+00 0.0000e+00
      -11  1    2    2    0    0 -3.2439155727e+01 -2.1566136134e+01 -4.4176893901e+01 5.8898174904e+01 5.1100000000e-04 0.0000e+00 1.0000e+00
       11  1    2    2    0    0 +2.2315641790e+01 +2.7301084798e+01 +2.3494476346e+01 4.2371305369e+01 5.1100000000e-04 0.0000e+00 -1.0000e+00
       22  1    1    0    0    0 +1.0123513937e+01 -5.7349486644e+00 +2.0682417554e+01 2.3730519727e+01 0.0000000000e+00 0.0000e+00 1.0000e+00
</event>
<event>
 4      1 +2.4041262e-06 9.11880000e+01 7.81860800e-03 1.13011600e-01
       25 -1    0    0    0    0 +0.0000000000e+00 +0.0000000000e+00 +9.9999998245e-15 1.2500000000e+02 1.2500000000e+02 0.0000e+00 0.0000e+00
      -13  1    1    0    0    0 +1.4264145011e+01 +5.1498681076e+01 +3.2413865270e+01 6.2499998490e+01 1.0566000000e-01 0.0000e+00 -1.0000e+00
       13  1    1    0    0    0 -1.4264047185e+01 -5.1498471118e+01 -3.2413739548e+01 6.2499737960e+01 1.0566000000e-01 0.0000e+00 -1.0000e+00
       22  1    1    0    0    0 -9.7826150227e-05 -2.0995813522e-04 -1.2572285938e-04 2.6355001723e-04 0.0000000000e+00 0.0000e+00 1.0000e+00
</event>
<event>
 4      1 +2.4041262e-06 9.11880000e+01 7.81860800e-03 1.13011600e-01
       25 -1    0    0    0    0 +0.0000000000e+00 +0.0000000000e+00 +9.9999998245e-15 1.2500000000e+02 1.2500000000e+02 0.0000e+00 0.0000e+00
      -13  1    1    0    0    0 -2.1880798750e+01 -4.4792027946e+01 +3.7698059824e+01 6.2500000000e+01 1.0566000000e-01 0.0000e+00 -1.0000e+00
       13  1    1    0    0    0 +2.1880798750e+01 +4.4792027946e+01 -3.7698059824e+01 6.2499999999e+01 1.0566000000e-01 0.0000e+00 -1.0000e+00
       22  1    1    0    0    0 +1.0971190342e-10 +4.4840865887e-10 -2.1777996954e-10 5.1042643175e-10 0.0000000000e+00 0.0000e+00 -1.0000e+00
</event>
<event>
 4      1 +2.4041262e-06 9.11880000e+01 7.81860800e-03 1.13011600e-01
       25 -1    0    0    0    0 +0.0000000000e+00 +0.0000000000e+00 +9.9999998245e-15 1.2500000000e+02 1.2500000000e+02 0.0000e+00 0.0000e+00
      -13  1    1    0    0    0 -5.8641549023e+01 -1.6105030768e+01 -1.4415780964e+01 6.2498233516e+01 1.0566000000e-01 0.0000e+00 1.0000e+00
       13  1    1    0    0    0 +5.8635705678e+01 +1.6109634241e+01 +1.4417025071e+01 6.2494224307e+01 1.0566000000e-01 0.0000e+00 1.0000e+00
       22  1    1    0    0    0 +5.8433442672e-03 -4.6034728080e-03 -1.2441073151e-03 7.5421772143e-03 0.0000000000e+00 0.0000e+00 1.0000e+00
</event>
<event>
 4      1 +2.4041262e-06 9.11880000e+01 7.81860800e-03 1.13011600e-01
       25 -1    0    0    0    0 +0.0000000000e+00 +0.0000000000e+00 +9.9999998245e-15 1.2500000000e+02 1.2500000000e+02 0.0000e+00 0.0000e+00
      -11  1    1    0    0    0 +1.7153403098e+01 -4.3124186012e+01 +4.6051518145e+00 4.6638418503e+01 5.1100000000e-04 0.0000e+00 -1.0000e+00
       11  1    1    0    0    0 +3.9594605799e+00 -1.5351186245e+01 -3.2129635661e+00 1.6175888920e+01 5.1100000000e-04 0.0000e+00 1.0000e+00
       22  1    1    0    0    0 -2.1112863678e+01 +5.8475372256e+01 -1.3921882483e+00 6.2185692577e+01 0.0000000000e+00 0.0000e+00 -1.0000e+00
</event>
<event>
 4      1 +2.4041262e-06 9.11880000e+01 7.81860800e-03 1.13011600e-01
       25 -1    0    0    0    0 +0.0000000000e+00 +0.0000000000e+00 +9.9999998245e-15 1.2500000000e+02 1.2500000000e+02 0.0000e+00 0.0000e+00
      -13  1    1    0    0    0 -1.6981499017e+01 +5.9555685422e+01 -8.4254194598e+00 6.2499998657e+01 1.0566000000e-01 0.0000e+00 1.0000e+00
       13  1    1    0    0    0 +1.6853103090e+01 -5.9101602668e+01 +8.3621298687e+00 6.2023889766e+01 1.0566000000e-01 0.0000e+00 1.0000e+00
       22  1    1    0    0    0 +1.2839592624e-01 -4.5408275451e-01 +6.3289591073e-02 4.7611157742e-01 0.0000000000e+00 0.0000e+00 1.0000e+00
</event>
<event>
 4      1 +2.4041262e-06 9.11880000e+01 7.81860800e-03 1.13011600e-01
       25 -1    0    0    0    0 +0.0000000000e+00 +0.0000000000e+00 +9.9999998245e-15 1.2500000000e+02 1.2500000000e+02 0.0000e+00 0.0000e+00
      -13  1    1    0    0    0 +4.3736876024e+01 +1.0959947200e+01 +4.3280505143e+01 6.2499984452e+01 1.0566000000e-01 0.0000e+00 -1.0000e+00
       13  1    1    0    0    0 -4.3624112241e+01 -1.0929801844e+01 -4.3172000135e+01 6.2340648833e+01 1.0566000000e-01 0.0000e+00 -1.0000e+00
       22  1    1    0    0    0 -1.1276378244e-01 -3.0145355935e-02 -1.0850500873e-01 1.5936671558e-01 0.0000000000e+00 0.0000e+00 -1.0000e+00
</event>
<event>
 4      1 +2.4041262e-06 9.11880000e+01 7.81860800e-03 1.13011600e-01
       25 -1    0    0    0    0 +0.0000000000e+00 +0.0000000000e+00 +9.9999998245e-15 1.2500000000e+02 1.2500000000e+02 0.0000e+00 0.0000e+00
      -11  1    1    0    0    0 -2.9116689117e+01 -3.6704177132e+01 +2.4740800498e+01 5.2981934786e+01 5.1100000000e-04 0.0000e+00 1.0000e+00
       11  1    1    0    0    0 -5.1389660107e+00 -6.7036952152e+00 +4.3880642303e+00 9.5185928135e+00 5.1100000000e-04 0.0000e+00 -1.0000e+00
       22  1    1    0    0    0 +3.4255655128e+01 +4.3407872347e+01 -2.9128864729e+01 6.2499472401e+01 0.0000000000e+00 0.0000e+00 1.0000e+00
</event>
<event>
 5      1 +2.4041262e-06 9.11880000e+01 7.81860800e-03 1.13011600e-01
       25 -1    0    0    0    0 +0.0000000000e+00 +0.0000000000e+00 +9.9999998245e-15 1.2500000000e+02 1.2500000000e+02 0.0000e+00 0.0000e+00
       23  2    1    0    0    0 +1.5852900555e+01 -1.0265619262e+01 -2.2810596243e+01 9.5385464788e+01 9.0671749718e+01 0.0000e+00 0.0000e+00
      -13  1    2    2    0    0 +1.5669598478e+01 -4.7471050780e+01 +3.0362688515e+00 5.0082602480e+01 1.0566000000e-01 0.0000e+00 -1.0000e+00
       13  1    2    2    0    0 +1.8330207711e-01 +3.7205431517e+01 -2.5846865095e+01 4.5302862308e+01 1.0566000000e-01 0.0000e+00 1.0000e+00
       22  1    1    0    0    0 -1.5852900555e+01 +1.0265619262e+01 +2.2810596243e+01 2.9614535212e+01 0.0000000000e+00 0.0000e+00 -1.0000e+00
</event>
<event>
 4      1 +2.4041262e-06 9.11880000e+01 7.81860800e-03 1.13011600e-01
       25 -1    0    0    0    0 +0.0000000000e+00 +0.0000000000e+00 +9.9999998245e-15 1.2500000000e+02 1.2500000000e+02 0.0000e+00 0.0000e+00
      -11  1    1    0    0    0 +7.3176633053e+00 +1.1512412193e+01 +2.6747569557e+00 1.3901012761e+01 5.1100000000e-04 0.0000e+00 -1.0000e+00
       11  1    1    0    0    0 +2.5618697047e+01 +4.0227559018e+01 +9.3427840817e+00 4.8598989265e+01 5.1100000000e-04 0.0000e+00 1.0000e+00
       22  1    1    0    0    0 -3.2936360352e+01 -5.1739971211e+01 -1.2017541037e+01 6.2499997974e+01 0.0000000000e+00 0.0000e+00 1.0000e+00
</event>
<event>
 4      1 +2.4041262e-06 9.11880000e+01 7.81860800e-03 1.13011600e-01
       25 -1    0    0    0    0 +0.0000000000e+00 +0.0000000000e+00 +9.9999998245e-15 1.2500000000e+02 1.2500000000e+02 0.0000e+00 0.0000e+00
      -13  1    1    0    0    0 -4.0819902069e+00 +4.9367662537e+01 +3.8110492999e+01 6.2499996713e+01 1.0566000000e-01 0.0000e+00 1.0000e+00
       13  1    1    0    0    0 +4.0346044058e+00 -4.8763112222e+01 -3.7645523706e+01 6.1735854780e+01 1.0566000000e-01 0.0000e+00 1.0000e+00
       22  1    1    0    0    0 +4.7385801100e-02 -6.0455031508e-01 -4.6496929250e-01 7.6414850689e-01 0.0000000000e+00 0.0000e+00 1.0000e+00
</event>
<event>
 4      1 +2.4041262e-06 9.11880000e+01 7.81860800e-03 1.13011600e-01
       25 -1    0    0    0    0 +0.0000000000e+00 +0.0000000000e+00 +9.9999998245e-15 1.2500000000e+02 1.2500000000e+02 0.0000e+00 0.0000e+00
      -13  1    1    0    0    0 -4.0408694895e+01 -3.4924947179e+01 -3.2459579131e+01 6.2500000000e+01 1.0566000000e-01 0.0000e+00 1.0000e+00
       13  1    1    0    0    0 +4.0408694895e+01 +3.4924947179e+01 +3.2459579131e+01 6.2500000000e+01 1.0566000000e-01 0.0000e+00 1.0000e+00
       22  1    1    0    0    0 +8.1289348783e-11 -2.6947190711e-10 +4.2936199077e-10 5.1339535062e-10 0.0000000000e+00 0.0000e+00 -1.0000e+00
</event>
<event>
 5      1 +2.4041262e-06 9.11880000e+01 7.81860800e-03 1.13011600e-01
       25 -1    0    0    0    0 +0.0000000000e+00 +0.0000000000e+00 +9.9999998245e-15 1.2500000000e+02 1.2500000000e+02 0.0000e+00 0.0000e+00
       23  2    1    0    0    0 +1.8200448821e+01 -2.5496304209e+01 -7.5103804725e+00 9.2786281176e+01 8.7014770551e+01 0.0000e+00 0.0000e+00
      -13  1    2    2    0    0 -2.3959717907e+01 -3.0679294118e+01 -2.5628486086e+01 4.6605982801e+01 1.0566000000e-01 0.0000e+00 1.0000e+00
       13  1    2    2    0    0 +4.2160166728e+01 +5.1829899092e+00 +1.8118105614e+01 4.6180298375e+01 1.0566000000e-01 0.0000e+00 -1.0000e+00
       22  1    1    0    0    0 -1.8200448821e+01 +2.5496304209e+01 +7.5103804725e+00 3.2213718824e+01 0.0000000000e+00 0.0000e+00 -1.0000e+00
</event>
<event>
 4      1 +2.4041262e-06 9.11880000e+01 7.81860800e-03 1.13011600e-01
       25 -1    0    0    0    0 +0.0000000000e+00 +0.0000000000e+00 +9.9999998245e-15 1.2500000000e+02 1.2500000000e+02 0.0000e+00 0.0000e+00
      -13  1    1    0    0    0 +4.6271447016e+01 -3.5384562784e+01 -2.2652256848e+01 6.2499999974e+01 1.0566000000e-01 0.0000e+00 1.0000e+00
       13  1    1    0    0    0 -4.6271372978e+01 +3.5384503549e+01 +2.2652222665e+01 6.2499899235e+01 1.0566000000e-01 0.0000e+00 1.0000e+00
       22  1    1    0    0    0 -7.4038320087e-05 +5.9234841424e-05 +3.4182964262e-05 1.0079143974e-04 0.0000000000e+00 0.0000e+00 1.0000e+00
</event>
<event>
 4      1 +2.4041262e-06 9.11880000e+01 7.81860800e-03 1.13011600e-01
       25 -1    0    0    0    0 +0.0000000000e+00 +0.0000000000e+00 +9.9999998245e-15 1.2500000000e+02 1.2500000000e+02 0.0000e+00 0.0000e+00
      -13  1    1    0    0    0 +1.2691906218e+01 -3.9298993062e+00 -6.1071349476e+01 6.2499995863e+01 1.0566000000e-01 0.0000e+00 -1.0000e+00
       13  1    1    0    0    0 -1.2652133378e+01 +3.9192933575e+00 +6.0885177521e+01 6.2309335940e+01 1.0566000000e-01 0.0000e+00 -1.0000e+00
       22  1    1    0    0    0 -3.9772839459e-02 +1.0605948698e-02 +1.8617195468e-01 1.9066819771e-01 0.0000000000e+00 0.0000e+00 -1.0000e+00
</event>
<event>
 4      1 +2.4041262e-06 9.11880000e+01 7.81860800e-03 1.13011600e-01
       25 -1    0    0    0    0 +0.0000000000e+00 +0.0000000000e+00 +9.9999998245e-15 1.2500000000e+02 1.2500000000e+02 0.0000e+00 0.0000e+00
      -13  1    1    0    0    0 -6.6391047179e+00 -5.5171445920e+00 -1.2409287544e+01 1.5116817697e+01 1.0566000000e-01 0.0000e+00 1.0000e+00
       13  1    1    0    0    0 +2.8805359255e+01 +2.4041420502e+01 +4.9976653127e+01 6.2493324791e+01 1.0566000000e-01 0.0000e+00 1.0000e+00
       22  1    1    0    0    0 -2.2166254537e+01 -1.8524275910e+01 -3.7567365583e+01 4.7389857512e+01 0.0000000000e+00 0.0000e+00 1.0000e+00
</event>
<event>
 4      1 +2.4041262e-06 9.11880000e+01 7.81860800e-03 1.13011600e-01
       25 -1    0    0    0    0 +0.0000000000e+00 +0.0000000000e+00 +9.9999998245e-15 1.2500000000e+02 1.2500000000e+02 0.0000e+00 0.0000e+00
      -11  1    1    0    0    0 +1.8871247443e+01 +4.6807930571e+01 -6.1454558401e-02 5.0468902518e+01 5.1100000000e-04 0.0000e+00 1.0000e+00
       11  1    1    0    0    0 +3.9377178377e+00 +1.1368339059e+01 -4.8760659167e-01 1.2040868539e+01 5.1100000000e-04 0.0000e+00 -1.0000e+00
       22  1    1    0    0    0 -2.2808965280e+01 -5.8176269630e+01 +5.4906115007e-01 6.2490228943e+01 0.0000000000e+00 0.0000e+00 1.0000e+00
</event>
<event>
 5      1 +2.4041262e-06 9.11880000e+01 7.81860800e-03 1.13011600e-01
       25 -1    0    0    0    0 +0.0000000000e+00 +0.0000000000e+00 +9.9999998245e-15 1.2500000000e+02 1.2500000000e+02 0.0000e+00 0.0000e+00
       23  2    1    0    0    0 -8.7485495701e+00 -2.8432370420e+01 -2.7678587614e+00 9.5123623891e+01 9.0310054661e+01 0.0000e+00 0.0000e+00
      -11  1    2    2    0    0 -8.4793530763e+00 +2.6571071864e+01 +2.1290117777e+01 3.5088322899e+01 5.1100000000e-04 0.0000e+00 -1.0000e+00
       11  1    2    2    0    0 -2.6919649383e-01 -5.5003442284e+01 -2.4057976539e+01 6.0035300992e+01 5.1100000000e-04 0.0000e+00 1.0000e+00
       22  1    1    0    0    0 +8.7485495701e+00 +2.8432370420e+01 +2.7678587614e+00 2.9876376109e+01 0.0000000000e+00 0.0000e+00 1.0000e+00
</event>
<event>
 4      1 +2.4041262e-06 9.11880000e+01 7.81860800e-03 1.13011600e-01
       25 -1    0    0    0    0 +0.0000000000e+00 +0.0000000000e+00 +9.9999998245e-15 1.2500000000e+02 1.2500000000e+02 0.0000e+00 0.0000e+00
      -11  1    1    0    0    0 +2.5011768870e-01 +1.9398878386e+00 -2.4888347538e-01 1.9717167469e+00 5.1100000000e-04 0.0000e+00 -1.0000e+00
       11  1    1    0    0    0 +6.0972029092e+00 +5.9463002349e+01 -9.5259741528e+00 6.0529073308e+01 5.1100000000e-04 0.0000e+00 1.0000e+00
       22  1    1    0    0    0 -6.3473205979e+00 -6.1402890188e+01 +9.7748576282e+00 6.2499209945e+01 0.0000000000e+00 0.0000e+00 1.0000e+00
</event>
<event>
 4      1 +2.4041262e-06 9.11880000e+01 7.81860800e-03 1.13011600e-01
       25 -1    0    0    0    0 +0.0000000000e+00 +0.0000000000e+00 +9.9999998245e-15 1.2500000000e+02 1.2500000000e+02 0.0000e+00 0.0000e+00
      -11  1    1    0    0    0 +2.7339043355e+01 -1.2974895199e+01 -1.5496729217e+01 3.3998820769e+01 5.1100000000e-04 0.0000e+00 -1.0000e+00
       11  1    1    0    0    0 +2.2922360808e+01 -1.0873597838e+01 -1.2986434281e+01 2.8501179459e+01 5.1100000000e-04 0.0000e+00 1.0000e+00
       22  1    1    0    0    0 -5.0261404163e+01 +2.3848493038e+01 +2.8483163498e+01 6.2499999772e+01 0.0000000000e+00 0.0000e+00 -1.0000e+00
</event>
<event>
 4      1 +2.4041262e-06 9.11880000e+01 7.81860800e-03 1.13011600e-01
       25 -1    0    0    0    0 +0.0000000000e+00 +0.0000000000e+00 +9.9999998245e-15 1.2500000000e+02 1.2500000000e+02 0.0000e+00 0.0000e+00
      -13  1    1    0    0    0 -6.0603159777e+01 +9.2034320295e+00 -1.2198061314e+01 6.2499999999e+01 1.0566000000e-01 0.0000e+00 1.0000e+00
       13  1    1    0    0    0 +6.0603159778e+01 -9.2034320299e+00 +1.2198061314e+01 6.2500000000e+01 1.0566000000e-01 0.0000e+00 1.0000e+00
       22  1    1    0    0    0 -8.7371146582e-10 +3.5327654026e-10 +1.3008663035e-10 9.5136668576e-10 0.0000000000e+00 0.0000e+00 1.0000e+00
</event>
<event>
 4      1 +2.4041262e-06 9.11880000e+01 7.81860800e-03 1.13011600e-01
       25 -1    0    0    0    0 +0.0000000000e+00 +0.0000000000e+00 +9.9999998245e-15 1.2500000000e+02 1.2500000000e+02 0.0000e+00 0.0000e+00
      -11  1    1    0    0    0 -2.1601800505e+01 -3.2382618456e+01 +3.4075783076e+01 5.1734231952e+01 5.1100000000e-04 0.0000e+00 -1.0000e+00
       11  1    1    0    0    0 -4.5059729094e+00 -6.7656481781e+00 +7.0586653391e+00 1.0765804371e+01 5.1100000000e-04 0.0000e+00 1.0000e+00
       22  1    1    0    0    0 +2.6107773414e+01 +3.9148266634e+01 -4.1134448416e+01 6.2499963677e+01 0.0000000000e+00 0.0000e+00 -1.0000e+00
</event>
<event>
 4      1 +2.4041262e-06 9.11880000e+01 7.81860800e-03 1.13011600e-01
       25 -1    0    0    0    0 +0.0000000000e+00 +0.0000000000e+00 +9.9999998245e-15 1.2500000000e+02 1.2500000000e+02 0.0000e+00 0.0000e+00
      -13  1    1    0    0    0 +3.4973369563e+01 -2.3003113396e+01 +4.6392847666e+01 6.2486696849e+01 1.0566000000e-01 0.0000e+00 -1.0000e+00
       13  1    1    0    0    0 -3.4987709891e+01 +2.3016071699e+01 -4.6380683167e+01 6.2490465952e+01 1.0566000000e-01 0.0000e+00 -1.0000e+00
       22  1    1    0    0    0 +1.4340327719e-02 -1.2958303135e-02 -1.2164499683e-02 2.2837199298e-02 0.0000000000e+00 0.0000e+00 -1.0000e+00
</event>
<event>
 4      1 +2.4041262e-06 9.11880000e+01 7.81860800e-03 1.13011600e-01
       25 -1    0    0    0    0 +0.0000000000e+00 +0.0000000000e+00 +9.9999998245e-15 1.2500000000e+02 1.2500000000e+02 0.0000e+00 0.0000e+00
      -13  1    1    0    0    0 +3.5179900783e+00 -3.1500399049e+01 -5.3866385079e+01 6.2500000000e+01 1.0566000000e-01 0.0000e+00 -1.0000e+00
       13  1    1    0    0    0 -3.5179899730e+00 +3.1500398004e+01 +5.3866383400e+01 6.2499998020e+01 1.0566000000e-01 0.0000e+00 -1.0000e+00
       22  1    1    0    0    0 -1.0523323850e-07 +1.0455167056e-06 +1.6789063556e-06 1.9806326683e-06 0.0000000000e+00 0.0000e+00 1.0000e+00
</event>
<event>
 4      1 +2.4041262e-06 9.11880000e+01 7.81860800e-03 1.13011600e-01
       25 -1    0    0    0    0 +0.0000000000e+00 +0.0000000000e+00 +9.9999998245e-15 1.2500000000e+02 1.2500000000e+02 0.0000e+00 0.0000e+00
      -13  1    1    0    0    0 -7.5667263664e+00 -2.9444424864e+01 +5.4607777198e+01 6.2499999984e+01 1.0566000000e-01 0.0000e+00 -1.0000e+00
       13  1    1    0    0    0 +7.5667264590e+00 +2.9444424769e+01 -5.4607776977e+01 6.2499999757e+01 1.0566000000e-01 0.0000e+00 -1.0000e+00
       22  1    1    0    0    0 -9.2527661820e-08 +9.4685478738e-08 -2.2179981011e-07 2.5830575652e-07 0.0000000000e+00 0.0000e+00 1.0000e+00
</event>
<event>
 4      1 +2.4041262e-06 9.11880000e+01 7.81860800e-03 1.13011600e-01
       25 -1    0    0    0    0 +0.0000000000e+00 +0.0000000000e+00 +9.9999998245e-15 1.2500000000e+02 1.2500000000e+02 0.0000e+00 0.0000e+00
      -13  1    1    0    0    0 -6.2323474173e+01 -2.7079212613e+00 +3.8328063684e+00 6.2499998714e+01 1.0566000000e-01 0.0000e+00 1.0000e+00
       13  1    1    0    0    0 +6.2323443913e+01 +2.7079233055e+00 -3.8327920592e+00 6.2499967751e+01 1.0566000000e-01 0.0000e+00 1.0000e+00
       22  1    1    0    0    0 +3.0260156151e-05 -2.0442232462e-06 -1.4309258885e-05 3.3535217142e-05 0.0000000000e+00 0.0000e+00 -1.0000e+00
</event>
<event>
 4      1 +2.4041262e-06 9.11880000e+01 7.81860800e-03 1.13011600e-01
       25 -1    0    0    0    0 +0.0000000000e+00 +0.0000000000e+00 +9.9999998245e-15 1.2500000000e+02 1.2500000000e+02 0.0000e+00 0.0000e+00
      -13  1    1    0    0    0 -4.9593469709e+01 +1.3234446262e+01 -3.5659164741e+01 6.2499999997e+01 1.0566000000e-01 0.0000e+00 1.0000e+00
       13  1    1    0    0    0 +4.9593469670e+01 -1.3234446269e+01 +3.5659164694e+01 6.2499999942e+01 1.0566000000e-01 0.0000e+00 1.0000e+00
       22  1    1    0    0    0 +3.8932802755e-08 +7.2144326340e-09 +4.6319927810e-08 6.0937237228e-08 0.0000000000e+00 0.0000e+00 -1.0000e+00
</event>
<event>
 4      1 +2.4041262e-06 9.11880000e+01 7.81860800e-03 1.13011600e-01
       25 -1    0    0    0    0 +0.0000000000e+00 +0.0000000000e+00 +9.9999998245e-15 1.2500000000e+02 1.2500000000e+02 0.0000e+00 0.0000e+00
      -13  1    1    0    0    0 +1.1884130695e+01 +1.8466142596e+01 +5.8515022435e+01 6.2499999995e+01 1.0566000000e-01 0.0000e+00 1.0000e+00
       13  1    1    0    0    0 -1.1884130697e+01 -1.8466142595e+01 -5.8515022440e+01 6.2500000000e+01 1.0566000000e-01 0.0000e+00 1.0000e+00
       22  1    1    0    0    0 +2.5657589784e-09 -1.2672478518e-09 +4.5816608074e-09 5.4019118844e-09 0.0000000000e+00 0.0000e+00 -1.0000e+00
</event>
<event>
 5      1 +2.4041262e-06 9.11880000e+01 7.81860800e-03 1.13011600e-01
       25 -1    0    0    0    0 +0.0000000000e+00 +0.0000000000e+00 +9.9999998245e-15 1.2500000000e+02 1.2500000000e+02 0.0000e+00 0.0000e+00
       23  2    1    0    0    0 -2.9299214444e+01 -9.2690715799e+00 +8.8015669202e+00 9.3033967477e+01 8.7369856754e+01 0.0000e+00 0.0000e+00
      -13  1    2    2    0    0 -5.8073925156e+01 +5.1680265193e+00 -3.8805266897e+00 5.8432516056e+01 1.0566000000e-01 0.0000e+00 -1.0000e+00
       13  1    2    2    0    0 +2.8774710712e+01 -1.4437098099e+01 +1.2682093610e+01 3.4601451421e+01 1.0566000000e-01 0.0000e+00 1.0000e+00
       22  1    1    0    0    0 +2.9299214444e+01 +9.2690715799e+00 -8.8015669202e+00 3.1966032523e+01 0.0000000000e+00 0.0000e+00 -1.0000e+00
</event>
<event>
 4      1 +2.4041262e-06 9.11880000e+01 7.81860800e-03 1.13011600e-01
       25 -1    0    0    0    0 +0.0000000000e+00 +0.0000000000e+00 +9.9999998245e-15 1.2500000000e+02 1.2500000000e+02 0.0000e+00 0.0000e+00
      -13  1    1    0    0    0 -5.9734111788e+01 -1.8303816024e+01 +1.7450053651e+00 6.2500000000e+01 1.0566000000e-01 0.0000e+00 1.0000e+00
       13  1    1    0    0    0 +5.9734111788e+01 +1.8303816025e+01 -1.7450053641e+00 6.2499999999e+01 1.0566000000e-01 0.0000e+00 1.0000e+00
       22  1    1    0    0    0 +3.9982252060e-10 -5.7095964086e-10 -9.4113776021e-10 1.1711503931e-09 0.0000000000e+00 0.0000e+00 -1.0000e+00
</event>
<event>
 4      1 +2.4041262e-06 9.11880000e+01 7.81860800e-03 1.13011600e-01
       25 -1    0    0    0    0 +0.0000000000e+00 +0.0000000000e+00 +9.9999998245e-15 1.2500000000e+02 1.2500000000e+02 0.0000e+00 0.0000e+00
      -13  1    1    0    0    0 -1.8459044363e+01 +4.6226729401e+00 +1.2531223830e+01 2.2784822988e+01 1.0566000000e-01 0.0000e+00 1.0000e+00
       13  1    1    0    0    0 -3.1506074827e+01 +9.6611298550e+00 +2.2178823337e+01 3.9722557190e+01 1.0566000000e-01 0.0000e+00 -1.0000e+00
       22  1    1    0    0    0 +4.9965119189e+01 -1.4283802795e+01 -3.4710047167e+01 6.2492619822e+01 0.0000000000e+00 0.0000e+00 -1.0000e+00
</event>
<event>
 4      1 +2.4041262e-06 9.11880000e+01 7.81860800e-03 1.13011600e-01
       25 -1    0    0    0    0 +0.0000000000e+00 +0.0000000000e+00 +9.9999998245e-15 1.2500000000e+02 1.2500000000e+02 0.0000e+00 0.0000e+00
      -13  1    1    0    0    0 +5.3573267453e+01 +3.1256021257e+01 -7.6944737404e+00 6.2499999524e+01 1.0566000000e-01 0.0000e+00 1.0000e+00
       13  1    1    0    0    0 -5.3572242691e+01 -3.1255477162e+01 +7.6943218843e+00 6.2498830332e+01 1.0566000000e-01 0.0000e+00 1.0000e+00
       22  1    1    0    0    0 -1.0247611827e-03 -5.4409560616e-04 +1.5185608499e-04 1.1701434872e-03 0.0000000000e+00 0.0000e+00 1.0000e+00
</event>
<event>
 4      1 +2.4041262e-06 9.11880000e+01 7.81860800e-03 1.13011600e-01
       25 -1    0    0    0    0 +0.0000000000e+00 +0.0000000000e+00 +9.9999998245e-15 1.2500000000e+02 1.2500000000e+02 0.0000e+00 0.0000e+00
      -11  1    1    0    0    0 -2.7630560216e+01 +4.4603280800e+01 +2.7037144215e+01 5.9024636242e+01 5.1100000000e-04 0.0000e+00 -1.0000e+00
       11  1    1    0    0    0 -1.5892292954e+00 +2.5638325821e+00 +1.7293618655e+00 3.4770073319e+00 5.1100000000e-04 0.0000e+00 1.0000e+00
       22  1    1    0    0    0 +2.9219789511e+01 -4.7167113382e+01 -2.8766506081e+01 6.2498356426e+01 0.0000000000e+00 0.0000e+00 -1.0000e+00
</event>
<event>
 4      1 +2.4041262e-06 9.11880000e+01 7.81860800e-03 1.13011600e-01
       25 -1    0    0    0    0 +0.0000000000e+00 +0.0000000000e+00 +9.9999998245e-15 1.2500000000e+02 1.2500000000e+02 0.0000e+00 0.0000e+00
      -13  1    1    0    0    0 +2.7559283391e+01 +4.4007122275e+01 -3.4786423345e+01 6.2499978601e+01 1.0566000000e-01 0.0000e+00 1.0000e+00
       13  1    1    0    0    0 -2.7559290625e+01 -4.4007136749e+01 +3.4786437532e+01 6.2499999879e+01 1.0566000000e-01 0.0000e+00 1.0000e+00
       22  1    1    0    0    0 +7.2340659691e-06 +1.4474736170e-05 -1.4187562759e-05 2.1520609533e-05 0.0000000000e+00 0.0000e+00 1.0000e+00
</event>
<event>
 4      1 +2.4041262e-06 9.11880000e+01 7.81860800e-03 1.13011600e-01
       25 -1    0    0    0    0 +0.0000000000e+00 +0.0000000000e+00 +9.9999998245e-15 1.2500000000e+02 1.2500000000e+02 0.0000e+00 0.0000e+00
      -13  1    1    0    0    0 -2.2950849427e+01 +8.5204051426e+00 +5.7768431713e+00 2.5153963391e+01 1.0566000000e-01 0.0000e+00 -1.0000e+00
       13  1    1    0    0    0 -3.4001018486e+01 +1.2813643370e+01 +8.6300340636e+00 3.7346316639e+01 1.0566000000e-01 0.0000e+00 -1.0000e+00
       22  1    1    0    0    0 +5.6951867913e+01 -2.1334048513e+01 -1.4406877235e+01 6.2499719970e+01 0.0000000000e+00 0.0000e+00 -1.0000e+00
</event>
<event>
 5      1 +2.4041262e-06 9.11880000e+01 7.81860800e-03 1.13011600e-01
       25 -1    0    0    0    0 +0.0000000000e+00 +0.0000000000e+00 +9.9999998245e-15 1.2500000000e+02 1.2500000000e+02 0.0000e+00 0.0000e+00
       23  2    1    0    0    0 -2.1142178458e+01 +1.4164527374e+01 -1.6224747549e+01 9.4819410564e+01 8.9888000539e+01 0.0000e+00 0.0000e+00
      -11  1    2    2    0    0 -6.1840484115e+00 +5.2027196330e+01 -1.2996684070e+01 5.3981343164e+01 5.1100000000e-04 0.0000e+00 -1.0000e+00
       11  1    2    2    0    0 -1.4958130046e+01 -3.7862668955e+01 -3.2280634796e+00 4.0838067400e+01 5.1100000000e-04 0.0000e+00 1.0000e+00
       22  1    1    0    0    0 +2.1142178458e+01 -1.4164527374e+01 +1.6224747549e+01 3.0180589436e+01 0.0000000000e+00 0.0000e+00 1.0000e+00
</event>
<event>
 5      1 +2.4041262e-06 9.11880000e+01 7.81860800e-03 1.13011600e-01
       25 -1    0    0    0    0 +0.0000000000e+00 +0.0000000000e+00 +9.9999998245e-15 1.2500000000e+02 1.2500000000e+02 0.0000e+00 0.0000e+00
       23  2    1    0    0    0 +9.4300214953e+00 +9.8138499886e+00 +2.5766820798e+01 9.5859546829e+01 9.1322980170e+01 0.0000e+00 0.0000e+00
      -13  1    2    2    0    0 +2.1720656172e+01 +1.1895294376e+01 +5.7045012546e+01 6.2188660970e+01 1.0566000000e-01 0.0000e+00 -1.0000e+00
       13  1    2    2    0    0 -1.2290634676e+01 -2.0814443874e+00 -3.1278191748e+01 3.3670885859e+01 1.0566000000e-01 0.0000e+00 1.0000e+00
       22  1    1    0    0    0 -9.4300214953e+00 -9.8138499886e+00 -2.5766820798e+01 2.9140453171e+01 0.0000000000e+00 0.0000e+00 -1.0000e+00
</event>
<event>
 4      1 +2.4041262e-06 9.11880000e+01 7.81860800e-03 1.13011600e-01
       25 -1    0    0    0    0 +0.0000000000e+00 +0.0000000000e+00 +9.9999998245e-15 1.2500000000e+02 1.2500000000e+02 0.0000e+00 0.0000e+00
      -13  1    1    0    0    0 -3.1812451712e+00 -2.1388807981e+01 -5.8639716860e+01 6.2499831880e+01 1.0566000000e-01 0.0000e+00 -1.0000e+00
       13  1    1    0    0    0 +3.1354921769e+00 +2.1174661303e+01 +5.8000555335e+01 6.1824535386e+01 1.0566000000e-01 0.0000e+00 -1.0000e+00
       22  1    1    0    0    0 +4.5752994250e-02 +2.1414667754e-01 +6.3916152451e-01 6.7563273336e-01 0.0000000000e+00 0.0000e+00 1.0000e+00
</event>
<event>
 4      1 +2.4041262e-06 9.11880000e+01 7.81860800e-03 1.13011600e-01
       25 -1    0    0    0    0 +0.0000000000e+00 +0.0000000000e+00 +9.9999998245e-15 1.2500000000e+02 1.2500000000e+02 0.0000e+00 0.0000e+00
      -11  1    1    0    0    0 -3.6757708911e+00 +5.1026637383e+00 -8.8936312882e-01 6.3513333959e+00 5.1100000000e-04 0.0000e+00 1.0000e+00
       11  1    1    0    0    0 +1.6680012015e+01 +4.9110891773e+01 +2.5394594368e+01 5.7749354239e+01 5.1100000000e-04 0.0000e+00 -1.0000e+00
       22  1    1    0    0    0 -1.3004241124e+01 -5.4213555512e+01 -2.4505231239e+01 6.0899312365e+01 0.0000000000e+00 0.0000e+00 -1.0000e+00
</event>
<event>
 4      1 +2.4041262e-06 9.11880000e+01 7.81860800e-03 1.13011600e-01
       25 -1    0    0    0    0 +0.0000000000e+00 +0.0000000000e+00 +9.9999998245e-15 1.2500000000e+02 1.2500000000e+02 0.0000e+00 0.0000e+00
      -13  1    1    0    0    0 -2.4657961822e+01 +2.3986427027e+01 -5.2181174582e+01 6.2499999260e+01 1.0566000000e-01 0.0000e+00 -1.0000e+00
       13  1    1    0    0    0 +2.4657960683e+01 -2.3986426487e+01 +5.2181175364e+01 6.2499999256e+01 1.0566000000e-01 0.0000e+00 -1.0000e+00
       22  1    1    0    0    0 +1.1391159589e-06 -5.4008157598e-07 -7.8169517314e-07 1.4833477745e-06 0.0000000000e+00 0.0000e+00 -1.0000e+00
</event>
<event>
 5      1 +2.4041262e-06 9.11880000e+01 7.81860800e-03 1.13011600e-01
       25 -1    0    0    0    0 +0.0000000000e+00 +0.0000000000e+00 +9.9999998245e-15 1.2500000000e+02 1.2500000000e+02 0.0000e+00 0.0000e+00
       23  2    1    0    0    0 -7.6092129408e+00 -2.7376501377e+01 -1.7497160844e+01 9.1630499152e+01 8.5338296140e+01 0.0000e+00 0.0000e+00
      -13  1    2    2    0    0 -3.4283966141e+01 +9.5501318804e-01 +1.8197269692e+01 3.8825947160e+01 1.0566000000e-01 0.0000e+00 1.0000e+00
       13  1    2    2    0    0 +2.6674753201e+01 -2.8331514565e+01 -3.5694430535e+01 5.2804551993e+01 1.0566000000e-01 0.0000e+00 -1.0000e+00
       22  1    1    0    0    0 +7.6092129408e+00 +2.7376501377e+01 +1.7497160844e+01 3.3369500848e+01 0.0000000000e+00 0.0000e+00 1.0000e+00
</event>
<event>
 4      1 +2.4041262e-06 9.11880000e+01 7.81860800e-03 1.13011600e-01
       25 -1    0    0    0    0 +0.0000000000e+00 +0.0000000000e+00 +9.9999998245e-15 1.2500000000e+02 1.2500000000e+02 0.0000e+00 0.0000e+00
      -13  1    1    0    0    0 +2.4240522563e+00 +3.3533648281e+00 +1.0047448996e+01 1.0866622307e+01 1.0566000000e-01 0.0000e+00 -1.0000e+00
       13  1    1    0    0    0 +5.5109814670e+01 -1.6555609657e+00 +2.6201521723e+00 5.5197000974e+01 1.0566000000e-01 0.0000e+00 1.0000e+00
       22  1    1    0    0    0 -5.7533866926e+01 -1.6978038624e+00 -1.2667601168e+01 5.8936376719e+01 0.0000000000e+00 0.0000e+00 1.0000e+00
</event>
<event>
 5      1 +2.4041262e-06 9.11880000e+01 7.81860800e-03 1.13011600e-01
       25 -1    0    0    0    0 +0.0000000000e+00 +0.0000000000e+00 +9.9999998245e-15 1.2500000000e+02 1.2500000000e+02 0.0000e+00 0.0000e+00
       23  2    1    0    0    0 +1.9963028123e+01 +1.5871720850e+01 +2.1837561516e+01 9.1424516272e+01 8.5036045699e+01 0.0000e+00 0.0000e+00
      -13  1    2    2    0    0 +4.7015284800e+01 +1.7481460501e+01 +3.5131199075e+01 6.1239291134e+01 1.0566000000e-01 0.0000e+00 -1.0000e+00
       13  1    2    2    0    0 -2.7052256678e+01 -1.6097396501e+00 -1.3293637559e+01 3.0185225139e+01 1.0566000000e-01 0.0000e+00 1.0000e+00
       22  1    1    0    0    0 -1.9963028123e+01 -1.5871720850e+01 -2.1837561516e+01 3.3575483728e+01 0.0000000000e+00 0.0000e+00 -1.0000e+00
</event>
<event>
 4      1 +2.4041262e-06 9.11880000e+01 7.81860800e-03 1.13011600e-01
       25 -1    0    0    0    0 +0.0000000000e+00 +0.0000000000e+00 +9.9999998245e-15 1.2500000000e+02 1.2500000000e+02 0.0000e+00 0.0000e+00
      -13  1    1    0    0    0 +5.8060310486e+01 +5.2646174761e+00 +1.4704580456e+01 6.0124468407e+01 1.0566000000e-01 0.0000e+00 -1.0000e+00
       13  1    1    0    0    0 -6.0344888074e+01 -5.4353648786e+00 -1.5334312745e+01 6.2499608154e+01 1.0566000000e-01 0.0000e+00 -1.0000e+00
       22  1    1    0    0    0 +2.2845775880e+00 +1.7074740250e-01 +6.2973228920e-01 2.3759234388e+00 0.0000000000e+00 0.0000e+00 -1.0000e+00
</event>
<event>
 4      1 +2.4041262e-06 9.11880000e+01 7.81860800e-03 1.13011600e-01
       25 -1    0    0    0    0 +0.0000000000e+00 +0.0000000000e+00 +9.9999998245e-15 1.2500000000e+02 1.2500000000e+02 0.0000e+00 0.0000e+00
      -11  1    1    0    0    0 -7.5333182972e-01 +1.8600710862e-03 -6.2737577185e-01 9.8036367015e-01 5.1100000000e-04 0.0000e+00 1.0000e+00
       11  1    1    0    0    0 -4.7280089879e+01 +3.3963010443e-02 -3.9360610570e+01 6.1519636842e+01 5.1100000000e-04 0.0000e+00 -1.0000e+00
       22  1    1    0    0    0 +4.8033421709e+01 -3.5823081529e-02 +3.9987986341e+01 6.2499999488e+01 0.0000000000e+00 0.0000e+00 -1.0000e+00
</event>
<event>
 5      1 +2.4041262e-06 9.11880000e+01 7.81860800e-03 1.13011600e-01
       25 -1    0    0    0    0 +0.0000000000e+00 +0.0000000000e+00 +9.9999998245e-15 1.2500000000e+02 1.2500000000e+02 0.0000e+00 0.0000e+00
       23  2    1    0    0    0 +2.6813249190e+01 -5.5160148310e+00 -6.6047789689e+00 9.6839746859e+01 9.2654933569e+01 0.0000e+00 0.0000e+00
      -11  1    2    2    0    0 +5.2391367236e+01 -2.0084299823e+01 +1.7520026270e+01 5.8780828345e+01 5.1100000000e-04 0.0000e+00 1.0000e+00
       11  1    2    2    0    0 -2.5578118045e+01 +1.4568284992e+01 -2.4124805239e+01 3.8058918513e+01 5.1100000000e-04 0.0000e+00 -1.0000e+00
       22  1    1    0    0    0 -2.6813249190e+01 +5.5160148310e+00 +6.6047789689e+00 2.8160253141e+01 0.0000000000e+00 0.0000e+00 1.0000e+00
</event>
<event>
 5      1 +2.4041262e-06 9.11880000e+01 7.81860800e-03 1.13011600e-01
       25 -1    0    0    0    0 +0.0000000000e+00 +0.0000000000e+00 +9.9999998245e-15 1.2500000000e+02 1.2500000000e+02 0.0000e+00 0.0000e+00
       23  2    1    0    0    0 +2.7485099448e+00 -3.2190862252e+00 -3.2770202141e+01 9.1957558029e+01 8.5816021273e+01 0.0000e+00 0.0000e+00
      -13  1    2    2    0    0 +5.8116948454e+00 +1.4146441276e+01 +2.6238420774e+01 3.0370437707e+01 1.0566000000e-01 0.0000e+00 1.0000e+00
       13  1    2    2    0    0 -3.0631849006e+00 -1.7365527502e+01 -5.9008622915e+01 6.1587120322e+01 1.0566000000e-01 0.0000e+00 -1.0000e+00
       22  1    1    0    0    0 -2.7485099448e+00 +3.2190862252e+00 +3.2770202141e+01 3.3042441971e+01 0.0000000000e+00 0.0000e+00 -1.0000e+00
</event>
<event>
 4      1 +2.4041262e-06 9.11880000e+01 7.81860800e-03 1.13011600e-01
       25 -1    0    0    0    0 +0.0000000000e+00 +0.0000000000e+00 +9.9999998245e-15 1.2500000000e+02 1.2500000000e+02 0.0000e+00 0.0000e+00
      -13  1    1    0    0    0 -3.3106430494e-01 +5.6270292590e-01 +3.0605151675e+00 3.1311587764e+00 1.0566000000e-01 0.0000e+00 1.0000e+00
       13  1    1    0    0    0 -2.2077604854e+00 -9.3757698529e-01 +5.9353523133e+01 5.9402063342e+01 1.0566000000e-01 0.0000e+00 -1.0000e+00
       22  1    1    0    0    0 +2.5388247904e+00 +3.7487405939e-01 -6.2414038301e+01 6.2466777881e+01 0.0000000000e+00 0.0000e+00 -1.0000e+00
</event>
<event>
 4      1 +2.4041262e-06 9.11880000e+01 7.81860800e-03 1.13011600e-01
       25 -1    0    0    0    0 +0.0000000000e+00 +0.0000000000e+00 +9.9999998245e-15 1.2500000000e+02 1.2500000000e+02 0.0000e+00 0.0000e+00
      -13  1    1    0    0    0 -3.2633017020e+01 +5.2599625412e+01 +8.6373576551e+00 6.2499996037e+01 1.0566000000e-01 0.0000e+00 1.0000e+00
       13  1    1    0    0    0 +3.2633018675e+01 -5.2599628915e+01 -8.6373585873e+00 6.2499999978e+01 1.0566000000e-01 0.0000e+00 1.0000e+00
       22  1    1    0    0    0 -1.6547474478e-06 +3.5031285438e-06 +9.3216306213e-07 3.9848496439e-06 0.0000000000e+00 0.0000e+00 -1.0000e+00
</event>
<event>
 4      1 +2.4041262e-06 9.11880000e+01 7.81860800e-03 1.13011600e-01
       25 -1    0    0    0    0 +0.0000000000e+00 +0.0000000000e+00 +9.9999998245e-15 1.2500000000e+02 1.2500000000e+02 0.0000e+00 0.0000e+00
      -13  1    1    0    0    0 -2.5472501917e+01 +4.8969761554e+01 -8.2336829793e+00 5.5809413184e+01 1.0566000000e-01 0.0000e+00 -1.0000e+00
       13  1    1    0    0    0 +2.8381000812e+01 -5.4899284914e+01 +9.3107099736e+00 6.2498905394e+01 1.0566000000e-01 0.0000e+00 -1.0000e+00
       22  1    1    0    0    0 -2.9084988948e+00 +5.9295233607e+00 -1.0770269943e+00 6.6916814219e+00 0.0000000000e+00 0.0000e+00 1.0000e+00
</event>
<event>
 4      1 +2.4041262e-06 9.11880000e+01 7.81860800e-03 1.13011600e-01
       25 -1    0    0    0    0 +0.0000000000e+00 +0.0000000000e+00 +9.9999998245e-15 1.2500000000e+02 1.2500000000e+02 0.0000e+00 0.0000e+00
      -13  1    1    0    0    0 +5.1871837210e+01 -6.3792149267e+00 +2.2162762891e+01 5.6767782250e+01 1.0566000000e-01 0.0000e+00 -1.0000e+00
       13  1    1    0    0    0 -5.6939192417e+01 +8.2078064578e+00 -2.4282889264e+01 6.2442850632e+01 1.0566000000e-01 0.0000e+00 -1.0000e+00
       22  1    1    0    0    0 +5.0673552078e+00 -1.8285915312e+00 +2.1201263728e+00 5.7893671179e+00 0.0000000000e+00 0.0000e+00 1.0000e+00
</event>
<event>
 4      1 +2.4041262e-06 9.11880000e+01 7.81860800e-03 1.13011600e-01
       25 -1    0    0    0    0 +0.0000000000e+00 +0.0000000000e+00 +9.9999998245e-15 1.2500000000e+02 1.2500000000e+02 0.0000e+00 0.0000e+00
      -13  1    1    0    0    0 +1.8567987663e+01 +3.0518534310e+00 +5.9595054015e+01 6.2495324644e+01 1.0566000000e-01 0.0000e+00 -1.0000e+00
       13  1    1    0    0    0 -1.8115658147e+01 -3.1365727119e+00 -5.8296832145e+01 6.1127301271e+01 1.0566000000e-01 0.0000e+00 -1.0000e+00
       22  1    1    0    0    0 -4.5232951628e-01 +8.4719280914e-02 -1.2982218697e+00 1.3773740853e+00 0.0000000000e+00 0.0000e+00 -1.0000e+00
</event>
<event>
 4      1 +2.4041262e-06 9.11880000e+01 7.81860800e-03 1.13011600e-01
       25 -1    0    0    0    0 +0.0000000000e+00 +0.0000000000e+00 +9.9999998245e-15 1.2500000000e+02 1.2500000000e+02 0.0000e+00 0.0000e+00
      -13  1    1    0    0    0 -2.8810428998e+01 +2.6916794767e+01 -4.8494166038e+01 6.2499999707e+01 1.0566000000e-01 0.0000e+00 1.0000e+00
       13  1    1    0    0    0 +2.8810429195e+01 -2.6916794894e+01 +4.8494166222e+01 6.2499999995e+01 1.0566000000e-01 0.0000e+00 1.0000e+00
       22  1    1    0    0    0 -1.9623058941e-07 +1.2750982589e-07 -1.8406464919e-07 2.9773309356e-07 0.0000000000e+00 0.0000e+00 1.0000e+00
</event>
<event>
 4      1 +2.4041262e-06 9.11880000e+01 7.81860800e-03 1.13011600e-01
       25 -1    0    0    0    0 +0.0000000000e+00 +0.0000000000e+00 +9.9999998245e-15 1.2500000000e+02 1.2500000000e+02 0.0000e+00 0.0000e+00
      -11  1    1    0    0    0 +4.8841835002e+00 +4.3978122986e+01 +1.2399158245e+01 4.5952907148e+01 5.1100000000e-04 0.0000e+00 1.0000e+00
       11  1    1    0    0    0 +1.2043103316e+00 +1.5982712096e+01 +4.1316536910e+00 1.6551979090e+01 5.1100000000e-04 0.0000e+00 -1.0000e+00
       22  1    1    0    0    0 -6.0884938318e+00 -5.9960835082e+01 -1.6530811936e+01 6.2495113762e+01 0.0000000000e+00 0.0000e+00 1.0000e+00
</event>
<event>
 4      1 +2.4041262e-06 9.11880000e+01 7.81860800e-03 1.13011600e-01
       25 -1    0    0    0    0 +0.0000000000e+00 +0.0000000000e+00 +9.9999998245e-15 1.2500000000e+02 1.2500000000e+02 0.0000e+00 0.0000e+00
      -13  1    1    0    0    0 +1.5975597772e+01 +7.7608270139e+00 +5.9914688278e+01 6.2491849033e+01 1.0566000000e-01 0.0000e+00 1.0000e+00
       13  1    1    0    0    0 -1.5932148498e+01 -7.6386255119e+00 -5.9152593799e+01 6.1735099195e+01 1.0566000000e-01 0.0000e+00 1.0000e+00
       22  1    1    0    0    0 -4.3449274613e-02 -1.2220150199e-01 -7.6209447912e-01 7.7305177165e-01 0.0000000000e+00 0.0000e+00 1.0000e+00
</event>
<event>
 4      1 +2.4041262e-06 9.11880000e+01 7.81860800e-03 1.13011600e-01
       25 -1    0    0    0    0 +0.0000000000e+00 +0.0000000000e+00 +9.9999998245e-15 1.2500000000e+02 1.2500000000e+02 0.0000e+00 0.0000e+00
      -13  1    1    0    0    0 +4.7771195048e+01 -2.7159339488e+01 -2.9773976842e+01 6.2499741270e+01 1.0566000000e-01 0.0000e+00 1.0000e+00
       13  1    1    0    0    0 -2.8329290455e+01 +1.6049369637e+01 +1.7520288756e+01 3.6974351185e+01 1.0566000000e-01 0.0000e+00 1.0000e+00
       22  1    1    0    0    0 -1.9441904593e+01 +1.1109969851e+01 +1.2253688086e+01 2.5525907545e+01 0.0000000000e+00 0.0000e+00 -1.0000e+00
</event>
<event>
 4      1 +2.4041262e-06 9.11880000e+01 7.81860800e-03 1.13011600e-01
       25 -1    0    0    0    0 +0.0000000000e+00 +0.0000000000e+00 +9.9999998245e-15 1.2500000000e+02 1.2500000000e+02 0.0000e+00 0.0000e+00
      -13  1    1    0    0    0 +3.5054857426e+01 -5.1444295983e+01 +5.5569971168e+00 6.2499999995e+01 1.0566000000e-01 0.0000e+00 -1.0000e+00
       13  1    1    0    0    0 -3.5054857429e+01 +5.1444295984e+01 -5.5569971240e+00 6.2499999998e+01 1.0566000000e-01 0.0000e+00 -1.0000e+00
       22  1    1    0    0    0 +2.8619144689e-09 -1.0937438070e-09 +7.1365859936e-09 7.7664463936e-09 0.0000000000e+00 0.0000e+00 -1.0000e+00
</event>
<event>
 4      1 +2.4041262e-06 9.11880000e+01 7.81860800e-03 1.13011600e-01
       25 -1    0    0    0    0 +0.0000000000e+00 +0.0000000000e+00 +9.9999998245e-15 1.2500000000e+02 1.2500000000e+02 0.0000e+00 0.0000e+00
      -13  1    1    0    0    0 -8.3191803593e+00 +5.9671737028e+00 -6.1360316964e+01 6.2208645587e+01 1.0566000000e-01 0.0000e+00 1.0000e+00
       13  1    1    0    0    0 +8.3626032564e+00 -5.9948338032e+00 +6.1647104346e+01 6.2499982431e+01 1.0566000000e-01 0.0000e+00 1.0000e+00
       22  1    1    0    0    0 -4.3422897026e-02 +2.7660100383e-02 -2.8678738237e-01 2.9137198188e-01 0.0000000000e+00 0.0000e+00 1.0000e+00
</event>
<event>
 4      1 +2.4041262e-06 9.11880000e+01 7.81860800e-03 1.13011600e-01
       25 -1    0    0    0    0 +0.0000000000e+00 +0.0000000000e+00 +9.9999998245e-15 1.2500000000e+02 1.2500000000e+02 0.0000e+00 0.0000e+00
      -13  1    1    0    0    0 +2.4585303180e+00 +6.1866660036e+01 -8.5270633925e+00 6.2499999756e+01 1.0566000000e-01 0.0000e+00 1.0000e+00
       13  1    1    0    0    0 -2.4585040791e+00 -6.1866364579e+01 +8.5270316556e+00 6.2499701930e+01 1.0566000000e-01 0.0000e+00 1.0000e+00
       22  1    1    0    0    0 -2.6238896092e-05 -2.9545785411e-04 +3.1736852418e-05 2.9831367891e-04 0.0000000000e+00 0.0000e+00 1.0000e+00
</event>
<event>
 4      1 +2.4041262e-06 9.11880000e+01 7.81860800e-03 1.13011600e-01
       25 -1    0    0    0    0 +0.0000000000e+00 +0.0000000000e+00 +9.9999998245e-15 1.2500000000e+02 1.2500000000e+02 0.0000e+00 0.0000e+00
      -13  1    1    0    0    0 -9.7011194879e+00 +4.8779687910e+01 -3.7850476987e+01 6.2499915553e+01 1.0566000000e-01 0.0000e+00 -1.0000e+00
       13  1    1    0    0    0 +9.0524327896e+00 -4.5642477162e+01 +3.5444044665e+01 5.8493364812e+01 1.0566000000e-01 0.0000e+00 -1.0000e+00
       22  1    1    0    0    0 +6.4868669831e-01 -3.1372107480e+00 +2.4064323226e+00 4.0067196350e+00 0.0000000000e+00 0.0000e+00 1.0000e+00
</event>
<event>
 4      1 +2.4041262e-06 9.11880000e+01 7.81860800e-03 1.13011600e-01
       25 -1    0    0    0    0 +0.0000000000e+00 +0.0000000000e+00 +9.9999998245e-15 1.2500000000e+02 1.2500000000e+02 0.0000e+00 0.0000e+00
      -11  1    1    0    0    0 -1.7304031136e+00 +3.4315349994e+01 -2.2823101379e+01 4.1248412054e+01 5.1100000000e-04 0.0000e+00 1.0000e+00
       11  1    1    0    0    0 -1.1735124229e+01 +1.1017848018e+01 -1.5903018028e+01 2.2627684333e+01 5.1100000000e-04 0.0000e+00 -1.0000e+00
       22  1    1    0    0    0 +1.3465527342e+01 -4.5333198012e+01 +3.8726119407e+01 6.1123903613e+01 0.0000000000e+00 0.0000e+00 1.0000e+00
</event>
<event>
 4      1 +2.4041262e-06 9.11880000e+01 7.81860800e-03 1.13011600e-01
       25 -1    0    0    0    0 +0.0000000000e+00 +0.0000000000e+00 +9.9999998245e-15 1.2500000000e+02 1.2500000000e+02 0.0000e+00 0.0000e+00
      -13  1    1    0    0    0 +5.0656614190e+01 -3.6172958301e+01 +5.6270188359e+00 6.2499999828e+01 1.0566000000e-01 0.0000e+00 -1.0000e+00
       13  1    1    0    0    0 -5.0656614329e+01 +3.6172958401e+01 -5.6270188545e+00 6.2500000000e+01 1.0566000000e-01 0.0000e+00 -1.0000e+00
       22  1    1    0    0    0 +1.3895316563e-07 -1.0047842089e-07 +1.8615191918e-08 1.7248310257e-07 0.0000000000e+00 0.0000e+00 1.0000e+00
</event>
<event>
 4      1 +2.4041262e-06 9.11880000e+01 7.81860800e-03 1.13011600e-01
       25 -1    0    0    0    0 +0.0000000000e+00 +0.0000000000e+00 +9.9999998245e-15 1.2500000000e+02 1.2500000000e+02 0.0000e+00 0.0000e+00
      -13  1    1    0    0    0 +5.1755786939e+01 +1.4818893847e+01 +3.1748665143e+01 6.2499999992e+01 1.0566000000e-01 0.0000e+00 1.0000e+00
       13  1    1    0    0    0 -5.1755786919e+01 -1.4818893821e+01 -3.1748665079e+01 6.2499999936e+01 1.0566000000e-01 0.0000e+00 1.0000e+00
       22  1    1    0    0    0 -2.0378322144e-08 -2.5397072717e-08 -6.4246209807e-08 7.2026819939e-08 0.0000000000e+00 0.0000e+00 -1.0000e+00
</event>
<event>
 4      1 +2.4041262e-06 9.11880000e+01 7.81860800e-03 1.13011600e-01
       25 -1    0    0    0    0 +0.0000000000e+00 +0.0000000000e+00 +9.9999998245e-15 1.2500000000e+02 1.2500000000e+02 0.0000e+00 0.0000e+00
      -13  1    1    0    0    0 -2.3699578632e+01 +5.4087165195e+01 +2.0473088741e+01 6.2499999943e+01 1.0566000000e-01 0.0000e+00 -1.0000e+00
       13  1    1    0    0    0 +2.3699578694e+01 -5.4087165212e+01 -2.0473088764e+01 6.2499999989e+01 1.0566000000e-01 0.0000e+00 -1.0000e+00
       22  1    1    0    0    0 -6.2471672315e-08 +1.6956086296e-08 +2.3316401902e-08 6.8803148923e-08 0.0000000000e+00 0.0000e+00 1.0000e+00
</event>
<event>
 4      1 +2.4041262e-06 9.11880000e+01 7.81860800e-03 1.13011600e-01
       25 -1    0    0    0    0 +0.0000000000e+00 +0.0000000000e+00 +9.9999998245e-15 1.2500000000e+02 1.2500000000e+02 0.0000e+00 0.0000e+00
      -13  1    1    0    0    0 +2.1155364490e+01 +7.4490970649e+00 -5.8049165335e+01 6.2231465143e+01 1.0566000000e-01 0.0000e+00 1.0000e+00
       13  1    1    0    0    0 -2.1271798519e+01 -7.5151371769e+00 +5.8284115704e+01 6.2498128023e+01 1.0566000000e-01 0.0000e+00 1.0000e+00
       22  1    1    0    0    0 +1.1643402922e-01 +6.6040112006e-02 -2.3495036885e-01 2.7040683308e-01 0.0000000000e+00 0.0000e+00 1.0000e+00
</event>
<event>
 4      1 +2.4041262e-06 9.11880000e+01 7.81860800e-03 1.13011600e-01
       25 -1    0    0    0    0 +0.0000000000e+00 +0.0000000000e+00 +9.9999998245e-15 1.2500000000e+02 1.2500000000e+02 0.0000e+00 0.0000e+00
      -13  1    1    0    0    0 +6.0262455160e+01 -1.1735488249e-01 +1.6572915359e+01 6.2499999693e+01 1.0566000000e-01 0.0000e+00 1.0000e+00
       13  1    1    0    0    0 -6.0196236165e+01 +1.1710513798e-01 -1.6554458216e+01 6.2431256699e+01 1.0566000000e-01 0.0000e+00 1.0000e+00
       22  1    1    0    0    0 -6.6218994583e-02 +2.4974450434e-04 -1.8457142322e-02 6.8743608565e-02 0.0000000000e+00 0.0000e+00 1.0000e+00
</event>
<event>
 4      1 +2.4041262e-06 9.11880000e+01 7.81860800e-03 1.13011600e-01
       25 -1    0    0    0    0 +0.0000000000e+00 +0.0000000000e+00 +9.9999998245e-15 1.2500000000e+02 1.2500000000e+02 0.0000e+00 0.0000e+00
      -13  1    1    0    0    0 -3.6399857430e+01 -4.4192820501e+01 +2.5065561634e+01 6.2499988391e+01 1.0566000000e-01 0.0000e+00 1.0000e+00
       13  1    1    0    0    0 +3.6353685452e+01 +4.4134412258e+01 -2.5031617281e+01 6.2418185003e+01 1.0566000000e-01 0.0000e+00 1.0000e+00
       22  1    1    0    0    0 +4.6171978519e-02 +5.8408242911e-02 -3.3944352595e-02 8.1826606390e-02 0.0000000000e+00 0.0000e+00 -1.0000e+00
</event>
<event>
 4      1 +2.4041262e-06 9.11880000e+01 7.81860800e-03 1.13011600e-01
       25 -1    0    0    0    0 +0.0000000000e+00 +0.0000000000e+00 +9.9999998245e-15 1.2500000000e+02 1.2500000000e+02 0.0000e+00 0.0000e+00
      -13  1    1    0    0    0 -2.4031035628e+01 +3.0052707549e-01 +5.7694521803e+01 6.2500000000e+01 1.0566000000e-01 0.0000e+00 -1.0000e+00
       13  1    1    0    0    0 +2.4031035624e+01 -3.0052707539e-01 -5.7694521792e+01 6.2499999988e+01 1.0566000000e-01 0.0000e+00 -1.0000e+00
       22  1    1    0    0    0 +4.2491967297e-09 -9.9306770068e-11 -1.1406007138e-08 1.2172203314e-08 0.0000000000e+00 0.0000e+00 1.0000e+00
</event>
<event>
 4      1 +2.4041262e-06 9.11880000e+01 7.81860800e-03 1.13011600e-01
       25 -1    0    0    0    0 +0.0000000000e+00 +0.0000000000e+00 +9.9999998245e-15 1.2500000000e+02 1.2500000000e+02 0.0000e+00 0.0000e+00
      -11  1    1    0    0    0 -1.9682513210e+01 -4.0179750473e+01 -2.2523051095e+01 5.0090932365e+01 5.1100000000e-04 0.0000e+00 -1.0000e+00
       11  1    1    0    0    0 -4.8758970419e+00 -9.9541892691e+00 -5.5789518521e+00 1.2409067652e+01 5.1100000000e-04 0.0000e+00 -1.0000e+00
       22  1    1    0    0    0 +2.4558410252e+01 +5.0133939742e+01 +2.8102002947e+01 6.2499999982e+01 0.0000000000e+00 0.0000e+00 -1.0000e+00
</event>
<event>
 4      1 +2.4041262e-06 9.11880000e+01 7.81860800e-03 1.13011600e-01
       25 -1    0    0    0    0 +0.0000000000e+00 +0.0000000000e+00 +9.9999998245e-15 1.2500000000e+02 1.2500000000e+02 0.0000e+00 0.0000e+00
      -13  1    1    0    0    0 -4.8829059738e+01 -2.9513682027e+01 +2.5459729096e+01 6.2478344019e+01 1.0566000000e-01 0.0000e+00 -1.0000e+00
       13  1    1    0    0    0 +4.8851909700e+01 +2.9519290282e+01 -2.5457745516e+01 6.2498044376e+01 1.0566000000e-01 0.0000e+00 -1.0000e+00
       22  1    1    0    0    0 -2.2849961767e-02 -5.6082544590e-03 -1.9835794422e-03 2.3611604313e-02 0.0000000000e+00 0.0000e+00 -1.0000e+00
</event>
<event>
 4      1 +2.4041262e-06 9.11880000e+01 7.81860800e-03 1.13011600e-01
       25 -1    0    0    0    0 +0.0000000000e+00 +0.0000000000e+00 +9.9999998245e-15 1.2500000000e+02 1.2500000000e+02 0.0000e+00 0.0000e+00
      -13  1    1    0    0    0 +3.6671150590e+01 -4.1891805173e+01 -2.8399605907e+01 6.2499963247e+01 1.0566000000e-01 0.0000e+00 -1.0000e+00
       13  1    1    0    0    0 -3.6614525350e+01 +4.1831599570e+01 +2.8354950790e+01 6.2406094154e+01 1.0566000000e-01 0.0000e+00 -1.0000e+00
       22  1    1    0    0    0 -5.6625239710e-02 +6.0205602717e-02 +4.4655116848e-02 9.3942598599e-02 0.0000000000e+00 0.0000e+00 1.0000e+00
</event>
<event>
 5      1 +2.4041262e-06 9.11880000e+01 7.81860800e-03 1.13011600e-01
       25 -1    0    0    0    0 +0.0000000000e+00 +0.0000000000e+00 +9.9999998245e-15 1.2500000000e+02 1.2500000000e+02 0.0000e+00 0.0000e+00
       23  2    1    0    0    0 +1.1756774439e+01 -2.5518681292e+01 +9.8874594785e+00 9.5214320638e+01 9.0435502761e+01 0.0000e+00 0.0000e+00
      -13  1    2    2    0    0 +3.4208713128e+01 -3.1363013031e+00 +3.9140307857e+01 5.2077320428e+01 1.0566000000e-01 0.0000e+00 -1.0000e+00
       13  1    2    2    0    0 -2.2451938689e+01 -2.2382379989e+01 -2.9252848379e+01 4.3137000211e+01 1.0566000000e-01 0.0000e+00 1.0000e+00
       22  1    1    0    0    0 -1.1756774439e+01 +2.5518681292e+01 -9.8874594785e+00 2.9785679362e+01 0.0000000000e+00 0.0000e+00 -1.0000e+00
</event>
<event>
 4      1 +2.4041262e-06 9.11880000e+01 7.81860800e-03 1.13011600e-01
       25 -1    0    0    0    0 +0.0000000000e+00 +0.0000000000e+00 +9.9999998245e-15 1.2500000000e+02 1.2500000000e+02 0.0000e+00 0.0000e+00
      -13  1    1    0    0    0 -5.1152635352e+01 +2.0599398129e+01 -2.9416176488e+01 6.2499999280e+01 1.0566000000e-01 0.0000e+00 1.0000e+00
       13  1    1    0    0    0 +5.1144887503e+01 -2.0596408333e+01 +2.9411871464e+01 6.2490646508e+01 1.0566000000e-01 0.0000e+00 1.0000e+00
       22  1    1    0    0    0 +7.7478495914e-03 -2.9897960685e-03 +4.3050241668e-03 9.3542122543e-03 0.0000000000e+00 0.0000e+00 -1.0000e+00
</event>
<event>
 4      1 +2.4041262e-06 9.11880000e+01 7.81860800e-03 1.13011600e-01
       25 -1    0    0    0    0 +0.0000000000e+00 +0.0000000000e+00 +9.9999998245e-15 1.2500000000e+02 1.2500000000e+02 0.0000e+00 0.0000e+00
      -13  1    1    0    0    0 -3.2398817111e+00 +5.6691024784e+00 +3.9508306035e+00 7.6325476026e+00 1.0566000000e-01 0.0000e+00 -1.0000e+00
       13  1    1    0    0    0 +5.8289142032e+01 -1.1306167220e+01 +1.0210252693e+01 6.0247107152e+01 1.0566000000e-01 0.0000e+00 1.0000e+00
       22  1    1    0    0    0 -5.5049260321e+01 +5.6370647417e+00 -1.4161083297e+01 5.7120345245e+01 0.0000000000e+00 0.0000e+00 1.0000e+00
</event>
<event>
 5      1 +2.4041262e-06 9.11880000e+01 7.81860800e-03 1.13011600e-01
       25 -1    0    0    0    0 +0.0000000000e+00 +0.0000000000e+00 +9.9999998245e-15 1.2500000000e+02 1.2500000000e+02 0.0000e+00 0.0000e+00
       23  2    1    0    0    0 -2.5763752732e+01 -3.5447325118e+00 +1.1026923666e+01 9.6752360648e+01 9.2536966463e+01 0.0000e+00 0.0000e+00
      -11  1    2    2    0    0 -6.0680691815e+01 -1.1370084160e+00 +2.5723137027e+00 6.0745830683e+01 5.1100000000e-04 0.0000e+00 1.0000e+00
       11  1    2    2    0    0 +3.4916939083e+01 -2.4077240958e+00 +8.4546099631e+00 3.6006529966e+01 5.1100000000e-04 0.0000e+00 -1.0000e+00
       22  1    1    0    0    0 +2.5763752732e+01 +3.5447325118e+00 -1.1026923666e+01 2.8247639352e+01 0.0000000000e+00 0.0000e+00 1.0000e+00
</event>
<event>
 5      1 +2.4041262e-06 9.11880000e+01 7.81860800e-03 1.13011600e-01
       25 -1    0    0    0    0 +0.0000000000e+00 +0.0000000000e+00 +9.9999998245e-15 1.2500000000e+02 1.2500000000e+02 0.0000e+00 0.0000e+00
       23  2    1    0    0    0 +1.6671772961e+01 +5.3345242890e+00 +2.2466445690e+01 9.6519368950e+01 9.2221701554e+01 0.0000e+00 0.0000e+00
      -13  1    2    2    0    0 +2.9449847752e+01 +4.1964099941e+01 +2.6148883336e+01 5.7550451607e+01 1.0566000000e-01 0.0000e+00 1.0000e+00
       13  1    2    2    0    0 -1.2778074791e+01 -3.6629575652e+01 -3.6824376454e+00 3.8968917343e+01 1.0566000000e-01 0.0000e+00 -1.0000e+00
       22  1    1    0    0    0 -1.6671772961e+01 -5.3345242890e+00 -2.2466445690e+01 2.8480631050e+01 0.0000000000e+00 0.0000e+00 1.0000e+00
</event>
<event>
 4      1 +2.4041262e-06 9.11880000e+01 7.81860800e-03 1.13011600e-01
       25 -1    0    0    0    0 +0.0000000000e+00 +0.0000000000e+00 +9.9999998245e-15 1.2500000000e+02 1.2500000000e+02 0.0000e+00 0.0000e+00
      -13  1    1    0    0    0 +3.6564798747e+01 +2.1346657345e+01 -4.5973628840e+01 6.2500000000e+01 1.0566000000e-01 0.0000e+00 -1.0000e+00
       13  1    1    0    0    0 -3.6564798746e+01 -2.1346657344e+01 +4.5973628840e+01 6.2499999999e+01 1.0566000000e-01 0.0000e+00 -1.0000e+00
       22  1    1    0    0    0 -1.2574229985e-09 -1.0258557805e-09 +1.4172441859e-10 1.6289808134e-09 0.0000000000e+00 0.0000e+00 1.0000e+00
</event>
<event>
 4      1 +2.4041262e-06 9.11880000e+01 7.81860800e-03 1.13011600e-01
       25 -1    0    0    0    0 +0.0000000000e+00 +0.0000000000e+00 +9.9999998245e-15 1.2500000000e+02 1.2500000000e+02 0.0000e+00 0.0000e+00
      -13  1    1    0    0    0 -2.6111609510e+01 +4.0524887906e+01 -3.9775872365e+01 6.2499711019e+01 1.0566000000e-01 0.0000e+00 -1.0000e+00
       13  1    1    0    0    0 +1.2394637261e+01 -1.9018590975e+01 +1.8770219505e+01 2.9456173204e+01 1.0566000000e-01 0.0000e+00 -1.0000e+00
       22  1    1    0    0    0 +1.3716972249e+01 -2.1506296931e+01 +2.1005652860e+01 3.3044115776e+01 0.0000000000e+00 0.0000e+00 -1.0000e+00
</event>
<event>
 5      1 +2.4041262e-06 9.11880000e+01 7.81860800e-03 1.13011600e-01
       25 -1    0    0    0    0 +0.0000000000e+00 +0.0000000000e+00 +9.9999998245e-15 1.2500000000e+02 1.2500000000e+02 0.0000e+00 0.0000e+00
       23  2    1    0    0    0 +3.3224961192e+01 -9.6014408468e-01 +4.9294979820e+00 9.1397621019e+01 8.4996501426e+01 0.0000e+00 0.0000e+00
      -11  1    2    2    0    0 +4.8911395370e+01 -2.8394563882e+01 +1.4486403148e+01 5.8381775680e+01 5.1100000000e-04 0.0000e+00 1.0000e+00
       11  1    2    2    0    0 -1.5686434178e+01 +2.7434419797e+01 -9.5569051657e+00 3.3015845339e+01 5.1100000000e-04 0.0000e+00 -1.0000e+00
       22  1    1    0    0    0 -3.3224961192e+01 +9.6014408468e-01 -4.9294979820e+00 3.3602378981e+01 0.0000000000e+00 0.0000e+00 1.0000e+00
</event>
<event>
 4      1 +2.4041262e-06 9.11880000e+01 7.81860800e-03 1.13011600e-01
       25 -1    0    0    0    0 +0.0000000000e+00 +0.0000000000e+00 +9.9999998245e-15 1.2500000000e+02 1.2500000000e+02 0.0000e+00 0.0000e+00
      -13  1    1    0    0    0 +5.7029910864e+01 +2.5291127988e+01 -3.7598473424e+00 6.2499596031e+01 1.0566000000e-01 0.0000e+00 1.0000e+00
       13  1    1    0    0    0 -5.7030278066e+01 -2.5291294315e+01 +3.7598737220e+00 6.2499999991e+01 1.0566000000e-01 0.0000e+00 1.0000e+00
       22  1    1    0    0    0 +3.6720216455e-04 +1.6632715093e-04 -2.6379594713e-05 4.0397776400e-04 0.0000000000e+00 0.0000e+00 1.0000e+00
</event>
<event>
 4      1 +2.4041262e-06 9.11880000e+01 7.81860800e-03 1.13011600e-01
       25 -1    0    0    0    0 +0.0000000000e+00 +0.0000000000e+00 +9.9999998245e-15 1.2500000000e+02 1.2500000000e+02 0.0000e+00 0.0000e+00
      -13  1    1    0    0    0 +5.6800843168e+01 -2.6209727074e-01 -2.6073633352e+01 6.2499999999e+01 1.0566000000e-01 0.0000e+00 1.0000e+00
       13  1    1    0    0    0 -5.6800843169e+01 +2.6209727066e-01 +2.6073633353e+01 6.2500000000e+01 1.0566000000e-01 0.0000e+00 1.0000e+00
       22  1    1    0    0    0 +1.3290941476e-09 +7.6823817363e-11 -5.0028142331e-10 1.4222076693e-09 0.0000000000e+00 0.0000e+00 -1.0000e+00
</event>
<event>
 4      1 +2.4041262e-06 9.11880000e+01 7.81860800e-03 1.13011600e-01
       25 -1    0    0    0    0 +0.0000000000e+00 +0.0000000000e+00 +9.9999998245e-15 1.2500000000e+02 1.2500000000e+02 0.0000e+00 0.0000e+00
      -11  1    1    0    0    0 -9.8173660285e+00 +2.0008630600e+01 +1.5897110153e+01 2.7375976434e+01 5.1100000000e-04 0.0000e+00 -1.0000e+00
       11  1    1    0    0    0 -1.2670103288e+01 +2.5632165858e+01 +2.0399978813e+01 3.5124045606e+01 5.1100000000e-04 0.0000e+00 1.0000e+00
       22  1    1    0    0    0 +2.2487469316e+01 -4.5640796458e+01 -3.6297088966e+01 6.2499977960e+01 0.0000000000e+00 0.0000e+00 -1.0000e+00
</event>
<event>
 4      1 +2.4041262e-06 9.11880000e+01 7.81860800e-03 1.13011600e-01
       25 -1    0    0    0    0 +0.0000000000e+00 +0.0000000000e+00 +9.9999998245e-15 1.2500000000e+02 1.2500000000e+02 0.0000e+00 0.0000e+00
      -11  1    1    0    0    0 -1.1562125471e+01 +5.7561211631e+00 +8.0412405649e+00 1.5214375647e+01 5.1100000000e-04 0.0000e+00 1.0000e+00
       11  1    1    0    0    0 -3.5942299012e+01 +1.7873644349e+01 +2.4992284591e+01 4.7285624770e+01 5.1100000000e-04 0.0000e+00 -1.0000e+00
       22  1    1    0    0    0 +4.7504424483e+01 -2.3629765512e+01 -3.3033525155e+01 6.2499999583e+01 0.0000000000e+00 0.0000e+00 -1.0000e+00
</event>
<event>
 4      1 +2.4041262e-06 9.11880000e+01 7.81860800e-03 1.13011600e-01
       25 -1    0    0    0    0 +0.0000000000e+00 +0.0000000000e+00 +9.9999998245e-15 1.2500000000e+02 1.2500000000e+02 0.0000e+00 0.0000e+00
      -13  1    1    0    0    0 +5.5024023200e+01 -1.8978144471e+01 -2.2768963989e+01 6.2499999855e+01 1.0566000000e-01 0.0000e+00 -1.0000e+00
       13  1    1    0    0    0 -5.5008834813e+01 +1.8972989047e+01 +2.2762630887e+01 6.2482755619e+01 1.0566000000e-01 0.0000e+00 -1.0000e+00
       22  1    1    0    0    0 -1.5188386800e-02 +5.1554236425e-03 +6.3331024413e-03 1.7244525887e-02 0.0000000000e+00 0.0000e+00 -1.0000e+00
</event>
<event>
 5      1 +2.4041262e-06 9.11880000e+01 7.81860800e-03 1.13011600e-01
       25 -1    0    0    0    0 +0.0000000000e+00 +0.0000000000e+00 +9.9999998245e-15 1.2500000000e+02 1.2500000000e+02 0.0000e+00 0.0000e+00
       23  2    1    0    0    0 -1.0200471119e+01 -1.5420416688e+01 +2.6203660351e+01 9.2930221739e+01 8.7221301497e+01 0.0000e+00 0.0000e+00
      -13  1    2    2    0    0 +2.6632588454e+01 -2.9340471666e+01 -8.4048501841e+00 4.0506921828e+01 1.0566000000e-01 0.0000e+00 -1.0000e+00
       13  1    2    2    0    0 -3.6833059573e+01 +1.3920054978e+01 +3.4608510536e+01 5.2423299911e+01 1.0566000000e-01 0.0000e+00 1.0000e+00
       22  1    1    0    0    0 +1.0200471119e+01 +1.5420416688e+01 -2.6203660351e+01 3.2069778261e+01 0.0000000000e+00 0.0000e+00 1.0000e+00
</event>
<event>
 5      1 +2.4041262e-06 9.11880000e+01 7.81860800e-03 1.13011600e-01
       25 -1    0    0    0    0 +0.0000000000e+00 +0.0000000000e+00 +9.9999998245e-15 1.2500000000e+02 1.2500000000e+02 0.0000e+00 0.0000e+00
       23  2    1    0    0    0 -2.3464690399e+01 +1.6613271183e+01 +7.0248340785e+00 9.5403703462e+01 9.0696890055e+01 0.0000e+00 0.0000e+00
      -13  1    2    2    0    0 +7.2957078716e+00 +2.1045901643e+01 +4.2656913387e+01 4.8122559711e+01 1.0566000000e-01 0.0000e+00 -1.0000e+00
       13  1    2    2    0    0 -3.0760398271e+01 -4.4326304601e+00 -3.5632079309e+01 4.7281143752e+01 1.0566000000e-01 0.0000e+00 1.0000e+00
       22  1    1    0    0    0 +2.3464690399e+01 -1.6613271183e+01 -7.0248340785e+00 2.9596296538e+01 0.0000000000e+00 0.0000e+00 1.0000e+00
</event>
<event>
 4      1 +2.4041262e-06 9.11880000e+01 7.81860800e-03 1.13011600e-01
       25 -1    0    0    0    0 +0.0000000000e+00 +0.0000000000e+00 +9.9999998245e-15 1.2500000000e+02 1.2500000000e+02 0.0000e+00 0.0000e+00
      -13  1    1    0    0    0 +1.4582710934e+00 -2.9439476381e+01 +1.6719061657e+01 3.3887276534e+01 1.0566000000e-01 0.0000e+00 -1.0000e+00
       13  1    1    0    0    0 +2.6769424974e-01 -2.2006887206e+01 +1.8492437218e+01 2.8746410958e+01 1.0566000000e-01 0.0000e+00 1.0000e+00
       22  1    1    0    0    0 -1.7259653431e+00 +5.1446363587e+01 -3.5211498875e+01 6.2366312507e+01 0.0000000000e+00 0.0000e+00 -1.0000e+00
</event>
<event>
 4      1 +2.4041262e-06 9.11880000e+01 7.81860800e-03 1.13011600e-01
       25 -1    0    0    0    0 +0.0000000000e+00 +0.0000000000e+00 +9.9999998245e-15 1.2500000000e+02 1.2500000000e+02 0.0000e+00 0.0000e+00
      -13  1    1    0    0    0 -3.5852293342e+01 +1.2025241502e+01 -4.9756963805e+01 6.2496079734e+01 1.0566000000e-01 0.0000e+00 1.0000e+00
       13  1    1    0    0    0 +3.5854551436e+01 -1.2025988694e+01 +4.9760080101e+01 6.2499999987e+01 1.0566000000e-01 0.0000e+00 1.0000e+00
       22  1    1    0    0    0 -2.2580940331e-03 +7.4719153689e-04 -3.1162962387e-03 3.9202788297e-03 0.0000000000e+00 0.0000e+00 -1.0000e+00
</event>
<event>
 4      1 +2.4041262e-06 9.11880000e+01 7.81860800e-03 1.13011600e-01
       25 -1    0    0    0    0 +0.0000000000e+00 +0.0000000000e+00 +9.9999998245e-15 1.2500000000e+02 1.2500000000e+02 0.0000e+00 0.0000e+00
      -13  1    1    0    0    0 -5.5216906802e+01 +1.6060776914e+01 +2.4482309614e+01 6.2500000000e+01 1.0566000000e-01 0.0000e+00 1.0000e+00
       13  1    1    0    0    0 +5.5216870928e+01 -1.6060766733e+01 -2.4482293826e+01 6.2499959505e+01 1.0566000000e-01 0.0000e+00 1.0000e+00
       22  1    1    0    0    0 +3.5874781654e-05 -1.0180147653e-05 -1.5787291546e-05 4.0495357010e-05 0.0000000000e+00 0.0000e+00 1.0000e+00
</event>
<event>
 4      1 +2.4041262e-06 9.11880000e+01 7.81860800e-03 1.13011600e-01
       25 -1    0    0    0    0 +0.0000000000e+00 +0.0000000000e+00 +9.9999998245e-15 1.2500000000e+02 1.2500000000e+02 0.0000e+00 0.0000e+00
      -13  1    1    0    0    0 +2.4898297994e+01 -4.5172783241e+01 -1.5283263727e+01 5.3796792682e+01 1.0566000000e-01 0.0000e+00 1.0000e+00
       13  1    1    0    0    0 -2.8773395932e+01 +5.2512434518e+01 +1.7906105892e+01 6.2498831067e+01 1.0566000000e-01 0.0000e+00 1.0000e+00
       22  1    1    0    0    0 +3.8750979387e+00 -7.3396512771e+00 -2.6228421650e+00 8.7043762515e+00 0.0000000000e+00 0.0000e+00 1.0000e+00
</event>
<event>
 4      1 +2.4041262e-06 9.11880000e+01 7.81860800e-03 1.13011600e-01
       25 -1    0    0    0    0 +0.0000000000e+00 +0.0000000000e+00 +9.9999998245e-15 1.2500000000e+02 1.2500000000e+02 0.0000e+00 0.0000e+00
      -13  1    1    0    0    0 +1.6610974989e+01 -3.1600500133e+01 +5.1300318806e+01 6.2499999779e+01 1.0566000000e-01 0.0000e+00 -1.0000e+00
       13  1    1    0    0    0 -1.6610975126e+01 +3.1600500161e+01 -5.1300318995e+01 6.2499999985e+01 1.0566000000e-01 0.0000e+00 -1.0000e+00
       22  1    1    0    0    0 +1.3720612666e-07 -2.8382428023e-08 +1.8893850421e-07 2.3522083621e-07 0.0000000000e+00 0.0000e+00 1.0000e+00
</event>
<event>
 4      1 +2.4041262e-06 9.11880000e+01 7.81860800e-03 1.13011600e-01
       25 -1    0    0    0    0 +0.0000000000e+00 +0.0000000000e+00 +9.9999998245e-15 1.2500000000e+02 1.2500000000e+02 0.0000e+00 0.0000e+00
      -13  1    1    0    0    0 +5.8234632083e+01 +1.5964376676e+01 +1.6074827057e+01 6.2486357915e+01 1.0566000000e-01 0.0000e+00 -1.0000e+00
       13  1    1    0    0    0 -5.8246794960e+01 -1.5972078707e+01 -1.6072459259e+01 6.2499052249e+01 1.0566000000e-01 0.0000e+00 -1.0000e+00
       22  1    1    0    0    0 +1.2162876924e-02 +7.7020308873e-03 -2.3677977477e-03 1.4589836224e-02 0.0000000000e+00 0.0000e+00 -1.0000e+00
</event>
<event>
 4      1 +2.4041262e-06 9.11880000e+01 7.81860800e-03 1.13011600e-01
       25 -1    0    0    0    0 +0.0000000000e+00 +0.0000000000e+00 +9.9999998245e-15 1.2500000000e+02 1.2500000000e+02 0.0000e+00 0.0000e+00
      -13  1    1    0    0    0 -4.2919839688e+01 +4.5425894849e+01 +7.8375654102e-01 6.2500000000e+01 1.0566000000e-01 0.0000e+00 1.0000e+00
       13  1    1    0    0    0 +4.2919839688e+01 -4.5425894849e+01 -7.8375654098e-01 6.2500000000e+01 1.0566000000e-01 0.0000e+00 1.0000e+00
       22  1    1    0    0    0 -2.2955876557e-10 +3.5759139146e-10 -3.8468110864e-11 4.2667156649e-10 0.0000000000e+00 0.0000e+00 -1.0000e+00
</event>
<event>
 4      1 +2.4041262e-06 9.11880000e+01 7.81860800e-03 1.13011600e-01
       25 -1    0    0    0    0 +0.0000000000e+00 +0.0000000000e+00 +9.9999998245e-15 1.2500000000e+02 1.2500000000e+02 0.0000e+00 0.0000e+00
      -13  1    1    0    0    0 +4.9286744006e+01 +3.4835422184e+01 +1.6234060602e+01 6.2499965289e+01 1.0566000000e-01 0.0000e+00 -1.0000e+00
       13  1    1    0    0    0 -4.9286771538e+01 -3.4835441569e+01 -1.6234069044e+01 6.2499999997e+01 1.0566000000e-01 0.0000e+00 -1.0000e+00
       22  1    1    0    0    0 +2.7531619868e-05 +1.9384965728e-05 +8.4420819932e-06 3.4713624663e-05 0.0000000000e+00 0.0000e+00 -1.0000e+00
</event>
<event>
 4      1 +2.4041262e-06 9.11880000e+01 7.81860800e-03 1.13011600e-01
       25 -1    0    0    0    0 +0.0000000000e+00 +0.0000000000e+00 +9.9999998245e-15 1.2500000000e+02 1.2500000000e+02 0.0000e+00 0.0000e+00
      -13  1    1    0    0    0 +2.4303396032e+01 -3.7940453102e+01 +4.3313862493e+01 6.2499879106e+01 1.0566000000e-01 0.0000e+00 1.0000e+00
       13  1    1    0    0    0 -2.3842488709e+01 +3.7180523599e+01 -4.2473644124e+01 6.1277052900e+01 1.0566000000e-01 0.0000e+00 1.0000e+00
       22  1    1    0    0    0 -4.6090732243e-01 +7.5992950261e-01 -8.4021836872e-01 1.2230679932e+00 0.0000000000e+00 0.0000e+00 1.0000e+00
</event>
<event>
 4      1 +2.4041262e-06 9.11880000e+01 7.81860800e-03 1.13011600e-01
       25 -1    0    0    0    0 +0.0000000000e+00 +0.0000000000e+00 +9.9999998245e-15 1.2500000000e+02 1.2500000000e+02 0.0000e+00 0.0000e+00
      -13  1    1    0    0    0 -6.0405470945e+01 +1.5558361059e+01 -3.9185650244e+00 6.2499998679e+01 1.0566000000e-01 0.0000e+00 1.0000e+00
       13  1    1    0    0    0 +6.0176513601e+01 -1.5499962539e+01 +3.9046053006e+00 6.2263301667e+01 1.0566000000e-01 0.0000e+00 1.0000e+00
       22  1    1    0    0    0 +2.2895734412e-01 -5.8398520034e-02 +1.3959723804e-02 2.3669965454e-01 0.0000000000e+00 0.0000e+00 -1.0000e+00
</event>
<event>
 4      1 +2.4041262e-06 9.11880000e+01 7.81860800e-03 1.13011600e-01
       25 -1    0    0    0    0 +0.0000000000e+00 +0.0000000000e+00 +9.9999998245e-15 1.2500000000e+02 1.2500000000e+02 0.0000e+00 0.0000e+00
      -13  1    1    0    0    0 +1.5143704392e+01 +5.7880219857e+01 -1.8077255833e+01 6.2499999807e+01 1.0566000000e-01 0.0000e+00 1.0000e+00
       13  1    1    0    0    0 -1.5143704442e+01 -5.7880220035e+01 +1.8077255887e+01 6.2500000000e+01 1.0566000000e-01 0.0000e+00 1.0000e+00
       22  1    1    0    0    0 +5.0433110509e-08 +1.7843560325e-07 -5.3687318233e-08 1.9304168276e-07 0.0000000000e+00 0.0000e+00 -1.0000e+00
</event>
<event>
 4      1 +2.4041262e-06 9.11880000e+01 7.81860800e-03 1.13011600e-01
       25 -1    0    0    0    0 +0.0000000000e+00 +0.0000000000e+00 +9.9999998245e-15 1.2500000000e+02 1.2500000000e+02 0.0000e+00 0.0000e+00
      -13  1    1    0    0    0 -2.2593942554e+01 -1.5839540579e+01 -5.3940840961e+01 6.0588800727e+01 1.0566000000e-01 0.0000e+00 -1.0000e+00
       13  1    1    0    0    0 +2.6707118913e-01 -4.7778343130e+00 +8.2079797461e+00 9.5016379267e+00 1.0566000000e-01 0.0000e+00 1.0000e+00
       22  1    1    0    0    0 +2.2326871365e+01 +2.0617374892e+01 +4.5732861214e+01 5.4909561347e+01 0.0000000000e+00 0.0000e+00 -1.0000e+00
</event>
<event>
 5      1 +2.4041262e-06 9.11880000e+01 7.81860800e-03 1.13011600e-01
       25 -1    0    0    0    0 +0.0000000000e+00 +0.0000000000e+00 +9.9999998245e-15 1.2500000000e+02 1.2500000000e+02 0.0000e+00 0.0000e+00
       23  2    1    0    0    0 -1.9672967412e+01 -2.0035731042e+01 +4.3959606080e+00 9.6578518074e+01 9.2301839194e+01 0.0000e+00 0.0000e+00
      -11  1    2    2    0    0 -2.4159199770e+01 -5.3074103922e+01 -1.1824347879e+01 5.9500778513e+01 5.1100000000e-04 0.0000e+00 -1.0000e+00
       11  1    2    2    0    0 +4.4862323584e+00 +3.3038372879e+01 +1.6220308487e+01 3.7077739561e+01 5.1100000000e-04 0.0000e+00 1.0000e+00
       22  1    1    0    0    0 +1.9672967412e+01 +2.0035731042e+01 -4.3959606080e+00 2.8421481926e+01 0.0000000000e+00 0.0000e+00 -1.0000e+00
</event>
<event>
 4      1 +2.4041262e-06 9.11880000e+01 7.81860800e-03 1.13011600e-01
       25 -1    0    0    0    0 +0.0000000000e+00 +0.0000000000e+00 +9.9999998245e-15 1.2500000000e+02 1.2500000000e+02 0.0000e+00 0.0000e+00
      -13  1    1    0    0    0 -2.9582890389e+01 +5.1432710318e+01 +1.9640236787e+01 6.2499769276e+01 1.0566000000e-01 0.0000e+00 1.0000e+00
       13  1    1    0    0    0 +2.3176528328e+01 -4.0331252454e+01 -1.5297995395e+01 4.8967348479e+01 1.0566000000e-01 0.0000e+00 1.0000e+00
       22  1    1    0    0    0 +6.4063620610e+00 -1.1101457864e+01 -4.3422413915e+00 1.3532882245e+01 0.0000000000e+00 0.0000e+00 -1.0000e+00
</event>
<event>
 4      1 +2.4041262e-06 9.11880000e+01 7.81860800e-03 1.13011600e-01
       25 -1    0    0    0    0 +0.0000000000e+00 +0.0000000000e+00 +9.9999998245e-15 1.2500000000e+02 1.2500000000e+02 0.0000e+00 0.0000e+00
      -13  1    1    0    0    0 -5.1469098906e+01 +3.4532497795e+01 +7.9080647222e+00 6.2482879238e+01 1.0566000000e-01 0.0000e+00 -1.0000e+00
       13  1    1    0    0    0 +5.1483386174e+01 -3.4541649367e+01 -7.9103709170e+00 6.2499997800e+01 1.0566000000e-01 0.0000e+00 -1.0000e+00
       22  1    1    0    0    0 -1.4287268248e-02 +9.1515719221e-03 +2.3061947262e-03 1.7122962266e-02 0.0000000000e+00 0.0000e+00 1.0000e+00
</event>
<event>
 4      1 +2.4041262e-06 9.11880000e+01 7.81860800e-03 1.13011600e-01
       25 -1    0    0    0    0 +0.0000000000e+00 +0.0000000000e+00 +9.9999998245e-15 1.2500000000e+02 1.2500000000e+02 0.0000e+00 0.0000e+00
      -11  1    1    0    0    0 +7.9656960429e+00 -2.2620688340e+01 -1.2985217057e+01 2.7272031767e+01 5.1100000000e-04 0.0000e+00 1.0000e+00
       11  1    1    0    0    0 +1.0282970528e+01 -2.9182050560e+01 -1.6842789538e+01 3.5227987701e+01 5.1100000000e-04 0.0000e+00 -1.0000e+00
       22  1    1    0    0    0 -1.8248666571e+01 +5.1802738899e+01 +2.9828006596e+01 6.2499980532e+01 0.0000000000e+00 0.0000e+00 -1.0000e+00
</event>
<event>
 4      1 +2.4041262e-06 9.11880000e+01 7.81860800e-03 1.13011600e-01
       25 -1    0    0    0    0 +0.0000000000e+00 +0.0000000000e+00 +9.9999998245e-15 1.2500000000e+02 1.2500000000e+02 0.0000e+00 0.0000e+00
      -13  1    1    0    0    0 -3.5348996826e+01 -1.2448119641e+01 +4.9995793133e+01 6.2482779661e+01 1.0566000000e-01 0.0000e+00 1.0000e+00
       13  1    1    0    0    0 +3.5358695213e+01 +1.2451933285e+01 -5.0009504967e+01 6.2499997766e+01 1.0566000000e-01 0.0000e+00 1.0000e+00
       22  1    1    0    0    0 -9.6983873531e-03 -3.8136435714e-03 +1.3711834409e-02 1.7222572323e-02 0.0000000000e+00 0.0000e+00 1.0000e+00
</event>
<event>
 4      1 +2.4041262e-06 9.11880000e+01 7.81860800e-03 1.13011600e-01
       25 -1    0    0    0    0 +0.0000000000e+00 +0.0000000000e+00 +9.9999998245e-15 1.2500000000e+02 1.2500000000e+02 0.0000e+00 0.0000e+00
      -13  1    1    0    0    0 -2.9874470478e+01 -5.4163781282e+01 +8.9453234803e+00 6.2499833322e+01 1.0566000000e-01 0.0000e+00 1.0000e+00
       13  1    1    0    0    0 +2.9874527009e+01 +5.4163938903e+01 -8.9453361119e+00 6.2499998750e+01 1.0566000000e-01 0.0000e+00 1.0000e+00
       22  1    1    0    0    0 -5.6531523136e-05 -1.5762148666e-04 +1.2631626943e-05 1.6792827089e-04 0.0000000000e+00 0.0000e+00 -1.0000e+00
</event>
<event>
 5      1 +2.4041262e-06 9.11880000e+01 7.81860800e-03 1.13011600e-01
       25 -1    0    0    0    0 +0.0000000000e+00 +0.0000000000e+00 +9.9999998245e-15 1.2500000000e+02 1.2500000000e+02 0.0000e+00 0.0000e+00
       23  2    1    0    0    0 -8.5723025023e+00 +1.8237356489e+01 -2.0038039922e+01 9.6581544979e+01 9.2305938296e+01 0.0000e+00 0.0000e+00
      -11  1    2    2    0    0 -2.7904951692e+01 -3.0785309092e+01 -1.2204034259e+01 4.3305427343e+01 5.1100000000e-04 0.0000e+00 -1.0000e+00
       11  1    2    2    0    0 +1.9332649190e+01 +4.9022665581e+01 -7.8340056628e+00 5.3276117636e+01 5.1100000000e-04 0.0000e+00 1.0000e+00
       22  1    1    0    0    0 +8.5723025023e+00 -1.8237356489e+01 +2.0038039922e+01 2.8418455021e+01 0.0000000000e+00 0.0000e+00 1.0000e+00
</event>
<event>
 4      1 +2.4041262e-06 9.11880000e+01 7.81860800e-03 1.13011600e-01
       25 -1    0    0    0    0 +0.0000000000e+00 +0.0000000000e+00 +9.9999998245e-15 1.2500000000e+02 1.2500000000e+02 0.0000e+00 0.0000e+00
      -13  1    1    0    0    0 -4.2384284169e+01 +3.9921188198e+01 +2.2347052376e+01 6.2366102376e+01 1.0566000000e-01 0.0000e+00 1.0000e+00
       13  1    1    0    0    0 +3.2201004615e+00 -1.3565871920e+00 -7.2769686787e-01 3.5707257748e+00 1.0566000000e-01 0.0000e+00 1.0000e+00
       22  1    1    0    0    0 +3.9164183708e+01 -3.8564601006e+01 -2.1619355508e+01 5.9063171849e+01 0.0000000000e+00 0.0000e+00 1.0000e+00
</event>
<event>
 4      1 +2.4041262e-06 9.11880000e+01 7.81860800e-03 1.13011600e-01
       25 -1    0    0    0    0 +0.0000000000e+00 +0.0000000000e+00 +9.9999998245e-15 1.2500000000e+02 1.2500000000e+02 0.0000e+00 0.0000e+00
      -13  1    1    0    0    0 +2.6611220434e+01 +5.2491957482e+01 -2.0506840949e+01 6.2322582929e+01 1.0566000000e-01 0.0000e+00 1.0000e+00
       13  1    1    0    0    0 -2.5723790765e+01 -5.2170380583e+01 +2.0646628075e+01 6.1723224450e+01 1.0566000000e-01 0.0000e+00 1.0000e+00
       22  1    1    0    0    0 -8.8742966823e-01 -3.2157689827e-01 -1.3978712592e-01 9.5419262108e-01 0.0000000000e+00 0.0000e+00 1.0000e+00
</event>
<event>
 4      1 +2.4041262e-06 9.11880000e+01 7.81860800e-03 1.13011600e-01
       25 -1    0    0    0    0 +0.0000000000e+00 +0.0000000000e+00 +9.9999998245e-15 1.2500000000e+02 1.2500000000e+02 0.0000e+00 0.0000e+00
      -13  1    1    0    0    0 +8.3731172543e+00 -5.4798855574e+01 +2.8865466757e+01 6.2499999999e+01 1.0566000000e-01 0.0000e+00 1.0000e+00
       13  1    1    0    0    0 -8.3731172551e+00 +5.4798855573e+01 -2.8865466754e+01 6.2499999997e+01 1.0566000000e-01 0.0000e+00 1.0000e+00
       22  1    1    0    0    0 +8.1336428841e-10 +1.0397361926e-09 -3.0072665803e-09 3.2842449819e-09 0.0000000000e+00 0.0000e+00 1.0000e+00
</event>
<event>
 4      1 +2.4041262e-06 9.11880000e+01 7.81860800e-03 1.13011600e-01
       25 -1    0    0    0    0 +0.0000000000e+00 +0.0000000000e+00 +9.9999998245e-15 1.2500000000e+02 1.2500000000e+02 0.0000e+00 0.0000e+00
      -13  1    1    0    0    0 +4.8811123045e+00 -5.5081834971e+00 +4.7137777259e+01 4.7708977685e+01 1.0566000000e-01 0.0000e+00 1.0000e+00
       13  1    1    0    0    0 -1.0892097425e+00 +4.5073246348e+00 +1.4656247955e+01 1.5372674504e+01 1.0566000000e-01 0.0000e+00 -1.0000e+00
       22  1    1    0    0    0 -3.7919025620e+00 +1.0008588623e+00 -6.1794025215e+01 6.1918347812e+01 0.0000000000e+00 0.0000e+00 1.0000e+00
</event>
<event>
 4      1 +2.4041262e-06 9.11880000e+01 7.81860800e-03 1.13011600e-01
       25 -1    0    0    0    0 +0.0000000000e+00 +0.0000000000e+00 +9.9999998245e-15 1.2500000000e+02 1.2500000000e+02 0.0000e+00 0.0000e+00
      -13  1    1    0    0    0 -5.2707244654e+01 +2.7466916216e+01 -1.9331972350e+01 6.2499771555e+01 1.0566000000e-01 0.0000e+00 1.0000e+00
       13  1    1    0    0    0 +5.2113143753e+01 -2.7183425391e+01 +1.9127701237e+01 6.1810990014e+01 1.0566000000e-01 0.0000e+00 1.0000e+00
       22  1    1    0    0    0 +5.9410090044e-01 -2.8349082521e-01 +2.0427111314e-01 6.8923843156e-01 0.0000000000e+00 0.0000e+00 1.0000e+00
</event>
<event>
 4      1 +2.4041262e-06 9.11880000e+01 7.81860800e-03 1.13011600e-01
       25 -1    0    0    0    0 +0.0000000000e+00 +0.0000000000e+00 +9.9999998245e-15 1.2500000000e+02 1.2500000000e+02 0.0000e+00 0.0000e+00
      -13  1    1    0    0    0 -8.5662769015e+00 -3.6010899583e+01 -4.0408064018e+01 5.4799532757e+01 1.0566000000e-01 0.0000e+00 1.0000e+00
       13  1    1    0    0    0 +1.2607955471e+01 +3.6232163205e+01 +4.8089984134e+01 6.1517379087e+01 1.0566000000e-01 0.0000e+00 1.0000e+00
       22  1    1    0    0    0 -4.0416785691e+00 -2.2126362252e-01 -7.6819201164e+00 8.6830881558e+00 0.0000000000e+00 0.0000e+00 -1.0000e+00
</event>
<event>
 5      1 +2.4041262e-06 9.11880000e+01 7.81860800e-03 1.13011600e-01
       25 -1    0    0    0    0 +0.0000000000e+00 +0.0000000000e+00 +9.9999998245e-15 1.2500000000e+02 1.2500000000e+02 0.0000e+00 0.0000e+00
       23  2    1    0    0    0 +1.6199191804e+01 +1.9122788749e+01 +1.5237095915e+01 9.5669743326e+01 9.1062812561e+01 0.0000e+00 0.0000e+00
      -13  1    2    2    0    0 +1.7659694000e+01 -2.3838250396e+01 -2.3467319259e+01 3.7826620406e+01 1.0566000000e-01 0.0000e+00 1.0000e+00
       13  1    2    2    0    0 -1.4605021955e+00 +4.2961039145e+01 +3.8704415174e+01 5.7843122920e+01 1.0566000000e-01 0.0000e+00 -1.0000e+00
       22  1    1    0    0    0 -1.6199191804e+01 -1.9122788749e+01 -1.5237095915e+01 2.9330256674e+01 0.0000000000e+00 0.0000e+00 -1.0000e+00
</event>
<event>
 4      1 +2.4041262e-06 9.11880000e+01 7.81860800e-03 1.13011600e-01
       25 -1    0    0    0    0 +0.0000000000e+00 +0.0000000000e+00 +9.9999998245e-15 1.2500000000e+02 1.2500000000e+02 0.0000e+00 0.0000e+00
      -13  1    1    0    0    0 -2.2423710853e+01 -2.3409833565e+01 +5.3435902906e+01 6.2499999995e+01 1.0566000000e-01 0.0000e+00 -1.0000e+00
       13  1    1    0    0    0 +2.2423710855e+01 +2.3409833564e+01 -5.3435902911e+01 6.2500000000e+01 1.0566000000e-01 0.0000e+00 -1.0000e+00
       22  1    1    0    0    0 -2.3368202833e-09 +7.2524395896e-10 +4.5487311485e-09 5.1650423907e-09 0.0000000000e+00 0.0000e+00 -1.0000e+00
</event>
<event>
 4      1 +2.4041262e-06 9.11880000e+01 7.81860800e-03 1.13011600e-01
       25 -1    0    0    0    0 +0.0000000000e+00 +0.0000000000e+00 +9.9999998245e-15 1.2500000000e+02 1.2500000000e+02 0.0000e+00 0.0000e+00
      -13  1    1    0    0    0 -6.4370979944e-01 +5.0947135578e+01 -3.5585270871e+01 6.2147788802e+01 1.0566000000e-01 0.0000e+00 -1.0000e+00
       13  1    1    0    0    0 +8.7935133131e-01 -5.1235160457e+01 +3.5711683738e+01 6.2459190238e+01 1.0566000000e-01 0.0000e+00 -1.0000e+00
       22  1    1    0    0    0 -2.3564153186e-01 +2.8802487892e-01 -1.2641286624e-01 3.9302096022e-01 0.0000000000e+00 0.0000e+00 1.0000e+00
</event>
<event>
 4      1 +2.4041262e-06 9.11880000e+01 7.81860800e-03 1.13011600e-01
       25 -1    0    0    0    0 +0.0000000000e+00 +0.0000000000e+00 +9.9999998245e-15 1.2500000000e+02 1.2500000000e+02 0.0000e+00 0.0000e+00
      -13  1    1    0    0    0 -2.0827368522e+01 -5.2312189349e+01 +2.7127373014e+01 6.2499999718e+01 1.0566000000e-01 0.0000e+00 1.0000e+00
       13  1    1    0    0    0 +2.0827368759e+01 +5.2312189510e+01 -2.7127373119e+01 6.2499999977e+01 1.0566000000e-01 0.0000e+00 1.0000e+00
       22  1    1    0    0    0 -2.3785290364e-07 -1.6061615738e-07 +1.0452281107e-07 3.0544487525e-07 0.0000000000e+00 0.0000e+00 -1.0000e+00
</event>
<event>
 4      1 +2.4041262e-06 9.11880000e+01 7.81860800e-03 1.13011600e-01
       25 -1    0    0    0    0 +0.0000000000e+00 +0.0000000000e+00 +9.9999998245e-15 1.2500000000e+02 1.2500000000e+02 0.0000e+00 0.0000e+00
      -13  1    1    0    0    0 -2.4709804788e-01 +4.5353311279e+01 -4.3002963889e+01 6.2499999749e+01 1.0566000000e-01 0.0000e+00 1.0000e+00
       13  1    1    0    0    0 +2.4709804794e-01 -4.5353311461e+01 +4.3002964061e+01 6.2500000000e+01 1.0566000000e-01 0.0000e+00 1.0000e+00
       22  1    1    0    0    0 -5.8334585595e-11 +1.8280516688e-07 -1.7186704805e-07 2.5091037174e-07 0.0000000000e+00 0.0000e+00 -1.0000e+00
</event>
<event>
 4      1 +2.4041262e-06 9.11880000e+01 7.81860800e-03 1.13011600e-01
       25 -1    0    0    0    0 +0.0000000000e+00 +0.0000000000e+00 +9.9999998245e-15 1.2500000000e+02 1.2500000000e+02 0.0000e+00 0.0000e+00
      -11  1    1    0    0    0 -4.0153251134e+01 -4.3041291857e+01 -9.1350240741e+00 5.9567483130e+01 5.1100000000e-04 0.0000e+00 -1.0000e+00
       11  1    1    0    0    0 -1.9774277037e+00 -2.1180992053e+00 -4.5065670766e-01 2.9325170581e+00 5.1100000000e-04 0.0000e+00 1.0000e+00
       22  1    1    0    0    0 +4.2130678837e+01 +4.5159391062e+01 +9.5856807817e+00 6.2499999812e+01 0.0000000000e+00 0.0000e+00 -1.0000e+00
</event>
<event>
 5      1 +2.4041262e-06 9.11880000e+01 7.81860800e-03 1.13011600e-01
       25 -1    0    0    0    0 +0.0000000000e+00 +0.0000000000e+00 +9.9999998245e-15 1.2500000000e+02 1.2500000000e+02 0.0000e+00 0.0000e+00
       23  2    1    0    0    0 +9.2046932859e+00 +2.1209425562e+01 +2.4003660288e+01 9.1672206518e+01 8.5399365510e+01 0.0000e+00 0.0000e+00
      -11  1    2    2    0    0 +4.1796262423e+01 -1.6775990037e+00 +2.9894097723e+01 5.1413995856e+01 5.1100000000e-04 0.0000e+00 -1.0000e+00
       11  1    2    2    0    0 -3.2591569137e+01 +2.2887024566e+01 -5.8904374357e+00 4.0258210662e+01 5.1100000000e-04 0.0000e+00 1.0000e+00
       22  1    1    0    0    0 -9.2046932859e+00 -2.1209425562e+01 -2.4003660288e+01 3.3327793482e+01 0.0000000000e+00 0.0000e+00 -1.0000e+00
</event>
<event>
 4      1 +2.4041262e-06 9.11880000e+01 7.81860800e-03 1.13011600e-01
       25 -1    0    0    0    0 +0.0000000000e+00 +0.0000000000e+00 +9.9999998245e-15 1.2500000000e+02 1.2500000000e+02 0.0000e+00 0.0000e+00
      -11  1    1    0    0    0 +5.2789672801e+01 +3.3727416967e+00 -1.5426656064e+01 5.5100877113e+01 5.1100000000e-04 0.0000e+00 -1.0000e+00
       11  1    1    0    0    0 +7.1077326117e+00 +2.6357306120e-01 -2.0430379666e+00 7.4002255393e+00 5.1100000000e-04 0.0000e+00 1.0000e+00
       22  1    1    0    0    0 -5.9897405413e+01 -3.6363147579e+00 +1.7469694030e+01 6.2498897348e+01 0.0000000000e+00 0.0000e+00 -1.0000e+00
</event>
<event>
 4      1 +2.4041262e-06 9.11880000e+01 7.81860800e-03 1.13011600e-01
       25 -1    0    0    0    0 +0.0000000000e+00 +0.0000000000e+00 +9.9999998245e-15 1.2500000000e+02 1.2500000000e+02 0.0000e+00 0.0000e+00
      -13  1    1    0    0    0 +5.4864488446e+01 -2.8268020293e+01 -9.7977234627e+00 6.2491596338e+01 1.0566000000e-01 0.0000e+00 -1.0000e+00
       13  1    1    0    0    0 -5.4871886176e+01 +2.8271753168e+01 +9.7991259708e+00 6.2499999628e+01 1.0566000000e-01 0.0000e+00 -1.0000e+00
       22  1    1    0    0    0 +7.3977297957e-03 -3.7328752089e-03 -1.4025081367e-03 8.4040343008e-03 0.0000000000e+00 0.0000e+00 -1.0000e+00
</event>
<event>
 4      1 +2.4041262e-06 9.11880000e+01 7.81860800e-03 1.13011600e-01
       25 -1    0    0    0    0 +0.0000000000e+00 +0.0000000000e+00 +9.9999998245e-15 1.2500000000e+02 1.2500000000e+02 0.0000e+00 0.0000e+00
      -13  1    1    0    0    0 +4.0808323839e+01 -4.2377763705e+01 +2.0914617502e+01 6.2438982539e+01 1.0566000000e-01 0.0000e+00 -1.0000e+00
       13  1    1    0    0    0 -4.0846490450e+01 +4.2421418523e+01 -2.0933736817e+01 6.2499960262e+01 1.0566000000e-01 0.0000e+00 -1.0000e+00
       22  1    1    0    0    0 +3.8166610395e-02 -4.3654818417e-02 +1.9119314486e-02 6.1057198646e-02 0.0000000000e+00 0.0000e+00 -1.0000e+00
</event>
<event>
 4      1 +2.4041262e-06 9.11880000e+01 7.81860800e-03 1.13011600e-01
       25 -1    0    0    0    0 +0.0000000000e+00 +0.0000000000e+00 +9.9999998245e-15 1.2500000000e+02 1.2500000000e+02 0.0000e+00 0.0000e+00
      -13  1    1    0    0    0 -3.9500635439e+01 -4.5239628480e+01 +1.7300712230e+01 6.2499999942e+01 1.0566000000e-01 0.0000e+00 1.0000e+00
       13  1    1    0    0    0 +3.9500635470e+01 +4.5239628528e+01 -1.7300712240e+01 6.2500000000e+01 1.0566000000e-01 0.0000e+00 1.0000e+00
       22  1    1    0    0    0 -3.0923773871e-08 -4.8080720424e-08 +9.9549661767e-09 5.8027035238e-08 0.0000000000e+00 0.0000e+00 -1.0000e+00
</event>
<event>
 4      1 +2.4041262e-06 9.11880000e+01 7.81860800e-03 1.13011600e-01
       25 -1    0    0    0    0 +0.0000000000e+00 +0.0000000000e+00 +9.9999998245e-15 1.2500000000e+02 1.2500000000e+02 0.0000e+00 0.0000e+00
      -13  1    1    0    0    0 +3.7130209509e+01 +6.7907205355e+00 -4.4951622649e+01 5.8697750267e+01 1.0566000000e-01 0.0000e+00 1.0000e+00
       13  1    1    0    0    0 -3.7431492462e+01 -7.1352518770e+00 +4.9087036376e+01 6.2141586329e+01 1.0566000000e-01 0.0000e+00 1.0000e+00
       22  1    1    0    0    0 +3.0128295303e-01 +3.4453134151e-01 -4.1354137270e+00 4.1606634034e+00 0.0000000000e+00 0.0000e+00 -1.0000e+00
</event>
<event>
 4      1 +2.4041262e-06 9.11880000e+01 7.81860800e-03 1.13011600e-01
       25 -1    0    0    0    0 +0.0000000000e+00 +0.0000000000e+00 +9.9999998245e-15 1.2500000000e+02 1.2500000000e+02 0.0000e+00 0.0000e+00
      -11  1    1    0    0    0 -1.9221548660e+01 +3.6584307569e+01 +2.7086894228e+01 4.9412339880e+01 5.1100000000e-04 0.0000e+00 -1.0000e+00
       11  1    1    0    0    0 -8.3974326260e+00 -2.1936522263e+01 +1.1312614926e+01 2.6071116977e+01 5.1100000000e-04 0.0000e+00 1.0000e+00
       22  1    1    0    0    0 +2.7618981286e+01 -1.4647785307e+01 -3.8399509153e+01 4.9516543144e+01 0.0000000000e+00 0.0000e+00 -1.0000e+00
</event>
<event>
 4      1 +2.4041262e-06 9.11880000e+01 7.81860800e-03 1.13011600e-01
       25 -1    0    0    0    0 +0.0000000000e+00 +0.0000000000e+00 +9.9999998245e-15 1.2500000000e+02 1.2500000000e+02 0.0000e+00 0.0000e+00
      -13  1    1    0    0    0 +5.1011071887e+01 +1.2887890189e+01 +3.3734424680e+01 6.2499997929e+01 1.0566000000e-01 0.0000e+00 1.0000e+00
       13  1    1    0    0    0 -5.1011072184e+01 -1.2887892503e+01 -3.3734426029e+01 6.2499999377e+01 1.0566000000e-01 0.0000e+00 1.0000e+00
       22  1    1    0    0    0 +2.9720473034e-07 +2.3135700755e-06 +1.3487187418e-06 2.6944348926e-06 0.0000000000e+00 0.0000e+00 1.0000e+00
</event>
</LesHouchesEvents>
