<LesHouchesEvents version="3.0">
<header>
<!--
#*********************************************************************
#                                                                    *
#                        MadGraph5_aMC@NLO                           *
#                                                                    *
#                           Going Beyond                             *
#                                                                    *
#                   http://madgraph.hep.uiuc.edu                     *
#                   http://madgraph.phys.ucl.ac.be                   *
#                   http://amcatnlo.cern.ch                          *
#                                                                    *
#                     The MadGraph5_aMC@NLO team                     *
#                                                                    *
#....................................................................*
#                                                                    *
# This file contains all the information necessary to reproduce      *
# the events generated:                                              *
#                                                                    *
# 1. software version                                                *
# 2. proc_card          : code generation info including model       *
# 3. param_card         : model primary parameters in the LH format  *
# 4. run_card           : running parameters (collider and cuts)     *
# 5. pythia_card        : present only if pythia has been run        *
# 6. pgs_card           : present only if pgs has been run           *
# 7. delphes_cards      : present only if delphes has been run       *
#                                                                    *
#                                                                    *
#*********************************************************************
-->
<MGVersion>
2.9.21
</MGVersion>
<MG5ProcCard>
<![CDATA[
#************************************************************
#*                     MadGraph5_aMC@NLO                    *
#*                                                          *
#*                *                       *                 *
#*                  *        * *        *                   *
#*                    * * * * 5 * * * *                     *
#*                  *        * *        *                   *
#*                *                       *                 *
#*                                                          *
#*                                                          *
#*         VERSION 2.9.21                2024-09-26         *
#*                                                          *
#*    The MadGraph5_aMC@NLO Development Team - Find us at   *
#*    https://server06.fynu.ucl.ac.be/projects/madgraph     *
#*                                                          *
#************************************************************
#*                                                          *
#*               Command File for MadGraph5_aMC@NLO         *
#*                                                          *
#*     run as ./bin/mg5_aMC  filename                       *
#*                                                          *
#************************************************************
set group_subprocesses Auto
set ignore_six_quark_processes False
set low_mem_multicore_nlo_generation False
set complex_mass_scheme False
set gauge unitary
set loop_optimized_output True
set loop_color_flows False
set max_npoint_for_channel 0
set default_unset_couplings 99
set max_t_for_channel 99
set zerowidth_tchannel True
import model sm
define p = g u c d s u~ c~ d~ s~
define j = g u c d s u~ c~ d~ s~
define l+ = e+ mu+
define l- = e- mu-
define vl = ve vm vt
define vl~ = ve~ vm~ vt~
import model HEFT_UFO_Real
generate h > l+ l- a NP=0
output pure_sm_all_events
]]>
</MG5ProcCard>
<MGProcCard>
#*********************************************************************
#                        MadGraph/MadEvent                           *
#                   http://madgraph.hep.uiuc.edu                     *
#                                                                    *
#                          proc_card.dat                             *
#*********************************************************************
#                                                                    *
#            This Files is generated by MADGRAPH 5                   *
#                                                                    *
# WARNING: This Files is generated for MADEVENT (compatibility issue)*
#          This files is NOT a valid MG4 proc_card.dat               *
#          Running this in MG4 will NEVER reproduce the result of MG5*
#                                                                    *
#*********************************************************************
#*********************************************************************
# Process(es) requested : mg2 input                                  *
#*********************************************************************
# Begin PROCESS # This is TAG. Do not modify this line
h > l+ l- a           #Process
# Be carefull the coupling are here in MG5 convention
NP=0
          
end_coup           # End the couplings input

done               # this tells MG there are no more procs
# End PROCESS  # This is TAG. Do not modify this line
#*********************************************************************
# Model information                                                  *
#*********************************************************************
# Begin MODEL  # This is TAG. Do not modify this line
HEFT_UFO_Real
# End   MODEL  # This is TAG. Do not modify this line
#*********************************************************************
# Start multiparticle definitions                                    *
#*********************************************************************
# Begin MULTIPARTICLES # This is TAG. Do not modify this line

# End  MULTIPARTICLES # This is TAG. Do not modify this line
</MGProcCard>
<MGRunCard>
<![CDATA[
#*********************************************************************
#                       MadGraph5_aMC@NLO                            *
#                                                                    *
#                     run_card.dat MadEvent                          *
#                                                                    *
#  This file is used to set the parameters of the run.               *
#                                                                    *
#  Some notation/conventions:                                        *
#                                                                    *
#   Lines starting with a '# ' are info or comments                  *
#                                                                    *
#   mind the format:   value    = variable     ! comment             *
#                                                                    *
#   To display more options, you can type the command:               *
#      update to_full                                                *
#*********************************************************************
#                                                                    
#*********************************************************************
# Tag name for the run (one word)                                    *
#*********************************************************************
  tag_1     = run_tag ! name of the run 
#*********************************************************************
# Number of events and rnd seed                                      *
# Warning: Do not generate more than 1M events in a single run       *
#*********************************************************************
  10000 = nevents ! Number of unweighted events requested 
 21 = iseed   ! rnd seed (0=assigned automatically=default))
#*********************************************************************
# Collider type and energy                                           *
# lpp: 0=No PDF, 1=proton, -1=antiproton, 2=photon from proton,      *
#                3=photon from electron, 4=photon from muon          *
#*********************************************************************
     1        = lpp1    ! beam 1 type 
     1        = lpp2    ! beam 2 type
     6500.0     = ebeam1  ! beam 1 total energy in GeV
     6500.0     = ebeam2  ! beam 2 total energy in GeV
# To see polarised beam options: type "update beam_pol"

#*********************************************************************
# PDF CHOICE: this automatically fixes also alpha_s and its evol.    *
#*********************************************************************
     nn23lo1    = pdlabel     ! PDF set                                     
     230000    = lhaid     ! if pdlabel=lhapdf, this is the lhapdf number
# To see heavy ion options: type "update ion_pdf"
#*********************************************************************
# Renormalization and factorization scales                           *
#*********************************************************************
 False = fixed_ren_scale  ! if .true. use fixed ren scale
 False        = fixed_fac_scale  ! if .true. use fixed fac scale
 91.188  = scale            ! fixed ren scale
 91.188  = dsqrt_q2fact1    ! fixed fact scale for pdf1
 91.188  = dsqrt_q2fact2    ! fixed fact scale for pdf2
 -1 = dynamical_scale_choice ! Choose one of the preselected dynamical choices
 1.0  = scalefact        ! scale factor for event-by-event scales
#*********************************************************************
# Type and output format
#*********************************************************************
  False     = gridpack  !True = setting up the grid pack
  -1.0 = time_of_flight ! threshold (in mm) below which the invariant livetime is not written (-1 means not written)
  average =  event_norm       ! average/sum. Normalization of the weight in the LHEF
# To see MLM/CKKW  merging options: type "update MLM" or "update CKKW"

#*********************************************************************
#
#*********************************************************************
# Phase-Space Optimization strategy (basic options)
#*********************************************************************
   0  = nhel          ! using helicities importance sampling or not.
                             ! 0: sum over helicity, 1: importance sampling
   1  = sde_strategy  ! default integration strategy (hep-ph/2021.00773)
                             ! 1 is old strategy (using amp square)
			     ! 2 is new strategy (using only the denominator)
# To see advanced option for Phase-Space optimization: type "update psoptim"			     
#*********************************************************************
# Generation bias, check the wiki page below for more information:   *
#  'cp3.irmp.ucl.ac.be/projects/madgraph/wiki/LOEventGenerationBias' *
#*********************************************************************
 None = bias_module  ! Bias type of bias, [None, ptj_bias, -custom_folder-]
 {} = bias_parameters ! Specifies the parameters of the module.
#
#*******************************                                                 
# Parton level cuts definition *
#*******************************                                     
#                                                                    
#
#*********************************************************************
# BW cutoff (M+/-bwcutoff*Gamma) ! Define on/off-shell for "$" and decay  
#*********************************************************************
  15.0  = bwcutoff      ! (M+/-bwcutoff*Gamma)
#*********************************************************************
# Standard Cuts                                                      *
#*********************************************************************
# Minimum and maximum pt's (for max, -1 means no cut)                *
#*********************************************************************
 0.0  = pta       ! minimum pt for the photons 
 0.0  = ptl       ! minimum pt for the charged leptons 
 -1.0  = ptamax    ! maximum pt for the photons
 -1.0  = ptlmax    ! maximum pt for the charged leptons
 {} = pt_min_pdg ! pt cut for other particles (use pdg code). Applied on particle and anti-particle
 {}	= pt_max_pdg ! pt cut for other particles (syntax e.g. {6: 100, 25: 50}) 
#
# For display option for energy cut in the partonic center of mass frame type 'update ecut'
#
#*********************************************************************
# Maximum and minimum absolute rapidity (for max, -1 means no cut)   *
#*********************************************************************
 -1.0  = etaa    ! max rap for the photons 
 -1.0  = etal    ! max rap for the charged leptons 
 0.0  = etajmin ! min rap for the jets
 0.0  = etaamin ! min rap for the photons
 0.0  = etalmin ! min rap for the charged leptons
 {} = eta_min_pdg ! rap cut for other particles (use pdg code). Applied on particle and anti-particle
 {} = eta_max_pdg ! rap cut for other particles (syntax e.g. {6: 2.5, 23: 5})
#*********************************************************************
# Minimum and maximum DeltaR distance                                *
#*********************************************************************
 0.0 = drll    ! min distance between leptons 
 0.0 = dral    ! min distance between gamma and lepton 
 -1.0  = drllmax ! max distance between leptons
 -1.0  = dralmax ! maxdistance between gamma and lepton
#*********************************************************************
# Minimum and maximum invariant mass for pairs                       *
#*********************************************************************
 0.0   = mmll    ! min invariant mass of l+l- (same flavour) lepton pair
 -1.0  = mmllmax ! max invariant mass of l+l- (same flavour) lepton pair
 {} = mxx_min_pdg ! min invariant mass of a pair of particles X/X~ (e.g. {6:250})
 {'default': False} = mxx_only_part_antipart ! if True the invariant mass is applied only 
                       ! to pairs of particle/antiparticle and not to pairs of the same pdg codes.  
 #*********************************************************************
 # Minimum and maximum invariant mass for all letpons                 *
 #*********************************************************************
 0.0   = mmnl    ! min invariant mass for all letpons (l+- and vl) 
 -1.0  = mmnlmax ! max invariant mass for all letpons (l+- and vl) 
 #*********************************************************************
 # Minimum and maximum pt for 4-momenta sum of leptons / neutrino     *
 #  for pair of lepton includes only same flavor, opposite charge
 #*********************************************************************
 0.0   = ptllmin  ! Minimum pt for 4-momenta sum of leptons(l and vl)
 -1.0  = ptllmax  ! Maximum pt for 4-momenta sum of leptons(l and vl)
#*********************************************************************
# Inclusive cuts                                                     *
#*********************************************************************
 0.0  = xptl ! minimum pt for at least one charged lepton 
 #*********************************************************************
 # Control the pt's of leptons sorted by pt                           *
 #*********************************************************************
 0.0   = ptl1min ! minimum pt for the leading lepton in pt
 0.0   = ptl2min ! minimum pt for the second lepton in pt
 -1.0  = ptl1max ! maximum pt for the leading lepton in pt 
 -1.0  = ptl2max ! maximum pt for the second lepton in pt
#*********************************************************************
# maximal pdg code for quark to be considered as a light jet         *
# (otherwise b cuts are applied)                                     *
#*********************************************************************
 4 = maxjetflavor    ! Maximum jet pdg code
#*********************************************************************
#
#*********************************************************************
# Store info for systematics studies                                 *
# WARNING: Do not use for interference type of computation           *
#*********************************************************************
   False  = use_syst      ! Enable systematics studies
#
systematics = systematics_program ! none, systematics [python], SysCalc [depreceted, C++]
['--mur=0.5,1,2', '--muf=0.5,1,2', '--pdf=errorset'] = systematics_arguments ! see: https://cp3.irmp.ucl.ac.be/projects/madgraph/wiki/Systematics#Systematicspythonmodule
# Syscalc is deprecated but to see the associate options type'update syscalc'
]]>
</MGRunCard>
<slha>
######################################################################
## PARAM_CARD AUTOMATICALLY GENERATED BY MG5 FOLLOWING UFO MODEL   ####
######################################################################
##                                                                  ##
##  Width set on Auto will be computed following the information    ##
##        present in the decay.py files of the model.               ##
##        See  arXiv:1402.1178 for more details.                    ##
##                                                                  ##
######################################################################

###################################
## INFORMATION FOR DIM6
###################################
Block dim6 
    1 2.000000e+00 # dgZlR 
    2 2.000000e+00 # dgZlL 
    3 2.000000e+00 # dgZuR 
    4 2.000000e+00 # dgZuL 
    5 2.000000e+00 # dgZdR 
    6 2.000000e+00 # dgZdL 
    7 2.000000e+00 # dgZcR 
    8 2.000000e+00 # dgZcL 
    9 2.000000e+00 # dgZsR 
   10 2.000000e+00 # dgZsL 
   11 2.000000e+00 # dgZbR 
   12 2.000000e+00 # dgZbL 
   13 2.000000e+00 # dgZtR 
   14 2.000000e+00 # dgZtL 
   15 2.000000e+00 # dghVV 
   16 2.000000e+00 # dghZZ 
   17 2.000000e+00 # ghZlR 
   18 2.000000e+00 # ghZlL 
   19 2.000000e+00 # ghZuR 
   20 2.000000e+00 # ghZuL 
   21 2.000000e+00 # ghZdR 
   22 2.000000e+00 # ghZdL 
   23 2.000000e+00 # ghZcR 
   24 2.000000e+00 # ghZcL 
   25 2.000000e+00 # ghZsR 
   26 2.000000e+00 # ghZsL 
   27 2.000000e+00 # ghZbR 
   28 2.000000e+00 # ghZbL 
   29 2.000000e+00 # ghZtR 
   30 2.000000e+00 # ghZtL 
   31 2.000000e+00 # kZZ 
   32 2.000000e+00 # kZa 
   33 2.000000e+00 # kWW 
   34 2.000000e+00 # g1Z 
   35 2.000000e+00 # kZ 
   36 2.000000e+00 # ka 
   37 2.000000e+00 # LZ 
   38 2.000000e+00 # La 
   39 2.000000e+00 # kZt 
   40 2.000000e+00 # kat 
   41 2.000000e+00 # LZt 
   42 2.000000e+00 # Lat 
   43 2.000000e+00 # kZZt 
   44 2.000000e+00 # kZat 
   45 2.000000e+00 # kWWt 
   46 2.000000e+00 # dgWudL 
   47 2.000000e+00 # dgWudR 
   48 2.000000e+00 # dgWcsL 
   49 2.000000e+00 # dgWcsR 
   50 2.000000e+00 # dgWtbL 
   51 2.000000e+00 # dgWtbR 
   52 2.000000e+00 # dgWlvL 
   53 2.000000e+00 # ghWudL 
   54 2.000000e+00 # ghWudR 
   55 2.000000e+00 # ghWcsL 
   56 2.000000e+00 # ghWcsR 
   57 2.000000e+00 # ghWtbL 
   58 2.000000e+00 # ghWtbR 
   59 2.000000e+00 # ghWlvL 

###################################
## INFORMATION FOR MASS
###################################
Block mass 
    1 5.040000e-03 # MD 
    2 2.550000e-03 # MU 
    3 1.010000e-01 # MS 
    4 1.270000e+00 # MC 
    5 4.700000e+00 # MB 
    6 1.720000e+02 # MT 
   11 5.110000e-04 # Me 
   13 1.056600e-01 # MMU 
   15 1.777000e+00 # MTA 
   23 9.118760e+01 # MZ 
   25 1.250000e+02 # MH 
## Dependent parameters, given by model restrictions.
## Those values should be edited following the 
## analytical expression. MG5 ignores those values 
## but they are important for interfacing the output of MG5
## to external program such as Pythia.
  12 0.000000e+00 # ve : 0.0 
  14 0.000000e+00 # vm : 0.0 
  16 0.000000e+00 # vt : 0.0 
  21 0.000000e+00 # g : 0.0 
  22 0.000000e+00 # a : 0.0 
  24 7.982436e+01 # w+ : cmath.sqrt(MZ__exp__2/2. + cmath.sqrt(MZ__exp__4/4. - (aEW*cmath.pi*MZ__exp__2)/(Gf*sqrt__2))) 

###################################
## INFORMATION FOR SMINPUTS
###################################
Block sminputs 
    1 1.279000e+02 # aEWM1 
    2 1.166370e-05 # Gf 
    3 1.184000e-01 # aS (Note that Parameter not used if you use a PDF set) 

###################################
## INFORMATION FOR YUKAWA
###################################
Block yukawa 
    1 5.040000e-03 # ymdo 
    2 2.550000e-03 # ymup 
    3 1.010000e-01 # yms 
    4 1.270000e+00 # ymc 
    5 4.700000e+00 # ymb 
    6 1.720000e+02 # ymt 
   11 5.110000e-04 # yme 
   13 1.056600e-01 # ymm 
   15 1.777000e+00 # ymtau 

###################################
## INFORMATION FOR DECAY
###################################
DECAY   6 1.508336e+00 # WT 
DECAY  23 2.495200e+00 # WZ 
DECAY  24 2.085000e+00 # WW 
DECAY  25 4.070000e-03 # WH 
## Dependent parameters, given by model restrictions.
## Those values should be edited following the 
## analytical expression. MG5 ignores those values 
## but they are important for interfacing the output of MG5
## to external program such as Pythia.
DECAY  1 0.000000e+00 # d : 0.0 
DECAY  2 0.000000e+00 # u : 0.0 
DECAY  3 0.000000e+00 # s : 0.0 
DECAY  4 0.000000e+00 # c : 0.0 
DECAY  5 0.000000e+00 # b : 0.0 
DECAY  11 0.000000e+00 # e- : 0.0 
DECAY  12 0.000000e+00 # ve : 0.0 
DECAY  13 0.000000e+00 # mu- : 0.0 
DECAY  14 0.000000e+00 # vm : 0.0 
DECAY  15 0.000000e+00 # ta- : 0.0 
DECAY  16 0.000000e+00 # vt : 0.0 
DECAY  21 0.000000e+00 # g : 0.0 
DECAY  22 0.000000e+00 # a : 0.0
</slha>
<MGGenerationInfo>
#  Number of Events        :       10000
#  Integrated weight (pb)  :       2.444806228e-06
</MGGenerationInfo>
</header>
<init>
25 0 1.250000e+02 0.000000e+00 0 0 247000 247000 -4 1
2.444806e-06 3.448315e-08 2.444806e-06 1
<generator name='MadGraph5_aMC@NLO' version='2.9.21'>please cite 1405.0301 </generator>
</init>
<event>
 5      1 +2.4448062e-06 9.11880000e+01 7.81860800e-03 1.13011600e-01
       25 -1    0    0    0    0 +0.0000000000e+00 +0.0000000000e+00 +9.9999998245e-15 1.2500000000e+02 1.2500000000e+02 0.0000e+00 0.0000e+00
       23  2    1    0    0    0 -5.3631217435e+00 +2.6223487826e+01 -5.9817440634e+00 9.7573449896e+01 9.3639534780e+01 0.0000e+00 0.0000e+00
      -11  1    2    2    0    0 +2.7422089184e+01 +4.6287715600e+01 +1.2023324963e+01 5.5127887081e+01 5.1100000000e-04 0.0000e+00 1.0000e+00
       11  1    2    2    0    0 -3.2785210927e+01 -2.0064227774e+01 -1.8005069026e+01 4.2445562814e+01 5.1100000000e-04 0.0000e+00 -1.0000e+00
       22  1    1    0    0    0 +5.3631217435e+00 -2.6223487826e+01 +5.9817440634e+00 2.7426550104e+01 0.0000000000e+00 0.0000e+00 1.0000e+00
</event>
<event>
 5      1 +2.4448062e-06 9.11880000e+01 7.81860800e-03 1.13011600e-01
       25 -1    0    0    0    0 +0.0000000000e+00 +0.0000000000e+00 +9.9999998245e-15 1.2500000000e+02 1.2500000000e+02 0.0000e+00 0.0000e+00
       23  2    1    0    0    0 -4.8517754197e+00 +2.9340242966e+01 +3.9015146342e+00 9.5006477391e+01 9.0147763965e+01 0.0000e+00 0.0000e+00
      -11  1    2    2    0    0 +1.8869352393e+01 +3.8850297782e+01 -2.9973847521e+01 5.2572137421e+01 5.1100000000e-04 0.0000e+00 -1.0000e+00
       11  1    2    2    0    0 -2.3721127813e+01 -9.5100548158e+00 +3.3875362156e+01 4.2434339971e+01 5.1100000000e-04 0.0000e+00 1.0000e+00
       22  1    1    0    0    0 +4.8517754197e+00 -2.9340242966e+01 -3.9015146342e+00 2.9993522609e+01 0.0000000000e+00 0.0000e+00 -1.0000e+00
</event>
<event>
 4      1 +2.4448062e-06 9.11880000e+01 7.81860800e-03 1.13011600e-01
       25 -1    0    0    0    0 +0.0000000000e+00 +0.0000000000e+00 +9.9999998245e-15 1.2500000000e+02 1.2500000000e+02 0.0000e+00 0.0000e+00
      -13  1    1    0    0    0 -5.5359967207e+01 -4.9321290708e+00 -2.8586482288e+01 6.2500000000e+01 1.0566000000e-01 0.0000e+00 1.0000e+00
       13  1    1    0    0    0 +5.5359967207e+01 +4.9321290708e+00 +2.8586482287e+01 6.2500000000e+01 1.0566000000e-01 0.0000e+00 1.0000e+00
       22  1    1    0    0    0 +4.5160054453e-11 -5.0985497247e-11 +1.5110512825e-10 1.6574592372e-10 0.0000000000e+00 0.0000e+00 -1.0000e+00
</event>
<event>
 4      1 +2.4448062e-06 9.11880000e+01 7.81860800e-03 1.13011600e-01
       25 -1    0    0    0    0 +0.0000000000e+00 +0.0000000000e+00 +9.9999998245e-15 1.2500000000e+02 1.2500000000e+02 0.0000e+00 0.0000e+00
      -13  1    1    0    0    0 -5.0257896539e+01 -5.3501579416e+00 +3.6766268256e+01 6.2500000000e+01 1.0566000000e-01 0.0000e+00 1.0000e+00
       13  1    1    0    0    0 +5.0257896539e+01 +5.3501579416e+00 -3.6766268256e+01 6.2500000000e+01 1.0566000000e-01 0.0000e+00 1.0000e+00
       22  1    1    0    0    0 +2.6678727490e-11 -9.1804759168e-14 -3.9909284937e-11 4.8005353376e-11 0.0000000000e+00 0.0000e+00 -1.0000e+00
</event>
<event>
 4      1 +2.4448062e-06 9.11880000e+01 7.81860800e-03 1.13011600e-01
       25 -1    0    0    0    0 +0.0000000000e+00 +0.0000000000e+00 +9.9999998245e-15 1.2500000000e+02 1.2500000000e+02 0.0000e+00 0.0000e+00
      -13  1    1    0    0    0 -4.8466377120e+01 +1.1782380019e+01 +3.7661975753e+01 6.2499998174e+01 1.0566000000e-01 0.0000e+00 1.0000e+00
       13  1    1    0    0    0 +4.8466378539e+01 -1.1782380375e+01 -3.7661976847e+01 6.2500000000e+01 1.0566000000e-01 0.0000e+00 1.0000e+00
       22  1    1    0    0    0 -1.4186516803e-06 +3.5577937681e-07 +1.0934748761e-06 1.8261541171e-06 0.0000000000e+00 0.0000e+00 1.0000e+00
</event>
<event>
 4      1 +2.4448062e-06 9.11880000e+01 7.81860800e-03 1.13011600e-01
       25 -1    0    0    0    0 +0.0000000000e+00 +0.0000000000e+00 +9.9999998245e-15 1.2500000000e+02 1.2500000000e+02 0.0000e+00 0.0000e+00
      -13  1    1    0    0    0 +2.3849509257e+01 -4.2412564009e+01 +3.9225172508e+01 6.2500000000e+01 1.0566000000e-01 0.0000e+00 1.0000e+00
       13  1    1    0    0    0 -2.3849509258e+01 +4.2412564009e+01 -3.9225172508e+01 6.2500000000e+01 1.0566000000e-01 0.0000e+00 1.0000e+00
       22  1    1    0    0    0 +4.8327053491e-11 -3.5405791616e-11 +1.8891097045e-11 6.2816779021e-11 0.0000000000e+00 0.0000e+00 1.0000e+00
</event>
<event>
 4      1 +2.4448062e-06 9.11880000e+01 7.81860800e-03 1.13011600e-01
       25 -1    0    0    0    0 +0.0000000000e+00 +0.0000000000e+00 +9.9999998245e-15 1.2500000000e+02 1.2500000000e+02 0.0000e+00 0.0000e+00
      -13  1    1    0    0    0 -3.0869774002e+01 +3.9678512215e+01 -3.4341030450e+01 6.0882220845e+01 1.0566000000e-01 0.0000e+00 -1.0000e+00
       13  1    1    0    0    0 +3.1403908953e+01 -4.1001236333e+01 +3.5154865041e+01 6.2475455808e+01 1.0566000000e-01 0.0000e+00 -1.0000e+00
       22  1    1    0    0    0 -5.3413495060e-01 +1.3227241172e+00 -8.1383459072e-01 1.6423233472e+00 0.0000000000e+00 0.0000e+00 -1.0000e+00
</event>
<event>
 5      1 +2.4448062e-06 9.11880000e+01 7.81860800e-03 1.13011600e-01
       25 -1    0    0    0    0 +0.0000000000e+00 +0.0000000000e+00 +9.9999998245e-15 1.2500000000e+02 1.2500000000e+02 0.0000e+00 0.0000e+00
       23  2    1    0    0    0 -2.5171021930e+01 -1.1074466829e+01 +1.3231232012e+01 9.4482961135e+01 8.9418903391e+01 0.0000e+00 0.0000e+00
      -11  1    2    2    0    0 -4.8442816245e+01 +1.6259169085e-01 -1.9980026711e+01 5.2401663614e+01 5.1100000000e-04 0.0000e+00 1.0000e+00
       11  1    2    2    0    0 +2.3271794315e+01 -1.1237058520e+01 +3.3211258723e+01 4.2081297521e+01 5.1100000000e-04 0.0000e+00 -1.0000e+00
       22  1    1    0    0    0 +2.5171021930e+01 +1.1074466829e+01 -1.3231232012e+01 3.0517038865e+01 0.0000000000e+00 0.0000e+00 1.0000e+00
</event>
<event>
 4      1 +2.4448062e-06 9.11880000e+01 7.81860800e-03 1.13011600e-01
       25 -1    0    0    0    0 +0.0000000000e+00 +0.0000000000e+00 +9.9999998245e-15 1.2500000000e+02 1.2500000000e+02 0.0000e+00 0.0000e+00
      -11  1    1    0    0    0 +3.1577221949e+01 -6.8477488290e+00 +1.2034119271e+01 3.4479452387e+01 5.1100000000e-04 0.0000e+00 -1.0000e+00
       11  1    1    0    0    0 +2.5661745444e+01 -5.5670257819e+00 +9.7792706486e+00 2.8020547639e+01 5.1100000000e-04 0.0000e+00 1.0000e+00
       22  1    1    0    0    0 -5.7238967394e+01 +1.2414774611e+01 -2.1813389919e+01 6.2499999974e+01 0.0000000000e+00 0.0000e+00 1.0000e+00
</event>
<event>
 5      1 +2.4448062e-06 9.11880000e+01 7.81860800e-03 1.13011600e-01
       25 -1    0    0    0    0 +0.0000000000e+00 +0.0000000000e+00 +9.9999998245e-15 1.2500000000e+02 1.2500000000e+02 0.0000e+00 0.0000e+00
       23  2    1    0    0    0 +5.9744860932e+00 +2.3292291290e+01 -1.4796454781e+01 9.6765971033e+01 9.2555349701e+01 0.0000e+00 0.0000e+00
      -11  1    2    2    0    0 -1.1178052155e+01 +5.4690430846e+01 -2.2471097355e+01 6.0174266033e+01 5.1100000000e-04 0.0000e+00 1.0000e+00
       11  1    2    2    0    0 +1.7152538248e+01 -3.1398139556e+01 +7.6746425746e+00 3.6591705000e+01 5.1100000000e-04 0.0000e+00 -1.0000e+00
       22  1    1    0    0    0 -5.9744860932e+00 -2.3292291290e+01 +1.4796454781e+01 2.8234028967e+01 0.0000000000e+00 0.0000e+00 1.0000e+00
</event>
<event>
 4      1 +2.4448062e-06 9.11880000e+01 7.81860800e-03 1.13011600e-01
       25 -1    0    0    0    0 +0.0000000000e+00 +0.0000000000e+00 +9.9999998245e-15 1.2500000000e+02 1.2500000000e+02 0.0000e+00 0.0000e+00
      -13  1    1    0    0    0 +2.8219147997e+01 -5.3994653429e+01 -1.3913407522e+01 6.2492695457e+01 1.0566000000e-01 0.0000e+00 1.0000e+00
       13  1    1    0    0    0 -2.8234102813e+01 +5.3980205152e+01 +1.3910341738e+01 6.2486285545e+01 1.0566000000e-01 0.0000e+00 1.0000e+00
       22  1    1    0    0    0 +1.4954816322e-02 +1.4448277142e-02 +3.0657838540e-03 2.1018997936e-02 0.0000000000e+00 0.0000e+00 -1.0000e+00
</event>
<event>
 4      1 +2.4448062e-06 9.11880000e+01 7.81860800e-03 1.13011600e-01
       25 -1    0    0    0    0 +0.0000000000e+00 +0.0000000000e+00 +9.9999998245e-15 1.2500000000e+02 1.2500000000e+02 0.0000e+00 0.0000e+00
      -13  1    1    0    0    0 -4.9655166037e+01 -9.6607238285e+00 +3.6705227652e+01 6.2500000000e+01 1.0566000000e-01 0.0000e+00 1.0000e+00
       13  1    1    0    0    0 +4.9655166022e+01 +9.6607238234e+00 -3.6705227642e+01 6.2499999982e+01 1.0566000000e-01 0.0000e+00 1.0000e+00
       22  1    1    0    0    0 +1.4512546759e-08 +5.0205452172e-09 -9.2354190457e-09 1.7919622001e-08 0.0000000000e+00 0.0000e+00 1.0000e+00
</event>
<event>
 5      1 +2.4448062e-06 9.11880000e+01 7.81860800e-03 1.13011600e-01
       25 -1    0    0    0    0 +0.0000000000e+00 +0.0000000000e+00 +9.9999998245e-15 1.2500000000e+02 1.2500000000e+02 0.0000e+00 0.0000e+00
       23  2    1    0    0    0 +1.6059708806e+01 -3.2281163677e+01 +6.2176701614e+00 8.8412472104e+01 8.0486756836e+01 0.0000e+00 0.0000e+00
      -11  1    2    2    0    0 +3.3872839739e+01 -3.2726962709e+01 -2.4356276172e+01 5.3025008716e+01 5.1100000000e-04 0.0000e+00 1.0000e+00
       11  1    2    2    0    0 -1.7813130933e+01 +4.4579903150e-01 +3.0573946333e+01 3.5387463388e+01 5.1100000000e-04 0.0000e+00 -1.0000e+00
       22  1    1    0    0    0 -1.6059708806e+01 +3.2281163677e+01 -6.2176701614e+00 3.6587527896e+01 0.0000000000e+00 0.0000e+00 -1.0000e+00
</event>
<event>
 4      1 +2.4448062e-06 9.11880000e+01 7.81860800e-03 1.13011600e-01
       25 -1    0    0    0    0 +0.0000000000e+00 +0.0000000000e+00 +9.9999998245e-15 1.2500000000e+02 1.2500000000e+02 0.0000e+00 0.0000e+00
      -13  1    1    0    0    0 -3.1624821943e+01 +5.3680537950e+01 +4.9439090964e+00 6.2499463347e+01 1.0566000000e-01 0.0000e+00 -1.0000e+00
       13  1    1    0    0    0 +3.1625086515e+01 -5.3681002936e+01 -4.9439517464e+00 6.2499999969e+01 1.0566000000e-01 0.0000e+00 -1.0000e+00
       22  1    1    0    0    0 -2.6457163011e-04 +4.6498625445e-04 +4.2650015933e-05 5.3668369469e-04 0.0000000000e+00 0.0000e+00 1.0000e+00
</event>
<event>
 4      1 +2.4448062e-06 9.11880000e+01 7.81860800e-03 1.13011600e-01
       25 -1    0    0    0    0 +0.0000000000e+00 +0.0000000000e+00 +9.9999998245e-15 1.2500000000e+02 1.2500000000e+02 0.0000e+00 0.0000e+00
      -13  1    1    0    0    0 +3.6951964847e+01 -2.3815758423e+01 -4.1375093163e+01 6.0370088236e+01 1.0566000000e-01 0.0000e+00 -1.0000e+00
       13  1    1    0    0    0 -4.0135524183e+01 +2.1045555936e+01 +3.6560616059e+01 5.8227704203e+01 1.0566000000e-01 0.0000e+00 -1.0000e+00
       22  1    1    0    0    0 +3.1835593360e+00 +2.7702024874e+00 +4.8144771039e+00 6.4022075608e+00 0.0000000000e+00 0.0000e+00 1.0000e+00
</event>
<event>
 4      1 +2.4448062e-06 9.11880000e+01 7.81860800e-03 1.13011600e-01
       25 -1    0    0    0    0 +0.0000000000e+00 +0.0000000000e+00 +9.9999998245e-15 1.2500000000e+02 1.2500000000e+02 0.0000e+00 0.0000e+00
      -13  1    1    0    0    0 -5.8886612886e+00 -3.7591935027e+01 +4.9507199446e+01 6.2440402560e+01 1.0566000000e-01 0.0000e+00 1.0000e+00
       13  1    1    0    0    0 +5.8935536928e+00 +3.7633486510e+01 -4.9549953005e+01 6.2499778311e+01 1.0566000000e-01 0.0000e+00 1.0000e+00
       22  1    1    0    0    0 -4.8924041895e-03 -4.1551482840e-02 +4.2753559771e-02 5.9819129198e-02 0.0000000000e+00 0.0000e+00 1.0000e+00
</event>
<event>
 5      1 +2.4448062e-06 9.11880000e+01 7.81860800e-03 1.13011600e-01
       25 -1    0    0    0    0 +0.0000000000e+00 +0.0000000000e+00 +9.9999998245e-15 1.2500000000e+02 1.2500000000e+02 0.0000e+00 0.0000e+00
       23  2    1    0    0    0 -3.6831794429e-01 +2.9766148303e+01 -1.0972614482e+01 9.3273709459e+01 8.7712184813e+01 0.0000e+00 0.0000e+00
      -13  1    2    2    0    0 +3.9830218178e+00 +5.8402265671e+01 +7.3534847207e+00 5.8998084714e+01 1.0566000000e-01 0.0000e+00 1.0000e+00
       13  1    2    2    0    0 -4.3513397621e+00 -2.8636117368e+01 -1.8326099203e+01 3.4275624745e+01 1.0566000000e-01 0.0000e+00 -1.0000e+00
       22  1    1    0    0    0 +3.6831794429e-01 -2.9766148303e+01 +1.0972614482e+01 3.1726290541e+01 0.0000000000e+00 0.0000e+00 1.0000e+00
</event>
<event>
 5      1 +2.4448062e-06 9.11880000e+01 7.81860800e-03 1.13011600e-01
       25 -1    0    0    0    0 +0.0000000000e+00 +0.0000000000e+00 +9.9999998245e-15 1.2500000000e+02 1.2500000000e+02 0.0000e+00 0.0000e+00
       23  2    1    0    0    0 -1.3836385699e+01 +1.5332001452e+01 +2.0097484222e+01 9.6182909415e+01 9.1764521215e+01 0.0000e+00 0.0000e+00
      -13  1    2    2    0    0 -1.8156643836e+01 +1.7631072737e+01 +5.5208090325e+01 6.0732716410e+01 1.0566000000e-01 0.0000e+00 -1.0000e+00
       13  1    2    2    0    0 +4.3202581367e+00 -2.2990712846e+00 -3.5110606103e+01 3.5450193005e+01 1.0566000000e-01 0.0000e+00 1.0000e+00
       22  1    1    0    0    0 +1.3836385699e+01 -1.5332001452e+01 -2.0097484222e+01 2.8817090585e+01 0.0000000000e+00 0.0000e+00 -1.0000e+00
</event>
<event>
 4      1 +2.4448062e-06 9.11880000e+01 7.81860800e-03 1.13011600e-01
       25 -1    0    0    0    0 +0.0000000000e+00 +0.0000000000e+00 +9.9999998245e-15 1.2500000000e+02 1.2500000000e+02 0.0000e+00 0.0000e+00
      -13  1    1    0    0    0 -4.3861426258e+01 -3.6259335865e+01 +2.5839398031e+01 6.2499998443e+01 1.0566000000e-01 0.0000e+00 -1.0000e+00
       13  1    1    0    0    0 +4.3861425508e+01 +3.6259335257e+01 -2.5839400738e+01 6.2499998683e+01 1.0566000000e-01 0.0000e+00 -1.0000e+00
       22  1    1    0    0    0 +7.4977250686e-07 +6.0737974274e-07 +2.7067805508e-06 2.8736266135e-06 0.0000000000e+00 0.0000e+00 1.0000e+00
</event>
<event>
 4      1 +2.4448062e-06 9.11880000e+01 7.81860800e-03 1.13011600e-01
       25 -1    0    0    0    0 +0.0000000000e+00 +0.0000000000e+00 +9.9999998245e-15 1.2500000000e+02 1.2500000000e+02 0.0000e+00 0.0000e+00
      -13  1    1    0    0    0 +2.3672059837e+01 +5.0625409085e+01 -2.7981062111e+01 6.2499995702e+01 1.0566000000e-01 0.0000e+00 -1.0000e+00
       13  1    1    0    0    0 -2.3672062575e+01 -5.0625412038e+01 +2.7981063851e+01 6.2499999911e+01 1.0566000000e-01 0.0000e+00 -1.0000e+00
       22  1    1    0    0    0 +2.7379798333e-06 +2.9534442948e-06 -1.7397523456e-06 4.3870382941e-06 0.0000000000e+00 0.0000e+00 1.0000e+00
</event>
<event>
 5      1 +2.4448062e-06 9.11880000e+01 7.81860800e-03 1.13011600e-01
       25 -1    0    0    0    0 +0.0000000000e+00 +0.0000000000e+00 +9.9999998245e-15 1.2500000000e+02 1.2500000000e+02 0.0000e+00 0.0000e+00
       23  2    1    0    0    0 -9.8196270324e+00 +3.5212768198e+00 +2.7675043503e+01 9.5424123033e+01 9.0725028290e+01 0.0000e+00 0.0000e+00
      -13  1    2    2    0    0 +1.4493786608e+01 -2.2760670154e+01 -2.1565611247e+01 3.4542795322e+01 1.0566000000e-01 0.0000e+00 1.0000e+00
       13  1    2    2    0    0 -2.4313413641e+01 +2.6281946974e+01 +4.9240654750e+01 6.0881327711e+01 1.0566000000e-01 0.0000e+00 -1.0000e+00
       22  1    1    0    0    0 +9.8196270324e+00 -3.5212768198e+00 -2.7675043503e+01 2.9575876967e+01 0.0000000000e+00 0.0000e+00 -1.0000e+00
</event>
<event>
 4      1 +2.4448062e-06 9.11880000e+01 7.81860800e-03 1.13011600e-01
       25 -1    0    0    0    0 +0.0000000000e+00 +0.0000000000e+00 +9.9999998245e-15 1.2500000000e+02 1.2500000000e+02 0.0000e+00 0.0000e+00
      -13  1    1    0    0    0 +1.0354655203e+01 +1.7138244580e+01 -5.9205578349e+01 6.2499999867e+01 1.0566000000e-01 0.0000e+00 -1.0000e+00
       13  1    1    0    0    0 -1.0354655270e+01 -1.7138244636e+01 +5.9205578456e+01 6.2499999995e+01 1.0566000000e-01 0.0000e+00 -1.0000e+00
       22  1    1    0    0    0 +6.7629618292e-08 +5.6063729602e-08 -1.0700615204e-07 1.3844574252e-07 0.0000000000e+00 0.0000e+00 1.0000e+00
</event>
<event>
 4      1 +2.4448062e-06 9.11880000e+01 7.81860800e-03 1.13011600e-01
       25 -1    0    0    0    0 +0.0000000000e+00 +0.0000000000e+00 +9.9999998245e-15 1.2500000000e+02 1.2500000000e+02 0.0000e+00 0.0000e+00
      -13  1    1    0    0    0 +4.9715444141e+01 -8.1159497719e-01 -3.7867595162e+01 6.2500000000e+01 1.0566000000e-01 0.0000e+00 1.0000e+00
       13  1    1    0    0    0 -4.9715443793e+01 +8.1159494715e-01 +3.7867594882e+01 6.2499999552e+01 1.0566000000e-01 0.0000e+00 1.0000e+00
       22  1    1    0    0    0 -3.4795160700e-07 +3.0039650519e-08 +2.8050574655e-07 4.4794662100e-07 0.0000000000e+00 0.0000e+00 1.0000e+00
</event>
<event>
 4      1 +2.4448062e-06 9.11880000e+01 7.81860800e-03 1.13011600e-01
       25 -1    0    0    0    0 +0.0000000000e+00 +0.0000000000e+00 +9.9999998245e-15 1.2500000000e+02 1.2500000000e+02 0.0000e+00 0.0000e+00
      -11  1    1    0    0    0 +7.5849411244e-03 +3.6698577458e+01 -9.9653340400e+00 3.8027536441e+01 5.1100000000e-04 0.0000e+00 1.0000e+00
       11  1    1    0    0    0 -6.9877335724e+00 +2.1442218876e+01 -1.0585334458e+01 2.4912777377e+01 5.1100000000e-04 0.0000e+00 -1.0000e+00
       22  1    1    0    0    0 +6.9801486313e+00 -5.8140796334e+01 +2.0550668498e+01 6.2059686182e+01 0.0000000000e+00 0.0000e+00 -1.0000e+00
</event>
<event>
 4      1 +2.4448062e-06 9.11880000e+01 7.81860800e-03 1.13011600e-01
       25 -1    0    0    0    0 +0.0000000000e+00 +0.0000000000e+00 +9.9999998245e-15 1.2500000000e+02 1.2500000000e+02 0.0000e+00 0.0000e+00
      -13  1    1    0    0    0 +8.8972452771e+00 +1.6913384146e+01 -5.9506371997e+01 6.2499944072e+01 1.0566000000e-01 0.0000e+00 -1.0000e+00
       13  1    1    0    0    0 -8.8972506408e+00 -1.6913404478e+01 +5.9506423991e+01 6.2499999842e+01 1.0566000000e-01 0.0000e+00 -1.0000e+00
       22  1    1    0    0    0 +5.3637393188e-06 +2.0331480681e-05 -5.1994575907e-05 5.6085423507e-05 0.0000000000e+00 0.0000e+00 -1.0000e+00
</event>
<event>
 4      1 +2.4448062e-06 9.11880000e+01 7.81860800e-03 1.13011600e-01
       25 -1    0    0    0    0 +0.0000000000e+00 +0.0000000000e+00 +9.9999998245e-15 1.2500000000e+02 1.2500000000e+02 0.0000e+00 0.0000e+00
      -11  1    1    0    0    0 +7.6092361762e+00 -3.3444838729e+01 +4.7414783103e+01 5.8520247520e+01 5.1100000000e-04 0.0000e+00 -1.0000e+00
       11  1    1    0    0    0 +1.2372561999e+00 -2.0919539102e+00 +3.1922629287e+00 4.0121835618e+00 5.1100000000e-04 0.0000e+00 1.0000e+00
       22  1    1    0    0    0 -8.8464923761e+00 +3.5536792639e+01 -5.0607046032e+01 6.2467568918e+01 0.0000000000e+00 0.0000e+00 -1.0000e+00
</event>
<event>
 4      1 +2.4448062e-06 9.11880000e+01 7.81860800e-03 1.13011600e-01
       25 -1    0    0    0    0 +0.0000000000e+00 +0.0000000000e+00 +9.9999998245e-15 1.2500000000e+02 1.2500000000e+02 0.0000e+00 0.0000e+00
      -13  1    1    0    0    0 +3.4075865718e+01 +1.3018047603e+01 +5.0750346153e+01 6.2499943892e+01 1.0566000000e-01 0.0000e+00 1.0000e+00
       13  1    1    0    0    0 -3.4075896473e+01 -1.3018060042e+01 -5.0750391406e+01 6.2499999997e+01 1.0566000000e-01 0.0000e+00 1.0000e+00
       22  1    1    0    0    0 +3.0754516322e-05 +1.2439572798e-05 +4.5253045913e-05 5.6110795842e-05 0.0000000000e+00 0.0000e+00 1.0000e+00
</event>
<event>
 4      1 +2.4448062e-06 9.11880000e+01 7.81860800e-03 1.13011600e-01
       25 -1    0    0    0    0 +0.0000000000e+00 +0.0000000000e+00 +9.9999998245e-15 1.2500000000e+02 1.2500000000e+02 0.0000e+00 0.0000e+00
      -13  1    1    0    0    0 +4.9834165511e+01 +1.7531514416e+01 -3.3398215312e+01 6.2500000000e+01 1.0566000000e-01 0.0000e+00 -1.0000e+00
       13  1    1    0    0    0 -4.9834164815e+01 -1.7531514169e+01 +3.3398214849e+01 6.2499999128e+01 1.0566000000e-01 0.0000e+00 -1.0000e+00
       22  1    1    0    0    0 -6.9653218734e-07 -2.4660420399e-07 +4.6302887173e-07 8.7198994115e-07 0.0000000000e+00 0.0000e+00 1.0000e+00
</event>
<event>
 4      1 +2.4448062e-06 9.11880000e+01 7.81860800e-03 1.13011600e-01
       25 -1    0    0    0    0 +0.0000000000e+00 +0.0000000000e+00 +9.9999998245e-15 1.2500000000e+02 1.2500000000e+02 0.0000e+00 0.0000e+00
      -13  1    1    0    0    0 +4.3942416330e+01 -4.2503109000e+01 -9.3963050550e+00 6.1852663163e+01 1.0566000000e-01 0.0000e+00 -1.0000e+00
       13  1    1    0    0    0 -4.4457529921e+01 +4.2903526465e+01 +9.4027950372e+00 6.2494865936e+01 1.0566000000e-01 0.0000e+00 -1.0000e+00
       22  1    1    0    0    0 +5.1511359133e-01 -4.0041746431e-01 -6.4899821173e-03 6.5247090170e-01 0.0000000000e+00 0.0000e+00 1.0000e+00
</event>
<event>
 4      1 +2.4448062e-06 9.11880000e+01 7.81860800e-03 1.13011600e-01
       25 -1    0    0    0    0 +0.0000000000e+00 +0.0000000000e+00 +9.9999998245e-15 1.2500000000e+02 1.2500000000e+02 0.0000e+00 0.0000e+00
      -13  1    1    0    0    0 +3.0333439159e+01 -4.2571062646e+01 +3.4261142899e+01 6.2499999863e+01 1.0566000000e-01 0.0000e+00 -1.0000e+00
       13  1    1    0    0    0 -3.0333137447e+01 +4.2570615174e+01 -3.4260774007e+01 6.2499346423e+01 1.0566000000e-01 0.0000e+00 -1.0000e+00
       22  1    1    0    0    0 -3.0171284187e-04 +4.4747185163e-04 -3.6889180124e-04 6.5371466098e-04 0.0000000000e+00 0.0000e+00 1.0000e+00
</event>
<event>
 5      1 +2.4448062e-06 9.11880000e+01 7.81860800e-03 1.13011600e-01
       25 -1    0    0    0    0 +0.0000000000e+00 +0.0000000000e+00 +9.9999998245e-15 1.2500000000e+02 1.2500000000e+02 0.0000e+00 0.0000e+00
       23  2    1    0    0    0 +1.8865902871e+01 +2.1520703898e+00 +2.2430038664e+01 9.5611901515e+01 9.0983379684e+01 0.0000e+00 0.0000e+00
      -11  1    2    2    0    0 +3.8662846259e+01 +4.2496124417e+00 +4.8905420265e+01 6.2486918778e+01 5.1100000000e-04 0.0000e+00 -1.0000e+00
       11  1    2    2    0    0 -1.9796943387e+01 -2.0975420518e+00 -2.6475381602e+01 3.3124982737e+01 5.1100000000e-04 0.0000e+00 1.0000e+00
       22  1    1    0    0    0 -1.8865902871e+01 -2.1520703898e+00 -2.2430038664e+01 2.9388098485e+01 0.0000000000e+00 0.0000e+00 -1.0000e+00
</event>
<event>
 4      1 +2.4448062e-06 9.11880000e+01 7.81860800e-03 1.13011600e-01
       25 -1    0    0    0    0 +0.0000000000e+00 +0.0000000000e+00 +9.9999998245e-15 1.2500000000e+02 1.2500000000e+02 0.0000e+00 0.0000e+00
      -11  1    1    0    0    0 -4.1477001979e+01 -3.0326151900e+01 -1.2961289009e+01 5.2990680268e+01 5.1100000000e-04 0.0000e+00 1.0000e+00
       11  1    1    0    0    0 -7.4387648795e+00 -5.4643646625e+00 -2.2876835663e+00 9.5093638303e+00 5.1100000000e-04 0.0000e+00 -1.0000e+00
       22  1    1    0    0    0 +4.8915766858e+01 +3.5790516563e+01 +1.5248972575e+01 6.2499955902e+01 0.0000000000e+00 0.0000e+00 1.0000e+00
</event>
<event>
 4      1 +2.4448062e-06 9.11880000e+01 7.81860800e-03 1.13011600e-01
       25 -1    0    0    0    0 +0.0000000000e+00 +0.0000000000e+00 +9.9999998245e-15 1.2500000000e+02 1.2500000000e+02 0.0000e+00 0.0000e+00
      -13  1    1    0    0    0 -4.4039812617e+01 -3.8959449899e+01 +2.1171550981e+01 6.2494716310e+01 1.0566000000e-01 0.0000e+00 1.0000e+00
       13  1    1    0    0    0 +4.4043609797e+01 +3.8962634428e+01 -2.1173386008e+01 6.2499999077e+01 1.0566000000e-01 0.0000e+00 1.0000e+00
       22  1    1    0    0    0 -3.7971804383e-03 -3.1845286539e-03 +1.8350279293e-03 5.2846125241e-03 0.0000000000e+00 0.0000e+00 -1.0000e+00
</event>
<event>
 4      1 +2.4448062e-06 9.11880000e+01 7.81860800e-03 1.13011600e-01
       25 -1    0    0    0    0 +0.0000000000e+00 +0.0000000000e+00 +9.9999998245e-15 1.2500000000e+02 1.2500000000e+02 0.0000e+00 0.0000e+00
      -13  1    1    0    0    0 +3.5009587413e+01 -5.1298733350e+01 -6.9164170885e+00 6.2490633246e+01 1.0566000000e-01 0.0000e+00 -1.0000e+00
       13  1    1    0    0    0 -3.5014578239e+01 +5.1306715311e+01 +6.9161124279e+00 6.2499948003e+01 1.0566000000e-01 0.0000e+00 -1.0000e+00
       22  1    1    0    0    0 +4.9908261332e-03 -7.9819610952e-03 +3.0466056790e-04 9.4187507918e-03 0.0000000000e+00 0.0000e+00 1.0000e+00
</event>
<event>
 4      1 +2.4448062e-06 9.11880000e+01 7.81860800e-03 1.13011600e-01
       25 -1    0    0    0    0 +0.0000000000e+00 +0.0000000000e+00 +9.9999998245e-15 1.2500000000e+02 1.2500000000e+02 0.0000e+00 0.0000e+00
      -11  1    1    0    0    0 +1.4519625423e+01 +2.4320554988e+01 -4.2989571658e+01 5.1482154083e+01 5.1100000000e-04 0.0000e+00 -1.0000e+00
       11  1    1    0    0    0 +9.0793739844e+00 +5.6077692155e+00 -5.3684503587e+00 1.1945809602e+01 5.1100000000e-04 0.0000e+00 1.0000e+00
       22  1    1    0    0    0 -2.3598999407e+01 -2.9928324204e+01 +4.8358022017e+01 6.1572036316e+01 0.0000000000e+00 0.0000e+00 -1.0000e+00
</event>
<event>
 4      1 +2.4448062e-06 9.11880000e+01 7.81860800e-03 1.13011600e-01
       25 -1    0    0    0    0 +0.0000000000e+00 +0.0000000000e+00 +9.9999998245e-15 1.2500000000e+02 1.2500000000e+02 0.0000e+00 0.0000e+00
      -13  1    1    0    0    0 +9.2147836227e+00 +3.1246383259e+01 -1.4208705713e+01 3.5540782012e+01 1.0566000000e-01 0.0000e+00 -1.0000e+00
       13  1    1    0    0    0 +5.3899375994e+00 +2.3489388126e+01 -1.2135072185e+01 2.6982844973e+01 1.0566000000e-01 0.0000e+00 1.0000e+00
       22  1    1    0    0    0 -1.4604721222e+01 -5.4735771385e+01 +2.6343777898e+01 6.2476373015e+01 0.0000000000e+00 0.0000e+00 -1.0000e+00
</event>
<event>
 4      1 +2.4448062e-06 9.11880000e+01 7.81860800e-03 1.13011600e-01
       25 -1    0    0    0    0 +0.0000000000e+00 +0.0000000000e+00 +9.9999998245e-15 1.2500000000e+02 1.2500000000e+02 0.0000e+00 0.0000e+00
      -13  1    1    0    0    0 -5.6017481842e+01 -2.7654810805e+01 +1.8686902455e+00 6.2499999999e+01 1.0566000000e-01 0.0000e+00 1.0000e+00
       13  1    1    0    0    0 +5.6017479361e+01 +2.7654809707e+01 -1.8686901258e+00 6.2499997285e+01 1.0566000000e-01 0.0000e+00 1.0000e+00
       22  1    1    0    0    0 +2.4812227536e-06 +1.0981750408e-06 -1.1969648875e-07 2.7160232000e-06 0.0000000000e+00 0.0000e+00 -1.0000e+00
</event>
<event>
 4      1 +2.4448062e-06 9.11880000e+01 7.81860800e-03 1.13011600e-01
       25 -1    0    0    0    0 +0.0000000000e+00 +0.0000000000e+00 +9.9999998245e-15 1.2500000000e+02 1.2500000000e+02 0.0000e+00 0.0000e+00
      -13  1    1    0    0    0 -5.2099470378e+01 -1.7523440436e+01 -2.9745204015e+01 6.2499712834e+01 1.0566000000e-01 0.0000e+00 -1.0000e+00
       13  1    1    0    0    0 +5.2099717893e+01 +1.7523456067e+01 +2.9745356415e+01 6.2499996075e+01 1.0566000000e-01 0.0000e+00 -1.0000e+00
       22  1    1    0    0    0 -2.4751533915e-04 -1.5631694239e-05 -1.5239967988e-04 2.9109080268e-04 0.0000000000e+00 0.0000e+00 1.0000e+00
</event>
<event>
 4      1 +2.4448062e-06 9.11880000e+01 7.81860800e-03 1.13011600e-01
       25 -1    0    0    0    0 +0.0000000000e+00 +0.0000000000e+00 +9.9999998245e-15 1.2500000000e+02 1.2500000000e+02 0.0000e+00 0.0000e+00
      -13  1    1    0    0    0 -5.3732438482e+00 -4.7530006856e+01 +4.0090584076e+01 6.2411853015e+01 1.0566000000e-01 0.0000e+00 1.0000e+00
       13  1    1    0    0    0 +5.3807525799e+00 +4.7597151014e+01 -4.0147198442e+01 6.2499999918e+01 1.0566000000e-01 0.0000e+00 1.0000e+00
       22  1    1    0    0    0 -7.5087316978e-03 -6.7144158124e-02 +5.6614366034e-02 8.8147067242e-02 0.0000000000e+00 0.0000e+00 -1.0000e+00
</event>
<event>
 4      1 +2.4448062e-06 9.11880000e+01 7.81860800e-03 1.13011600e-01
       25 -1    0    0    0    0 +0.0000000000e+00 +0.0000000000e+00 +9.9999998245e-15 1.2500000000e+02 1.2500000000e+02 0.0000e+00 0.0000e+00
      -13  1    1    0    0    0 +2.1364683802e+01 +4.5196205525e+01 -3.7511154793e+01 6.2499956846e+01 1.0566000000e-01 0.0000e+00 -1.0000e+00
       13  1    1    0    0    0 -2.1364698323e+01 -4.5196236708e+01 +3.7511180851e+01 6.2500000000e+01 1.0566000000e-01 0.0000e+00 -1.0000e+00
       22  1    1    0    0    0 +1.4520974114e-05 +3.1183646315e-05 -2.6058674478e-05 4.3154756426e-05 0.0000000000e+00 0.0000e+00 -1.0000e+00
</event>
<event>
 5      1 +2.4448062e-06 9.11880000e+01 7.81860800e-03 1.13011600e-01
       25 -1    0    0    0    0 +0.0000000000e+00 +0.0000000000e+00 +9.9999998245e-15 1.2500000000e+02 1.2500000000e+02 0.0000e+00 0.0000e+00
       23  2    1    0    0    0 +1.8979098625e+01 -2.1347969662e+01 +1.0231984121e+01 9.4658024251e+01 8.9663292727e+01 0.0000e+00 0.0000e+00
      -13  1    2    2    0    0 -3.1792080769e+01 +9.4464306339e+00 -4.5204286868e+00 3.3472628981e+01 1.0566000000e-01 0.0000e+00 -1.0000e+00
       13  1    2    2    0    0 +5.0771179394e+01 -3.0794400296e+01 +1.4752412808e+01 6.1185395270e+01 1.0566000000e-01 0.0000e+00 1.0000e+00
       22  1    1    0    0    0 -1.8979098625e+01 +2.1347969662e+01 -1.0231984121e+01 3.0341975749e+01 0.0000000000e+00 0.0000e+00 1.0000e+00
</event>
<event>
 4      1 +2.4448062e-06 9.11880000e+01 7.81860800e-03 1.13011600e-01
       25 -1    0    0    0    0 +0.0000000000e+00 +0.0000000000e+00 +9.9999998245e-15 1.2500000000e+02 1.2500000000e+02 0.0000e+00 0.0000e+00
      -13  1    1    0    0    0 -4.8797660867e+01 -3.6293817897e+01 -1.4414781036e+01 6.2499999999e+01 1.0566000000e-01 0.0000e+00 1.0000e+00
       13  1    1    0    0    0 +4.8797659811e+01 +3.6293817167e+01 +1.4414780765e+01 6.2499998689e+01 1.0566000000e-01 0.0000e+00 1.0000e+00
       22  1    1    0    0    0 +1.0552585240e-06 +7.2961264781e-07 +2.7058578569e-07 1.3111528652e-06 0.0000000000e+00 0.0000e+00 1.0000e+00
</event>
<event>
 4      1 +2.4448062e-06 9.11880000e+01 7.81860800e-03 1.13011600e-01
       25 -1    0    0    0    0 +0.0000000000e+00 +0.0000000000e+00 +9.9999998245e-15 1.2500000000e+02 1.2500000000e+02 0.0000e+00 0.0000e+00
      -11  1    1    0    0    0 +2.2108231122e+01 +2.6298311463e+01 +1.0993770619e+01 3.6072677498e+01 5.1100000000e-04 0.0000e+00 -1.0000e+00
       11  1    1    0    0    0 +1.6407728668e+01 +1.9202243966e+01 +7.7781528467e+00 2.6428003998e+01 5.1100000000e-04 0.0000e+00 1.0000e+00
       22  1    1    0    0    0 -3.8515959790e+01 -4.5500555429e+01 -1.8771923466e+01 6.2499318504e+01 0.0000000000e+00 0.0000e+00 -1.0000e+00
</event>
<event>
 4      1 +2.4448062e-06 9.11880000e+01 7.81860800e-03 1.13011600e-01
       25 -1    0    0    0    0 +0.0000000000e+00 +0.0000000000e+00 +9.9999998245e-15 1.2500000000e+02 1.2500000000e+02 0.0000e+00 0.0000e+00
      -13  1    1    0    0    0 +2.4690365547e+01 +1.0580771313e+01 -5.6432881077e+01 6.2499984825e+01 1.0566000000e-01 0.0000e+00 1.0000e+00
       13  1    1    0    0    0 -2.4690303450e+01 -1.0580835393e+01 +5.6432548716e+01 6.2499671044e+01 1.0566000000e-01 0.0000e+00 1.0000e+00
       22  1    1    0    0    0 -6.2097145548e-05 +6.4080038441e-05 +3.3236092483e-04 3.4413092154e-04 0.0000000000e+00 0.0000e+00 -1.0000e+00
</event>
<event>
 4      1 +2.4448062e-06 9.11880000e+01 7.81860800e-03 1.13011600e-01
       25 -1    0    0    0    0 +0.0000000000e+00 +0.0000000000e+00 +9.9999998245e-15 1.2500000000e+02 1.2500000000e+02 0.0000e+00 0.0000e+00
      -11  1    1    0    0    0 -1.0732394970e+01 -4.9333213028e+00 +3.2345761640e+00 1.2246813630e+01 5.1100000000e-04 0.0000e+00 1.0000e+00
       11  1    1    0    0    0 -4.4608163965e+01 -1.6392810420e+01 +1.6407866488e+01 5.0277535827e+01 5.1100000000e-04 0.0000e+00 -1.0000e+00
       22  1    1    0    0    0 +5.5340558935e+01 +2.1326131723e+01 -1.9642442652e+01 6.2475650544e+01 0.0000000000e+00 0.0000e+00 -1.0000e+00
</event>
<event>
 4      1 +2.4448062e-06 9.11880000e+01 7.81860800e-03 1.13011600e-01
       25 -1    0    0    0    0 +0.0000000000e+00 +0.0000000000e+00 +9.9999998245e-15 1.2500000000e+02 1.2500000000e+02 0.0000e+00 0.0000e+00
      -11  1    1    0    0    0 -3.7482933442e+01 +3.3562300540e+01 -8.9185337684e+00 5.1097343980e+01 5.1100000000e-04 0.0000e+00 1.0000e+00
       11  1    1    0    0    0 -8.3645746827e+00 +7.4895947184e+00 -1.9900817925e+00 1.1402656027e+01 5.1100000000e-04 0.0000e+00 -1.0000e+00
       22  1    1    0    0    0 +4.5847508125e+01 -4.1051895259e+01 +1.0908615561e+01 6.2499999993e+01 0.0000000000e+00 0.0000e+00 1.0000e+00
</event>
<event>
 4      1 +2.4448062e-06 9.11880000e+01 7.81860800e-03 1.13011600e-01
       25 -1    0    0    0    0 +0.0000000000e+00 +0.0000000000e+00 +9.9999998245e-15 1.2500000000e+02 1.2500000000e+02 0.0000e+00 0.0000e+00
      -13  1    1    0    0    0 +3.8418085965e+01 +2.3521788826e+01 -4.3324529707e+01 6.2499999337e+01 1.0566000000e-01 0.0000e+00 1.0000e+00
       13  1    1    0    0    0 -3.8418086354e+01 -2.3521789080e+01 +4.3324530180e+01 6.2500000000e+01 1.0566000000e-01 0.0000e+00 1.0000e+00
       22  1    1    0    0    0 +3.8911995207e-07 +2.5461325082e-07 -4.7280757761e-07 6.6316608029e-07 0.0000000000e+00 0.0000e+00 1.0000e+00
</event>
<event>
 4      1 +2.4448062e-06 9.11880000e+01 7.81860800e-03 1.13011600e-01
       25 -1    0    0    0    0 +0.0000000000e+00 +0.0000000000e+00 +9.9999998245e-15 1.2500000000e+02 1.2500000000e+02 0.0000e+00 0.0000e+00
      -13  1    1    0    0    0 +7.1827372867e+00 +3.8058850181e+01 -4.9052737372e+01 6.2499999999e+01 1.0566000000e-01 0.0000e+00 -1.0000e+00
       13  1    1    0    0    0 -7.1826062150e+00 -3.8058157544e+01 +4.9051847339e+01 6.2498864623e+01 1.0566000000e-01 0.0000e+00 -1.0000e+00
       22  1    1    0    0    0 -1.3107172848e-04 -6.9263729403e-04 +8.9003305283e-04 1.1353788153e-03 0.0000000000e+00 0.0000e+00 -1.0000e+00
</event>
<event>
 5      1 +2.4448062e-06 9.11880000e+01 7.81860800e-03 1.13011600e-01
       25 -1    0    0    0    0 +0.0000000000e+00 +0.0000000000e+00 +9.9999998245e-15 1.2500000000e+02 1.2500000000e+02 0.0000e+00 0.0000e+00
       23  2    1    0    0    0 +1.7106701894e+01 -2.2461566554e+01 -1.0007624263e+01 9.5044804038e+01 9.0200892509e+01 0.0000e+00 0.0000e+00
      -13  1    2    2    0    0 +4.6631373713e+01 -7.3631591095e+00 +1.9094300183e+01 5.0924498917e+01 1.0566000000e-01 0.0000e+00 1.0000e+00
       13  1    2    2    0    0 -2.9524671819e+01 -1.5098407444e+01 -2.9101924447e+01 4.4120305121e+01 1.0566000000e-01 0.0000e+00 -1.0000e+00
       22  1    1    0    0    0 -1.7106701894e+01 +2.2461566554e+01 +1.0007624263e+01 2.9955195962e+01 0.0000000000e+00 0.0000e+00 -1.0000e+00
</event>
<event>
 4      1 +2.4448062e-06 9.11880000e+01 7.81860800e-03 1.13011600e-01
       25 -1    0    0    0    0 +0.0000000000e+00 +0.0000000000e+00 +9.9999998245e-15 1.2500000000e+02 1.2500000000e+02 0.0000e+00 0.0000e+00
      -11  1    1    0    0    0 +6.4403195133e+00 +2.7494427194e+00 +8.2641250191e+00 1.0832031817e+01 5.1100000000e-04 0.0000e+00 1.0000e+00
       11  1    1    0    0    0 +3.0253366621e+01 +1.3474828767e+01 +3.9658249874e+01 5.1668307361e+01 5.1100000000e-04 0.0000e+00 -1.0000e+00
       22  1    1    0    0    0 -3.6693686135e+01 -1.6224271486e+01 -4.7922374893e+01 6.2499660822e+01 0.0000000000e+00 0.0000e+00 -1.0000e+00
</event>
<event>
 5      1 +2.4448062e-06 9.11880000e+01 7.81860800e-03 1.13011600e-01
       25 -1    0    0    0    0 +0.0000000000e+00 +0.0000000000e+00 +9.9999998245e-15 1.2500000000e+02 1.2500000000e+02 0.0000e+00 0.0000e+00
       23  2    1    0    0    0 +1.7713389547e+01 +2.4673880449e+01 -3.1655929455e+00 9.4461736716e+01 8.9389228541e+01 0.0000e+00 0.0000e+00
      -11  1    2    2    0    0 +6.9716778959e+00 -2.5860814848e+01 +2.4112496719e+01 3.6038847589e+01 5.1100000000e-04 0.0000e+00 -1.0000e+00
       11  1    2    2    0    0 +1.0741711651e+01 +5.0534695297e+01 -2.7278089664e+01 5.8422889127e+01 5.1100000000e-04 0.0000e+00 1.0000e+00
       22  1    1    0    0    0 -1.7713389547e+01 -2.4673880449e+01 +3.1655929455e+00 3.0538263284e+01 0.0000000000e+00 0.0000e+00 1.0000e+00
</event>
<event>
 4      1 +2.4448062e-06 9.11880000e+01 7.81860800e-03 1.13011600e-01
       25 -1    0    0    0    0 +0.0000000000e+00 +0.0000000000e+00 +9.9999998245e-15 1.2500000000e+02 1.2500000000e+02 0.0000e+00 0.0000e+00
      -13  1    1    0    0    0 -4.3285910204e+01 +3.9877611623e+01 -2.1031820561e+01 6.2499940568e+01 1.0566000000e-01 0.0000e+00 1.0000e+00
       13  1    1    0    0    0 +4.3285954757e+01 -3.9877645397e+01 +2.1031841077e+01 6.2499999878e+01 1.0566000000e-01 0.0000e+00 1.0000e+00
       22  1    1    0    0    0 -4.4553184015e-05 +3.3774549886e-05 -2.0516006295e-05 5.9553446082e-05 0.0000000000e+00 0.0000e+00 1.0000e+00
</event>
<event>
 4      1 +2.4448062e-06 9.11880000e+01 7.81860800e-03 1.13011600e-01
       25 -1    0    0    0    0 +0.0000000000e+00 +0.0000000000e+00 +9.9999998245e-15 1.2500000000e+02 1.2500000000e+02 0.0000e+00 0.0000e+00
      -13  1    1    0    0    0 -4.9672451145e+01 -1.9700735839e+01 +3.2415543194e+01 6.2500000000e+01 1.0566000000e-01 0.0000e+00 -1.0000e+00
       13  1    1    0    0    0 +4.9672451145e+01 +1.9700735839e+01 -3.2415543194e+01 6.2500000000e+01 1.0566000000e-01 0.0000e+00 -1.0000e+00
       22  1    1    0    0    0 -2.9463159188e-10 -1.8046020733e-10 +1.6038040395e-10 3.8091407868e-10 0.0000000000e+00 0.0000e+00 1.0000e+00
</event>
<event>
 4      1 +2.4448062e-06 9.11880000e+01 7.81860800e-03 1.13011600e-01
       25 -1    0    0    0    0 +0.0000000000e+00 +0.0000000000e+00 +9.9999998245e-15 1.2500000000e+02 1.2500000000e+02 0.0000e+00 0.0000e+00
      -13  1    1    0    0    0 +3.2092194363e+01 -1.8945181655e+01 -5.0173797833e+01 6.2500000000e+01 1.0566000000e-01 0.0000e+00 1.0000e+00
       13  1    1    0    0    0 -3.2092194363e+01 +1.8945181655e+01 +5.0173797833e+01 6.2500000000e+01 1.0566000000e-01 0.0000e+00 1.0000e+00
       22  1    1    0    0    0 -1.3216726216e-11 +5.7851046394e-12 +9.5753587529e-11 9.6834388582e-11 0.0000000000e+00 0.0000e+00 1.0000e+00
</event>
<event>
 4      1 +2.4448062e-06 9.11880000e+01 7.81860800e-03 1.13011600e-01
       25 -1    0    0    0    0 +0.0000000000e+00 +0.0000000000e+00 +9.9999998245e-15 1.2500000000e+02 1.2500000000e+02 0.0000e+00 0.0000e+00
      -11  1    1    0    0    0 +1.6554099173e+01 +1.9630483079e+01 -3.7114570488e+00 2.5945500169e+01 5.1100000000e-04 0.0000e+00 1.0000e+00
       11  1    1    0    0    0 +2.3112039969e+01 +2.7525606983e+01 -6.6982793863e+00 3.6560803852e+01 5.1100000000e-04 0.0000e+00 -1.0000e+00
       22  1    1    0    0    0 -3.9666139142e+01 -4.7156090062e+01 +1.0409736435e+01 6.2493695978e+01 0.0000000000e+00 0.0000e+00 -1.0000e+00
</event>
<event>
 4      1 +2.4448062e-06 9.11880000e+01 7.81860800e-03 1.13011600e-01
       25 -1    0    0    0    0 +0.0000000000e+00 +0.0000000000e+00 +9.9999998245e-15 1.2500000000e+02 1.2500000000e+02 0.0000e+00 0.0000e+00
      -13  1    1    0    0    0 -6.8302855111e+00 -4.8535989843e+01 -3.8777439043e+01 6.2498768411e+01 1.0566000000e-01 0.0000e+00 -1.0000e+00
       13  1    1    0    0    0 +6.8249671989e+00 +4.8527694571e+01 +3.8758925993e+01 6.2480259489e+01 1.0566000000e-01 0.0000e+00 -1.0000e+00
       22  1    1    0    0    0 +5.3183121830e-03 +8.2952716969e-03 +1.8513049471e-02 2.0972099984e-02 0.0000000000e+00 0.0000e+00 -1.0000e+00
</event>
<event>
 4      1 +2.4448062e-06 9.11880000e+01 7.81860800e-03 1.13011600e-01
       25 -1    0    0    0    0 +0.0000000000e+00 +0.0000000000e+00 +9.9999998245e-15 1.2500000000e+02 1.2500000000e+02 0.0000e+00 0.0000e+00
      -13  1    1    0    0    0 +1.0945283827e-01 -5.7316410638e+01 -1.6953082081e+01 5.9771239442e+01 1.0566000000e-01 0.0000e+00 1.0000e+00
       13  1    1    0    0    0 -9.1513906483e-01 +5.9267883023e+01 +1.9042189338e+01 6.2258618491e+01 1.0566000000e-01 0.0000e+00 1.0000e+00
       22  1    1    0    0    0 +8.0568622655e-01 -1.9514723855e+00 -2.0891072574e+00 2.9701420673e+00 0.0000000000e+00 0.0000e+00 1.0000e+00
</event>
<event>
 4      1 +2.4448062e-06 9.11880000e+01 7.81860800e-03 1.13011600e-01
       25 -1    0    0    0    0 +0.0000000000e+00 +0.0000000000e+00 +9.9999998245e-15 1.2500000000e+02 1.2500000000e+02 0.0000e+00 0.0000e+00
      -13  1    1    0    0    0 +4.3824397419e+01 +1.4676519655e+01 +4.2074466404e+01 6.2499999405e+01 1.0566000000e-01 0.0000e+00 -1.0000e+00
       13  1    1    0    0    0 -4.3824397834e+01 -1.4676519877e+01 -4.2074466774e+01 6.2499999997e+01 1.0566000000e-01 0.0000e+00 -1.0000e+00
       22  1    1    0    0    0 +4.1497198744e-07 +2.2185040853e-07 +3.6968521711e-07 5.9840330370e-07 0.0000000000e+00 0.0000e+00 -1.0000e+00
</event>
<event>
 4      1 +2.4448062e-06 9.11880000e+01 7.81860800e-03 1.13011600e-01
       25 -1    0    0    0    0 +0.0000000000e+00 +0.0000000000e+00 +9.9999998245e-15 1.2500000000e+02 1.2500000000e+02 0.0000e+00 0.0000e+00
      -11  1    1    0    0    0 +1.3075815242e+00 +4.0381122620e+01 +1.1898062115e+01 4.2117795714e+01 5.1100000000e-04 0.0000e+00 1.0000e+00
       11  1    1    0    0    0 +2.5863040978e-01 +1.9435103246e+01 +6.1437198986e+00 2.0384685976e+01 5.1100000000e-04 0.0000e+00 -1.0000e+00
       22  1    1    0    0    0 -1.5662119339e+00 -5.9816225866e+01 -1.8041782014e+01 6.2497518310e+01 0.0000000000e+00 0.0000e+00 1.0000e+00
</event>
<event>
 4      1 +2.4448062e-06 9.11880000e+01 7.81860800e-03 1.13011600e-01
       25 -1    0    0    0    0 +0.0000000000e+00 +0.0000000000e+00 +9.9999998245e-15 1.2500000000e+02 1.2500000000e+02 0.0000e+00 0.0000e+00
      -13  1    1    0    0    0 -1.2048389587e-01 -4.7031260340e+01 -4.1161691643e+01 6.2499999908e+01 1.0566000000e-01 0.0000e+00 1.0000e+00
       13  1    1    0    0    0 +1.2048386232e-01 +4.7031260399e+01 +4.1161691710e+01 6.2499999997e+01 1.0566000000e-01 0.0000e+00 1.0000e+00
       22  1    1    0    0    0 +3.3546777564e-08 -5.9031563031e-08 -6.7233916332e-08 9.5553708584e-08 0.0000000000e+00 0.0000e+00 1.0000e+00
</event>
<event>
 4      1 +2.4448062e-06 9.11880000e+01 7.81860800e-03 1.13011600e-01
       25 -1    0    0    0    0 +0.0000000000e+00 +0.0000000000e+00 +9.9999998245e-15 1.2500000000e+02 1.2500000000e+02 0.0000e+00 0.0000e+00
      -11  1    1    0    0    0 +1.1427970350e+01 -9.9684400929e+00 -4.9408321154e+00 1.5949298620e+01 5.1100000000e-04 0.0000e+00 -1.0000e+00
       11  1    1    0    0    0 +4.7697739167e+01 +1.1786029990e+01 -3.6902021740e+00 4.9270705464e+01 5.1100000000e-04 0.0000e+00 1.0000e+00
       22  1    1    0    0    0 -5.9125709517e+01 -1.8175898971e+00 +8.6310342894e+00 5.9779995917e+01 0.0000000000e+00 0.0000e+00 1.0000e+00
</event>
<event>
 5      1 +2.4448062e-06 9.11880000e+01 7.81860800e-03 1.13011600e-01
       25 -1    0    0    0    0 +0.0000000000e+00 +0.0000000000e+00 +9.9999998245e-15 1.2500000000e+02 1.2500000000e+02 0.0000e+00 0.0000e+00
       23  2    1    0    0    0 +7.0168857809e+00 -2.6242806473e+01 +1.6922827262e+01 9.2995255662e+01 8.7314454218e+01 0.0000e+00 0.0000e+00
      -11  1    2    2    0    0 +6.4383306098e+00 +8.7250611609e+00 -3.1471313653e+01 3.3286970072e+01 5.1100000000e-04 0.0000e+00 -1.0000e+00
       11  1    2    2    0    0 +5.7855517106e-01 -3.4967867633e+01 +4.8394140915e+01 5.9708285590e+01 5.1100000000e-04 0.0000e+00 1.0000e+00
       22  1    1    0    0    0 -7.0168857809e+00 +2.6242806473e+01 -1.6922827262e+01 3.2004744338e+01 0.0000000000e+00 0.0000e+00 1.0000e+00
</event>
<event>
 4      1 +2.4448062e-06 9.11880000e+01 7.81860800e-03 1.13011600e-01
       25 -1    0    0    0    0 +0.0000000000e+00 +0.0000000000e+00 +9.9999998245e-15 1.2500000000e+02 1.2500000000e+02 0.0000e+00 0.0000e+00
      -13  1    1    0    0    0 +1.6487808917e+01 +1.1596648319e+01 -2.7462211823e+01 3.4066322628e+01 1.0566000000e-01 0.0000e+00 1.0000e+00
       13  1    1    0    0    0 -3.0207293792e+01 -2.1091416035e+01 +5.0486413869e+01 6.2499740623e+01 1.0566000000e-01 0.0000e+00 1.0000e+00
       22  1    1    0    0    0 +1.3719484875e+01 +9.4947677153e+00 -2.3024202046e+01 2.8433936749e+01 0.0000000000e+00 0.0000e+00 1.0000e+00
</event>
<event>
 5      1 +2.4448062e-06 9.11880000e+01 7.81860800e-03 1.13011600e-01
       25 -1    0    0    0    0 +0.0000000000e+00 +0.0000000000e+00 +9.9999998245e-15 1.2500000000e+02 1.2500000000e+02 0.0000e+00 0.0000e+00
       23  2    1    0    0    0 -9.6296814958e+00 -2.9888827277e+01 +3.6631263038e+00 9.3385268370e+01 8.7871025330e+01 0.0000e+00 0.0000e+00
      -11  1    2    2    0    0 -3.8367474427e+01 +9.5597324497e+00 +1.6615327325e+01 4.2889633721e+01 5.1100000000e-04 0.0000e+00 -1.0000e+00
       11  1    2    2    0    0 +2.8737792931e+01 -3.9448559727e+01 -1.2952201021e+01 5.0495634649e+01 5.1100000000e-04 0.0000e+00 1.0000e+00
       22  1    1    0    0    0 +9.6296814958e+00 +2.9888827277e+01 -3.6631263038e+00 3.1614731630e+01 0.0000000000e+00 0.0000e+00 -1.0000e+00
</event>
<event>
 4      1 +2.4448062e-06 9.11880000e+01 7.81860800e-03 1.13011600e-01
       25 -1    0    0    0    0 +0.0000000000e+00 +0.0000000000e+00 +9.9999998245e-15 1.2500000000e+02 1.2500000000e+02 0.0000e+00 0.0000e+00
      -13  1    1    0    0    0 -1.9779800107e+01 -3.7151363247e+01 +4.6203613655e+01 6.2499994898e+01 1.0566000000e-01 0.0000e+00 -1.0000e+00
       13  1    1    0    0    0 +1.9779801721e+01 +3.7151366326e+01 -4.6203617390e+01 6.2500000000e+01 1.0566000000e-01 0.0000e+00 -1.0000e+00
       22  1    1    0    0    0 -1.6134736763e-06 -3.0790030949e-06 +3.7346580272e-06 5.1020807464e-06 0.0000000000e+00 0.0000e+00 -1.0000e+00
</event>
<event>
 5      1 +2.4448062e-06 9.11880000e+01 7.81860800e-03 1.13011600e-01
       25 -1    0    0    0    0 +0.0000000000e+00 +0.0000000000e+00 +9.9999998245e-15 1.2500000000e+02 1.2500000000e+02 0.0000e+00 0.0000e+00
       23  2    1    0    0    0 +2.2895797760e+01 -8.3788143411e+00 -1.9670215099e+01 9.3673662090e+01 8.8280323529e+01 0.0000e+00 0.0000e+00
      -11  1    2    2    0    0 +2.9258497699e+01 -1.9206871146e+01 -4.9893241074e+01 6.0945049775e+01 5.1100000000e-04 0.0000e+00 -1.0000e+00
       11  1    2    2    0    0 -6.3626999391e+00 +1.0828056805e+01 +3.0223025975e+01 3.2728612315e+01 5.1100000000e-04 0.0000e+00 1.0000e+00
       22  1    1    0    0    0 -2.2895797760e+01 +8.3788143411e+00 +1.9670215099e+01 3.1326337910e+01 0.0000000000e+00 0.0000e+00 -1.0000e+00
</event>
<event>
 5      1 +2.4448062e-06 9.11880000e+01 7.81860800e-03 1.13011600e-01
       25 -1    0    0    0    0 +0.0000000000e+00 +0.0000000000e+00 +9.9999998245e-15 1.2500000000e+02 1.2500000000e+02 0.0000e+00 0.0000e+00
       23  2    1    0    0    0 +1.6799075168e+01 +2.0542269451e+01 -1.1853418117e+01 9.5936323671e+01 9.1428009481e+01 0.0000e+00 0.0000e+00
      -11  1    2    2    0    0 -3.2812272752e+01 +3.0021297759e+01 -2.3096786210e+00 4.4533786925e+01 5.1100000000e-04 0.0000e+00 1.0000e+00
       11  1    2    2    0    0 +4.9611347920e+01 -9.4790283080e+00 -9.5437394960e+00 5.1402536746e+01 5.1100000000e-04 0.0000e+00 -1.0000e+00
       22  1    1    0    0    0 -1.6799075168e+01 -2.0542269451e+01 +1.1853418117e+01 2.9063676329e+01 0.0000000000e+00 0.0000e+00 -1.0000e+00
</event>
<event>
 4      1 +2.4448062e-06 9.11880000e+01 7.81860800e-03 1.13011600e-01
       25 -1    0    0    0    0 +0.0000000000e+00 +0.0000000000e+00 +9.9999998245e-15 1.2500000000e+02 1.2500000000e+02 0.0000e+00 0.0000e+00
      -11  1    1    0    0    0 -1.6396156539e+00 -1.1861764688e+00 +1.9847821007e+00 2.8345571710e+00 5.1100000000e-04 0.0000e+00 -1.0000e+00
       11  1    1    0    0    0 -3.4501731011e+01 -2.4973971899e+01 +4.1783924656e+01 5.9665442889e+01 5.1100000000e-04 0.0000e+00 -1.0000e+00
       22  1    1    0    0    0 +3.6141346665e+01 +2.6160148368e+01 -4.3768706757e+01 6.2499999940e+01 0.0000000000e+00 0.0000e+00 -1.0000e+00
</event>
<event>
 4      1 +2.4448062e-06 9.11880000e+01 7.81860800e-03 1.13011600e-01
       25 -1    0    0    0    0 +0.0000000000e+00 +0.0000000000e+00 +9.9999998245e-15 1.2500000000e+02 1.2500000000e+02 0.0000e+00 0.0000e+00
      -13  1    1    0    0    0 -5.6408094854e+01 -3.0288268483e+00 +2.6743071603e+01 6.2500000000e+01 1.0566000000e-01 0.0000e+00 -1.0000e+00
       13  1    1    0    0    0 +5.6408094854e+01 +3.0288268483e+00 -2.6743071603e+01 6.2500000000e+01 1.0566000000e-01 0.0000e+00 -1.0000e+00
       22  1    1    0    0    0 -1.0271732632e-12 -1.1326047107e-12 +5.2479330975e-12 5.4661394182e-12 0.0000000000e+00 0.0000e+00 1.0000e+00
</event>
<event>
 4      1 +2.4448062e-06 9.11880000e+01 7.81860800e-03 1.13011600e-01
       25 -1    0    0    0    0 +0.0000000000e+00 +0.0000000000e+00 +9.9999998245e-15 1.2500000000e+02 1.2500000000e+02 0.0000e+00 0.0000e+00
      -13  1    1    0    0    0 +4.5510396535e+01 -1.7344744570e+00 +4.2802269111e+01 6.2499999997e+01 1.0566000000e-01 0.0000e+00 1.0000e+00
       13  1    1    0    0    0 -4.5510199045e+01 +1.7344674859e+00 -4.2802080955e+01 6.2499727141e+01 1.0566000000e-01 0.0000e+00 1.0000e+00
       22  1    1    0    0    0 -1.9749013009e-04 +6.9711177956e-06 -1.8815654356e-04 2.7286229650e-04 0.0000000000e+00 0.0000e+00 -1.0000e+00
</event>
<event>
 5      1 +2.4448062e-06 9.11880000e+01 7.81860800e-03 1.13011600e-01
       25 -1    0    0    0    0 +0.0000000000e+00 +0.0000000000e+00 +9.9999998245e-15 1.2500000000e+02 1.2500000000e+02 0.0000e+00 0.0000e+00
       23  2    1    0    0    0 +7.0273754042e+00 +5.8435527494e+00 +3.2792757285e+01 9.0957437756e+01 8.4346662287e+01 0.0000e+00 0.0000e+00
      -11  1    2    2    0    0 +3.8617653105e+01 +4.5678098186e+00 +4.2769144954e+01 5.7804738372e+01 5.1100000000e-04 0.0000e+00 -1.0000e+00
       11  1    2    2    0    0 -3.1590277701e+01 +1.2757429308e+00 -9.9763876685e+00 3.3152699384e+01 5.1100000000e-04 0.0000e+00 1.0000e+00
       22  1    1    0    0    0 -7.0273754042e+00 -5.8435527494e+00 -3.2792757285e+01 3.4042562244e+01 0.0000000000e+00 0.0000e+00 -1.0000e+00
</event>
<event>
 5      1 +2.4448062e-06 9.11880000e+01 7.81860800e-03 1.13011600e-01
       25 -1    0    0    0    0 +0.0000000000e+00 +0.0000000000e+00 +9.9999998245e-15 1.2500000000e+02 1.2500000000e+02 0.0000e+00 0.0000e+00
       23  2    1    0    0    0 +1.3582900239e+01 -2.4037746308e+01 +4.0138868758e+00 9.7099825909e+01 9.3005142208e+01 0.0000e+00 0.0000e+00
      -11  1    2    2    0    0 -1.3653459499e-01 +3.4507673738e+01 -8.8129728532e+00 3.5615539857e+01 5.1100000000e-04 0.0000e+00 -1.0000e+00
       11  1    2    2    0    0 +1.3719434834e+01 -5.8545420046e+01 +1.2826859729e+01 6.1484286052e+01 5.1100000000e-04 0.0000e+00 1.0000e+00
       22  1    1    0    0    0 -1.3582900239e+01 +2.4037746308e+01 -4.0138868758e+00 2.7900174091e+01 0.0000000000e+00 0.0000e+00 1.0000e+00
</event>
<event>
 4      1 +2.4448062e-06 9.11880000e+01 7.81860800e-03 1.13011600e-01
       25 -1    0    0    0    0 +0.0000000000e+00 +0.0000000000e+00 +9.9999998245e-15 1.2500000000e+02 1.2500000000e+02 0.0000e+00 0.0000e+00
      -13  1    1    0    0    0 -4.8142492279e+01 +3.2041359383e+01 -2.3154038128e+01 6.2293409921e+01 1.0566000000e-01 0.0000e+00 -1.0000e+00
       13  1    1    0    0    0 +4.8072099302e+01 -3.2343016809e+01 +2.2882296948e+01 6.2294527410e+01 1.0566000000e-01 0.0000e+00 -1.0000e+00
       22  1    1    0    0    0 +7.0392977111e-02 +3.0165742649e-01 +2.7174117945e-01 4.1206266853e-01 0.0000000000e+00 0.0000e+00 -1.0000e+00
</event>
<event>
 4      1 +2.4448062e-06 9.11880000e+01 7.81860800e-03 1.13011600e-01
       25 -1    0    0    0    0 +0.0000000000e+00 +0.0000000000e+00 +9.9999998245e-15 1.2500000000e+02 1.2500000000e+02 0.0000e+00 0.0000e+00
      -11  1    1    0    0    0 +3.3195385055e+01 -1.7645129304e+01 +1.6443784473e+01 4.1032697025e+01 5.1100000000e-04 0.0000e+00 1.0000e+00
       11  1    1    0    0    0 +1.6493958682e+01 -1.0425730363e+01 +8.9926074199e+00 2.1485192927e+01 5.1100000000e-04 0.0000e+00 -1.0000e+00
       22  1    1    0    0    0 -4.9689343738e+01 +2.8070859668e+01 -2.5436391892e+01 6.2482110048e+01 0.0000000000e+00 0.0000e+00 1.0000e+00
</event>
<event>
 4      1 +2.4448062e-06 9.11880000e+01 7.81860800e-03 1.13011600e-01
       25 -1    0    0    0    0 +0.0000000000e+00 +0.0000000000e+00 +9.9999998245e-15 1.2500000000e+02 1.2500000000e+02 0.0000e+00 0.0000e+00
      -13  1    1    0    0    0 +3.4184589421e+01 +3.7680676745e+01 +3.6301620693e+01 6.2499907063e+01 1.0566000000e-01 0.0000e+00 -1.0000e+00
       13  1    1    0    0    0 -2.4117087528e+01 -2.6675597550e+01 -2.5666098532e+01 4.4181231234e+01 1.0566000000e-01 0.0000e+00 -1.0000e+00
       22  1    1    0    0    0 -1.0067501893e+01 -1.1005079195e+01 -1.0635522162e+01 1.8318861703e+01 0.0000000000e+00 0.0000e+00 -1.0000e+00
</event>
<event>
 4      1 +2.4448062e-06 9.11880000e+01 7.81860800e-03 1.13011600e-01
       25 -1    0    0    0    0 +0.0000000000e+00 +0.0000000000e+00 +9.9999998245e-15 1.2500000000e+02 1.2500000000e+02 0.0000e+00 0.0000e+00
      -13  1    1    0    0    0 +1.3873220888e+01 +5.2567067094e+01 +3.0829788112e+01 6.2499998398e+01 1.0566000000e-01 0.0000e+00 1.0000e+00
       13  1    1    0    0    0 -1.3776048634e+01 -5.2197813464e+01 -3.0611572268e+01 6.2060218878e+01 1.0566000000e-01 0.0000e+00 1.0000e+00
       22  1    1    0    0    0 -9.7172253949e-02 -3.6925362998e-01 -2.1821584411e-01 4.3978272455e-01 0.0000000000e+00 0.0000e+00 1.0000e+00
</event>
<event>
 4      1 +2.4448062e-06 9.11880000e+01 7.81860800e-03 1.13011600e-01
       25 -1    0    0    0    0 +0.0000000000e+00 +0.0000000000e+00 +9.9999998245e-15 1.2500000000e+02 1.2500000000e+02 0.0000e+00 0.0000e+00
      -13  1    1    0    0    0 +2.7977303554e+01 -1.9246951704e+01 +5.2468928135e+01 6.2499393979e+01 1.0566000000e-01 0.0000e+00 -1.0000e+00
       13  1    1    0    0    0 -2.7845773305e+01 +1.9122521494e+01 -5.2181671891e+01 6.2161048612e+01 1.0566000000e-01 0.0000e+00 -1.0000e+00
       22  1    1    0    0    0 -1.3153024927e-01 +1.2443020968e-01 -2.8725624470e-01 3.3955740851e-01 0.0000000000e+00 0.0000e+00 1.0000e+00
</event>
<event>
 4      1 +2.4448062e-06 9.11880000e+01 7.81860800e-03 1.13011600e-01
       25 -1    0    0    0    0 +0.0000000000e+00 +0.0000000000e+00 +9.9999998245e-15 1.2500000000e+02 1.2500000000e+02 0.0000e+00 0.0000e+00
      -13  1    1    0    0    0 -4.1462754723e+01 -2.3018413847e+01 -4.0709101861e+01 6.2499996349e+01 1.0566000000e-01 0.0000e+00 1.0000e+00
       13  1    1    0    0    0 +4.1455293222e+01 +2.3014203908e+01 +4.0702268552e+01 6.2489045015e+01 1.0566000000e-01 0.0000e+00 1.0000e+00
       22  1    1    0    0    0 +7.4615010161e-03 +4.2099394012e-03 +6.8333094350e-03 1.0958636093e-02 0.0000000000e+00 0.0000e+00 1.0000e+00
</event>
<event>
 4      1 +2.4448062e-06 9.11880000e+01 7.81860800e-03 1.13011600e-01
       25 -1    0    0    0    0 +0.0000000000e+00 +0.0000000000e+00 +9.9999998245e-15 1.2500000000e+02 1.2500000000e+02 0.0000e+00 0.0000e+00
      -13  1    1    0    0    0 +3.3128548329e+01 +1.8648175092e+01 -4.9592044605e+01 6.2487096274e+01 1.0566000000e-01 0.0000e+00 -1.0000e+00
       13  1    1    0    0    0 -3.3135121984e+01 -1.8652613375e+01 +4.9602233066e+01 6.2499991870e+01 1.0566000000e-01 0.0000e+00 -1.0000e+00
       22  1    1    0    0    0 +6.5736553052e-03 +4.4382822937e-03 -1.0188460319e-02 1.2911855694e-02 0.0000000000e+00 0.0000e+00 1.0000e+00
</event>
<event>
 4      1 +2.4448062e-06 9.11880000e+01 7.81860800e-03 1.13011600e-01
       25 -1    0    0    0    0 +0.0000000000e+00 +0.0000000000e+00 +9.9999998245e-15 1.2500000000e+02 1.2500000000e+02 0.0000e+00 0.0000e+00
      -13  1    1    0    0    0 -2.1761756386e+01 +5.2490413548e+01 -2.6026933714e+01 6.2499839984e+01 1.0566000000e-01 0.0000e+00 -1.0000e+00
       13  1    1    0    0    0 +1.4323001398e+01 -3.4625234541e+01 +1.7072217405e+01 4.1176777523e+01 1.0566000000e-01 0.0000e+00 -1.0000e+00
       22  1    1    0    0    0 +7.4387549879e+00 -1.7865179007e+01 +8.9547163095e+00 2.1323382492e+01 0.0000000000e+00 0.0000e+00 1.0000e+00
</event>
<event>
 4      1 +2.4448062e-06 9.11880000e+01 7.81860800e-03 1.13011600e-01
       25 -1    0    0    0    0 +0.0000000000e+00 +0.0000000000e+00 +9.9999998245e-15 1.2500000000e+02 1.2500000000e+02 0.0000e+00 0.0000e+00
      -13  1    1    0    0    0 +5.0777270564e+01 -2.2688096511e+01 -2.8515918702e+01 6.2499997701e+01 1.0566000000e-01 0.0000e+00 1.0000e+00
       13  1    1    0    0    0 -5.0750916161e+01 +2.2676105309e+01 +2.8500500651e+01 6.2467198949e+01 1.0566000000e-01 0.0000e+00 1.0000e+00
       22  1    1    0    0    0 -2.6354402687e-02 +1.1991202357e-02 +1.5418050518e-02 3.2803349778e-02 0.0000000000e+00 0.0000e+00 1.0000e+00
</event>
<event>
 4      1 +2.4448062e-06 9.11880000e+01 7.81860800e-03 1.13011600e-01
       25 -1    0    0    0    0 +0.0000000000e+00 +0.0000000000e+00 +9.9999998245e-15 1.2500000000e+02 1.2500000000e+02 0.0000e+00 0.0000e+00
      -13  1    1    0    0    0 -3.6062567268e+00 -2.7716109052e+01 -5.5902156017e+01 6.2500000000e+01 1.0566000000e-01 0.0000e+00 1.0000e+00
       13  1    1    0    0    0 +3.6062567269e+00 +2.7716109052e+01 +5.5902156018e+01 6.2500000000e+01 1.0566000000e-01 0.0000e+00 1.0000e+00
       22  1    1    0    0    0 -9.9530867355e-11 -2.6825976483e-11 -1.6456594892e-10 1.9418542199e-10 0.0000000000e+00 0.0000e+00 -1.0000e+00
</event>
<event>
 5      1 +2.4448062e-06 9.11880000e+01 7.81860800e-03 1.13011600e-01
       25 -1    0    0    0    0 +0.0000000000e+00 +0.0000000000e+00 +9.9999998245e-15 1.2500000000e+02 1.2500000000e+02 0.0000e+00 0.0000e+00
       23  2    1    0    0    0 -3.1410612418e+00 +2.7437187338e+01 +1.4249397141e+01 9.3924111700e+01 8.8634236755e+01 0.0000e+00 0.0000e+00
      -11  1    2    2    0    0 +2.1503422429e+01 +1.9157673479e+00 +4.3094470028e+01 4.8199592197e+01 5.1100000000e-04 0.0000e+00 -1.0000e+00
       11  1    2    2    0    0 -2.4644483671e+01 +2.5521419990e+01 -2.8845072887e+01 4.5724519503e+01 5.1100000000e-04 0.0000e+00 1.0000e+00
       22  1    1    0    0    0 +3.1410612418e+00 -2.7437187338e+01 -1.4249397141e+01 3.1075888300e+01 0.0000000000e+00 0.0000e+00 -1.0000e+00
</event>
<event>
 4      1 +2.4448062e-06 9.11880000e+01 7.81860800e-03 1.13011600e-01
       25 -1    0    0    0    0 +0.0000000000e+00 +0.0000000000e+00 +9.9999998245e-15 1.2500000000e+02 1.2500000000e+02 0.0000e+00 0.0000e+00
      -13  1    1    0    0    0 +2.9515917222e+00 +3.6137847906e+01 +5.0587773812e+01 6.2239778023e+01 1.0566000000e-01 0.0000e+00 1.0000e+00
       13  1    1    0    0    0 -2.9618147579e+00 -3.6286340365e+01 -5.0801241763e+01 6.2499985380e+01 1.0566000000e-01 0.0000e+00 1.0000e+00
       22  1    1    0    0    0 +1.0223035703e-02 +1.4849245822e-01 +2.1346795091e-01 2.6023659749e-01 0.0000000000e+00 0.0000e+00 -1.0000e+00
</event>
<event>
 4      1 +2.4448062e-06 9.11880000e+01 7.81860800e-03 1.13011600e-01
       25 -1    0    0    0    0 +0.0000000000e+00 +0.0000000000e+00 +9.9999998245e-15 1.2500000000e+02 1.2500000000e+02 0.0000e+00 0.0000e+00
      -13  1    1    0    0    0 +1.6614212746e+01 +2.1486637815e+01 +7.2555355054e+00 2.8113371005e+01 1.0566000000e-01 0.0000e+00 -1.0000e+00
       13  1    1    0    0    0 -1.3769756100e+01 -2.5396237543e+01 +4.0023746492e+01 4.9360779083e+01 1.0566000000e-01 0.0000e+00 1.0000e+00
       22  1    1    0    0    0 -2.8444566458e+00 +3.9095997282e+00 -4.7279281998e+01 4.7525849912e+01 0.0000000000e+00 0.0000e+00 1.0000e+00
</event>
<event>
 5      1 +2.4448062e-06 9.11880000e+01 7.81860800e-03 1.13011600e-01
       25 -1    0    0    0    0 +0.0000000000e+00 +0.0000000000e+00 +9.9999998245e-15 1.2500000000e+02 1.2500000000e+02 0.0000e+00 0.0000e+00
       23  2    1    0    0    0 -1.4549866296e+01 -2.2485636974e+01 +8.7716892645e+00 9.6817647155e+01 9.2625114244e+01 0.0000e+00 0.0000e+00
      -13  1    2    2    0    0 +2.8260834378e+01 +1.6399427187e+01 -1.2798519035e+01 3.5091725881e+01 1.0566000000e-01 0.0000e+00 -1.0000e+00
       13  1    2    2    0    0 -4.2810700673e+01 -3.8885064161e+01 +2.1570208299e+01 6.1725921274e+01 1.0566000000e-01 0.0000e+00 1.0000e+00
       22  1    1    0    0    0 +1.4549866296e+01 +2.2485636974e+01 -8.7716892645e+00 2.8182352845e+01 0.0000000000e+00 0.0000e+00 1.0000e+00
</event>
<event>
 4      1 +2.4448062e-06 9.11880000e+01 7.81860800e-03 1.13011600e-01
       25 -1    0    0    0    0 +0.0000000000e+00 +0.0000000000e+00 +9.9999998245e-15 1.2500000000e+02 1.2500000000e+02 0.0000e+00 0.0000e+00
      -13  1    1    0    0    0 +1.8825260790e+00 +2.5102808986e+00 +6.2421097499e+01 6.2499999933e+01 1.0566000000e-01 0.0000e+00 1.0000e+00
       13  1    1    0    0    0 -1.8825258860e+00 -2.5102809329e+00 -6.2421097429e+01 6.2499999859e+01 1.0566000000e-01 0.0000e+00 1.0000e+00
       22  1    1    0    0    0 -1.9301581821e-07 +3.4331557902e-08 -6.9679689235e-08 2.0806013804e-07 0.0000000000e+00 0.0000e+00 1.0000e+00
</event>
<event>
 4      1 +2.4448062e-06 9.11880000e+01 7.81860800e-03 1.13011600e-01
       25 -1    0    0    0    0 +0.0000000000e+00 +0.0000000000e+00 +9.9999998245e-15 1.2500000000e+02 1.2500000000e+02 0.0000e+00 0.0000e+00
      -11  1    1    0    0    0 -9.5013060746e+00 -7.5689847351e+00 +4.6466227350e+00 1.3005977477e+01 5.1100000000e-04 0.0000e+00 1.0000e+00
       11  1    1    0    0    0 -3.6281722280e+01 -2.8790055104e+01 +1.7448065308e+01 4.9494096898e+01 5.1100000000e-04 0.0000e+00 -1.0000e+00
       22  1    1    0    0    0 +4.5783028355e+01 +3.6359039839e+01 -2.2094688043e+01 6.2499925624e+01 0.0000000000e+00 0.0000e+00 -1.0000e+00
</event>
<event>
 4      1 +2.4448062e-06 9.11880000e+01 7.81860800e-03 1.13011600e-01
       25 -1    0    0    0    0 +0.0000000000e+00 +0.0000000000e+00 +9.9999998245e-15 1.2500000000e+02 1.2500000000e+02 0.0000e+00 0.0000e+00
      -13  1    1    0    0    0 -3.5692678345e+01 +4.2924465859e+01 -2.8102700561e+01 6.2499999996e+01 1.0566000000e-01 0.0000e+00 -1.0000e+00
       13  1    1    0    0    0 +3.5692528677e+01 -4.2924283315e+01 +2.8102580563e+01 6.2499735198e+01 1.0566000000e-01 0.0000e+00 -1.0000e+00
       22  1    1    0    0    0 +1.4966790511e-04 -1.8254394913e-04 +1.1999782936e-04 2.6480606910e-04 0.0000000000e+00 0.0000e+00 -1.0000e+00
</event>
<event>
 5      1 +2.4448062e-06 9.11880000e+01 7.81860800e-03 1.13011600e-01
       25 -1    0    0    0    0 +0.0000000000e+00 +0.0000000000e+00 +9.9999998245e-15 1.2500000000e+02 1.2500000000e+02 0.0000e+00 0.0000e+00
       23  2    1    0    0    0 -3.2577591268e+00 -1.4914406374e+01 +2.3538369198e+01 9.6944566720e+01 9.2796237424e+01 0.0000e+00 0.0000e+00
      -13  1    2    2    0    0 +8.5241804172e+00 +3.1869296588e+01 -1.3978878792e+01 3.5829232940e+01 1.0566000000e-01 0.0000e+00 1.0000e+00
       13  1    2    2    0    0 -1.1781939544e+01 -4.6783702962e+01 +3.7517247990e+01 6.1115333780e+01 1.0566000000e-01 0.0000e+00 -1.0000e+00
       22  1    1    0    0    0 +3.2577591268e+00 +1.4914406374e+01 -2.3538369198e+01 2.8055433280e+01 0.0000000000e+00 0.0000e+00 -1.0000e+00
</event>
<event>
 4      1 +2.4448062e-06 9.11880000e+01 7.81860800e-03 1.13011600e-01
       25 -1    0    0    0    0 +0.0000000000e+00 +0.0000000000e+00 +9.9999998245e-15 1.2500000000e+02 1.2500000000e+02 0.0000e+00 0.0000e+00
      -11  1    1    0    0    0 +5.5271369331e+00 +1.7509469611e+01 +5.1133684639e+01 5.4330327385e+01 5.1100000000e-04 0.0000e+00 -1.0000e+00
       11  1    1    0    0    0 -2.3977357032e+00 +1.3614331745e+00 +8.0301729651e+00 8.4903660051e+00 5.1100000000e-04 0.0000e+00 1.0000e+00
       22  1    1    0    0    0 -3.1294012299e+00 -1.8870902785e+01 -5.9163857604e+01 6.2179306610e+01 0.0000000000e+00 0.0000e+00 -1.0000e+00
</event>
<event>
 4      1 +2.4448062e-06 9.11880000e+01 7.81860800e-03 1.13011600e-01
       25 -1    0    0    0    0 +0.0000000000e+00 +0.0000000000e+00 +9.9999998245e-15 1.2500000000e+02 1.2500000000e+02 0.0000e+00 0.0000e+00
      -11  1    1    0    0    0 -1.5239534542e+01 -4.8978421488e+01 -1.7595064225e+00 5.1324702119e+01 5.1100000000e-04 0.0000e+00 1.0000e+00
       11  1    1    0    0    0 -3.6229728951e+00 -1.0563110233e+01 -4.7756480133e-01 1.1177356521e+01 5.1100000000e-04 0.0000e+00 -1.0000e+00
       22  1    1    0    0    0 +1.8862507437e+01 +5.9541531721e+01 +2.2370712239e+00 6.2497941360e+01 0.0000000000e+00 0.0000e+00 1.0000e+00
</event>
<event>
 4      1 +2.4448062e-06 9.11880000e+01 7.81860800e-03 1.13011600e-01
       25 -1    0    0    0    0 +0.0000000000e+00 +0.0000000000e+00 +9.9999998245e-15 1.2500000000e+02 1.2500000000e+02 0.0000e+00 0.0000e+00
      -13  1    1    0    0    0 +3.9085517021e+01 -4.5337012375e+01 +1.7975441600e+01 6.2499999973e+01 1.0566000000e-01 0.0000e+00 -1.0000e+00
       13  1    1    0    0    0 -3.9085514841e+01 +4.5337010188e+01 -1.7975441227e+01 6.2499996916e+01 1.0566000000e-01 0.0000e+00 -1.0000e+00
       22  1    1    0    0    0 -2.1798343972e-06 +2.1873679577e-06 -3.7300888329e-07 3.1105292489e-06 0.0000000000e+00 0.0000e+00 1.0000e+00
</event>
<event>
 4      1 +2.4448062e-06 9.11880000e+01 7.81860800e-03 1.13011600e-01
       25 -1    0    0    0    0 +0.0000000000e+00 +0.0000000000e+00 +9.9999998245e-15 1.2500000000e+02 1.2500000000e+02 0.0000e+00 0.0000e+00
      -13  1    1    0    0    0 +2.7458491236e+01 -5.1513424970e+01 -2.2326100752e+01 6.2498541039e+01 1.0566000000e-01 0.0000e+00 -1.0000e+00
       13  1    1    0    0    0 -2.7459128834e+01 +5.1514628791e+01 +2.2326623114e+01 6.2499999996e+01 1.0566000000e-01 0.0000e+00 -1.0000e+00
       22  1    1    0    0    0 +6.3759792970e-04 -1.2038207947e-03 -5.2236251135e-04 1.4589647765e-03 0.0000000000e+00 0.0000e+00 -1.0000e+00
</event>
<event>
 4      1 +2.4448062e-06 9.11880000e+01 7.81860800e-03 1.13011600e-01
       25 -1    0    0    0    0 +0.0000000000e+00 +0.0000000000e+00 +9.9999998245e-15 1.2500000000e+02 1.2500000000e+02 0.0000e+00 0.0000e+00
      -13  1    1    0    0    0 -2.0980563808e+01 +5.3891369677e+01 -2.3701767114e+01 6.2499989694e+01 1.0566000000e-01 0.0000e+00 -1.0000e+00
       13  1    1    0    0    0 +2.0980567268e+01 -5.3891378530e+01 +2.3701771098e+01 6.2500000000e+01 1.0566000000e-01 0.0000e+00 -1.0000e+00
       22  1    1    0    0    0 -3.4605094439e-06 +8.8530080638e-06 -3.9838841678e-06 1.0306415985e-05 0.0000000000e+00 0.0000e+00 1.0000e+00
</event>
<event>
 4      1 +2.4448062e-06 9.11880000e+01 7.81860800e-03 1.13011600e-01
       25 -1    0    0    0    0 +0.0000000000e+00 +0.0000000000e+00 +9.9999998245e-15 1.2500000000e+02 1.2500000000e+02 0.0000e+00 0.0000e+00
      -13  1    1    0    0    0 +3.4607314116e+01 -5.1331590160e+01 +8.5812461282e+00 6.2499978302e+01 1.0566000000e-01 0.0000e+00 -1.0000e+00
       13  1    1    0    0    0 -3.4607302360e+01 +5.1331614607e+01 -8.5812551505e+00 6.2499993110e+01 1.0566000000e-01 0.0000e+00 -1.0000e+00
       22  1    1    0    0    0 -1.1755844638e-05 -2.4446994934e-05 +9.0222624958e-06 2.8587701289e-05 0.0000000000e+00 0.0000e+00 1.0000e+00
</event>
<event>
 4      1 +2.4448062e-06 9.11880000e+01 7.81860800e-03 1.13011600e-01
       25 -1    0    0    0    0 +0.0000000000e+00 +0.0000000000e+00 +9.9999998245e-15 1.2500000000e+02 1.2500000000e+02 0.0000e+00 0.0000e+00
      -11  1    1    0    0    0 +3.1047259222e+01 -6.9295825576e+00 -2.9175520380e+01 4.3164365040e+01 5.1100000000e-04 0.0000e+00 -1.0000e+00
       11  1    1    0    0    0 +1.3949755715e+01 -3.1455031210e+00 -1.3014574104e+01 1.9335692741e+01 5.1100000000e-04 0.0000e+00 1.0000e+00
       22  1    1    0    0    0 -4.4997014937e+01 +1.0075085679e+01 +4.2190094485e+01 6.2499942218e+01 0.0000000000e+00 0.0000e+00 -1.0000e+00
</event>
<event>
 4      1 +2.4448062e-06 9.11880000e+01 7.81860800e-03 1.13011600e-01
       25 -1    0    0    0    0 +0.0000000000e+00 +0.0000000000e+00 +9.9999998245e-15 1.2500000000e+02 1.2500000000e+02 0.0000e+00 0.0000e+00
      -13  1    1    0    0    0 +5.5667495798e+00 +4.0999623849e+00 +8.2002903821e-01 6.9629019885e+00 1.0566000000e-01 0.0000e+00 -1.0000e+00
       13  1    1    0    0    0 +4.4151278698e+01 +3.2834951848e+01 +7.5498289764e+00 5.5538100032e+01 1.0566000000e-01 0.0000e+00 -1.0000e+00
       22  1    1    0    0    0 -4.9718028278e+01 -3.6934914233e+01 -8.3698580146e+00 6.2498997980e+01 0.0000000000e+00 0.0000e+00 -1.0000e+00
</event>
<event>
 4      1 +2.4448062e-06 9.11880000e+01 7.81860800e-03 1.13011600e-01
       25 -1    0    0    0    0 +0.0000000000e+00 +0.0000000000e+00 +9.9999998245e-15 1.2500000000e+02 1.2500000000e+02 0.0000e+00 0.0000e+00
      -13  1    1    0    0    0 -5.9806679054e+01 -1.0041823391e+01 -1.5118258873e+01 6.2499999935e+01 1.0566000000e-01 0.0000e+00 1.0000e+00
       13  1    1    0    0    0 +5.9806679117e+01 +1.0041823403e+01 +1.5118258884e+01 6.2500000000e+01 1.0566000000e-01 0.0000e+00 1.0000e+00
       22  1    1    0    0    0 -6.3068445490e-08 -1.1337265102e-08 -1.0247664448e-08 6.4893582296e-08 0.0000000000e+00 0.0000e+00 -1.0000e+00
</event>
<event>
 5      1 +2.4448062e-06 9.11880000e+01 7.81860800e-03 1.13011600e-01
       25 -1    0    0    0    0 +0.0000000000e+00 +0.0000000000e+00 +9.9999998245e-15 1.2500000000e+02 1.2500000000e+02 0.0000e+00 0.0000e+00
       23  2    1    0    0    0 +2.7390469040e+01 -6.7129269551e+00 +5.9335449707e+00 9.6181461896e+01 9.1762549408e+01 0.0000e+00 0.0000e+00
      -11  1    2    2    0    0 +4.1273160017e+01 -2.7649313825e+01 +3.2698686774e+01 5.9474048204e+01 5.1100000000e-04 0.0000e+00 1.0000e+00
       11  1    2    2    0    0 -1.3882690976e+01 +2.0936386870e+01 -2.6765141803e+01 3.6707413692e+01 5.1100000000e-04 0.0000e+00 -1.0000e+00
       22  1    1    0    0    0 -2.7390469040e+01 +6.7129269551e+00 -5.9335449707e+00 2.8818538104e+01 0.0000000000e+00 0.0000e+00 1.0000e+00
</event>
<event>
 5      1 +2.4448062e-06 9.11880000e+01 7.81860800e-03 1.13011600e-01
       25 -1    0    0    0    0 +0.0000000000e+00 +0.0000000000e+00 +9.9999998245e-15 1.2500000000e+02 1.2500000000e+02 0.0000e+00 0.0000e+00
       23  2    1    0    0    0 -2.3059698998e+01 -8.9898340132e+00 -3.4478184088e+01 8.2558133742e+01 7.0813370457e+01 0.0000e+00 0.0000e+00
      -11  1    2    2    0    0 -2.2680694510e+01 +2.8023904116e+01 -7.6822518821e+00 3.6861498879e+01 5.1100000000e-04 0.0000e+00 1.0000e+00
       11  1    2    2    0    0 -3.7900448803e-01 -3.7013738130e+01 -2.6795932206e+01 4.5696634863e+01 5.1100000000e-04 0.0000e+00 -1.0000e+00
       22  1    1    0    0    0 +2.3059698998e+01 +8.9898340132e+00 +3.4478184088e+01 4.2441866258e+01 0.0000000000e+00 0.0000e+00 -1.0000e+00
</event>
<event>
 4      1 +2.4448062e-06 9.11880000e+01 7.81860800e-03 1.13011600e-01
       25 -1    0    0    0    0 +0.0000000000e+00 +0.0000000000e+00 +9.9999998245e-15 1.2500000000e+02 1.2500000000e+02 0.0000e+00 0.0000e+00
      -11  1    1    0    0    0 -6.3275813774e+00 -4.1805814069e+01 -4.3557781578e+01 6.0704569122e+01 5.1100000000e-04 0.0000e+00 1.0000e+00
       11  1    1    0    0    0 -2.9200724233e-01 -1.2380433224e+00 -1.2692793662e+00 1.7969668523e+00 5.1100000000e-04 0.0000e+00 -1.0000e+00
       22  1    1    0    0    0 +6.6195886198e+00 +4.3043857392e+01 +4.4827060944e+01 6.2498464025e+01 0.0000000000e+00 0.0000e+00 1.0000e+00
</event>
<event>
 4      1 +2.4448062e-06 9.11880000e+01 7.81860800e-03 1.13011600e-01
       25 -1    0    0    0    0 +0.0000000000e+00 +0.0000000000e+00 +9.9999998245e-15 1.2500000000e+02 1.2500000000e+02 0.0000e+00 0.0000e+00
      -11  1    1    0    0    0 -2.3043430642e+01 +3.2984429251e+01 -3.9154793759e+01 5.6143300075e+01 5.1100000000e-04 0.0000e+00 1.0000e+00
       11  1    1    0    0    0 -2.6100165166e+00 +3.7336005769e+00 -4.4334721412e+00 6.3567000065e+00 5.1100000000e-04 0.0000e+00 -1.0000e+00
       22  1    1    0    0    0 +2.5653447158e+01 -3.6718029828e+01 +4.3588265901e+01 6.2499999918e+01 0.0000000000e+00 0.0000e+00 1.0000e+00
</event>
<event>
 4      1 +2.4448062e-06 9.11880000e+01 7.81860800e-03 1.13011600e-01
       25 -1    0    0    0    0 +0.0000000000e+00 +0.0000000000e+00 +9.9999998245e-15 1.2500000000e+02 1.2500000000e+02 0.0000e+00 0.0000e+00
      -13  1    1    0    0    0 -6.1838577898e+01 -3.4621726932e+00 +8.3784681025e+00 6.2499649983e+01 1.0566000000e-01 0.0000e+00 1.0000e+00
       13  1    1    0    0    0 +6.1838923965e+01 +3.4621929727e+00 -8.3785164751e+00 6.2499999998e+01 1.0566000000e-01 0.0000e+00 1.0000e+00
       22  1    1    0    0    0 -3.4606670135e-04 -2.0279473546e-05 +4.8372595312e-05 3.5001903778e-04 0.0000000000e+00 0.0000e+00 -1.0000e+00
</event>
<event>
 5      1 +2.4448062e-06 9.11880000e+01 7.81860800e-03 1.13011600e-01
       25 -1    0    0    0    0 +0.0000000000e+00 +0.0000000000e+00 +9.9999998245e-15 1.2500000000e+02 1.2500000000e+02 0.0000e+00 0.0000e+00
       23  2    1    0    0    0 -1.7214392327e+00 +2.6488280091e+01 -1.0759506360e+01 9.6358084695e+01 9.2002832422e+01 0.0000e+00 0.0000e+00
      -11  1    2    2    0    0 -7.6935979335e+00 -2.5538395063e+01 -3.0387108163e+01 4.0432380765e+01 5.1100000000e-04 0.0000e+00 -1.0000e+00
       11  1    2    2    0    0 +5.9721587009e+00 +5.2026675155e+01 +1.9627601803e+01 5.5925703929e+01 5.1100000000e-04 0.0000e+00 1.0000e+00
       22  1    1    0    0    0 +1.7214392327e+00 -2.6488280091e+01 +1.0759506360e+01 2.8641915305e+01 0.0000000000e+00 0.0000e+00 1.0000e+00
</event>
<event>
 4      1 +2.4448062e-06 9.11880000e+01 7.81860800e-03 1.13011600e-01
       25 -1    0    0    0    0 +0.0000000000e+00 +0.0000000000e+00 +9.9999998245e-15 1.2500000000e+02 1.2500000000e+02 0.0000e+00 0.0000e+00
      -13  1    1    0    0    0 -3.6815747985e+01 -3.2173689165e+01 +3.8931905448e+01 6.2500000000e+01 1.0566000000e-01 0.0000e+00 1.0000e+00
       13  1    1    0    0    0 +3.6815747631e+01 +3.2173688857e+01 -3.8931905078e+01 6.2499999403e+01 1.0566000000e-01 0.0000e+00 1.0000e+00
       22  1    1    0    0    0 +3.5355460657e-07 +3.0778433846e-07 -3.7017903763e-07 5.9729773039e-07 0.0000000000e+00 0.0000e+00 -1.0000e+00
</event>
<event>
 4      1 +2.4448062e-06 9.11880000e+01 7.81860800e-03 1.13011600e-01
       25 -1    0    0    0    0 +0.0000000000e+00 +0.0000000000e+00 +9.9999998245e-15 1.2500000000e+02 1.2500000000e+02 0.0000e+00 0.0000e+00
      -13  1    1    0    0    0 -2.1668024828e+01 +1.2456417074e+01 +2.5484719993e+01 3.5695206168e+01 1.0566000000e-01 0.0000e+00 -1.0000e+00
       13  1    1    0    0    0 -1.7472584785e+01 +1.0921965637e+01 +1.7207384720e+01 2.6845591917e+01 1.0566000000e-01 0.0000e+00 1.0000e+00
       22  1    1    0    0    0 +3.9140609613e+01 -2.3378382710e+01 -4.2692104713e+01 6.2459201915e+01 0.0000000000e+00 0.0000e+00 -1.0000e+00
</event>
<event>
 4      1 +2.4448062e-06 9.11880000e+01 7.81860800e-03 1.13011600e-01
       25 -1    0    0    0    0 +0.0000000000e+00 +0.0000000000e+00 +9.9999998245e-15 1.2500000000e+02 1.2500000000e+02 0.0000e+00 0.0000e+00
      -13  1    1    0    0    0 +3.3429726923e+01 +5.2488214491e+01 +5.7999135387e+00 6.2499675709e+01 1.0566000000e-01 0.0000e+00 1.0000e+00
       13  1    1    0    0    0 -3.3418611836e+01 -5.2470415803e+01 -5.8031845653e+00 6.2479086635e+01 1.0566000000e-01 0.0000e+00 1.0000e+00
       22  1    1    0    0    0 -1.1115086463e-02 -1.7798687537e-02 +3.2710266480e-03 2.1237656190e-02 0.0000000000e+00 0.0000e+00 1.0000e+00
</event>
<event>
 4      1 +2.4448062e-06 9.11880000e+01 7.81860800e-03 1.13011600e-01
       25 -1    0    0    0    0 +0.0000000000e+00 +0.0000000000e+00 +9.9999998245e-15 1.2500000000e+02 1.2500000000e+02 0.0000e+00 0.0000e+00
      -13  1    1    0    0    0 -2.1760463476e+01 -5.3182832051e+01 -2.4582665418e+01 6.2499999990e+01 1.0566000000e-01 0.0000e+00 -1.0000e+00
       13  1    1    0    0    0 +2.1760463490e+01 +5.3182832053e+01 +2.4582665414e+01 6.2499999995e+01 1.0566000000e-01 0.0000e+00 -1.0000e+00
       22  1    1    0    0    0 -1.4253823893e-08 -2.9492350440e-09 +4.3164659567e-09 1.5182271282e-08 0.0000000000e+00 0.0000e+00 -1.0000e+00
</event>
<event>
 4      1 +2.4448062e-06 9.11880000e+01 7.81860800e-03 1.13011600e-01
       25 -1    0    0    0    0 +0.0000000000e+00 +0.0000000000e+00 +9.9999998245e-15 1.2500000000e+02 1.2500000000e+02 0.0000e+00 0.0000e+00
      -13  1    1    0    0    0 -9.2277948485e+00 +5.1851521214e+01 -3.3652732182e+01 6.2499999979e+01 1.0566000000e-01 0.0000e+00 -1.0000e+00
       13  1    1    0    0    0 +9.2277949536e+00 -5.1851521011e+01 +3.3652732078e+01 6.2499999770e+01 1.0566000000e-01 0.0000e+00 -1.0000e+00
       22  1    1    0    0    0 -1.0508673033e-07 -2.0322622330e-07 +1.0427802644e-07 2.5143195008e-07 0.0000000000e+00 0.0000e+00 -1.0000e+00
</event>
<event>
 4      1 +2.4448062e-06 9.11880000e+01 7.81860800e-03 1.13011600e-01
       25 -1    0    0    0    0 +0.0000000000e+00 +0.0000000000e+00 +9.9999998245e-15 1.2500000000e+02 1.2500000000e+02 0.0000e+00 0.0000e+00
      -13  1    1    0    0    0 +4.7511795809e+01 +3.3471869340e+01 +2.2986332163e+01 6.2498955259e+01 1.0566000000e-01 0.0000e+00 1.0000e+00
       13  1    1    0    0    0 -4.7395422362e+01 -3.3386665628e+01 -2.2901113511e+01 6.2333519608e+01 1.0566000000e-01 0.0000e+00 1.0000e+00
       22  1    1    0    0    0 -1.1637344695e-01 -8.5203711732e-02 -8.5218652244e-02 1.6752513345e-01 0.0000000000e+00 0.0000e+00 -1.0000e+00
</event>
<event>
 4      1 +2.4448062e-06 9.11880000e+01 7.81860800e-03 1.13011600e-01
       25 -1    0    0    0    0 +0.0000000000e+00 +0.0000000000e+00 +9.9999998245e-15 1.2500000000e+02 1.2500000000e+02 0.0000e+00 0.0000e+00
      -13  1    1    0    0    0 -2.1416992690e+01 +4.9758541757e+01 -3.1171079723e+01 6.2499979431e+01 1.0566000000e-01 0.0000e+00 -1.0000e+00
       13  1    1    0    0    0 +2.1416714231e+01 -4.9758256358e+01 +3.1170989337e+01 6.2499611715e+01 1.0566000000e-01 0.0000e+00 -1.0000e+00
       22  1    1    0    0    0 +2.7845909877e-04 -2.8539904110e-04 +9.0386016611e-05 4.0885414801e-04 0.0000000000e+00 0.0000e+00 -1.0000e+00
</event>
<event>
 4      1 +2.4448062e-06 9.11880000e+01 7.81860800e-03 1.13011600e-01
       25 -1    0    0    0    0 +0.0000000000e+00 +0.0000000000e+00 +9.9999998245e-15 1.2500000000e+02 1.2500000000e+02 0.0000e+00 0.0000e+00
      -13  1    1    0    0    0 +3.7232102167e+01 -4.3299395114e+01 -2.5396580523e+01 6.2498516105e+01 1.0566000000e-01 0.0000e+00 -1.0000e+00
       13  1    1    0    0    0 -3.6996654103e+01 +4.2950257744e+01 +2.5190356239e+01 6.2032590358e+01 1.0566000000e-01 0.0000e+00 -1.0000e+00
       22  1    1    0    0    0 -2.3544806409e-01 +3.4913736963e-01 +2.0622428498e-01 4.6889353746e-01 0.0000000000e+00 0.0000e+00 -1.0000e+00
</event>
<event>
 4      1 +2.4448062e-06 9.11880000e+01 7.81860800e-03 1.13011600e-01
       25 -1    0    0    0    0 +0.0000000000e+00 +0.0000000000e+00 +9.9999998245e-15 1.2500000000e+02 1.2500000000e+02 0.0000e+00 0.0000e+00
      -11  1    1    0    0    0 +3.1007160181e+01 -3.7221978790e+01 -3.1340534879e+01 5.7698776541e+01 5.1100000000e-04 0.0000e+00 -1.0000e+00
       11  1    1    0    0    0 +2.5837246895e+00 -3.0953491359e+00 -2.6067096755e+00 4.8012243373e+00 5.1100000000e-04 0.0000e+00 1.0000e+00
       22  1    1    0    0    0 -3.3590884870e+01 +4.0317327925e+01 +3.3947244555e+01 6.2499999122e+01 0.0000000000e+00 0.0000e+00 -1.0000e+00
</event>
<event>
 4      1 +2.4448062e-06 9.11880000e+01 7.81860800e-03 1.13011600e-01
       25 -1    0    0    0    0 +0.0000000000e+00 +0.0000000000e+00 +9.9999998245e-15 1.2500000000e+02 1.2500000000e+02 0.0000e+00 0.0000e+00
      -11  1    1    0    0    0 -2.7908824008e+01 +1.2130041344e+01 +3.0939950808e+01 4.3397245497e+01 5.1100000000e-04 0.0000e+00 -1.0000e+00
       11  1    1    0    0    0 -1.1702492253e+00 +1.2274887129e+01 +1.6654510613e+01 2.0722332429e+01 5.1100000000e-04 0.0000e+00 1.0000e+00
       22  1    1    0    0    0 +2.9079073233e+01 -2.4404928473e+01 -4.7594461421e+01 6.0880422073e+01 0.0000000000e+00 0.0000e+00 -1.0000e+00
</event>
<event>
 4      1 +2.4448062e-06 9.11880000e+01 7.81860800e-03 1.13011600e-01
       25 -1    0    0    0    0 +0.0000000000e+00 +0.0000000000e+00 +9.9999998245e-15 1.2500000000e+02 1.2500000000e+02 0.0000e+00 0.0000e+00
      -11  1    1    0    0    0 +2.5298267689e+01 +1.2933987143e+01 +4.0138631898e+00 2.8694972895e+01 5.1100000000e-04 0.0000e+00 1.0000e+00
       11  1    1    0    0    0 +2.9634860774e+01 +1.5711048493e+01 +4.2230985688e+00 3.3806753462e+01 5.1100000000e-04 0.0000e+00 -1.0000e+00
       22  1    1    0    0    0 -5.4933128463e+01 -2.8645035636e+01 -8.2369617586e+00 6.2498273643e+01 0.0000000000e+00 0.0000e+00 1.0000e+00
</event>
<event>
 4      1 +2.4448062e-06 9.11880000e+01 7.81860800e-03 1.13011600e-01
       25 -1    0    0    0    0 +0.0000000000e+00 +0.0000000000e+00 +9.9999998245e-15 1.2500000000e+02 1.2500000000e+02 0.0000e+00 0.0000e+00
      -13  1    1    0    0    0 +2.3523853293e+01 -3.5968726345e+01 -4.5377504177e+01 6.2499999984e+01 1.0566000000e-01 0.0000e+00 -1.0000e+00
       13  1    1    0    0    0 -2.3523851712e+01 +3.5968723216e+01 +4.5377499837e+01 6.2499994437e+01 1.0566000000e-01 0.0000e+00 -1.0000e+00
       22  1    1    0    0    0 -1.5808564888e-06 +3.1283635249e-06 +4.3406144189e-06 5.5791306774e-06 0.0000000000e+00 0.0000e+00 -1.0000e+00
</event>
<event>
 4      1 +2.4448062e-06 9.11880000e+01 7.81860800e-03 1.13011600e-01
       25 -1    0    0    0    0 +0.0000000000e+00 +0.0000000000e+00 +9.9999998245e-15 1.2500000000e+02 1.2500000000e+02 0.0000e+00 0.0000e+00
      -13  1    1    0    0    0 +1.2430383346e+01 -1.7003764576e+01 +1.1809967394e+01 2.4148062734e+01 1.0566000000e-01 0.0000e+00 -1.0000e+00
       13  1    1    0    0    0 +1.5352934532e+01 -3.1155003668e+01 +1.6509386329e+01 3.8456701019e+01 1.0566000000e-01 0.0000e+00 1.0000e+00
       22  1    1    0    0    0 -2.7783317878e+01 +4.8158768244e+01 -2.8319353723e+01 6.2395236247e+01 0.0000000000e+00 0.0000e+00 1.0000e+00
</event>
<event>
 5      1 +2.4448062e-06 9.11880000e+01 7.81860800e-03 1.13011600e-01
       25 -1    0    0    0    0 +0.0000000000e+00 +0.0000000000e+00 +9.9999998245e-15 1.2500000000e+02 1.2500000000e+02 0.0000e+00 0.0000e+00
       23  2    1    0    0    0 +6.6552268303e+00 -2.3999127599e+01 +2.3859460767e+01 9.0510522797e+01 8.3681722611e+01 0.0000e+00 0.0000e+00
      -11  1    2    2    0    0 -1.3361688758e+01 +2.4244044317e+01 -8.6334861992e+00 2.8997336007e+01 5.1100000000e-04 0.0000e+00 -1.0000e+00
       11  1    2    2    0    0 +2.0016915588e+01 -4.8243171916e+01 +3.2492946966e+01 6.1513186789e+01 5.1100000000e-04 0.0000e+00 1.0000e+00
       22  1    1    0    0    0 -6.6552268303e+00 +2.3999127599e+01 -2.3859460767e+01 3.4489477203e+01 0.0000000000e+00 0.0000e+00 1.0000e+00
</event>
<event>
 4      1 +2.4448062e-06 9.11880000e+01 7.81860800e-03 1.13011600e-01
       25 -1    0    0    0    0 +0.0000000000e+00 +0.0000000000e+00 +9.9999998245e-15 1.2500000000e+02 1.2500000000e+02 0.0000e+00 0.0000e+00
      -13  1    1    0    0    0 -4.0322891368e+01 +4.1957658383e+01 +2.2800398478e+01 6.2500000000e+01 1.0566000000e-01 0.0000e+00 -1.0000e+00
       13  1    1    0    0    0 +4.0322891368e+01 -4.1957658383e+01 -2.2800398478e+01 6.2500000000e+01 1.0566000000e-01 0.0000e+00 -1.0000e+00
       22  1    1    0    0    0 +7.4456835716e-12 +6.0212489738e-12 -6.5000473116e-11 6.5702017840e-11 0.0000000000e+00 0.0000e+00 -1.0000e+00
</event>
<event>
 4      1 +2.4448062e-06 9.11880000e+01 7.81860800e-03 1.13011600e-01
       25 -1    0    0    0    0 +0.0000000000e+00 +0.0000000000e+00 +9.9999998245e-15 1.2500000000e+02 1.2500000000e+02 0.0000e+00 0.0000e+00
      -13  1    1    0    0    0 -1.1550512588e+01 -2.2561460769e+01 -5.7129720661e+01 6.2499999999e+01 1.0566000000e-01 0.0000e+00 -1.0000e+00
       13  1    1    0    0    0 +1.1550512591e+01 +2.2561460748e+01 +5.7129720613e+01 6.2499999949e+01 1.0566000000e-01 0.0000e+00 -1.0000e+00
       22  1    1    0    0    0 -3.0287876171e-09 +2.0380879722e-08 +4.7596362042e-08 5.1864896532e-08 0.0000000000e+00 0.0000e+00 1.0000e+00
</event>
<event>
 4      1 +2.4448062e-06 9.11880000e+01 7.81860800e-03 1.13011600e-01
       25 -1    0    0    0    0 +0.0000000000e+00 +0.0000000000e+00 +9.9999998245e-15 1.2500000000e+02 1.2500000000e+02 0.0000e+00 0.0000e+00
      -13  1    1    0    0    0 +2.8263607777e+01 +7.9809173840e+00 -5.4712742440e+01 6.2096875253e+01 1.0566000000e-01 0.0000e+00 -1.0000e+00
       13  1    1    0    0    0 -2.8443086542e+01 -8.0242049783e+00 +5.5071173238e+01 6.2499938587e+01 1.0566000000e-01 0.0000e+00 -1.0000e+00
       22  1    1    0    0    0 +1.7947876533e-01 +4.3287594237e-02 -3.5843079745e-01 4.0318615995e-01 0.0000000000e+00 0.0000e+00 1.0000e+00
</event>
<event>
 4      1 +2.4448062e-06 9.11880000e+01 7.81860800e-03 1.13011600e-01
       25 -1    0    0    0    0 +0.0000000000e+00 +0.0000000000e+00 +9.9999998245e-15 1.2500000000e+02 1.2500000000e+02 0.0000e+00 0.0000e+00
      -13  1    1    0    0    0 +5.4931975285e+01 -1.3746735859e+01 -2.4741745047e+01 6.1795305384e+01 1.0566000000e-01 0.0000e+00 1.0000e+00
       13  1    1    0    0    0 -5.5658334089e+01 +1.3850107965e+01 +2.4757235748e+01 6.2470853444e+01 1.0566000000e-01 0.0000e+00 1.0000e+00
       22  1    1    0    0    0 +7.2635880377e-01 -1.0337210539e-01 -1.5490700924e-02 7.3384117205e-01 0.0000000000e+00 0.0000e+00 -1.0000e+00
</event>
<event>
 4      1 +2.4448062e-06 9.11880000e+01 7.81860800e-03 1.13011600e-01
       25 -1    0    0    0    0 +0.0000000000e+00 +0.0000000000e+00 +9.9999998245e-15 1.2500000000e+02 1.2500000000e+02 0.0000e+00 0.0000e+00
      -13  1    1    0    0    0 +4.0280008438e+01 +4.0991979291e+01 +2.4564555214e+01 6.2499999863e+01 1.0566000000e-01 0.0000e+00 -1.0000e+00
       13  1    1    0    0    0 -4.0280008520e+01 -4.0991979377e+01 -2.4564555283e+01 6.2499999999e+01 1.0566000000e-01 0.0000e+00 -1.0000e+00
       22  1    1    0    0    0 +8.2163818359e-08 +8.5706650044e-08 +6.8891671028e-08 1.3726829658e-07 0.0000000000e+00 0.0000e+00 -1.0000e+00
</event>
<event>
 4      1 +2.4448062e-06 9.11880000e+01 7.81860800e-03 1.13011600e-01
       25 -1    0    0    0    0 +0.0000000000e+00 +0.0000000000e+00 +9.9999998245e-15 1.2500000000e+02 1.2500000000e+02 0.0000e+00 0.0000e+00
      -13  1    1    0    0    0 -2.3160690476e+01 +5.4652190075e+01 +1.9569347746e+01 6.2499999989e+01 1.0566000000e-01 0.0000e+00 1.0000e+00
       13  1    1    0    0    0 +2.3160690444e+01 -5.4652190006e+01 -1.9569347781e+01 6.2499999927e+01 1.0566000000e-01 0.0000e+00 1.0000e+00
       22  1    1    0    0    0 +3.2161512123e-08 -6.9642516278e-08 +3.4968152839e-08 8.4304297927e-08 0.0000000000e+00 0.0000e+00 1.0000e+00
</event>
<event>
 4      1 +2.4448062e-06 9.11880000e+01 7.81860800e-03 1.13011600e-01
       25 -1    0    0    0    0 +0.0000000000e+00 +0.0000000000e+00 +9.9999998245e-15 1.2500000000e+02 1.2500000000e+02 0.0000e+00 0.0000e+00
      -13  1    1    0    0    0 -5.3965912026e+01 +1.7136440896e+01 -2.6462455830e+01 6.2500000000e+01 1.0566000000e-01 0.0000e+00 1.0000e+00
       13  1    1    0    0    0 +5.3965894130e+01 -1.7136435182e+01 +2.6462447000e+01 6.2499979242e+01 1.0566000000e-01 0.0000e+00 1.0000e+00
       22  1    1    0    0    0 +1.7895948109e-05 -5.7144790468e-06 +8.8300865478e-06 2.0757905914e-05 0.0000000000e+00 0.0000e+00 -1.0000e+00
</event>
<event>
 4      1 +2.4448062e-06 9.11880000e+01 7.81860800e-03 1.13011600e-01
       25 -1    0    0    0    0 +0.0000000000e+00 +0.0000000000e+00 +9.9999998245e-15 1.2500000000e+02 1.2500000000e+02 0.0000e+00 0.0000e+00
      -13  1    1    0    0    0 -7.9010428988e+00 +1.6090294936e+01 -5.9874157602e+01 6.2499999861e+01 1.0566000000e-01 0.0000e+00 1.0000e+00
       13  1    1    0    0    0 +7.9010429290e+00 -1.6090294969e+01 +5.9874157734e+01 6.2500000000e+01 1.0566000000e-01 0.0000e+00 1.0000e+00
       22  1    1    0    0    0 -3.0121073772e-08 +3.3195886709e-08 -1.3223426507e-07 1.3962502225e-07 0.0000000000e+00 0.0000e+00 1.0000e+00
</event>
<event>
 4      1 +2.4448062e-06 9.11880000e+01 7.81860800e-03 1.13011600e-01
       25 -1    0    0    0    0 +0.0000000000e+00 +0.0000000000e+00 +9.9999998245e-15 1.2500000000e+02 1.2500000000e+02 0.0000e+00 0.0000e+00
      -13  1    1    0    0    0 -3.8583713784e+01 +3.2054303278e+01 -1.8309590525e+01 5.3398816441e+01 1.0566000000e-01 0.0000e+00 1.0000e+00
       13  1    1    0    0    0 -6.5986646983e+00 +5.4967919903e+00 -3.0125573914e+00 9.1018549789e+00 1.0566000000e-01 0.0000e+00 1.0000e+00
       22  1    1    0    0    0 +4.5182378483e+01 -3.7551095268e+01 +2.1322147916e+01 6.2499328580e+01 0.0000000000e+00 0.0000e+00 1.0000e+00
</event>
<event>
 4      1 +2.4448062e-06 9.11880000e+01 7.81860800e-03 1.13011600e-01
       25 -1    0    0    0    0 +0.0000000000e+00 +0.0000000000e+00 +9.9999998245e-15 1.2500000000e+02 1.2500000000e+02 0.0000e+00 0.0000e+00
      -13  1    1    0    0    0 +4.9388439573e+01 -2.8716191392e+01 +2.5345634945e+01 6.2499999891e+01 1.0566000000e-01 0.0000e+00 -1.0000e+00
       13  1    1    0    0    0 -4.9388439645e+01 +2.8716191454e+01 -2.5345635001e+01 6.2499999999e+01 1.0566000000e-01 0.0000e+00 -1.0000e+00
       22  1    1    0    0    0 +7.2012047517e-08 -6.1718419758e-08 +5.5630295410e-08 1.0995284486e-07 0.0000000000e+00 0.0000e+00 -1.0000e+00
</event>
<event>
 4      1 +2.4448062e-06 9.11880000e+01 7.81860800e-03 1.13011600e-01
       25 -1    0    0    0    0 +0.0000000000e+00 +0.0000000000e+00 +9.9999998245e-15 1.2500000000e+02 1.2500000000e+02 0.0000e+00 0.0000e+00
      -11  1    1    0    0    0 +1.7078104225e+00 +4.0982691238e+00 -1.5187480419e+00 4.6924430871e+00 5.1100000000e-04 0.0000e+00 1.0000e+00
       11  1    1    0    0    0 +2.0271801736e+01 +5.0602402510e+01 -1.9240522644e+01 5.7807843735e+01 5.1100000000e-04 0.0000e+00 -1.0000e+00
       22  1    1    0    0    0 -2.1979612159e+01 -5.4700671634e+01 +2.0759270686e+01 6.2499713178e+01 0.0000000000e+00 0.0000e+00 -1.0000e+00
</event>
<event>
 4      1 +2.4448062e-06 9.11880000e+01 7.81860800e-03 1.13011600e-01
       25 -1    0    0    0    0 +0.0000000000e+00 +0.0000000000e+00 +9.9999998245e-15 1.2500000000e+02 1.2500000000e+02 0.0000e+00 0.0000e+00
      -13  1    1    0    0    0 -3.1361908509e+01 +3.0365106538e+01 +4.4668546666e+01 6.2457179136e+01 1.0566000000e-01 0.0000e+00 1.0000e+00
       13  1    1    0    0    0 +3.1382734913e+01 -3.0385664984e+01 -4.4699815001e+01 6.2499994498e+01 1.0566000000e-01 0.0000e+00 1.0000e+00
       22  1    1    0    0    0 -2.0826404417e-02 +2.0558446104e-02 +3.1268335197e-02 4.2826365864e-02 0.0000000000e+00 0.0000e+00 -1.0000e+00
</event>
<event>
 4      1 +2.4448062e-06 9.11880000e+01 7.81860800e-03 1.13011600e-01
       25 -1    0    0    0    0 +0.0000000000e+00 +0.0000000000e+00 +9.9999998245e-15 1.2500000000e+02 1.2500000000e+02 0.0000e+00 0.0000e+00
      -13  1    1    0    0    0 -4.2567622698e+01 -2.4402050306e+01 -3.8714031969e+01 6.2499999973e+01 1.0566000000e-01 0.0000e+00 -1.0000e+00
       13  1    1    0    0    0 +4.2567603184e+01 +2.4402037267e+01 +3.8714014425e+01 6.2499970724e+01 1.0566000000e-01 0.0000e+00 -1.0000e+00
       22  1    1    0    0    0 +1.9514901285e-05 +1.3038911974e-05 +1.7543490867e-05 2.9302195641e-05 0.0000000000e+00 0.0000e+00 1.0000e+00
</event>
<event>
 4      1 +2.4448062e-06 9.11880000e+01 7.81860800e-03 1.13011600e-01
       25 -1    0    0    0    0 +0.0000000000e+00 +0.0000000000e+00 +9.9999998245e-15 1.2500000000e+02 1.2500000000e+02 0.0000e+00 0.0000e+00
      -13  1    1    0    0    0 +8.5781177020e-01 +5.4334659076e+01 -3.0874711626e+01 6.2500000000e+01 1.0566000000e-01 0.0000e+00 1.0000e+00
       13  1    1    0    0    0 -8.5781177019e-01 -5.4334659076e+01 +3.0874711626e+01 6.2500000000e+01 1.0566000000e-01 0.0000e+00 1.0000e+00
       22  1    1    0    0    0 -9.7947103658e-12 +1.7217313032e-11 -5.8115931702e-13 1.9816911095e-11 0.0000000000e+00 0.0000e+00 1.0000e+00
</event>
<event>
 4      1 +2.4448062e-06 9.11880000e+01 7.81860800e-03 1.13011600e-01
       25 -1    0    0    0    0 +0.0000000000e+00 +0.0000000000e+00 +9.9999998245e-15 1.2500000000e+02 1.2500000000e+02 0.0000e+00 0.0000e+00
      -11  1    1    0    0    0 +2.6499513324e+01 +1.1634687626e+01 -1.3270907544e+01 3.1838768034e+01 5.1100000000e-04 0.0000e+00 -1.0000e+00
       11  1    1    0    0    0 +2.5416354839e+01 +1.1230888198e+01 -1.2961422131e+01 3.0661415606e+01 5.1100000000e-04 0.0000e+00 1.0000e+00
       22  1    1    0    0    0 -5.1915868163e+01 -2.2865575824e+01 +2.6232329675e+01 6.2499816361e+01 0.0000000000e+00 0.0000e+00 -1.0000e+00
</event>
<event>
 4      1 +2.4448062e-06 9.11880000e+01 7.81860800e-03 1.13011600e-01
       25 -1    0    0    0    0 +0.0000000000e+00 +0.0000000000e+00 +9.9999998245e-15 1.2500000000e+02 1.2500000000e+02 0.0000e+00 0.0000e+00
      -13  1    1    0    0    0 -6.9341520732e+00 -2.4470869072e+01 -5.7090550058e+01 6.2499983744e+01 1.0566000000e-01 0.0000e+00 -1.0000e+00
       13  1    1    0    0    0 +6.9309560533e+00 +2.4460960443e+01 +5.7070053058e+01 6.2477026640e+01 1.0566000000e-01 0.0000e+00 -1.0000e+00
       22  1    1    0    0    0 +3.1960198580e-03 +9.9086288257e-03 +2.0496999285e-02 2.2989616087e-02 0.0000000000e+00 0.0000e+00 -1.0000e+00
</event>
<event>
 4      1 +2.4448062e-06 9.11880000e+01 7.81860800e-03 1.13011600e-01
       25 -1    0    0    0    0 +0.0000000000e+00 +0.0000000000e+00 +9.9999998245e-15 1.2500000000e+02 1.2500000000e+02 0.0000e+00 0.0000e+00
      -13  1    1    0    0    0 +2.3822461294e+01 -5.6659642076e+01 -1.1331465772e+01 6.2499903863e+01 1.0566000000e-01 0.0000e+00 1.0000e+00
       13  1    1    0    0    0 -2.3822500854e+01 +5.6659727551e+01 +1.1331485246e+01 6.2499999960e+01 1.0566000000e-01 0.0000e+00 1.0000e+00
       22  1    1    0    0    0 +3.9560026765e-05 -8.5474149381e-05 -1.9474109572e-05 9.6177267967e-05 0.0000000000e+00 0.0000e+00 -1.0000e+00
</event>
<event>
 4      1 +2.4448062e-06 9.11880000e+01 7.81860800e-03 1.13011600e-01
       25 -1    0    0    0    0 +0.0000000000e+00 +0.0000000000e+00 +9.9999998245e-15 1.2500000000e+02 1.2500000000e+02 0.0000e+00 0.0000e+00
      -11  1    1    0    0    0 -1.6738769654e+01 -3.1831342750e+01 +4.8331673746e+00 3.6287467506e+01 5.1100000000e-04 0.0000e+00 1.0000e+00
       11  1    1    0    0    0 -1.1786613859e+01 -2.3123927262e+01 +3.6739850422e+00 2.6213325707e+01 5.1100000000e-04 0.0000e+00 -1.0000e+00
       22  1    1    0    0    0 +2.8525383513e+01 +5.4955270013e+01 -8.5071524168e+00 6.2499206787e+01 0.0000000000e+00 0.0000e+00 1.0000e+00
</event>
<event>
 5      1 +2.4448062e-06 9.11880000e+01 7.81860800e-03 1.13011600e-01
       25 -1    0    0    0    0 +0.0000000000e+00 +0.0000000000e+00 +9.9999998245e-15 1.2500000000e+02 1.2500000000e+02 0.0000e+00 0.0000e+00
       23  2    1    0    0    0 +2.5445198258e+01 +1.5882953933e+01 -1.0014939816e+01 9.3376822431e+01 8.7859009827e+01 0.0000e+00 0.0000e+00
      -13  1    2    2    0    0 +2.2898019608e+01 -1.0865538450e+01 +3.3637595288e+01 4.2117433546e+01 1.0566000000e-01 0.0000e+00 1.0000e+00
       13  1    2    2    0    0 +2.5471786496e+00 +2.6748492383e+01 -4.3652535104e+01 5.1259388885e+01 1.0566000000e-01 0.0000e+00 -1.0000e+00
       22  1    1    0    0    0 -2.5445198258e+01 -1.5882953933e+01 +1.0014939816e+01 3.1623177569e+01 0.0000000000e+00 0.0000e+00 -1.0000e+00
</event>
<event>
 4      1 +2.4448062e-06 9.11880000e+01 7.81860800e-03 1.13011600e-01
       25 -1    0    0    0    0 +0.0000000000e+00 +0.0000000000e+00 +9.9999998245e-15 1.2500000000e+02 1.2500000000e+02 0.0000e+00 0.0000e+00
      -13  1    1    0    0    0 +3.1294640935e+01 +2.4977783877e+01 -3.3677042427e+00 4.0182046171e+01 1.0566000000e-01 0.0000e+00 -1.0000e+00
       13  1    1    0    0    0 -4.8941975001e+01 -3.8494702701e+01 +5.3742208503e+00 6.2498419715e+01 1.0566000000e-01 0.0000e+00 -1.0000e+00
       22  1    1    0    0    0 +1.7647334067e+01 +1.3516918825e+01 -2.0065166077e+00 2.2319534114e+01 0.0000000000e+00 0.0000e+00 -1.0000e+00
</event>
<event>
 4      1 +2.4448062e-06 9.11880000e+01 7.81860800e-03 1.13011600e-01
       25 -1    0    0    0    0 +0.0000000000e+00 +0.0000000000e+00 +9.9999998245e-15 1.2500000000e+02 1.2500000000e+02 0.0000e+00 0.0000e+00
      -13  1    1    0    0    0 +6.9515943904e+00 +1.6006312466e+01 +2.7619648075e+01 3.2670825321e+01 1.0566000000e-01 0.0000e+00 1.0000e+00
       13  1    1    0    0    0 +5.9942318058e+00 +1.4659227889e+01 +2.5278240030e+01 2.9829923907e+01 1.0566000000e-01 0.0000e+00 -1.0000e+00
       22  1    1    0    0    0 -1.2945826196e+01 -3.0665540355e+01 -5.2897888105e+01 6.2499250772e+01 0.0000000000e+00 0.0000e+00 -1.0000e+00
</event>
<event>
 4      1 +2.4448062e-06 9.11880000e+01 7.81860800e-03 1.13011600e-01
       25 -1    0    0    0    0 +0.0000000000e+00 +0.0000000000e+00 +9.9999998245e-15 1.2500000000e+02 1.2500000000e+02 0.0000e+00 0.0000e+00
      -13  1    1    0    0    0 +1.7830610889e+01 -5.7904266884e+01 -1.0333429408e+01 6.1462392854e+01 1.0566000000e-01 0.0000e+00 -1.0000e+00
       13  1    1    0    0    0 -1.8123788871e+01 +5.8897925876e+01 +9.8957246530e+00 6.2412930759e+01 1.0566000000e-01 0.0000e+00 -1.0000e+00
       22  1    1    0    0    0 +2.9317798264e-01 -9.9365899193e-01 +4.3770475510e-01 1.1246763865e+00 0.0000000000e+00 0.0000e+00 1.0000e+00
</event>
<event>
 4      1 +2.4448062e-06 9.11880000e+01 7.81860800e-03 1.13011600e-01
       25 -1    0    0    0    0 +0.0000000000e+00 +0.0000000000e+00 +9.9999998245e-15 1.2500000000e+02 1.2500000000e+02 0.0000e+00 0.0000e+00
      -13  1    1    0    0    0 +2.8971530739e+01 -5.2786829358e+01 +1.6704708110e+01 6.2488858079e+01 1.0566000000e-01 0.0000e+00 1.0000e+00
       13  1    1    0    0    0 -2.8973401617e+01 +5.2793074520e+01 -1.6716073085e+01 6.2498039825e+01 1.0566000000e-01 0.0000e+00 1.0000e+00
       22  1    1    0    0    0 +1.8708785931e-03 -6.2451626089e-03 +1.1364975296e-02 1.3102095489e-02 0.0000000000e+00 0.0000e+00 1.0000e+00
</event>
<event>
 4      1 +2.4448062e-06 9.11880000e+01 7.81860800e-03 1.13011600e-01
       25 -1    0    0    0    0 +0.0000000000e+00 +0.0000000000e+00 +9.9999998245e-15 1.2500000000e+02 1.2500000000e+02 0.0000e+00 0.0000e+00
      -13  1    1    0    0    0 -3.4884821596e+01 +4.8385490889e+01 +1.8658304575e+01 6.2500000000e+01 1.0566000000e-01 0.0000e+00 -1.0000e+00
       13  1    1    0    0    0 +3.4884819930e+01 -4.8385488659e+01 -1.8658303699e+01 6.2499997082e+01 1.0566000000e-01 0.0000e+00 -1.0000e+00
       22  1    1    0    0    0 +1.6662511232e-06 -2.2293778931e-06 -8.7551304408e-07 2.9177117209e-06 0.0000000000e+00 0.0000e+00 -1.0000e+00
</event>
<event>
 4      1 +2.4448062e-06 9.11880000e+01 7.81860800e-03 1.13011600e-01
       25 -1    0    0    0    0 +0.0000000000e+00 +0.0000000000e+00 +9.9999998245e-15 1.2500000000e+02 1.2500000000e+02 0.0000e+00 0.0000e+00
      -11  1    1    0    0    0 -5.2445896649e-01 -1.6535903568e+01 +3.8315414553e+01 4.1734663730e+01 5.1100000000e-04 0.0000e+00 -1.0000e+00
       11  1    1    0    0    0 +2.6609533271e-01 -5.5894682494e+00 +2.0065906158e+01 2.0831551844e+01 5.1100000000e-04 0.0000e+00 1.0000e+00
       22  1    1    0    0    0 +2.5836363378e-01 +2.2125371817e+01 -5.8381320711e+01 6.2433784426e+01 0.0000000000e+00 0.0000e+00 -1.0000e+00
</event>
<event>
 4      1 +2.4448062e-06 9.11880000e+01 7.81860800e-03 1.13011600e-01
       25 -1    0    0    0    0 +0.0000000000e+00 +0.0000000000e+00 +9.9999998245e-15 1.2500000000e+02 1.2500000000e+02 0.0000e+00 0.0000e+00
      -13  1    1    0    0    0 -9.0343899641e+00 +2.5880386777e+01 -5.6167821875e+01 6.2500000000e+01 1.0566000000e-01 0.0000e+00 -1.0000e+00
       13  1    1    0    0    0 +9.0343899642e+00 -2.5880386777e+01 +5.6167821875e+01 6.2500000000e+01 1.0566000000e-01 0.0000e+00 -1.0000e+00
       22  1    1    0    0    0 -1.1036304009e-10 -7.5580160448e-11 +3.1672403336e-10 3.4381168476e-10 0.0000000000e+00 0.0000e+00 -1.0000e+00
</event>
<event>
 4      1 +2.4448062e-06 9.11880000e+01 7.81860800e-03 1.13011600e-01
       25 -1    0    0    0    0 +0.0000000000e+00 +0.0000000000e+00 +9.9999998245e-15 1.2500000000e+02 1.2500000000e+02 0.0000e+00 0.0000e+00
      -13  1    1    0    0    0 +3.0228385525e+01 -1.2272605528e+01 -5.3309161461e+01 6.2499999980e+01 1.0566000000e-01 0.0000e+00 -1.0000e+00
       13  1    1    0    0    0 -3.0228380707e+01 +1.2272604203e+01 +5.3309154457e+01 6.2499991417e+01 1.0566000000e-01 0.0000e+00 -1.0000e+00
       22  1    1    0    0    0 -4.8174762044e-06 +1.3249398860e-06 +7.0035674758e-06 8.6031099069e-06 0.0000000000e+00 0.0000e+00 1.0000e+00
</event>
<event>
 4      1 +2.4448062e-06 9.11880000e+01 7.81860800e-03 1.13011600e-01
       25 -1    0    0    0    0 +0.0000000000e+00 +0.0000000000e+00 +9.9999998245e-15 1.2500000000e+02 1.2500000000e+02 0.0000e+00 0.0000e+00
      -11  1    1    0    0    0 -5.5394565036e+00 +7.4039096889e+00 -6.1272090699e+00 1.1092616837e+01 5.1100000000e-04 0.0000e+00 1.0000e+00
       11  1    1    0    0    0 -2.9754151644e+01 +3.7863368453e+01 -1.8314038017e+01 5.1520366841e+01 5.1100000000e-04 0.0000e+00 -1.0000e+00
       22  1    1    0    0    0 +3.5293608148e+01 -4.5267278142e+01 +2.4441247087e+01 6.2387016322e+01 0.0000000000e+00 0.0000e+00 -1.0000e+00
</event>
<event>
 5      1 +2.4448062e-06 9.11880000e+01 7.81860800e-03 1.13011600e-01
       25 -1    0    0    0    0 +0.0000000000e+00 +0.0000000000e+00 +9.9999998245e-15 1.2500000000e+02 1.2500000000e+02 0.0000e+00 0.0000e+00
       23  2    1    0    0    0 -1.7201793432e+01 -4.5410870709e+00 +2.2573239654e+01 9.6258491384e+01 9.1867419937e+01 0.0000e+00 0.0000e+00
      -13  1    2    2    0    0 -9.0318157057e+00 +4.3401958552e+01 +1.6243342403e+01 4.7213991968e+01 1.0566000000e-01 0.0000e+00 -1.0000e+00
       13  1    2    2    0    0 -8.1699777267e+00 -4.7943045623e+01 +6.3298972504e+00 4.9044499415e+01 1.0566000000e-01 0.0000e+00 1.0000e+00
       22  1    1    0    0    0 +1.7201793432e+01 +4.5410870709e+00 -2.2573239654e+01 2.8741508616e+01 0.0000000000e+00 0.0000e+00 -1.0000e+00
</event>
<event>
 4      1 +2.4448062e-06 9.11880000e+01 7.81860800e-03 1.13011600e-01
       25 -1    0    0    0    0 +0.0000000000e+00 +0.0000000000e+00 +9.9999998245e-15 1.2500000000e+02 1.2500000000e+02 0.0000e+00 0.0000e+00
      -13  1    1    0    0    0 -7.4243382413e+00 -3.3075726355e+01 +5.2508231390e+01 6.2500000000e+01 1.0566000000e-01 0.0000e+00 1.0000e+00
       13  1    1    0    0    0 +7.4243233699e+00 +3.3075660601e+01 -5.2508126841e+01 6.2499875601e+01 1.0566000000e-01 0.0000e+00 1.0000e+00
       22  1    1    0    0    0 +1.4871347637e-05 +6.5753358750e-05 -1.0454901070e-04 1.2439918330e-04 0.0000000000e+00 0.0000e+00 1.0000e+00
</event>
<event>
 4      1 +2.4448062e-06 9.11880000e+01 7.81860800e-03 1.13011600e-01
       25 -1    0    0    0    0 +0.0000000000e+00 +0.0000000000e+00 +9.9999998245e-15 1.2500000000e+02 1.2500000000e+02 0.0000e+00 0.0000e+00
      -13  1    1    0    0    0 -4.1744496867e+01 -1.3661846283e+01 -4.4283612035e+01 6.2372257627e+01 1.0566000000e-01 0.0000e+00 1.0000e+00
       13  1    1    0    0    0 +4.1828273887e+01 +1.3690625165e+01 +4.4375666569e+01 6.2499989290e+01 1.0566000000e-01 0.0000e+00 1.0000e+00
       22  1    1    0    0    0 -8.3777019343e-02 -2.8778881849e-02 -9.2054534061e-02 1.2775308314e-01 0.0000000000e+00 0.0000e+00 -1.0000e+00
</event>
<event>
 4      1 +2.4448062e-06 9.11880000e+01 7.81860800e-03 1.13011600e-01
       25 -1    0    0    0    0 +0.0000000000e+00 +0.0000000000e+00 +9.9999998245e-15 1.2500000000e+02 1.2500000000e+02 0.0000e+00 0.0000e+00
      -13  1    1    0    0    0 +3.3178017510e+01 -1.9557073969e+01 +1.5620232401e+01 4.1560351447e+01 1.0566000000e-01 0.0000e+00 -1.0000e+00
       13  1    1    0    0    0 -4.8928776512e+01 +2.9618822052e+01 -2.5125974599e+01 6.2470997705e+01 1.0566000000e-01 0.0000e+00 -1.0000e+00
       22  1    1    0    0    0 +1.5750759002e+01 -1.0061748084e+01 +9.5057421981e+00 2.0968650848e+01 0.0000000000e+00 0.0000e+00 1.0000e+00
</event>
<event>
 4      1 +2.4448062e-06 9.11880000e+01 7.81860800e-03 1.13011600e-01
       25 -1    0    0    0    0 +0.0000000000e+00 +0.0000000000e+00 +9.9999998245e-15 1.2500000000e+02 1.2500000000e+02 0.0000e+00 0.0000e+00
      -13  1    1    0    0    0 +1.1747156228e+01 +5.4390001446e+01 -2.8459987687e+01 6.2499999999e+01 1.0566000000e-01 0.0000e+00 -1.0000e+00
       13  1    1    0    0    0 -1.1747150522e+01 -5.4389974032e+01 +2.8459973690e+01 6.2499968696e+01 1.0566000000e-01 0.0000e+00 -1.0000e+00
       22  1    1    0    0    0 -5.7052565029e-06 -2.7413814527e-05 +1.3996952200e-05 3.1304661787e-05 0.0000000000e+00 0.0000e+00 1.0000e+00
</event>
<event>
 4      1 +2.4448062e-06 9.11880000e+01 7.81860800e-03 1.13011600e-01
       25 -1    0    0    0    0 +0.0000000000e+00 +0.0000000000e+00 +9.9999998245e-15 1.2500000000e+02 1.2500000000e+02 0.0000e+00 0.0000e+00
      -13  1    1    0    0    0 +1.5214323975e+01 -4.3825561501e+01 -4.1881357415e+01 6.2499718062e+01 1.0566000000e-01 0.0000e+00 1.0000e+00
       13  1    1    0    0    0 -1.5213920482e+01 +4.3824706364e+01 +4.1877919874e+01 6.2496716724e+01 1.0566000000e-01 0.0000e+00 1.0000e+00
       22  1    1    0    0    0 -4.0349310852e-04 +8.5513685160e-04 +3.4375409982e-03 3.5652144168e-03 0.0000000000e+00 0.0000e+00 1.0000e+00
</event>
<event>
 4      1 +2.4448062e-06 9.11880000e+01 7.81860800e-03 1.13011600e-01
       25 -1    0    0    0    0 +0.0000000000e+00 +0.0000000000e+00 +9.9999998245e-15 1.2500000000e+02 1.2500000000e+02 0.0000e+00 0.0000e+00
      -13  1    1    0    0    0 -1.3087232254e+01 -3.8588051144e+01 -4.7391196406e+01 6.2500000000e+01 1.0566000000e-01 0.0000e+00 1.0000e+00
       13  1    1    0    0    0 +1.3087232250e+01 +3.8588051128e+01 +4.7391196389e+01 6.2499999976e+01 1.0566000000e-01 0.0000e+00 1.0000e+00
       22  1    1    0    0    0 +4.9116237585e-09 +1.5393034512e-08 +1.7576807773e-08 2.3874960334e-08 0.0000000000e+00 0.0000e+00 1.0000e+00
</event>
<event>
 4      1 +2.4448062e-06 9.11880000e+01 7.81860800e-03 1.13011600e-01
       25 -1    0    0    0    0 +0.0000000000e+00 +0.0000000000e+00 +9.9999998245e-15 1.2500000000e+02 1.2500000000e+02 0.0000e+00 0.0000e+00
      -13  1    1    0    0    0 +4.6709177498e+01 +3.6541527981e+01 -1.9728362985e+01 6.2499999998e+01 1.0566000000e-01 0.0000e+00 -1.0000e+00
       13  1    1    0    0    0 -4.6709177421e+01 -3.6541527930e+01 +1.9728362929e+01 6.2499999893e+01 1.0566000000e-01 0.0000e+00 -1.0000e+00
       22  1    1    0    0    0 -7.6968508053e-08 -5.1141896066e-08 +5.6225088763e-08 1.0817072327e-07 0.0000000000e+00 0.0000e+00 1.0000e+00
</event>
<event>
 4      1 +2.4448062e-06 9.11880000e+01 7.81860800e-03 1.13011600e-01
       25 -1    0    0    0    0 +0.0000000000e+00 +0.0000000000e+00 +9.9999998245e-15 1.2500000000e+02 1.2500000000e+02 0.0000e+00 0.0000e+00
      -13  1    1    0    0    0 -1.3446799442e+01 -1.8182325387e+01 -5.8247412064e+01 6.2483482201e+01 1.0566000000e-01 0.0000e+00 1.0000e+00
       13  1    1    0    0    0 +1.2937685494e+01 +1.6925433253e+01 +5.3712771551e+01 5.7783449088e+01 1.0566000000e-01 0.0000e+00 1.0000e+00
       22  1    1    0    0    0 +5.0911394828e-01 +1.2568921340e+00 +4.5346405126e+00 4.7330687115e+00 0.0000000000e+00 0.0000e+00 1.0000e+00
</event>
<event>
 4      1 +2.4448062e-06 9.11880000e+01 7.81860800e-03 1.13011600e-01
       25 -1    0    0    0    0 +0.0000000000e+00 +0.0000000000e+00 +9.9999998245e-15 1.2500000000e+02 1.2500000000e+02 0.0000e+00 0.0000e+00
      -13  1    1    0    0    0 +3.4740169769e+01 -4.7905760123e+01 +2.0109637887e+01 6.2499999588e+01 1.0566000000e-01 0.0000e+00 -1.0000e+00
       13  1    1    0    0    0 -3.4740159850e+01 +4.7905734828e+01 -2.0109628562e+01 6.2499971686e+01 1.0566000000e-01 0.0000e+00 -1.0000e+00
       22  1    1    0    0    0 -9.9187594113e-06 +2.5295282342e-05 -9.3244482603e-06 2.8725919173e-05 0.0000000000e+00 0.0000e+00 -1.0000e+00
</event>
<event>
 4      1 +2.4448062e-06 9.11880000e+01 7.81860800e-03 1.13011600e-01
       25 -1    0    0    0    0 +0.0000000000e+00 +0.0000000000e+00 +9.9999998245e-15 1.2500000000e+02 1.2500000000e+02 0.0000e+00 0.0000e+00
      -13  1    1    0    0    0 +4.5143774855e+01 +3.6068927563e-01 -4.3222076664e+01 6.2499996640e+01 1.0566000000e-01 0.0000e+00 1.0000e+00
       13  1    1    0    0    0 -4.5143686433e+01 -3.6065385353e-01 +4.3222014756e+01 6.2499889757e+01 1.0566000000e-01 0.0000e+00 1.0000e+00
       22  1    1    0    0    0 -8.8421763768e-05 -3.5422104506e-05 +6.1907485266e-05 1.1360312728e-04 0.0000000000e+00 0.0000e+00 -1.0000e+00
</event>
<event>
 4      1 +2.4448062e-06 9.11880000e+01 7.81860800e-03 1.13011600e-01
       25 -1    0    0    0    0 +0.0000000000e+00 +0.0000000000e+00 +9.9999998245e-15 1.2500000000e+02 1.2500000000e+02 0.0000e+00 0.0000e+00
      -13  1    1    0    0    0 +9.0426708102e+00 +6.1840227516e+01 -5.0517460932e-01 6.2500000000e+01 1.0566000000e-01 0.0000e+00 -1.0000e+00
       13  1    1    0    0    0 -9.0426707894e+00 -6.1840227388e+01 +5.0517460822e-01 6.2499999870e+01 1.0566000000e-01 0.0000e+00 -1.0000e+00
       22  1    1    0    0    0 -2.0838285287e-08 -1.2803228957e-07 +1.1005898401e-09 1.2972167361e-07 0.0000000000e+00 0.0000e+00 -1.0000e+00
</event>
<event>
 4      1 +2.4448062e-06 9.11880000e+01 7.81860800e-03 1.13011600e-01
       25 -1    0    0    0    0 +0.0000000000e+00 +0.0000000000e+00 +9.9999998245e-15 1.2500000000e+02 1.2500000000e+02 0.0000e+00 0.0000e+00
      -13  1    1    0    0    0 +2.6074608689e+01 -3.6380591602e+01 +4.3621129806e+01 6.2499974345e+01 1.0566000000e-01 0.0000e+00 1.0000e+00
       13  1    1    0    0    0 -2.6074616316e+01 +3.6380626301e+01 -4.3621069342e+01 6.2499955525e+01 1.0566000000e-01 0.0000e+00 1.0000e+00
       22  1    1    0    0    0 +7.6266649960e-06 -3.4699525271e-05 -6.0464215617e-05 7.0129483410e-05 0.0000000000e+00 0.0000e+00 -1.0000e+00
</event>
<event>
 4      1 +2.4448062e-06 9.11880000e+01 7.81860800e-03 1.13011600e-01
       25 -1    0    0    0    0 +0.0000000000e+00 +0.0000000000e+00 +9.9999998245e-15 1.2500000000e+02 1.2500000000e+02 0.0000e+00 0.0000e+00
      -13  1    1    0    0    0 -2.7341006389e+01 +2.8152521942e+01 +4.8643023281e+01 6.2500000000e+01 1.0566000000e-01 0.0000e+00 -1.0000e+00
       13  1    1    0    0    0 +2.7341006389e+01 -2.8152521943e+01 -4.8643023281e+01 6.2500000000e+01 1.0566000000e-01 0.0000e+00 -1.0000e+00
       22  1    1    0    0    0 -2.3877843308e-11 +2.4185323527e-11 +1.2055020196e-11 3.6061125704e-11 0.0000000000e+00 0.0000e+00 1.0000e+00
</event>
<event>
 5      1 +2.4448062e-06 9.11880000e+01 7.81860800e-03 1.13011600e-01
       25 -1    0    0    0    0 +0.0000000000e+00 +0.0000000000e+00 +9.9999998245e-15 1.2500000000e+02 1.2500000000e+02 0.0000e+00 0.0000e+00
       23  2    1    0    0    0 -5.8350669722e+00 -3.2970321265e+01 -1.2265450823e+01 8.9341461404e+01 8.1916819708e+01 0.0000e+00 0.0000e+00
      -11  1    2    2    0    0 +1.7094134362e+00 +1.7931377359e+01 +2.1306784702e+01 2.7900456320e+01 5.1100000000e-04 0.0000e+00 1.0000e+00
       11  1    2    2    0    0 -7.5444804084e+00 -5.0901698624e+01 -3.3572235524e+01 6.1441005084e+01 5.1100000000e-04 0.0000e+00 -1.0000e+00
       22  1    1    0    0    0 +5.8350669722e+00 +3.2970321265e+01 +1.2265450823e+01 3.5658538596e+01 0.0000000000e+00 0.0000e+00 -1.0000e+00
</event>
<event>
 5      1 +2.4448062e-06 9.11880000e+01 7.81860800e-03 1.13011600e-01
       25 -1    0    0    0    0 +0.0000000000e+00 +0.0000000000e+00 +9.9999998245e-15 1.2500000000e+02 1.2500000000e+02 0.0000e+00 0.0000e+00
       23  2    1    0    0    0 +4.4296620703e+00 -9.0116961858e+00 -2.8062287279e+01 9.5195226195e+01 9.0409106559e+01 0.0000e+00 0.0000e+00
      -13  1    2    2    0    0 -6.5405766952e+00 +3.1249700941e+01 -4.0575181135e+01 5.1630218289e+01 1.0566000000e-01 0.0000e+00 1.0000e+00
       13  1    2    2    0    0 +1.0970238765e+01 -4.0261397127e+01 +1.2512893855e+01 4.3565007906e+01 1.0566000000e-01 0.0000e+00 -1.0000e+00
       22  1    1    0    0    0 -4.4296620703e+00 +9.0116961858e+00 +2.8062287279e+01 2.9804773805e+01 0.0000000000e+00 0.0000e+00 -1.0000e+00
</event>
</LesHouchesEvents>
