<event>
 5    1  0.1255769E-009  0.9118800E+02  0.7561462E-02  0.1125453E+00
         25   -1    0    0    0    0  0.00000000000E+00  0.00000000000E+00  0.99999998245E-14  0.12509000000E+03  0.12509000000E+03 0.  0.
        -13    1    3    3    0    0  0.47243663592E+01  0.59758264717E+02 -0.12013542850E+02  0.61136782835E+02  0.10566000000E+00 0. -1.
         23    2    1    0    0    0 -0.52507602948E+01  0.23756904919E+02 -0.10681169938E+02  0.98518428607E+02  0.94867446308E+02 0.  0.
         13    1    3    3    0    0 -0.99751266540E+01 -0.36001359798E+02  0.13323729115E+01  0.37381645773E+02  0.10566000000E+00 0.  1.
         22    1    1    0    0    0  0.52507602948E+01 -0.23756904919E+02  0.10681169938E+02  0.26571571393E+02  0.00000000000E+00 0. -1.
</event>
<event>
 5    1  0.1255769E-009  0.9118800E+02  0.7561462E-02  0.1125453E+00
         25   -1    0    0    0    0  0.00000000000E+00  0.00000000000E+00  0.99999998245E-14  0.12509000000E+03  0.12509000000E+03 0.  0.
        -13    1    3    3    0    0  0.39563070043E+02  0.18362626207E+02  0.13087375647E+01  0.43636527251E+02  0.10566000000E+00 0.  1.
         23    2    1    0    0    0  0.76771270176E+01 -0.18987583284E+02  0.20265107903E+02  0.96277829021E+02  0.91865549389E+02 0.  0.
         13    1    3    3    0    0 -0.31885943026E+02 -0.37350209491E+02  0.18956370338E+02  0.52641301770E+02  0.10566000000E+00 0. -1.
         22    1    1    0    0    0 -0.76771270176E+01  0.18987583284E+02 -0.20265107903E+02  0.28812170979E+02  0.00000000000E+00 0. -1.
</event>
<event>
 5    1  0.1255769E-009  0.9118800E+02  0.7561462E-02  0.1125453E+00
         25   -1    0    0    0    0  0.00000000000E+00  0.00000000000E+00  0.99999998245E-14  0.12509000000E+03  0.12509000000E+03 0.  0.
        -13    1    3    3    0    0 -0.26333339415E+01  0.47237642003E+02 -0.18365709185E+02  0.50750760660E+02  0.10566000000E+00 0. -1.
         23    2    1    0    0    0 -0.26392335430E+02  0.10830941317E+02 -0.61777847875E+01  0.95900452485E+02  0.91350244130E+02 0.  0.
         13    1    3    3    0    0 -0.23759001489E+02 -0.36406700687E+02  0.12187924398E+02  0.45149691824E+02  0.10566000000E+00 0.  1.
         22    1    1    0    0    0  0.26392335430E+02 -0.10830941317E+02  0.61777847875E+01  0.29189547515E+02  0.00000000000E+00 0. -1.
</event>
<event>
 5    1  0.1255769E-009  0.9118800E+02  0.7561462E-02  0.1125453E+00
         25   -1    0    0    0    0  0.00000000000E+00  0.00000000000E+00  0.99999998245E-14  0.12509000000E+03  0.12509000000E+03 0.  0.
        -13    1    3    3    0    0  0.96536515019E+01 -0.41394049985E+02  0.35972063685E+02  0.55683578291E+02  0.10566000000E+00 0. -1.
         23    2    1    0    0    0  0.20385654223E+02 -0.18302998366E+02  0.27295951694E+01  0.97557740066E+02  0.93592132734E+02 0.  0.
         13    1    3    3    0    0  0.10732002721E+02  0.23091051619E+02 -0.33242468516E+02  0.41874161775E+02  0.10566000000E+00 0.  1.
         22    1    1    0    0    0 -0.20385654223E+02  0.18302998366E+02 -0.27295951694E+01  0.27532259934E+02  0.00000000000E+00 0. -1.
</event>
<event>
 5    1  0.1255769E-009  0.9118800E+02  0.7561462E-02  0.1125453E+00
         25   -1    0    0    0    0  0.00000000000E+00  0.00000000000E+00  0.99999998245E-14  0.12509000000E+03  0.12509000000E+03 0.  0.
        -13    1    3    3    0    0  0.33047194898E+02 -0.17251289896E+02  0.16165468442E+02  0.40633208434E+02  0.10566000000E+00 0.  1.
         23    2    1    0    0    0 -0.25128128673E+00  0.27210084152E+02  0.75943193586E+01  0.96838884830E+02  0.92626368312E+02 0.  0.
         13    1    3    3    0    0 -0.33298476184E+02  0.44461374048E+02 -0.85711490830E+01  0.56205676396E+02  0.10566000000E+00 0. -1.
         22    1    1    0    0    0  0.25128128673E+00 -0.27210084152E+02 -0.75943193586E+01  0.28251115170E+02  0.00000000000E+00 0. -1.
</event>
<event>
 5    1  0.1255769E-009  0.9118800E+02  0.7561462E-02  0.1125453E+00
         25   -1    0    0    0    0  0.00000000000E+00  0.00000000000E+00  0.99999998245E-14  0.12509000000E+03  0.12509000000E+03 0.  0.
        -13    1    3    3    0    0 -0.62062534718E+01  0.29443774783E+02  0.48846845141E+02  0.57371411870E+02  0.10566000000E+00 0.  1.
         23    2    1    0    0    0 -0.58629491457E+00 -0.20006598463E+01  0.31113779074E+02  0.93906452578E+02  0.88577695872E+02 0.  0.
         13    1    3    3    0    0  0.56199585572E+01 -0.31444434630E+02 -0.17733066067E+02  0.36535040708E+02  0.10566000000E+00 0. -1.
         22    1    1    0    0    0  0.58629491457E+00  0.20006598463E+01 -0.31113779074E+02  0.31183547422E+02  0.00000000000E+00 0.  1.
</event>
<event>
 5    1  0.1255769E-009  0.9118800E+02  0.7561462E-02  0.1125453E+00
         25   -1    0    0    0    0  0.00000000000E+00  0.00000000000E+00  0.99999998245E-14  0.12509000000E+03  0.12509000000E+03 0.  0.
        -13    1    3    3    0    0  0.36967598604E+01 -0.97624840760E+01  0.43592141713E+02  0.44824748878E+02  0.10566000000E+00 0.  1.
         23    2    1    0    0    0 -0.70964559149E+01 -0.28474788070E+02 -0.24089228910E+01  0.95645541240E+02  0.91000513226E+02 0.  0.
         13    1    3    3    0    0 -0.10793215775E+02 -0.18712303994E+02 -0.46001064604E+02  0.50820792362E+02  0.10566000000E+00 0. -1.
         22    1    1    0    0    0  0.70964559149E+01  0.28474788070E+02  0.24089228910E+01  0.29444458760E+02  0.00000000000E+00 0. -1.
</event>
<event>
 5    1  0.1255769E-009  0.9118800E+02  0.7561462E-02  0.1125453E+00
         25   -1    0    0    0    0  0.00000000000E+00  0.00000000000E+00  0.99999998245E-14  0.12509000000E+03  0.12509000000E+03 0.  0.
        -13    1    3    3    0    0 -0.29604626577E+02 -0.71766001484E+01 -0.25542252386E+02  0.39753683168E+02  0.10566000000E+00 0.  1.
         23    2    1    0    0    0 -0.11324427792E+02 -0.14088344145E+02  0.25170334546E+02  0.94101778903E+02  0.88853108815E+02 0.  0.
         13    1    3    3    0    0  0.18280198785E+02 -0.69117439969E+01  0.50712586932E+02  0.54348095735E+02  0.10566000000E+00 0. -1.
         22    1    1    0    0    0  0.11324427792E+02  0.14088344145E+02 -0.25170334546E+02  0.30988221097E+02  0.00000000000E+00 0. -1.
</event>
<event>
 5    1  0.1255769E-009  0.9118800E+02  0.7561462E-02  0.1125453E+00
         25   -1    0    0    0    0  0.00000000000E+00  0.00000000000E+00  0.99999998245E-14  0.12509000000E+03  0.12509000000E+03 0.  0.
        -13    1    3    3    0    0 -0.23444446231E+02  0.36528362124E+02 -0.38469568609E+02  0.57998984229E+02  0.10566000000E+00 0.  1.
         23    2    1    0    0    0  0.52041755156E+01  0.16722201315E+02 -0.23184817418E+02  0.96033998583E+02  0.91532932136E+02 0.  0.
         13    1    3    3    0    0  0.28648621746E+02 -0.19806160809E+02  0.15284751191E+02  0.38035014354E+02  0.10566000000E+00 0. -1.
         22    1    1    0    0    0 -0.52041755156E+01 -0.16722201315E+02  0.23184817418E+02  0.29056001417E+02  0.00000000000E+00 0.  1.
</event>
<event>
 5    1  0.1255769E-009  0.9118800E+02  0.7561462E-02  0.1125453E+00
         25   -1    0    0    0    0  0.00000000000E+00  0.00000000000E+00  0.99999998245E-14  0.12509000000E+03  0.12509000000E+03 0.  0.
        -13    1    3    3    0    0  0.21238156487E+02 -0.14168934259E+02  0.28568090404E+02  0.38314030620E+02  0.10566000000E+00 0.  1.
         23    2    1    0    0    0 -0.16505381688E+01  0.29126882946E+02 -0.16663973110E+01  0.95868835301E+02  0.91306939033E+02 0.  0.
         13    1    3    3    0    0 -0.22888694656E+02  0.43295817204E+02 -0.30234487715E+02  0.57554804681E+02  0.10566000000E+00 0. -1.
         22    1    1    0    0    0  0.16505381688E+01 -0.29126882946E+02  0.16663973110E+01  0.29221164699E+02  0.00000000000E+00 0. -1.
</event>
<event>
 5    1  0.1255769E-009  0.9118800E+02  0.7561462E-02  0.1125453E+00
         25   -1    0    0    0    0  0.00000000000E+00  0.00000000000E+00  0.99999998245E-14  0.12509000000E+03  0.12509000000E+03 0.  0.
        -13    1    3    3    0    0  0.33163846828E+02 -0.31951640455E+02 -0.15975882072E+02  0.48744107708E+02  0.10566000000E+00 0.  1.
         23    2    1    0    0    0  0.31546749772E+02 -0.19370677659E+02  0.17205746375E+02  0.84267723208E+02  0.73719677782E+02 0.  0.
         13    1    3    3    0    0 -0.16170970562E+01  0.12580962796E+02  0.33181628447E+02  0.35523615500E+02  0.10566000000E+00 0. -1.
         22    1    1    0    0    0 -0.31546749772E+02  0.19370677659E+02 -0.17205746375E+02  0.40822276792E+02  0.00000000000E+00 0.  1.
</event>
<event>
 5    1  0.1255769E-009  0.9118800E+02  0.7561462E-02  0.1125453E+00
         25   -1    0    0    0    0  0.00000000000E+00  0.00000000000E+00  0.99999998245E-14  0.12509000000E+03  0.12509000000E+03 0.  0.
        -13    1    3    3    0    0 -0.24027141400E+02  0.25952088772E+02  0.83791900396E+01  0.36346064783E+02  0.10566000000E+00 0.  1.
         23    2    1    0    0    0  0.13071533716E+02 -0.59221360962E+01 -0.25489327802E+02  0.95838632144E+02  0.91265551496E+02 0.  0.
         13    1    3    3    0    0  0.37098675116E+02 -0.31874224868E+02 -0.33868517842E+02  0.59492567361E+02  0.10566000000E+00 0. -1.
         22    1    1    0    0    0 -0.13071533716E+02  0.59221360962E+01  0.25489327802E+02  0.29251367856E+02  0.00000000000E+00 0. -1.
</event>
<event>
 5    1  0.1255769E-009  0.9118800E+02  0.7561462E-02  0.1125453E+00
         25   -1    0    0    0    0  0.00000000000E+00  0.00000000000E+00  0.99999998245E-14  0.12509000000E+03  0.12509000000E+03 0.  0.
        -13    1    3    3    0    0  0.54386272862E+02  0.11376092254E+02 -0.37707447403E+01  0.55691218614E+02  0.10566000000E+00 0. -1.
         23    2    1    0    0    0  0.21014875669E+02  0.56978273554E+01  0.18755323857E+02  0.96352352064E+02  0.91966968741E+02 0.  0.
         13    1    3    3    0    0 -0.33371397194E+02 -0.56782648986E+01  0.22526068597E+02  0.40661133449E+02  0.10566000000E+00 0.  1.
         22    1    1    0    0    0 -0.21014875669E+02 -0.56978273554E+01 -0.18755323857E+02  0.28737647936E+02  0.00000000000E+00 0. -1.
</event>
<event>
 5    1  0.1255769E-009  0.9118800E+02  0.7561462E-02  0.1125453E+00
         25   -1    0    0    0    0  0.00000000000E+00  0.00000000000E+00  0.99999998245E-14  0.12509000000E+03  0.12509000000E+03 0.  0.
        -13    1    3    3    0    0  0.28800242766E+02  0.39662029936E+02  0.25835942351E+02  0.55407920762E+02  0.10566000000E+00 0.  1.
         23    2    1    0    0    0 -0.23849357570E+01  0.13757881400E+02  0.25577382546E+02  0.95949483239E+02  0.91417359494E+02 0.  0.
         13    1    3    3    0    0 -0.31185178523E+02 -0.25904148536E+02 -0.25855980505E+00  0.40541562477E+02  0.10566000000E+00 0. -1.
         22    1    1    0    0    0  0.23849357570E+01 -0.13757881400E+02 -0.25577382546E+02  0.29140516761E+02  0.00000000000E+00 0.  1.
</event>
<event>
 5    1  0.1255769E-009  0.9118800E+02  0.7561462E-02  0.1125453E+00
         25   -1    0    0    0    0  0.00000000000E+00  0.00000000000E+00  0.99999998245E-14  0.12509000000E+03  0.12509000000E+03 0.  0.
        -13    1    3    3    0    0  0.19364533440E+01 -0.23104575305E+02 -0.53309404132E+02  0.58133251969E+02  0.10566000000E+00 0. -1.
         23    2    1    0    0    0 -0.38057059826E+01 -0.25695562509E+02 -0.19280270009E+02  0.92740747423E+02  0.86915890896E+02 0.  0.
         13    1    3    3    0    0 -0.57421593267E+01 -0.25909872039E+01  0.34029134122E+02  0.34607495454E+02  0.10566000000E+00 0.  1.
         22    1    1    0    0    0  0.38057059826E+01  0.25695562509E+02  0.19280270009E+02  0.32349252577E+02  0.00000000000E+00 0. -1.
</event>
<event>
 5    1  0.1255769E-009  0.9118800E+02  0.7561462E-02  0.1125453E+00
         25   -1    0    0    0    0  0.00000000000E+00  0.00000000000E+00  0.99999998245E-14  0.12509000000E+03  0.12509000000E+03 0.  0.
        -13    1    3    3    0    0  0.17652832413E+01  0.41457774089E+02  0.28038563104E+01  0.41590095355E+02  0.10566000000E+00 0.  1.
         23    2    1    0    0    0 -0.20764736209E+02 -0.60541331807E+01  0.18672663540E+02  0.96515620530E+02  0.92188772875E+02 0.  0.
         13    1    3    3    0    0 -0.22530019450E+02 -0.47511907270E+02  0.15868807230E+02  0.54925525176E+02  0.10566000000E+00 0. -1.
         22    1    1    0    0    0  0.20764736209E+02  0.60541331807E+01 -0.18672663540E+02  0.28574379470E+02  0.00000000000E+00 0. -1.
</event>
<event>
 5    1  0.1255769E-009  0.9118800E+02  0.7561462E-02  0.1125453E+00
         25   -1    0    0    0    0  0.00000000000E+00  0.00000000000E+00  0.99999998245E-14  0.12509000000E+03  0.12509000000E+03 0.  0.
        -13    1    3    3    0    0 -0.33041416758E+02  0.55395921925E+01  0.33833873168E+02  0.47614750242E+02  0.10566000000E+00 0.  1.
         23    2    1    0    0    0  0.55969296885E+01 -0.20183872689E+02  0.20193611938E+02  0.95995390504E+02  0.91480154658E+02 0.  0.
         13    1    3    3    0    0  0.38638346447E+02 -0.25723464882E+02 -0.13640261230E+02  0.48380640261E+02  0.10566000000E+00 0. -1.
         22    1    1    0    0    0 -0.55969296885E+01  0.20183872689E+02 -0.20193611938E+02  0.29094609496E+02  0.00000000000E+00 0.  1.
</event>
<event>
 5    1  0.1255769E-009  0.9118800E+02  0.7561462E-02  0.1125453E+00
         25   -1    0    0    0    0  0.00000000000E+00  0.00000000000E+00  0.99999998245E-14  0.12509000000E+03  0.12509000000E+03 0.  0.
        -13    1    3    3    0    0 -0.15945386078E+02  0.32252575063E+02 -0.20311398203E+02  0.41316437363E+02  0.10566000000E+00 0.  1.
         23    2    1    0    0    0  0.28122873849E+02  0.89145138969E+01  0.10582500246E+01  0.95569083946E+02  0.90895353686E+02 0.  0.
         13    1    3    3    0    0  0.44068259926E+02 -0.23338061166E+02  0.21369648228E+02  0.54252646584E+02  0.10566000000E+00 0. -1.
         22    1    1    0    0    0 -0.28122873849E+02 -0.89145138969E+01 -0.10582500246E+01  0.29520916054E+02  0.00000000000E+00 0. -1.
</event>
<event>
 5    1  0.1255769E-009  0.9118800E+02  0.7561462E-02  0.1125453E+00
         25   -1    0    0    0    0  0.00000000000E+00  0.00000000000E+00  0.99999998245E-14  0.12509000000E+03  0.12509000000E+03 0.  0.
        -13    1    3    3    0    0  0.65109500515E+01 -0.26724143850E+02  0.52392957816E+02  0.59174365462E+02  0.10566000000E+00 0.  1.
         23    2    1    0    0    0 -0.84977824205E+01 -0.45865865138E+01  0.28357773287E+02  0.95133157915E+02  0.90293440222E+02 0.  0.
         13    1    3    3    0    0 -0.15008732472E+02  0.22137557336E+02 -0.24035184529E+02  0.35958792452E+02  0.10566000000E+00 0. -1.
         22    1    1    0    0    0  0.84977824205E+01  0.45865865138E+01 -0.28357773287E+02  0.29956842085E+02  0.00000000000E+00 0.  1.
</event>
<event>
 5    1  0.1255769E-009  0.9118800E+02  0.7561462E-02  0.1125453E+00
         25   -1    0    0    0    0  0.00000000000E+00  0.00000000000E+00  0.99999998245E-14  0.12509000000E+03  0.12509000000E+03 0.  0.
        -13    1    3    3    0    0  0.14665265874E+02 -0.19228659802E+02  0.26829467258E+02  0.36119840231E+02  0.10566000000E+00 0. -1.
         23    2    1    0    0    0 -0.13366914881E+02 -0.14842001302E+01 -0.24443844714E+02  0.97190559004E+02  0.93100085670E+02 0.  0.
         13    1    3    3    0    0 -0.28032180755E+02  0.17744459672E+02 -0.51273311972E+02  0.61070718774E+02  0.10566000000E+00 0.  1.
         22    1    1    0    0    0  0.13366914881E+02  0.14842001302E+01  0.24443844714E+02  0.27899440996E+02  0.00000000000E+00 0.  1.
</event>
<event>
 5    1  0.1255769E-009  0.9118800E+02  0.7561462E-02  0.1125453E+00
         25   -1    0    0    0    0  0.00000000000E+00  0.00000000000E+00  0.99999998245E-14  0.12509000000E+03  0.12509000000E+03 0.  0.
        -13    1    3    3    0    0 -0.42844467523E+02 -0.27900262509E+02 -0.11887415521E+02  0.52491855151E+02  0.10566000000E+00 0. -1.
         23    2    1    0    0    0 -0.10941400372E+02 -0.98701195423E+00 -0.26250856434E+02  0.96633086987E+02  0.92348024355E+02 0.  0.
         13    1    3    3    0    0  0.31903067150E+02  0.26913250555E+02 -0.14363440913E+02  0.44141231836E+02  0.10566000000E+00 0.  1.
         22    1    1    0    0    0  0.10941400372E+02  0.98701195423E+00  0.26250856434E+02  0.28456913013E+02  0.00000000000E+00 0. -1.
</event>
<event>
 5    1  0.1255769E-009  0.9118800E+02  0.7561462E-02  0.1125453E+00
         25   -1    0    0    0    0  0.00000000000E+00  0.00000000000E+00  0.99999998245E-14  0.12509000000E+03  0.12509000000E+03 0.  0.
        -13    1    3    3    0    0 -0.47020748464E+02 -0.66620740846E+01 -0.33890279817E+02  0.58342919428E+02  0.10566000000E+00 0.  1.
         23    2    1    0    0    0 -0.97906982265E+01 -0.61822541546E+01 -0.26316510012E+02  0.96338708944E+02  0.91948410011E+02 0.  0.
         13    1    3    3    0    0  0.37230050237E+02  0.47981992998E+00  0.75737698052E+01  0.37995789516E+02  0.10566000000E+00 0. -1.
         22    1    1    0    0    0  0.97906982265E+01  0.61822541546E+01  0.26316510012E+02  0.28751291056E+02  0.00000000000E+00 0.  1.
</event>
<event>
 5    1  0.1255769E-009  0.9118800E+02  0.7561462E-02  0.1125453E+00
         25   -1    0    0    0    0  0.00000000000E+00  0.00000000000E+00  0.99999998245E-14  0.12509000000E+03  0.12509000000E+03 0.  0.
        -13    1    3    3    0    0 -0.29112650575E+02  0.11275007810E+02  0.12637010453E+02  0.33680519916E+02  0.10566000000E+00 0.  1.
         23    2    1    0    0    0  0.29366382472E+02  0.23040401240E+00 -0.39413041948E+01  0.95459418091E+02  0.90744306257E+02 0.  0.
         13    1    3    3    0    0  0.58479033047E+02 -0.11044603797E+02 -0.16578314647E+02  0.61778898175E+02  0.10566000000E+00 0. -1.
         22    1    1    0    0    0 -0.29366382472E+02 -0.23040401240E+00  0.39413041948E+01  0.29630581909E+02  0.00000000000E+00 0. -1.
</event>
<event>
 5    1  0.1255769E-009  0.9118800E+02  0.7561462E-02  0.1125453E+00
         25   -1    0    0    0    0  0.00000000000E+00  0.00000000000E+00  0.99999998245E-14  0.12509000000E+03  0.12509000000E+03 0.  0.
        -13    1    3    3    0    0 -0.32002805412E+02 -0.78776649461E+01 -0.34906550272E+02  0.48007453329E+02  0.10566000000E+00 0. -1.
         23    2    1    0    0    0  0.47811151820E+01 -0.26684002299E+02 -0.10318149681E+02  0.96083806628E+02  0.91600975117E+02 0.  0.
         13    1    3    3    0    0  0.36783920594E+02 -0.18806337353E+02  0.24588400591E+02  0.48076353299E+02  0.10566000000E+00 0.  1.
         22    1    1    0    0    0 -0.47811151820E+01  0.26684002299E+02  0.10318149681E+02  0.29006193372E+02  0.00000000000E+00 0. -1.
</event>
<event>
 5    1  0.1255769E-009  0.9118800E+02  0.7561462E-02  0.1125453E+00
         25   -1    0    0    0    0  0.00000000000E+00  0.00000000000E+00  0.99999998245E-14  0.12509000000E+03  0.12509000000E+03 0.  0.
        -13    1    3    3    0    0 -0.17223372935E+02 -0.43269258883E+02  0.26842727039E+01  0.46648577937E+02  0.10566000000E+00 0. -1.
         23    2    1    0    0    0  0.62839568769E+01 -0.34991317181E+01  0.25799342395E+02  0.98306831688E+02  0.94588028057E+02 0.  0.
         13    1    3    3    0    0  0.23507329812E+02  0.39770127165E+02  0.23115069691E+02  0.51658253750E+02  0.10566000000E+00 0.  1.
         22    1    1    0    0    0 -0.62839568769E+01  0.34991317181E+01 -0.25799342395E+02  0.26783168312E+02  0.00000000000E+00 0.  1.
</event>
<event>
 5    1  0.1255769E-009  0.9118800E+02  0.7561462E-02  0.1125453E+00
         25   -1    0    0    0    0  0.00000000000E+00  0.00000000000E+00  0.99999998245E-14  0.12509000000E+03  0.12509000000E+03 0.  0.
        -13    1    3    3    0    0 -0.38529278309E+02  0.43992445708E+02  0.19975435281E+02  0.61797004337E+02  0.10566000000E+00 0.  1.
         23    2    1    0    0    0 -0.27044611337E+02  0.22088577110E+02  0.80448670698E+01  0.89256550162E+02  0.81747756052E+02 0.  0.
         13    1    3    3    0    0  0.11484666972E+02 -0.21903868599E+02 -0.11930568211E+02  0.27459545825E+02  0.10566000000E+00 0. -1.
         22    1    1    0    0    0  0.27044611337E+02 -0.22088577110E+02 -0.80448670698E+01  0.35833449838E+02  0.00000000000E+00 0.  1.
</event>
<event>
 5    1  0.1255769E-009  0.9118800E+02  0.7561462E-02  0.1125453E+00
         25   -1    0    0    0    0  0.00000000000E+00  0.00000000000E+00  0.99999998245E-14  0.12509000000E+03  0.12509000000E+03 0.  0.
        -13    1    3    3    0    0  0.45930494945E+02  0.25651072136E+01 -0.28864346398E+02  0.54307934945E+02  0.10566000000E+00 0.  1.
         23    2    1    0    0    0  0.97366468989E+01  0.15227076344E+02 -0.26872918629E+02  0.92704510928E+02  0.86863723406E+02 0.  0.
         13    1    3    3    0    0 -0.36193848046E+02  0.12661969130E+02  0.19914277696E+01  0.38396575983E+02  0.10566000000E+00 0. -1.
         22    1    1    0    0    0 -0.97366468989E+01 -0.15227076344E+02  0.26872918629E+02  0.32385489072E+02  0.00000000000E+00 0. -1.
</event>
<event>
 5    1  0.1255769E-009  0.9118800E+02  0.7561462E-02  0.1125453E+00
         25   -1    0    0    0    0  0.00000000000E+00  0.00000000000E+00  0.99999998245E-14  0.12509000000E+03  0.12509000000E+03 0.  0.
        -13    1    3    3    0    0  0.26261325868E+02 -0.61328034219E+01  0.21051447605E+02  0.34211739571E+02  0.10566000000E+00 0.  1.
         23    2    1    0    0    0 -0.81180200445E+01  0.98907982661E+01 -0.26870618867E+02  0.95328274612E+02  0.90563346020E+02 0.  0.
         13    1    3    3    0    0 -0.34379345913E+02  0.16023601688E+02 -0.47922066472E+02  0.61116535041E+02  0.10566000000E+00 0. -1.
         22    1    1    0    0    0  0.81180200445E+01 -0.98907982661E+01  0.26870618867E+02  0.29761725388E+02  0.00000000000E+00 0. -1.
</event>
<event>
 5    1  0.1255769E-009  0.9118800E+02  0.7561462E-02  0.1125453E+00
         25   -1    0    0    0    0  0.00000000000E+00  0.00000000000E+00  0.99999998245E-14  0.12509000000E+03  0.12509000000E+03 0.  0.
        -13    1    3    3    0    0 -0.26628805922E+02  0.12758273962E+02 -0.16402931556E+02  0.33777717314E+02  0.10566000000E+00 0. -1.
         23    2    1    0    0    0  0.24195019954E+02 -0.15419443328E+01  0.16293522902E+02  0.95879463007E+02  0.91321497770E+02 0.  0.
         13    1    3    3    0    0  0.50823825875E+02 -0.14300218295E+02  0.32696454457E+02  0.62101745692E+02  0.10566000000E+00 0.  1.
         22    1    1    0    0    0 -0.24195019954E+02  0.15419443328E+01 -0.16293522902E+02  0.29210536993E+02  0.00000000000E+00 0.  1.
</event>
<event>
 5    1  0.1255769E-009  0.9118800E+02  0.7561462E-02  0.1125453E+00
         25   -1    0    0    0    0  0.00000000000E+00  0.00000000000E+00  0.99999998245E-14  0.12509000000E+03  0.12509000000E+03 0.  0.
        -13    1    3    3    0    0 -0.11804101030E+02  0.41649068303E+02 -0.24743878379E+02  0.49862334210E+02  0.10566000000E+00 0. -1.
         23    2    1    0    0    0  0.15201435912E+02  0.48530698936E+01 -0.24912168615E+02  0.95505340356E+02  0.90807587515E+02 0.  0.
         13    1    3    3    0    0  0.27005536941E+02 -0.36795998409E+02 -0.16829023606E+00  0.45643006146E+02  0.10566000000E+00 0.  1.
         22    1    1    0    0    0 -0.15201435912E+02 -0.48530698936E+01  0.24912168615E+02  0.29584659644E+02  0.00000000000E+00 0. -1.
</event>
<event>
 5    1  0.1255769E-009  0.9118800E+02  0.7561462E-02  0.1125453E+00
         25   -1    0    0    0    0  0.00000000000E+00  0.00000000000E+00  0.99999998245E-14  0.12509000000E+03  0.12509000000E+03 0.  0.
        -13    1    3    3    0    0  0.18446537613E+02 -0.14808954405E+02 -0.29987467295E+02  0.38194754080E+02  0.10566000000E+00 0. -1.
         23    2    1    0    0    0  0.20743089094E+02  0.88515212956E+01  0.20888114605E+02  0.94350147915E+02  0.89202084648E+02 0.  0.
         13    1    3    3    0    0  0.22965514809E+01  0.23660475700E+02  0.50875581900E+02  0.56155393835E+02  0.10566000000E+00 0.  1.
         22    1    1    0    0    0 -0.20743089094E+02 -0.88515212956E+01 -0.20888114605E+02  0.30739852085E+02  0.00000000000E+00 0.  1.
</event>
<event>
 5    1  0.1255769E-009  0.9118800E+02  0.7561462E-02  0.1125453E+00
         25   -1    0    0    0    0  0.00000000000E+00  0.00000000000E+00  0.99999998245E-14  0.12509000000E+03  0.12509000000E+03 0.  0.
        -13    1    3    3    0    0 -0.85382789655E+01  0.28131222796E+02 -0.24164152901E+02  0.38055030589E+02  0.10566000000E+00 0.  1.
         23    2    1    0    0    0  0.95679201134E+01  0.78400910166E+01  0.26661362207E+02  0.95698838791E+02  0.91073746979E+02 0.  0.
         13    1    3    3    0    0  0.18106199079E+02 -0.20291131779E+02  0.50825515108E+02  0.57643808202E+02  0.10566000000E+00 0. -1.
         22    1    1    0    0    0 -0.95679201134E+01 -0.78400910166E+01 -0.26661362207E+02  0.29391161209E+02  0.00000000000E+00 0. -1.
</event>
<event>
 5    1  0.1255769E-009  0.9118800E+02  0.7561462E-02  0.1125453E+00
         25   -1    0    0    0    0  0.00000000000E+00  0.00000000000E+00  0.99999998245E-14  0.12509000000E+03  0.12509000000E+03 0.  0.
        -13    1    3    3    0    0 -0.15556947044E+00  0.70231430803E+00 -0.19028876564E+02  0.19042761212E+02  0.10566000000E+00 0. -1.
         23    2    1    0    0    0  0.71055819028E+01 -0.10372411406E+02  0.41874165600E+02  0.81369044415E+02  0.68625064166E+02 0.  0.
         13    1    3    3    0    0  0.72611513732E+01 -0.11074725714E+02  0.60903042165E+02  0.62326283203E+02  0.10566000000E+00 0.  1.
         22    1    1    0    0    0 -0.71055819028E+01  0.10372411406E+02 -0.41874165600E+02  0.43720955585E+02  0.00000000000E+00 0.  1.
</event>
<event>
 5    1  0.1255769E-009  0.9118800E+02  0.7561462E-02  0.1125453E+00
         25   -1    0    0    0    0  0.00000000000E+00  0.00000000000E+00  0.99999998245E-14  0.12509000000E+03  0.12509000000E+03 0.  0.
        -13    1    3    3    0    0  0.10983867804E+02  0.45889171074E+02 -0.37160585169E+02  0.60061482066E+02  0.10566000000E+00 0. -1.
         23    2    1    0    0    0  0.17529159002E+02  0.25167554503E+02 -0.27699637456E+02  0.83762683003E+02  0.72857669011E+02 0.  0.
         13    1    3    3    0    0  0.65452911974E+01 -0.20721616571E+02  0.94609477137E+01  0.23701200937E+02  0.10566000000E+00 0.  1.
         22    1    1    0    0    0 -0.17529159002E+02 -0.25167554503E+02  0.27699637456E+02  0.41327316997E+02  0.00000000000E+00 0. -1.
</event>
<event>
 5    1  0.1255769E-009  0.9118800E+02  0.7561462E-02  0.1125453E+00
         25   -1    0    0    0    0  0.00000000000E+00  0.00000000000E+00  0.99999998245E-14  0.12509000000E+03  0.12509000000E+03 0.  0.
        -13    1    3    3    0    0 -0.29933214810E+02  0.28339817838E+02 -0.96811256706E+01  0.42342389898E+02  0.10566000000E+00 0. -1.
         23    2    1    0    0    0 -0.10348255454E+01 -0.14130441304E+02 -0.25350533223E+02  0.96048826297E+02  0.91553193626E+02 0.  0.
         13    1    3    3    0    0  0.28898389265E+02 -0.42470259142E+02 -0.15669407552E+02  0.53706436400E+02  0.10566000000E+00 0.  1.
         22    1    1    0    0    0  0.10348255454E+01  0.14130441304E+02  0.25350533223E+02  0.29041173703E+02  0.00000000000E+00 0.  1.
</event>
<event>
 5    1  0.1255769E-009  0.9118800E+02  0.7561462E-02  0.1125453E+00
         25   -1    0    0    0    0  0.00000000000E+00  0.00000000000E+00  0.99999998245E-14  0.12509000000E+03  0.12509000000E+03 0.  0.
        -13    1    3    3    0    0 -0.28626578671E+02 -0.39133002897E+02 -0.10934325556E+02  0.49703556830E+02  0.10566000000E+00 0.  1.
         23    2    1    0    0    0 -0.15094565527E+02  0.15580321764E+01 -0.25857786049E+02  0.95108364420E+02  0.90259085473E+02 0.  0.
         13    1    3    3    0    0  0.13532013144E+02  0.40691035073E+02 -0.14923460494E+02  0.45404807589E+02  0.10566000000E+00 0. -1.
         22    1    1    0    0    0  0.15094565527E+02 -0.15580321764E+01  0.25857786049E+02  0.29981635580E+02  0.00000000000E+00 0.  1.
</event>
<event>
 5    1  0.1255769E-009  0.9118800E+02  0.7561462E-02  0.1125453E+00
         25   -1    0    0    0    0  0.00000000000E+00  0.00000000000E+00  0.99999998245E-14  0.12509000000E+03  0.12509000000E+03 0.  0.
        -13    1    3    3    0    0 -0.10805898417E+02  0.37508482075E+02  0.11804843107E+02  0.40780131841E+02  0.10566000000E+00 0.  1.
         23    2    1    0    0    0 -0.18261011070E+02 -0.19205449075E+01 -0.24213375272E+02  0.94701835196E+02  0.89693907427E+02 0.  0.
         13    1    3    3    0    0 -0.74551126528E+01 -0.39429026983E+02 -0.36018218379E+02  0.53921703355E+02  0.10566000000E+00 0. -1.
         22    1    1    0    0    0  0.18261011070E+02  0.19205449075E+01  0.24213375272E+02  0.30388164804E+02  0.00000000000E+00 0. -1.
</event>
<event>
 5    1  0.1255769E-009  0.9118800E+02  0.7561462E-02  0.1125453E+00
         25   -1    0    0    0    0  0.00000000000E+00  0.00000000000E+00  0.99999998245E-14  0.12509000000E+03  0.12509000000E+03 0.  0.
        -13    1    3    3    0    0 -0.69663639041E+01  0.15958959676E+02 -0.45026615509E+02  0.48276556300E+02  0.10566000000E+00 0. -1.
         23    2    1    0    0    0  0.46624305732E+01 -0.21957152119E+02 -0.18651615490E+02  0.95905457029E+02  0.91357096821E+02 0.  0.
         13    1    3    3    0    0  0.11628794477E+02 -0.37916111794E+02  0.26375000019E+02  0.47628900729E+02  0.10566000000E+00 0.  1.
         22    1    1    0    0    0 -0.46624305732E+01  0.21957152119E+02  0.18651615490E+02  0.29184542971E+02  0.00000000000E+00 0. -1.
</event>
<event>
 5    1  0.1255769E-009  0.9118800E+02  0.7561462E-02  0.1125453E+00
         25   -1    0    0    0    0  0.00000000000E+00  0.00000000000E+00  0.99999998245E-14  0.12509000000E+03  0.12509000000E+03 0.  0.
        -13    1    3    3    0    0  0.49230851099E+02  0.13777536907E+01 -0.13580219417E+02  0.51088241588E+02  0.10566000000E+00 0.  1.
         23    2    1    0    0    0  0.18235129029E+02 -0.17754060523E+02  0.13315342940E+02  0.96366752388E+02  0.91986553433E+02 0.  0.
         13    1    3    3    0    0 -0.30995722070E+02 -0.19131814214E+02  0.26895562356E+02  0.45278510800E+02  0.10566000000E+00 0. -1.
         22    1    1    0    0    0 -0.18235129029E+02  0.17754060523E+02 -0.13315342940E+02  0.28723247612E+02  0.00000000000E+00 0.  1.
</event>
<event>
 5    1  0.1255769E-009  0.9118800E+02  0.7561462E-02  0.1125453E+00
         25   -1    0    0    0    0  0.00000000000E+00  0.00000000000E+00  0.99999998245E-14  0.12509000000E+03  0.12509000000E+03 0.  0.
        -13    1    3    3    0    0  0.20854151342E+02  0.46205199145E+02 -0.73137471205E+00  0.50698738931E+02  0.10566000000E+00 0.  1.
         23    2    1    0    0    0  0.23296602959E+02  0.74787813150E+01  0.18887987301E+02  0.94180131937E+02  0.88963348115E+02 0.  0.
         13    1    3    3    0    0  0.24424516173E+01 -0.38726417830E+02  0.19619362013E+02  0.43481393005E+02  0.10566000000E+00 0. -1.
         22    1    1    0    0    0 -0.23296602959E+02 -0.74787813150E+01 -0.18887987301E+02  0.30909868063E+02  0.00000000000E+00 0.  1.
</event>
<event>
 5    1  0.1255769E-009  0.9118800E+02  0.7561462E-02  0.1125453E+00
         25   -1    0    0    0    0  0.00000000000E+00  0.00000000000E+00  0.99999998245E-14  0.12509000000E+03  0.12509000000E+03 0.  0.
        -13    1    3    3    0    0  0.33240305043E+02 -0.29833789883E+02 -0.26381876613E+02  0.51874728681E+02  0.10566000000E+00 0.  1.
         23    2    1    0    0    0  0.23489471964E+01 -0.31493471588E+02  0.14330511785E+01  0.93476554423E+02  0.87968495983E+02 0.  0.
         13    1    3    3    0    0 -0.30891357847E+02 -0.16596817054E+01  0.27814927791E+02  0.41601825741E+02  0.10566000000E+00 0. -1.
         22    1    1    0    0    0 -0.23489471964E+01  0.31493471588E+02 -0.14330511785E+01  0.31613445577E+02  0.00000000000E+00 0.  1.
</event>
<event>
 5    1  0.1255769E-009  0.9118800E+02  0.7561462E-02  0.1125453E+00
         25   -1    0    0    0    0  0.00000000000E+00  0.00000000000E+00  0.99999998245E-14  0.12509000000E+03  0.12509000000E+03 0.  0.
        -13    1    3    3    0    0  0.19329143512E+02 -0.16865719355E+02  0.46363852277E+02  0.52987604590E+02  0.10566000000E+00 0.  1.
         23    2    1    0    0    0  0.11534045824E+02 -0.28031077672E+02  0.79359025261E+01  0.93757044866E+02  0.88366449429E+02 0.  0.
         13    1    3    3    0    0 -0.77950976872E+01 -0.11165358317E+02 -0.38427949751E+02  0.40769440276E+02  0.10566000000E+00 0. -1.
         22    1    1    0    0    0 -0.11534045824E+02  0.28031077672E+02 -0.79359025261E+01  0.31332955134E+02  0.00000000000E+00 0.  1.
</event>
<event>
 5    1  0.1255769E-009  0.9118800E+02  0.7561462E-02  0.1125453E+00
         25   -1    0    0    0    0  0.00000000000E+00  0.00000000000E+00  0.99999998245E-14  0.12509000000E+03  0.12509000000E+03 0.  0.
        -13    1    3    3    0    0  0.14077521647E+02 -0.50163306782E+02  0.13391667615E+02  0.53794812840E+02  0.10566000000E+00 0. -1.
         23    2    1    0    0    0  0.45327015558E+01 -0.14629530191E+02  0.27833350314E+02  0.93321085528E+02  0.87747142845E+02 0.  0.
         13    1    3    3    0    0 -0.95448200914E+01  0.35533776590E+02  0.14441682699E+02  0.39526272688E+02  0.10566000000E+00 0.  1.
         22    1    1    0    0    0 -0.45327015558E+01  0.14629530191E+02 -0.27833350314E+02  0.31768914472E+02  0.00000000000E+00 0. -1.
</event>
<event>
 5    1  0.1255769E-009  0.9118800E+02  0.7561462E-02  0.1125453E+00
         25   -1    0    0    0    0  0.00000000000E+00  0.00000000000E+00  0.99999998245E-14  0.12509000000E+03  0.12509000000E+03 0.  0.
        -13    1    3    3    0    0  0.62080068779E+01  0.24272390969E+02 -0.17791328314E+02  0.30728339362E+02  0.10566000000E+00 0. -1.
         23    2    1    0    0    0 -0.32120006379E+02 -0.16640984789E+02 -0.11441977326E+02  0.87148781917E+02  0.78456192617E+02 0.  0.
         13    1    3    3    0    0 -0.38328013257E+02 -0.40913375758E+02  0.63493509874E+01  0.56420442555E+02  0.10566000000E+00 0.  1.
         22    1    1    0    0    0  0.32120006379E+02  0.16640984789E+02  0.11441977326E+02  0.37941218083E+02  0.00000000000E+00 0.  1.
</event>
<event>
 5    1  0.1255769E-009  0.9118800E+02  0.7561462E-02  0.1125453E+00
         25   -1    0    0    0    0  0.00000000000E+00  0.00000000000E+00  0.99999998245E-14  0.12509000000E+03  0.12509000000E+03 0.  0.
        -13    1    3    3    0    0 -0.17552715757E+02  0.47318835367E+02 -0.19507581138E+02  0.54108473429E+02  0.10566000000E+00 0.  1.
         23    2    1    0    0    0 -0.22305226348E+02  0.68789016284E+01 -0.19260602841E+02  0.94827593753E+02  0.89869123202E+02 0.  0.
         13    1    3    3    0    0 -0.47525105913E+01 -0.40439933738E+02  0.24697829707E+00  0.40719120324E+02  0.10566000000E+00 0. -1.
         22    1    1    0    0    0  0.22305226348E+02 -0.68789016284E+01  0.19260602841E+02  0.30262406247E+02  0.00000000000E+00 0. -1.
</event>
<event>
 5    1  0.1255769E-009  0.9118800E+02  0.7561462E-02  0.1125453E+00
         25   -1    0    0    0    0  0.00000000000E+00  0.00000000000E+00  0.99999998245E-14  0.12509000000E+03  0.12509000000E+03 0.  0.
        -13    1    3    3    0    0  0.45673173407E+02  0.14311890336E+02  0.38166399898E+02  0.61217270596E+02  0.10566000000E+00 0. -1.
         23    2    1    0    0    0  0.28675119928E+02  0.13571134745E+02  0.14901120849E+02  0.90040298094E+02  0.82938372766E+02 0.  0.
         13    1    3    3    0    0 -0.16998053479E+02 -0.74075559189E+00 -0.23265279048E+02  0.28823027498E+02  0.10566000000E+00 0.  1.
         22    1    1    0    0    0 -0.28675119928E+02 -0.13571134745E+02 -0.14901120849E+02  0.35049701906E+02  0.00000000000E+00 0. -1.
</event>
<event>
 5    1  0.1255769E-009  0.9118800E+02  0.7561462E-02  0.1125453E+00
         25   -1    0    0    0    0  0.00000000000E+00  0.00000000000E+00  0.99999998245E-14  0.12509000000E+03  0.12509000000E+03 0.  0.
        -13    1    3    3    0    0 -0.30727710727E+02  0.25432216222E+01 -0.14655320556E+02  0.34138684324E+02  0.10566000000E+00 0.  1.
         23    2    1    0    0    0  0.15343374978E+02 -0.25968425483E+02  0.95103932504E+01  0.93463652478E+02  0.87950147681E+02 0.  0.
         13    1    3    3    0    0  0.46071085705E+02 -0.28511647105E+02  0.24165713806E+02  0.59324968154E+02  0.10566000000E+00 0. -1.
         22    1    1    0    0    0 -0.15343374978E+02  0.25968425483E+02 -0.95103932504E+01  0.31626347522E+02  0.00000000000E+00 0. -1.
</event>
<event>
 5    1  0.1255769E-009  0.9118800E+02  0.7561462E-02  0.1125453E+00
         25   -1    0    0    0    0  0.00000000000E+00  0.00000000000E+00  0.99999998245E-14  0.12509000000E+03  0.12509000000E+03 0.  0.
        -13    1    3    3    0    0  0.53298948830E+01  0.36150568114E+02 -0.24176538781E+02  0.43815380243E+02  0.10566000000E+00 0. -1.
         23    2    1    0    0    0 -0.18255003518E+02  0.10634200934E+02  0.17200487163E+02  0.97846869827E+02  0.93977772869E+02 0.  0.
         13    1    3    3    0    0 -0.23584898401E+02 -0.25516367180E+02  0.41377025944E+02  0.54031489584E+02  0.10566000000E+00 0.  1.
         22    1    1    0    0    0  0.18255003518E+02 -0.10634200934E+02 -0.17200487163E+02  0.27243130173E+02  0.00000000000E+00 0.  1.
</event>
<event>
 5    1  0.1255769E-009  0.9118800E+02  0.7561462E-02  0.1125453E+00
         25   -1    0    0    0    0  0.00000000000E+00  0.00000000000E+00  0.99999998245E-14  0.12509000000E+03  0.12509000000E+03 0.  0.
        -13    1    3    3    0    0  0.23191687442E+02  0.17755849118E+02  0.30078760417E+02  0.41926930923E+02  0.10566000000E+00 0.  1.
         23    2    1    0    0    0 -0.11497125317E+02 -0.21837588232E+02  0.12508926853E+02  0.97421653441E+02  0.93410069895E+02 0.  0.
         13    1    3    3    0    0 -0.34688812759E+02 -0.39593437350E+02 -0.17569833565E+02  0.55494722518E+02  0.10566000000E+00 0. -1.
         22    1    1    0    0    0  0.11497125317E+02  0.21837588232E+02 -0.12508926853E+02  0.27668346559E+02  0.00000000000E+00 0.  1.
</event>
<event>
 5    1  0.1255769E-009  0.9118800E+02  0.7561462E-02  0.1125453E+00
         25   -1    0    0    0    0  0.00000000000E+00  0.00000000000E+00  0.99999998245E-14  0.12509000000E+03  0.12509000000E+03 0.  0.
        -13    1    3    3    0    0 -0.37489027849E+02  0.35380476714E+02 -0.24094991441E+01  0.51604478407E+02  0.10566000000E+00 0.  1.
         23    2    1    0    0    0 -0.10295161129E+02  0.84608919336E+01 -0.25515525800E+02  0.96304255406E+02  0.91901526198E+02 0.  0.
         13    1    3    3    0    0  0.27193866720E+02 -0.26919584780E+02 -0.23106026656E+02  0.44699776999E+02  0.10566000000E+00 0. -1.
         22    1    1    0    0    0  0.10295161129E+02 -0.84608919336E+01  0.25515525800E+02  0.28785744594E+02  0.00000000000E+00 0.  1.
</event>
<event>
 5    1  0.1255769E-009  0.9118800E+02  0.7561462E-02  0.1125453E+00
         25   -1    0    0    0    0  0.00000000000E+00  0.00000000000E+00  0.99999998245E-14  0.12509000000E+03  0.12509000000E+03 0.  0.
        -13    1    3    3    0    0  0.15845612708E+01  0.10810213558E+01  0.33554883119E+02  0.33609831697E+02  0.10566000000E+00 0.  1.
         23    2    1    0    0    0 -0.11616058404E+02 -0.65807391288E+01 -0.26415656391E+02  0.95492266254E+02  0.90789575786E+02 0.  0.
         13    1    3    3    0    0 -0.13200619675E+02 -0.76617604846E+01 -0.59970539510E+02  0.61882434557E+02  0.10566000000E+00 0. -1.
         22    1    1    0    0    0  0.11616058404E+02  0.65807391288E+01  0.26415656391E+02  0.29597733746E+02  0.00000000000E+00 0. -1.
</event>
<event>
 5    1  0.1255769E-009  0.9118800E+02  0.7561462E-02  0.1125453E+00
         25   -1    0    0    0    0  0.00000000000E+00  0.00000000000E+00  0.99999998245E-14  0.12509000000E+03  0.12509000000E+03 0.  0.
        -13    1    3    3    0    0 -0.29286363581E+01  0.12600354763E+02 -0.22849169873E+02  0.26257219559E+02  0.10566000000E+00 0.  1.
         23    2    1    0    0    0  0.59263892242E+01 -0.29127713323E+02  0.21967051526E+02  0.88129248852E+02  0.80004171003E+02 0.  0.
         13    1    3    3    0    0  0.88550255823E+01 -0.41728068086E+02  0.44816221399E+02  0.61872029293E+02  0.10566000000E+00 0. -1.
         22    1    1    0    0    0 -0.59263892242E+01  0.29127713323E+02 -0.21967051526E+02  0.36960751148E+02  0.00000000000E+00 0. -1.
</event>
<event>
 5    1  0.1255769E-009  0.9118800E+02  0.7561462E-02  0.1125453E+00
         25   -1    0    0    0    0  0.00000000000E+00  0.00000000000E+00  0.99999998245E-14  0.12509000000E+03  0.12509000000E+03 0.  0.
        -13    1    3    3    0    0 -0.52602097352E+02  0.77850408981E-01  0.21501808188E+02  0.56827155708E+02  0.10566000000E+00 0.  1.
         23    2    1    0    0    0 -0.27282055190E+02 -0.14666164561E+02 -0.15029290523E+01  0.94079264535E+02  0.88821406775E+02 0.  0.
         13    1    3    3    0    0  0.25320042162E+02 -0.14744014970E+02 -0.23004737241E+02  0.37252108827E+02  0.10566000000E+00 0. -1.
         22    1    1    0    0    0  0.27282055190E+02  0.14666164561E+02  0.15029290523E+01  0.31010735465E+02  0.00000000000E+00 0.  1.
</event>
<event>
 5    1  0.1255769E-009  0.9118800E+02  0.7561462E-02  0.1125453E+00
         25   -1    0    0    0    0  0.00000000000E+00  0.00000000000E+00  0.99999998245E-14  0.12509000000E+03  0.12509000000E+03 0.  0.
        -13    1    3    3    0    0  0.13231954532E+02  0.43139058025E+02  0.42112964667E+02  0.61721762006E+02  0.10566000000E+00 0.  1.
         23    2    1    0    0    0  0.11295154916E+02  0.15872427816E+02  0.22279810037E+02  0.95494317466E+02  0.90792401905E+02 0.  0.
         13    1    3    3    0    0 -0.19367996154E+01 -0.27266630209E+02 -0.19833154630E+02  0.33772555461E+02  0.10566000000E+00 0. -1.
         22    1    1    0    0    0 -0.11295154916E+02 -0.15872427816E+02 -0.22279810037E+02  0.29595682534E+02  0.00000000000E+00 0.  1.
</event>
<event>
 5    1  0.1255769E-009  0.9118800E+02  0.7561462E-02  0.1125453E+00
         25   -1    0    0    0    0  0.00000000000E+00  0.00000000000E+00  0.99999998245E-14  0.12509000000E+03  0.12509000000E+03 0.  0.
        -13    1    3    3    0    0 -0.74160167445E+01 -0.45783128244E+02  0.24729534136E+02  0.52560947088E+02  0.10566000000E+00 0. -1.
         23    2    1    0    0    0  0.20898153543E+02 -0.18343943240E+02  0.43506095348E+01  0.96944647303E+02  0.92769088399E+02 0.  0.
         13    1    3    3    0    0  0.28314170288E+02  0.27439185005E+02 -0.20378924601E+02  0.44383700215E+02  0.10566000000E+00 0.  1.
         22    1    1    0    0    0 -0.20898153543E+02  0.18343943240E+02 -0.43506095348E+01  0.28145352697E+02  0.00000000000E+00 0. -1.
</event>
<event>
 5    1  0.1255769E-009  0.9118800E+02  0.7561462E-02  0.1125453E+00
         25   -1    0    0    0    0  0.00000000000E+00  0.00000000000E+00  0.99999998245E-14  0.12509000000E+03  0.12509000000E+03 0.  0.
        -13    1    3    3    0    0 -0.16852609298E+02  0.14750170860E+02  0.45617009560E+01  0.22856033344E+02  0.10566000000E+00 0.  1.
         23    2    1    0    0    0  0.34314356382E+02 -0.90602285678E+01  0.23660289277E+02  0.82435901905E+02  0.70542936135E+02 0.  0.
         13    1    3    3    0    0  0.51166965681E+02 -0.23810399428E+02  0.19098588321E+02  0.59579868561E+02  0.10566000000E+00 0. -1.
         22    1    1    0    0    0 -0.34314356382E+02  0.90602285678E+01 -0.23660289277E+02  0.42654098095E+02  0.00000000000E+00 0. -1.
</event>
<event>
 5    1  0.1255769E-009  0.9118800E+02  0.7561462E-02  0.1125453E+00
         25   -1    0    0    0    0  0.00000000000E+00  0.00000000000E+00  0.99999998245E-14  0.12509000000E+03  0.12509000000E+03 0.  0.
        -13    1    3    3    0    0  0.15668144114E+02  0.43211447910E+01 -0.42394166560E+02  0.45403078692E+02  0.10566000000E+00 0.  1.
         23    2    1    0    0    0 -0.63151301450E+01 -0.22999215552E+02  0.10288189068E+01  0.10121735345E+03  0.98361828914E+02 0.  0.
         13    1    3    3    0    0 -0.21983274259E+02 -0.27320360343E+02  0.43422985467E+02  0.55814274763E+02  0.10566000000E+00 0. -1.
         22    1    1    0    0    0  0.63151301450E+01  0.22999215552E+02 -0.10288189068E+01  0.23872646545E+02  0.00000000000E+00 0.  1.
</event>
<event>
 5    1  0.1255769E-009  0.9118800E+02  0.7561462E-02  0.1125453E+00
         25   -1    0    0    0    0  0.00000000000E+00  0.00000000000E+00  0.99999998245E-14  0.12509000000E+03  0.12509000000E+03 0.  0.
        -13    1    3    3    0    0 -0.14237364341E+02 -0.46798332191E+02  0.20944905305E+02  0.53211715453E+02  0.10566000000E+00 0. -1.
         23    2    1    0    0    0 -0.19292043079E+02 -0.15091941912E+02 -0.10762276808E+02  0.98336005179E+02  0.94626601311E+02 0.  0.
         13    1    3    3    0    0 -0.50546787377E+01  0.31706390279E+02 -0.31707182113E+02  0.45124289726E+02  0.10566000000E+00 0.  1.
         22    1    1    0    0    0  0.19292043079E+02  0.15091941912E+02  0.10762276808E+02  0.26753994821E+02  0.00000000000E+00 0.  1.
</event>
<event>
 5    1  0.1255769E-009  0.9118800E+02  0.7561462E-02  0.1125453E+00
         25   -1    0    0    0    0  0.00000000000E+00  0.00000000000E+00  0.99999998245E-14  0.12509000000E+03  0.12509000000E+03 0.  0.
        -13    1    3    3    0    0 -0.17534921211E+02 -0.12025491341E+02 -0.37339189853E+02  0.42968734758E+02  0.10566000000E+00 0.  1.
         23    2    1    0    0    0  0.24164049716E+02  0.97598573822E+01 -0.14513894975E+02  0.95260329165E+02  0.90469448160E+02 0.  0.
         13    1    3    3    0    0  0.41698970926E+02  0.21785348723E+02  0.22825294877E+02  0.52291594406E+02  0.10566000000E+00 0. -1.
         22    1    1    0    0    0 -0.24164049716E+02 -0.97598573822E+01  0.14513894975E+02  0.29829670835E+02  0.00000000000E+00 0. -1.
</event>
<event>
 5    1  0.1255769E-009  0.9118800E+02  0.7561462E-02  0.1125453E+00
         25   -1    0    0    0    0  0.00000000000E+00  0.00000000000E+00  0.99999998245E-14  0.12509000000E+03  0.12509000000E+03 0.  0.
        -13    1    3    3    0    0 -0.10728226653E+02 -0.59498418394E+02  0.12883020453E+02  0.61815370407E+02  0.10566000000E+00 0.  1.
         23    2    1    0    0    0 -0.49493404338E+00 -0.25319187212E+02  0.10813782711E+02  0.97553767554E+02  0.93586823147E+02 0.  0.
         13    1    3    3    0    0  0.10233292610E+02  0.34179231182E+02 -0.20692377417E+01  0.35738397148E+02  0.10566000000E+00 0. -1.
         22    1    1    0    0    0  0.49493404338E+00  0.25319187212E+02 -0.10813782711E+02  0.27536232446E+02  0.00000000000E+00 0.  1.
</event>
<event>
 5    1  0.1255769E-009  0.9118800E+02  0.7561462E-02  0.1125453E+00
         25   -1    0    0    0    0  0.00000000000E+00  0.00000000000E+00  0.99999998245E-14  0.12509000000E+03  0.12509000000E+03 0.  0.
        -13    1    3    3    0    0  0.13497454091E+02  0.25625633008E+02 -0.30569977736E+02  0.42111625911E+02  0.10566000000E+00 0. -1.
         23    2    1    0    0    0  0.21947627475E+02 -0.17853238283E+02  0.14418588765E+01  0.96761296782E+02  0.92521527922E+02 0.  0.
         13    1    3    3    0    0  0.84501733843E+01 -0.43478871291E+02  0.32011836613E+02  0.54649670871E+02  0.10566000000E+00 0.  1.
         22    1    1    0    0    0 -0.21947627475E+02  0.17853238283E+02 -0.14418588765E+01  0.28328703218E+02  0.00000000000E+00 0.  1.
</event>
<event>
 5    1  0.1255769E-009  0.9118800E+02  0.7561462E-02  0.1125453E+00
         25   -1    0    0    0    0  0.00000000000E+00  0.00000000000E+00  0.99999998245E-14  0.12509000000E+03  0.12509000000E+03 0.  0.
        -13    1    3    3    0    0 -0.19980424844E+02 -0.11835178892E+02  0.27405188180E+02  0.35921363276E+02  0.10566000000E+00 0. -1.
         23    2    1    0    0    0  0.25628288448E+02  0.16240166855E+02  0.35803761756E+01  0.94538874295E+02  0.89466348261E+02 0.  0.
         13    1    3    3    0    0  0.45608713292E+02  0.28075345748E+02 -0.23824812004E+02  0.58617511019E+02  0.10566000000E+00 0.  1.
         22    1    1    0    0    0 -0.25628288448E+02 -0.16240166855E+02 -0.35803761756E+01  0.30551125705E+02  0.00000000000E+00 0.  1.
</event>
<event>
 5    1  0.1255769E-009  0.9118800E+02  0.7561462E-02  0.1125453E+00
         25   -1    0    0    0    0  0.00000000000E+00  0.00000000000E+00  0.99999998245E-14  0.12509000000E+03  0.12509000000E+03 0.  0.
        -13    1    3    3    0    0 -0.37428524360E+02 -0.15428318392E+02 -0.85205837726E+01  0.41370750006E+02  0.10566000000E+00 0.  1.
         23    2    1    0    0    0 -0.74814769273E+01  0.21330719459E+02 -0.24830524324E+02  0.91511330761E+02  0.85128118914E+02 0.  0.
         13    1    3    3    0    0  0.29947047433E+02  0.36759037850E+02 -0.16309940552E+02  0.50140580755E+02  0.10566000000E+00 0. -1.
         22    1    1    0    0    0  0.74814769273E+01 -0.21330719459E+02  0.24830524324E+02  0.33578669239E+02  0.00000000000E+00 0.  1.
</event>
<event>
 5    1  0.1255769E-009  0.9118800E+02  0.7561462E-02  0.1125453E+00
         25   -1    0    0    0    0  0.00000000000E+00  0.00000000000E+00  0.99999998245E-14  0.12509000000E+03  0.12509000000E+03 0.  0.
        -13    1    3    3    0    0 -0.44582456883E+02 -0.30563335973E+02  0.22578277102E+02  0.58579029767E+02  0.10566000000E+00 0. -1.
         23    2    1    0    0    0 -0.13150928195E+02 -0.12023085955E+02  0.24117777507E+02  0.95103858198E+02  0.90252840089E+02 0.  0.
         13    1    3    3    0    0  0.31431528688E+02  0.18540250018E+02  0.15395004050E+01  0.36524828431E+02  0.10566000000E+00 0.  1.
         22    1    1    0    0    0  0.13150928195E+02  0.12023085955E+02 -0.24117777507E+02  0.29986141802E+02  0.00000000000E+00 0. -1.
</event>
<event>
 5    1  0.1255769E-009  0.9118800E+02  0.7561462E-02  0.1125453E+00
         25   -1    0    0    0    0  0.00000000000E+00  0.00000000000E+00  0.99999998245E-14  0.12509000000E+03  0.12509000000E+03 0.  0.
        -13    1    3    3    0    0 -0.13400475733E+02 -0.33298688579E+02 -0.18081723431E+02  0.40191234084E+02  0.10566000000E+00 0. -1.
         23    2    1    0    0    0 -0.13092735966E+02  0.22234970367E+02 -0.13640292836E+02  0.95903166822E+02  0.91353960919E+02 0.  0.
         13    1    3    3    0    0  0.30773976674E+00  0.55533658945E+02  0.44414305952E+01  0.55711932738E+02  0.10566000000E+00 0.  1.
         22    1    1    0    0    0  0.13092735966E+02 -0.22234970367E+02  0.13640292836E+02  0.29186833178E+02  0.00000000000E+00 0.  1.
</event>
<event>
 5    1  0.1255769E-009  0.9118800E+02  0.7561462E-02  0.1125453E+00
         25   -1    0    0    0    0  0.00000000000E+00  0.00000000000E+00  0.99999998245E-14  0.12509000000E+03  0.12509000000E+03 0.  0.
        -13    1    3    3    0    0 -0.25920199753E+02  0.18249107485E+02 -0.53818668142E+02  0.62460762755E+02  0.10566000000E+00 0.  1.
         23    2    1    0    0    0 -0.17037642417E+02  0.95767347875E+01 -0.34925569545E+02  0.85067624804E+02  0.75064707243E+02 0.  0.
         13    1    3    3    0    0  0.88825573363E+01 -0.86723726978E+01  0.18893098598E+02  0.22606862049E+02  0.10566000000E+00 0. -1.
         22    1    1    0    0    0  0.17037642417E+02 -0.95767347875E+01  0.34925569545E+02  0.40022375196E+02  0.00000000000E+00 0.  1.
</event>
<event>
 5    1  0.1255769E-009  0.9118800E+02  0.7561462E-02  0.1125453E+00
         25   -1    0    0    0    0  0.00000000000E+00  0.00000000000E+00  0.99999998245E-14  0.12509000000E+03  0.12509000000E+03 0.  0.
        -13    1    3    3    0    0  0.22264455652E+02 -0.24682584749E+02  0.13730115439E+02  0.35964749539E+02  0.10566000000E+00 0. -1.
         23    2    1    0    0    0 -0.90370514612E+00  0.24670962113E+02 -0.13548365145E+02  0.96929189417E+02  0.92748242617E+02 0.  0.
         13    1    3    3    0    0 -0.23168160798E+02  0.49353546862E+02 -0.27278480584E+02  0.60964439878E+02  0.10566000000E+00 0.  1.
         22    1    1    0    0    0  0.90370514612E+00 -0.24670962113E+02  0.13548365145E+02  0.28160810583E+02  0.00000000000E+00 0.  1.
</event>
<event>
 5    1  0.1255769E-009  0.9118800E+02  0.7561462E-02  0.1125453E+00
         25   -1    0    0    0    0  0.00000000000E+00  0.00000000000E+00  0.99999998245E-14  0.12509000000E+03  0.12509000000E+03 0.  0.
        -13    1    3    3    0    0 -0.38565117804E+02  0.11186836672E+01 -0.43942589922E+01  0.38830921190E+02  0.10566000000E+00 0.  1.
         23    2    1    0    0    0  0.14500180246E+02 -0.32777763874E+01 -0.25063717328E+02  0.95949152869E+02  0.91416907433E+02 0.  0.
         13    1    3    3    0    0  0.53065298050E+02 -0.43964600547E+01 -0.20669458336E+02  0.57118231679E+02  0.10566000000E+00 0. -1.
         22    1    1    0    0    0 -0.14500180246E+02  0.32777763874E+01  0.25063717328E+02  0.29140847131E+02  0.00000000000E+00 0. -1.
</event>
<event>
 5    1  0.1255769E-009  0.9118800E+02  0.7561462E-02  0.1125453E+00
         25   -1    0    0    0    0  0.00000000000E+00  0.00000000000E+00  0.99999998245E-14  0.12509000000E+03  0.12509000000E+03 0.  0.
        -13    1    3    3    0    0 -0.20522765417E+02  0.41481363462E+02 -0.93846247581E+01  0.47222555637E+02  0.10566000000E+00 0. -1.
         23    2    1    0    0    0 -0.23436988744E+02 -0.64175755556E+01 -0.16475904610E+02  0.95731301968E+02  0.91118324317E+02 0.  0.
         13    1    3    3    0    0 -0.29142233276E+01 -0.47898939018E+02 -0.70912798519E+01  0.48508746331E+02  0.10566000000E+00 0.  1.
         22    1    1    0    0    0  0.23436988744E+02  0.64175755556E+01  0.16475904610E+02  0.29358698032E+02  0.00000000000E+00 0.  1.
</event>
<event>
 5    1  0.1255769E-009  0.9118800E+02  0.7561462E-02  0.1125453E+00
         25   -1    0    0    0    0  0.00000000000E+00  0.00000000000E+00  0.99999998245E-14  0.12509000000E+03  0.12509000000E+03 0.  0.
        -13    1    3    3    0    0 -0.23261335217E+02 -0.32679104729E+02  0.45147279877E+02  0.60392894005E+02  0.10566000000E+00 0. -1.
         23    2    1    0    0    0 -0.15935766737E+02 -0.52530167263E+01  0.24065006814E+02  0.95752866548E+02  0.91147924019E+02 0.  0.
         13    1    3    3    0    0  0.73255684799E+01  0.27426088003E+02 -0.21082273063E+02  0.35359972543E+02  0.10566000000E+00 0.  1.
         22    1    1    0    0    0  0.15935766737E+02  0.52530167263E+01 -0.24065006814E+02  0.29337133452E+02  0.00000000000E+00 0. -1.
</event>
<event>
 5    1  0.1255769E-009  0.9118800E+02  0.7561462E-02  0.1125453E+00
         25   -1    0    0    0    0  0.00000000000E+00  0.00000000000E+00  0.99999998245E-14  0.12509000000E+03  0.12509000000E+03 0.  0.
        -13    1    3    3    0    0 -0.27449054643E+01 -0.37360356890E+02 -0.69273692650E+01  0.38096330295E+02  0.10566000000E+00 0.  1.
         23    2    1    0    0    0  0.25887695219E+02  0.12433344620E+02 -0.69793011395E+01  0.95535449308E+02  0.90849053974E+02 0.  0.
         13    1    3    3    0    0  0.28632600684E+02  0.49793701510E+02 -0.51931874453E-01  0.57439119013E+02  0.10566000000E+00 0. -1.
         22    1    1    0    0    0 -0.25887695219E+02 -0.12433344620E+02  0.69793011395E+01  0.29554550692E+02  0.00000000000E+00 0. -1.
</event>
<event>
 5    1  0.1255769E-009  0.9118800E+02  0.7561462E-02  0.1125453E+00
         25   -1    0    0    0    0  0.00000000000E+00  0.00000000000E+00  0.99999998245E-14  0.12509000000E+03  0.12509000000E+03 0.  0.
        -13    1    3    3    0    0  0.16416934155E+02 -0.32015919882E+02  0.41605327959E+02  0.55004993697E+02  0.10566000000E+00 0. -1.
         23    2    1    0    0    0  0.24862070709E+02 -0.22708762454E+01  0.13936362232E+02  0.96498014565E+02  0.92164880426E+02 0.  0.
         13    1    3    3    0    0  0.84451365533E+01  0.29745043637E+02 -0.27668965727E+02  0.41493020869E+02  0.10566000000E+00 0.  1.
         22    1    1    0    0    0 -0.24862070709E+02  0.22708762454E+01 -0.13936362232E+02  0.28591985435E+02  0.00000000000E+00 0. -1.
</event>
<event>
 5    1  0.1255769E-009  0.9118800E+02  0.7561462E-02  0.1125453E+00
         25   -1    0    0    0    0  0.00000000000E+00  0.00000000000E+00  0.99999998245E-14  0.12509000000E+03  0.12509000000E+03 0.  0.
        -13    1    3    3    0    0  0.41905451523E+02  0.16738532253E+02  0.13873779876E+02  0.47209514522E+02  0.10566000000E+00 0. -1.
         23    2    1    0    0    0  0.58280925822E+01 -0.13652084507E+02  0.25310363105E+02  0.95747870646E+02  0.91141067462E+02 0.  0.
         13    1    3    3    0    0 -0.36077358941E+02 -0.30390616759E+02  0.11436583229E+02  0.48538356123E+02  0.10566000000E+00 0.  1.
         22    1    1    0    0    0 -0.58280925822E+01  0.13652084507E+02 -0.25310363105E+02  0.29342129354E+02  0.00000000000E+00 0. -1.
</event>
<event>
 5    1  0.1255769E-009  0.9118800E+02  0.7561462E-02  0.1125453E+00
         25   -1    0    0    0    0  0.00000000000E+00  0.00000000000E+00  0.99999998245E-14  0.12509000000E+03  0.12509000000E+03 0.  0.
        -13    1    3    3    0    0 -0.23505476776E+02 -0.54665914479E+02  0.11875930964E+02  0.60678814627E+02  0.10566000000E+00 0.  1.
         23    2    1    0    0    0 -0.19752234816E+02 -0.43706960882E+02  0.19977934679E+00  0.77126585593E+02  0.60398850020E+02 0.  0.
         13    1    3    3    0    0  0.37532419594E+01  0.10958953597E+02 -0.11676151617E+02  0.16447770966E+02  0.10566000000E+00 0. -1.
         22    1    1    0    0    0  0.19752234816E+02  0.43706960882E+02 -0.19977934679E+00  0.47963414407E+02  0.00000000000E+00 0.  1.
</event>
<event>
 5    1  0.1255769E-009  0.9118800E+02  0.7561462E-02  0.1125453E+00
         25   -1    0    0    0    0  0.00000000000E+00  0.00000000000E+00  0.99999998245E-14  0.12509000000E+03  0.12509000000E+03 0.  0.
        -13    1    3    3    0    0 -0.23473778443E+02 -0.30996299685E+02  0.18160408092E+02  0.42913872520E+02  0.10566000000E+00 0.  1.
         23    2    1    0    0    0  0.11422961994E+02 -0.17434119496E+02 -0.19878853953E+02  0.96287197744E+02  0.91878305555E+02 0.  0.
         13    1    3    3    0    0  0.34896740436E+02  0.13562180189E+02 -0.38039262045E+02  0.53373325224E+02  0.10566000000E+00 0. -1.
         22    1    1    0    0    0 -0.11422961994E+02  0.17434119496E+02  0.19878853953E+02  0.28802802256E+02  0.00000000000E+00 0. -1.
</event>
<event>
 5    1  0.1255769E-009  0.9118800E+02  0.7561462E-02  0.1125453E+00
         25   -1    0    0    0    0  0.00000000000E+00  0.00000000000E+00  0.99999998245E-14  0.12509000000E+03  0.12509000000E+03 0.  0.
        -13    1    3    3    0    0 -0.30374946273E+02  0.38235403968E+02 -0.86678173446E+01  0.49595621775E+02  0.10566000000E+00 0. -1.
         23    2    1    0    0    0 -0.93927445233E+01  0.34128852746E+01 -0.28542117129E+02  0.94848904024E+02  0.89898780352E+02 0.  0.
         13    1    3    3    0    0  0.20982201750E+02 -0.34822518693E+02 -0.19874299785E+02  0.45253282250E+02  0.10566000000E+00 0.  1.
         22    1    1    0    0    0  0.93927445233E+01 -0.34128852746E+01  0.28542117129E+02  0.30241095976E+02  0.00000000000E+00 0. -1.
</event>
<event>
 5    1  0.1255769E-009  0.9118800E+02  0.7561462E-02  0.1125453E+00
         25   -1    0    0    0    0  0.00000000000E+00  0.00000000000E+00  0.99999998245E-14  0.12509000000E+03  0.12509000000E+03 0.  0.
        -13    1    3    3    0    0 -0.29816949953E+02  0.37820103475E+02 -0.38749405683E+02  0.61813739057E+02  0.10566000000E+00 0.  1.
         23    2    1    0    0    0 -0.71878979827E+01  0.19068685490E+02 -0.19050011670E+02  0.97194057852E+02  0.93104786630E+02 0.  0.
         13    1    3    3    0    0  0.22629051970E+02 -0.18751417985E+02  0.19699394013E+02  0.35380318795E+02  0.10566000000E+00 0. -1.
         22    1    1    0    0    0  0.71878979827E+01 -0.19068685490E+02  0.19050011670E+02  0.27895942148E+02  0.00000000000E+00 0.  1.
</event>
<event>
 5    1  0.1255769E-009  0.9118800E+02  0.7561462E-02  0.1125453E+00
         25   -1    0    0    0    0  0.00000000000E+00  0.00000000000E+00  0.99999998245E-14  0.12509000000E+03  0.12509000000E+03 0.  0.
        -13    1    3    3    0    0  0.29079231265E+02  0.71205588161E+01  0.34274541165E+01  0.30134077961E+02  0.10566000000E+00 0.  1.
         23    2    1    0    0    0 -0.29762808291E+02 -0.10856390404E+02 -0.72737314997E+01  0.92584721353E+02  0.86691046181E+02 0.  0.
         13    1    3    3    0    0 -0.58842039556E+02 -0.17976949221E+02 -0.10701185616E+02  0.62450643392E+02  0.10566000000E+00 0. -1.
         22    1    1    0    0    0  0.29762808291E+02  0.10856390404E+02  0.72737314997E+01  0.32505278647E+02  0.00000000000E+00 0. -1.
</event>
<event>
 5    1  0.1255769E-009  0.9118800E+02  0.7561462E-02  0.1125453E+00
         25   -1    0    0    0    0  0.00000000000E+00  0.00000000000E+00  0.99999998245E-14  0.12509000000E+03  0.12509000000E+03 0.  0.
        -13    1    3    3    0    0  0.48994399991E+02 -0.34794230689E+02  0.94936126155E+01  0.60837731419E+02  0.10566000000E+00 0.  1.
         23    2    1    0    0    0  0.28797495750E+02 -0.78065777970E+01  0.46935697800E+01  0.94886225142E+02  0.89950695973E+02 0.  0.
         13    1    3    3    0    0 -0.20196904240E+02  0.26987652892E+02 -0.48000428355E+01  0.34048493723E+02  0.10566000000E+00 0. -1.
         22    1    1    0    0    0 -0.28797495750E+02  0.78065777970E+01 -0.46935697800E+01  0.30203774858E+02  0.00000000000E+00 0.  1.
</event>
<event>
 5    1  0.1255769E-009  0.9118800E+02  0.7561462E-02  0.1125453E+00
         25   -1    0    0    0    0  0.00000000000E+00  0.00000000000E+00  0.99999998245E-14  0.12509000000E+03  0.12509000000E+03 0.  0.
        -13    1    3    3    0    0 -0.36423239193E+02 -0.51850125822E+01 -0.43792199094E+01  0.37050309578E+02  0.10566000000E+00 0.  1.
         23    2    1    0    0    0  0.12860911414E+02 -0.14836077287E+01  0.26688632056E+02  0.95427107098E+02  0.90699754983E+02 0.  0.
         13    1    3    3    0    0  0.49284150607E+02  0.37014048535E+01  0.31067851965E+02  0.58376797520E+02  0.10566000000E+00 0. -1.
         22    1    1    0    0    0 -0.12860911414E+02  0.14836077287E+01 -0.26688632056E+02  0.29662892902E+02  0.00000000000E+00 0. -1.
</event>
<event>
 5    1  0.1255769E-009  0.9118800E+02  0.7561462E-02  0.1125453E+00
         25   -1    0    0    0    0  0.00000000000E+00  0.00000000000E+00  0.99999998245E-14  0.12509000000E+03  0.12509000000E+03 0.  0.
        -13    1    3    3    0    0  0.22286075106E+02 -0.28087721820E+02 -0.49601419949E+01  0.36196732356E+02  0.10566000000E+00 0.  1.
         23    2    1    0    0    0 -0.35687080110E+01  0.13974861337E+02  0.26625394861E+02  0.94808915512E+02  0.89843120955E+02 0.  0.
         13    1    3    3    0    0 -0.25854783116E+02  0.42062583156E+02  0.31585536856E+02  0.58612183156E+02  0.10566000000E+00 0. -1.
         22    1    1    0    0    0  0.35687080110E+01 -0.13974861337E+02 -0.26625394861E+02  0.30281084488E+02  0.00000000000E+00 0. -1.
</event>
<event>
 5    1  0.1255769E-009  0.9118800E+02  0.7561462E-02  0.1125453E+00
         25   -1    0    0    0    0  0.00000000000E+00  0.00000000000E+00  0.99999998245E-14  0.12509000000E+03  0.12509000000E+03 0.  0.
        -13    1    3    3    0    0  0.28581354915E+02  0.57892127958E+00  0.48026889070E+02  0.55891164207E+02  0.10566000000E+00 0.  1.
         23    2    1    0    0    0  0.29212974998E+02  0.85528979685E+01  0.12708296632E+02  0.92104385329E+02  0.85995156967E+02 0.  0.
         13    1    3    3    0    0  0.63162008307E+00  0.79739766889E+01 -0.35318592438E+02  0.36213221122E+02  0.10566000000E+00 0. -1.
         22    1    1    0    0    0 -0.29212974998E+02 -0.85528979685E+01 -0.12708296632E+02  0.32985614671E+02  0.00000000000E+00 0.  1.
</event>
<event>
 5    1  0.1255769E-009  0.9118800E+02  0.7561462E-02  0.1125453E+00
         25   -1    0    0    0    0  0.00000000000E+00  0.00000000000E+00  0.99999998245E-14  0.12509000000E+03  0.12509000000E+03 0.  0.
        -13    1    3    3    0    0 -0.82515455679E+01 -0.59377438714E+02 -0.52083844164E+01  0.60173969993E+02  0.10566000000E+00 0. -1.
         23    2    1    0    0    0 -0.75986165409E+01 -0.34849016929E+02 -0.14738502794E+02  0.86497041849E+02  0.77410088682E+02 0.  0.
         13    1    3    3    0    0  0.65292902700E+00  0.24528421785E+02 -0.95301183775E+01  0.26323071856E+02  0.10566000000E+00 0.  1.
         22    1    1    0    0    0  0.75986165409E+01  0.34849016929E+02  0.14738502794E+02  0.38592958151E+02  0.00000000000E+00 0. -1.
</event>
<event>
 5    1  0.1255769E-009  0.9118800E+02  0.7561462E-02  0.1125453E+00
         25   -1    0    0    0    0  0.00000000000E+00  0.00000000000E+00  0.99999998245E-14  0.12509000000E+03  0.12509000000E+03 0.  0.
        -13    1    3    3    0    0 -0.37378905325E+02  0.21405603505E+01 -0.35506444288E+02  0.51599256893E+02  0.10566000000E+00 0.  1.
         23    2    1    0    0    0 -0.81080522176E+01  0.24214093512E+02 -0.55134964199E+01  0.98966036324E+02  0.95455826787E+02 0.  0.
         13    1    3    3    0    0  0.29270853107E+02  0.22073533162E+02  0.29992947868E+02  0.47366779431E+02  0.10566000000E+00 0. -1.
         22    1    1    0    0    0  0.81080522176E+01 -0.24214093512E+02  0.55134964199E+01  0.26123963676E+02  0.00000000000E+00 0.  1.
</event>
<event>
 5    1  0.1255769E-009  0.9118800E+02  0.7561462E-02  0.1125453E+00
         25   -1    0    0    0    0  0.00000000000E+00  0.00000000000E+00  0.99999998245E-14  0.12509000000E+03  0.12509000000E+03 0.  0.
        -13    1    3    3    0    0  0.46472372467E+02 -0.60450178850E+01  0.24354682732E+02  0.52814632243E+02  0.10566000000E+00 0. -1.
         23    2    1    0    0    0  0.31983296473E+02  0.17524458591E+01 -0.10519425878E+02  0.91375601880E+02  0.84928440339E+02 0.  0.
         13    1    3    3    0    0 -0.14489075993E+02  0.77974637441E+01 -0.34874108610E+02  0.38560969637E+02  0.10566000000E+00 0.  1.
         22    1    1    0    0    0 -0.31983296473E+02 -0.17524458591E+01  0.10519425878E+02  0.33714398120E+02  0.00000000000E+00 0.  1.
</event>
<event>
 5    1  0.1255769E-009  0.9118800E+02  0.7561462E-02  0.1125453E+00
         25   -1    0    0    0    0  0.00000000000E+00  0.00000000000E+00  0.99999998245E-14  0.12509000000E+03  0.12509000000E+03 0.  0.
        -13    1    3    3    0    0  0.23447601535E+01  0.14569605916E+02 -0.44659009118E+02  0.47034132034E+02  0.10566000000E+00 0. -1.
         23    2    1    0    0    0  0.23798072484E+02 -0.13965384295E+02 -0.13725428492E+02  0.94271700246E+02  0.89092007877E+02 0.  0.
         13    1    3    3    0    0  0.21453312330E+02 -0.28534990211E+02  0.30933580625E+02  0.47237568212E+02  0.10566000000E+00 0.  1.
         22    1    1    0    0    0 -0.23798072484E+02  0.13965384295E+02  0.13725428492E+02  0.30818299754E+02  0.00000000000E+00 0. -1.
</event>
<event>
 5    1  0.1255769E-009  0.9118800E+02  0.7561462E-02  0.1125453E+00
         25   -1    0    0    0    0  0.00000000000E+00  0.00000000000E+00  0.99999998245E-14  0.12509000000E+03  0.12509000000E+03 0.  0.
        -13    1    3    3    0    0 -0.12582211918E+02 -0.29776353078E+02 -0.36594336984E+02  0.48827245700E+02  0.10566000000E+00 0. -1.
         23    2    1    0    0    0 -0.98775140768E+01 -0.31975821931E+02  0.55935854837E+01  0.91159089740E+02  0.84608941438E+02 0.  0.
         13    1    3    3    0    0  0.27046978410E+01 -0.21994688530E+01  0.42187922468E+02  0.42331844040E+02  0.10566000000E+00 0.  1.
         22    1    1    0    0    0  0.98775140768E+01  0.31975821931E+02 -0.55935854837E+01  0.33930910260E+02  0.00000000000E+00 0. -1.
</event>
<event>
 5    1  0.1255769E-009  0.9118800E+02  0.7561462E-02  0.1125453E+00
         25   -1    0    0    0    0  0.00000000000E+00  0.00000000000E+00  0.99999998245E-14  0.12509000000E+03  0.12509000000E+03 0.  0.
        -13    1    3    3    0    0 -0.18202113726E+02  0.21015842948E+02  0.37667670266E+02  0.46817167218E+02  0.10566000000E+00 0.  1.
         23    2    1    0    0    0  0.20919194713E+02  0.18315806903E+02  0.75034398256E+01  0.96290987879E+02  0.91883465583E+02 0.  0.
         13    1    3    3    0    0  0.39121308440E+02 -0.27000360455E+01 -0.30164230441E+02  0.49473820661E+02  0.10566000000E+00 0. -1.
         22    1    1    0    0    0 -0.20919194713E+02 -0.18315806903E+02 -0.75034398256E+01  0.28799012121E+02  0.00000000000E+00 0.  1.
</event>
<event>
 5    1  0.1255769E-009  0.9118800E+02  0.7561462E-02  0.1125453E+00
         25   -1    0    0    0    0  0.00000000000E+00  0.00000000000E+00  0.99999998245E-14  0.12509000000E+03  0.12509000000E+03 0.  0.
        -13    1    3    3    0    0 -0.40788301182E+02 -0.43063945133E+01  0.41946229501E+02  0.58666241403E+02  0.10566000000E+00 0. -1.
         23    2    1    0    0    0 -0.21658982423E+02 -0.16073873251E+02  0.13445773352E+02  0.94952486136E+02  0.90042794722E+02 0.  0.
         13    1    3    3    0    0  0.19129318759E+02 -0.11767478738E+02 -0.28500456149E+02  0.36286244732E+02  0.10566000000E+00 0.  1.
         22    1    1    0    0    0  0.21658982423E+02  0.16073873251E+02 -0.13445773352E+02  0.30137513864E+02  0.00000000000E+00 0. -1.
</event>
<event>
 5    1  0.1255769E-009  0.9118800E+02  0.7561462E-02  0.1125453E+00
         25   -1    0    0    0    0  0.00000000000E+00  0.00000000000E+00  0.99999998245E-14  0.12509000000E+03  0.12509000000E+03 0.  0.
        -13    1    3    3    0    0  0.10378359361E+01 -0.91643686837E+01 -0.42418128424E+02  0.43409348531E+02  0.10566000000E+00 0. -1.
         23    2    1    0    0    0 -0.20682857543E+02 -0.15966478889E+02  0.71901755064E+01  0.97990043024E+02  0.94168152068E+02 0.  0.
         13    1    3    3    0    0 -0.21720693479E+02 -0.68021102054E+01  0.49608303931E+02  0.54580694494E+02  0.10566000000E+00 0.  1.
         22    1    1    0    0    0  0.20682857543E+02  0.15966478889E+02 -0.71901755064E+01  0.27099956976E+02  0.00000000000E+00 0.  1.
</event>
<event>
 5    1  0.1255769E-009  0.9118800E+02  0.7561462E-02  0.1125453E+00
         25   -1    0    0    0    0  0.00000000000E+00  0.00000000000E+00  0.99999998245E-14  0.12509000000E+03  0.12509000000E+03 0.  0.
        -13    1    3    3    0    0  0.15061416640E+02 -0.31353022927E+02 -0.28747338423E+02  0.45125147626E+02  0.10566000000E+00 0. -1.
         23    2    1    0    0    0  0.17959315850E+02 -0.15361044016E+02  0.18492160729E+02  0.95082355849E+02  0.90223033015E+02 0.  0.
         13    1    3    3    0    0  0.28978992101E+01  0.15991978911E+02  0.47239499152E+02  0.49957208223E+02  0.10566000000E+00 0.  1.
         22    1    1    0    0    0 -0.17959315850E+02  0.15361044016E+02 -0.18492160729E+02  0.30007644151E+02  0.00000000000E+00 0. -1.
</event>
<event>
 5    1  0.1255769E-009  0.9118800E+02  0.7561462E-02  0.1125453E+00
         25   -1    0    0    0    0  0.00000000000E+00  0.00000000000E+00  0.99999998245E-14  0.12509000000E+03  0.12509000000E+03 0.  0.
        -13    1    3    3    0    0  0.31522447523E+02 -0.34808482003E+02  0.33268302679E+02  0.57550727575E+02  0.10566000000E+00 0.  1.
         23    2    1    0    0    0  0.24652147580E+02 -0.17890944738E+02  0.10162102170E+01  0.94613009218E+02  0.89569942203E+02 0.  0.
         13    1    3    3    0    0 -0.68702999433E+01  0.16917537265E+02 -0.32252092462E+02  0.37062281644E+02  0.10566000000E+00 0. -1.
         22    1    1    0    0    0 -0.24652147580E+02  0.17890944738E+02 -0.10162102170E+01  0.30476990782E+02  0.00000000000E+00 0.  1.
</event>
<event>
 5    1  0.1255769E-009  0.9118800E+02  0.7561462E-02  0.1125453E+00
         25   -1    0    0    0    0  0.00000000000E+00  0.00000000000E+00  0.99999998245E-14  0.12509000000E+03  0.12509000000E+03 0.  0.
        -13    1    3    3    0    0 -0.48222447083E+02  0.15649736136E+02 -0.96873443459E+01  0.51615641508E+02  0.10566000000E+00 0.  1.
         23    2    1    0    0    0 -0.45510158247E+01  0.25769597241E+02 -0.11556672345E+02  0.96483347580E+02  0.92144971634E+02 0.  0.
         13    1    3    3    0    0  0.43671431258E+02  0.10119861105E+02 -0.18693279992E+01  0.44867706072E+02  0.10566000000E+00 0. -1.
         22    1    1    0    0    0  0.45510158247E+01 -0.25769597241E+02  0.11556672345E+02  0.28606652420E+02  0.00000000000E+00 0.  1.
</event>
<event>
 5    1  0.1255769E-009  0.9118800E+02  0.7561462E-02  0.1125453E+00
         25   -1    0    0    0    0  0.00000000000E+00  0.00000000000E+00  0.99999998245E-14  0.12509000000E+03  0.12509000000E+03 0.  0.
        -13    1    3    3    0    0  0.19222300145E+02 -0.11768826204E+02 -0.20046006744E+02  0.30163813478E+02  0.10566000000E+00 0. -1.
         23    2    1    0    0    0 -0.18803591363E+02  0.16393280239E+02  0.20750725496E+02  0.92641467001E+02  0.86772888130E+02 0.  0.
         13    1    3    3    0    0 -0.38025891508E+02  0.28162106444E+02  0.40796732240E+02  0.62477653524E+02  0.10566000000E+00 0.  1.
         22    1    1    0    0    0  0.18803591363E+02 -0.16393280239E+02 -0.20750725496E+02  0.32448532999E+02  0.00000000000E+00 0.  1.
</event>
<event>
 5    1  0.1255769E-009  0.9118800E+02  0.7561462E-02  0.1125453E+00
         25   -1    0    0    0    0  0.00000000000E+00  0.00000000000E+00  0.99999998245E-14  0.12509000000E+03  0.12509000000E+03 0.  0.
        -13    1    3    3    0    0  0.31481377507E+02  0.18490894331E+02  0.38340668298E+02  0.52943444471E+02  0.10566000000E+00 0.  1.
         23    2    1    0    0    0 -0.69203227193E+01  0.10057486951E+02  0.29388370034E+02  0.93266734869E+02  0.87669627748E+02 0.  0.
         13    1    3    3    0    0 -0.38401700226E+02 -0.84334073800E+01 -0.89522982631E+01  0.40323290398E+02  0.10566000000E+00 0. -1.
         22    1    1    0    0    0  0.69203227193E+01 -0.10057486951E+02 -0.29388370034E+02  0.31823265131E+02  0.00000000000E+00 0.  1.
</event>
<event>
 5    1  0.1255769E-009  0.9118800E+02  0.7561462E-02  0.1125453E+00
         25   -1    0    0    0    0  0.00000000000E+00  0.00000000000E+00  0.99999998245E-14  0.12509000000E+03  0.12509000000E+03 0.  0.
        -13    1    3    3    0    0 -0.36258933229E+02 -0.33741749445E+02  0.59202966183E+00  0.49533600290E+02  0.10566000000E+00 0. -1.
         23    2    1    0    0    0 -0.25411561097E+02  0.12136672410E+02  0.31913582909E+01  0.96748669362E+02  0.92504453953E+02 0.  0.
         13    1    3    3    0    0  0.10847372132E+02  0.45878421856E+02  0.25993286290E+01  0.47215069073E+02  0.10566000000E+00 0.  1.
         22    1    1    0    0    0  0.25411561097E+02 -0.12136672410E+02 -0.31913582909E+01  0.28341330638E+02  0.00000000000E+00 0. -1.
</event>
<event>
 5    1  0.1255769E-009  0.9118800E+02  0.7561462E-02  0.1125453E+00
         25   -1    0    0    0    0  0.00000000000E+00  0.00000000000E+00  0.99999998245E-14  0.12509000000E+03  0.12509000000E+03 0.  0.
        -13    1    3    3    0    0  0.20593354189E+02  0.34580300210E+02 -0.22160291878E+01  0.40308874318E+02  0.10566000000E+00 0.  1.
         23    2    1    0    0    0 -0.20482483026E+02  0.32088049285E+01 -0.21263071404E+02  0.95392411789E+02  0.90651891770E+02 0.  0.
         13    1    3    3    0    0 -0.41075837215E+02 -0.31371495282E+02 -0.19047042216E+02  0.55083537472E+02  0.10566000000E+00 0. -1.
         22    1    1    0    0    0  0.20482483026E+02 -0.32088049285E+01  0.21263071404E+02  0.29697588211E+02  0.00000000000E+00 0. -1.
</event>
<event>
 5    1  0.1255769E-009  0.9118800E+02  0.7561462E-02  0.1125453E+00
         25   -1    0    0    0    0  0.00000000000E+00  0.00000000000E+00  0.99999998245E-14  0.12509000000E+03  0.12509000000E+03 0.  0.
        -13    1    3    3    0    0 -0.48145351273E+01  0.27903524875E+02 -0.15788484334E+02  0.32420269131E+02  0.10566000000E+00 0.  1.
         23    2    1    0    0    0 -0.67232874670E+00 -0.24121896064E+02  0.18341500321E+02  0.94779465038E+02  0.89802107232E+02 0.  0.
         13    1    3    3    0    0  0.41422063806E+01 -0.52025420939E+02  0.34129984655E+02  0.62359195907E+02  0.10566000000E+00 0. -1.
         22    1    1    0    0    0  0.67232874670E+00  0.24121896064E+02 -0.18341500321E+02  0.30310534962E+02  0.00000000000E+00 0. -1.
</event>
<event>
 5    1  0.1255769E-009  0.9118800E+02  0.7561462E-02  0.1125453E+00
         25   -1    0    0    0    0  0.00000000000E+00  0.00000000000E+00  0.99999998245E-14  0.12509000000E+03  0.12509000000E+03 0.  0.
        -13    1    3    3    0    0  0.83160498648E+01  0.54926971915E+02 -0.25999266025E+02  0.61335975797E+02  0.10566000000E+00 0. -1.
         23    2    1    0    0    0  0.48436148486E+01  0.27832539238E+02 -0.37009187226E+01  0.96597761678E+02  0.92300162062E+02 0.  0.
         13    1    3    3    0    0 -0.34724350162E+01 -0.27094432678E+02  0.22298347302E+02  0.35261785881E+02  0.10566000000E+00 0.  1.
         22    1    1    0    0    0 -0.48436148486E+01 -0.27832539238E+02  0.37009187226E+01  0.28492238322E+02  0.00000000000E+00 0. -1.
</event>
<event>
 5    1  0.1255769E-009  0.9118800E+02  0.7561462E-02  0.1125453E+00
         25   -1    0    0    0    0  0.00000000000E+00  0.00000000000E+00  0.99999998245E-14  0.12509000000E+03  0.12509000000E+03 0.  0.
        -13    1    3    3    0    0 -0.46057590052E+02  0.32247363774E+02 -0.35103771602E+01  0.56334074801E+02  0.10566000000E+00 0.  1.
         23    2    1    0    0    0 -0.11102701078E+02 -0.60537798313E+01  0.88675043323E+01  0.10964490840E+03  0.10855162405E+03 0.  0.
         13    1    3    3    0    0  0.34954888974E+02 -0.38301143606E+02  0.12377881492E+02  0.53310833599E+02  0.10566000000E+00 0. -1.
         22    1    1    0    0    0  0.11102701078E+02  0.60537798313E+01 -0.88675043323E+01  0.15445091601E+02  0.00000000000E+00 0. -1.
</event>
<event>
 5    1  0.1255769E-009  0.9118800E+02  0.7561462E-02  0.1125453E+00
         25   -1    0    0    0    0  0.00000000000E+00  0.00000000000E+00  0.99999998245E-14  0.12509000000E+03  0.12509000000E+03 0.  0.
        -13    1    3    3    0    0  0.56247966143E+02  0.52272124723E+01 -0.10431328535E+02  0.57445463046E+02  0.10566000000E+00 0.  1.
         23    2    1    0    0    0  0.21661972223E+02  0.18241097883E+02  0.26523960446E+01  0.96646830392E+02  0.92366638606E+02 0.  0.
         13    1    3    3    0    0 -0.34585993920E+02  0.13013885411E+02  0.13083724579E+02  0.39201367346E+02  0.10566000000E+00 0. -1.
         22    1    1    0    0    0 -0.21661972223E+02 -0.18241097883E+02 -0.26523960446E+01  0.28443169608E+02  0.00000000000E+00 0.  1.
</event>
<event>
 5    1  0.1255769E-009  0.9118800E+02  0.7561462E-02  0.1125453E+00
         25   -1    0    0    0    0  0.00000000000E+00  0.00000000000E+00  0.99999998245E-14  0.12509000000E+03  0.12509000000E+03 0.  0.
        -13    1    3    3    0    0  0.22239985927E+02  0.26383086559E+02  0.83340689083E+01  0.35498621086E+02  0.10566000000E+00 0.  1.
         23    2    1    0    0    0 -0.22464451638E+02 -0.37520065057E+01 -0.18525021299E+02  0.95731771948E+02  0.91118969518E+02 0.  0.
         13    1    3    3    0    0 -0.44704437565E+02 -0.30135093064E+02 -0.26859090207E+02  0.60233150862E+02  0.10566000000E+00 0. -1.
         22    1    1    0    0    0  0.22464451638E+02  0.37520065057E+01  0.18525021299E+02  0.29358228052E+02  0.00000000000E+00 0. -1.
</event>
<event>
 5    1  0.1255769E-009  0.9118800E+02  0.7561462E-02  0.1125453E+00
         25   -1    0    0    0    0  0.00000000000E+00  0.00000000000E+00  0.99999998245E-14  0.12509000000E+03  0.12509000000E+03 0.  0.
        -13    1    3    3    0    0 -0.20526055021E+02  0.28127105496E+02  0.58275583198E+01  0.35304739035E+02  0.10566000000E+00 0.  1.
         23    2    1    0    0    0  0.22538581002E+01 -0.20926511448E+02 -0.20720917297E+02  0.95554340682E+02  0.90875061771E+02 0.  0.
         13    1    3    3    0    0  0.22779913121E+02 -0.49053616944E+02 -0.26548475617E+02  0.60249601647E+02  0.10566000000E+00 0. -1.
         22    1    1    0    0    0 -0.22538581002E+01  0.20926511448E+02  0.20720917297E+02  0.29535659318E+02  0.00000000000E+00 0. -1.
</event>
<event>
 5    1  0.1255769E-009  0.9118800E+02  0.7561462E-02  0.1125453E+00
         25   -1    0    0    0    0  0.00000000000E+00  0.00000000000E+00  0.99999998245E-14  0.12509000000E+03  0.12509000000E+03 0.  0.
        -13    1    3    3    0    0  0.27271567719E+02  0.27987712173E+02  0.37289409410E+02  0.54014457849E+02  0.10566000000E+00 0.  1.
         23    2    1    0    0    0 -0.68543726392E+01  0.62899043983E+01  0.28106560732E+02  0.95483850676E+02  0.90777980051E+02 0.  0.
         13    1    3    3    0    0 -0.34125940359E+02 -0.21697807775E+02 -0.91828486779E+01  0.41469392827E+02  0.10566000000E+00 0. -1.
         22    1    1    0    0    0  0.68543726392E+01 -0.62899043983E+01 -0.28106560732E+02  0.29606149324E+02  0.00000000000E+00 0.  1.
</event>
<event>
 5    1  0.1255769E-009  0.9118800E+02  0.7561462E-02  0.1125453E+00
         25   -1    0    0    0    0  0.00000000000E+00  0.00000000000E+00  0.99999998245E-14  0.12509000000E+03  0.12509000000E+03 0.  0.
        -13    1    3    3    0    0  0.52001506883E+01  0.32737871792E+02 -0.30366929096E+02  0.44955215086E+02  0.10566000000E+00 0. -1.
         23    2    1    0    0    0  0.10382785050E+02  0.19509014414E+02  0.18763642622E+02  0.96098998754E+02  0.91621719086E+02 0.  0.
         13    1    3    3    0    0  0.51826343613E+01 -0.13228857378E+02  0.49130571718E+02  0.51143783668E+02  0.10566000000E+00 0.  1.
         22    1    1    0    0    0 -0.10382785050E+02 -0.19509014414E+02 -0.18763642622E+02  0.28991001246E+02  0.00000000000E+00 0.  1.
</event>
<event>
 5    1  0.1255769E-009  0.9118800E+02  0.7561462E-02  0.1125453E+00
         25   -1    0    0    0    0  0.00000000000E+00  0.00000000000E+00  0.99999998245E-14  0.12509000000E+03  0.12509000000E+03 0.  0.
        -13    1    3    3    0    0  0.36022577049E+02  0.45291036713E+02  0.13667765886E+02  0.59461946253E+02  0.10566000000E+00 0. -1.
         23    2    1    0    0    0  0.13696109607E+02  0.17553449632E+02  0.19438997440E+02  0.95533585572E+02  0.90846487760E+02 0.  0.
         13    1    3    3    0    0 -0.22326467442E+02 -0.27737587081E+02  0.57712315545E+01  0.36071639319E+02  0.10566000000E+00 0.  1.
         22    1    1    0    0    0 -0.13696109607E+02 -0.17553449632E+02 -0.19438997440E+02  0.29556414428E+02  0.00000000000E+00 0. -1.
</event>
<event>
 5    1  0.1255769E-009  0.9118800E+02  0.7561462E-02  0.1125453E+00
         25   -1    0    0    0    0  0.00000000000E+00  0.00000000000E+00  0.99999998245E-14  0.12509000000E+03  0.12509000000E+03 0.  0.
        -13    1    3    3    0    0 -0.55242933024E+02 -0.23181976452E+02  0.94137831164E+00  0.59917301663E+02  0.10566000000E+00 0. -1.
         23    2    1    0    0    0 -0.20802953008E+02 -0.20447493989E+02  0.72401924563E+01  0.95035328964E+02  0.90157808870E+02 0.  0.
         13    1    3    3    0    0  0.34439980017E+02  0.27344824636E+01  0.62988141446E+01  0.35118027302E+02  0.10566000000E+00 0.  1.
         22    1    1    0    0    0  0.20802953008E+02  0.20447493989E+02 -0.72401924563E+01  0.30054671036E+02  0.00000000000E+00 0. -1.
</event>
<event>
 5    1  0.1255769E-009  0.9118800E+02  0.7561462E-02  0.1125453E+00
         25   -1    0    0    0    0  0.00000000000E+00  0.00000000000E+00  0.99999998245E-14  0.12509000000E+03  0.12509000000E+03 0.  0.
        -13    1    3    3    0    0 -0.97738417096E+01  0.16021783609E+02 -0.49113606180E+02  0.52577400162E+02  0.10566000000E+00 0. -1.
         23    2    1    0    0    0  0.95713738243E+01  0.25397232776E+02 -0.12115471959E+02  0.95367697088E+02  0.90617781685E+02 0.  0.
         13    1    3    3    0    0  0.19345215534E+02  0.93754491670E+01  0.36998134221E+02  0.42790296926E+02  0.10566000000E+00 0.  1.
         22    1    1    0    0    0 -0.95713738243E+01 -0.25397232776E+02  0.12115471959E+02  0.29722302912E+02  0.00000000000E+00 0.  1.
</event>
<event>
 4    1  0.1255769E-009  0.9118800E+02  0.7561462E-02  0.1125453E+00
         25   -1    0    0    0    0  0.00000000000E+00  0.00000000000E+00  0.99999998245E-14  0.12509000000E+03  0.12509000000E+03 0.  0.
        -13    1    1    0    0    0  0.13253326202E+02 -0.12946365379E+02  0.15932663338E+02  0.24436038080E+02  0.10566000000E+00 0.  1.
         13    1    1    0    0    0 -0.12139660221E+02 -0.41666335084E+02 -0.15329037418E+02  0.46026572562E+02  0.10566000000E+00 0. -1.
         22    1    1    0    0    0 -0.11136659805E+01  0.54612700463E+02 -0.60362592076E+00  0.54627389358E+02  0.00000000000E+00 0. -1.
</event>
<event>
 5    1  0.1255769E-009  0.9118800E+02  0.7561462E-02  0.1125453E+00
         25   -1    0    0    0    0  0.00000000000E+00  0.00000000000E+00  0.99999998245E-14  0.12509000000E+03  0.12509000000E+03 0.  0.
        -13    1    3    3    0    0  0.21707131328E+02  0.34738453245E+02  0.40622061670E+02  0.57689884232E+02  0.10566000000E+00 0.  1.
         23    2    1    0    0    0  0.11880697316E+00  0.28032056284E+02  0.10944005630E+02  0.94997117888E+02  0.90104777083E+02 0.  0.
         13    1    3    3    0    0 -0.21588324355E+02 -0.67063969616E+01 -0.29678056040E+02  0.37307233655E+02  0.10566000000E+00 0. -1.
         22    1    1    0    0    0 -0.11880697316E+00 -0.28032056284E+02 -0.10944005630E+02  0.30092882112E+02  0.00000000000E+00 0.  1.
</event>
<event>
 5    1  0.1255769E-009  0.9118800E+02  0.7561462E-02  0.1125453E+00
         25   -1    0    0    0    0  0.00000000000E+00  0.00000000000E+00  0.99999998245E-14  0.12509000000E+03  0.12509000000E+03 0.  0.
        -13    1    3    3    0    0  0.27550226875E+01  0.37903041834E+02  0.37390311206E+02  0.53313012167E+02  0.10566000000E+00 0.  1.
         23    2    1    0    0    0  0.23896970362E+02  0.11968732346E+02  0.10001900631E+02  0.96553115751E+02  0.92239635724E+02 0.  0.
         13    1    3    3    0    0  0.21141947674E+02 -0.25934309488E+02 -0.27388410574E+02  0.43240103583E+02  0.10566000000E+00 0. -1.
         22    1    1    0    0    0 -0.23896970362E+02 -0.11968732346E+02 -0.10001900631E+02  0.28536884249E+02  0.00000000000E+00 0. -1.
</event>
<event>
 5    1  0.1255769E-009  0.9118800E+02  0.7561462E-02  0.1125453E+00
         25   -1    0    0    0    0  0.00000000000E+00  0.00000000000E+00  0.99999998245E-14  0.12509000000E+03  0.12509000000E+03 0.  0.
        -13    1    3    3    0    0 -0.22305334222E+02 -0.20618476234E+02  0.27943590784E+02  0.41273537853E+02  0.10566000000E+00 0.  1.
         23    2    1    0    0    0 -0.17435185537E+02  0.22809016223E+02 -0.49334162207E+01  0.95959680548E+02  0.91431311811E+02 0.  0.
         13    1    3    3    0    0  0.48701486850E+01  0.43427492456E+02 -0.32877007004E+02  0.54686142695E+02  0.10566000000E+00 0. -1.
         22    1    1    0    0    0  0.17435185537E+02 -0.22809016223E+02  0.49334162207E+01  0.29130319452E+02  0.00000000000E+00 0. -1.
</event>
<event>
 5    1  0.1255769E-009  0.9118800E+02  0.7561462E-02  0.1125453E+00
         25   -1    0    0    0    0  0.00000000000E+00  0.00000000000E+00  0.99999998245E-14  0.12509000000E+03  0.12509000000E+03 0.  0.
        -13    1    3    3    0    0  0.25029863288E+02 -0.28587942885E+02 -0.75326573831E+01  0.38736502499E+02  0.10566000000E+00 0.  1.
         23    2    1    0    0    0 -0.21276759500E+02  0.67802610611E+01 -0.16002253343E+02  0.97617385510E+02  0.93671817570E+02 0.  0.
         13    1    3    3    0    0 -0.46306622788E+02  0.35368203946E+02 -0.84695959597E+01  0.58880883011E+02  0.10566000000E+00 0. -1.
         22    1    1    0    0    0  0.21276759500E+02 -0.67802610611E+01  0.16002253343E+02  0.27472614490E+02  0.00000000000E+00 0. -1.
</event>
<event>
 5    1  0.1255769E-009  0.9118800E+02  0.7561462E-02  0.1125453E+00
         25   -1    0    0    0    0  0.00000000000E+00  0.00000000000E+00  0.99999998245E-14  0.12509000000E+03  0.12509000000E+03 0.  0.
        -13    1    3    3    0    0 -0.20503914311E+02  0.23180787058E+02  0.35365269617E+02  0.46994391685E+02  0.10566000000E+00 0. -1.
         23    2    1    0    0    0 -0.27738311530E+02 -0.10629151817E+02  0.15691868452E+01  0.95343485209E+02  0.90584353116E+02 0.  0.
         13    1    3    3    0    0 -0.72343972186E+01 -0.33809938875E+02 -0.33796082772E+02  0.48349093524E+02  0.10566000000E+00 0.  1.
         22    1    1    0    0    0  0.27738311530E+02  0.10629151817E+02 -0.15691868452E+01  0.29746514791E+02  0.00000000000E+00 0.  1.
</event>
<event>
 5    1  0.1255769E-009  0.9118800E+02  0.7561462E-02  0.1125453E+00
         25   -1    0    0    0    0  0.00000000000E+00  0.00000000000E+00  0.99999998245E-14  0.12509000000E+03  0.12509000000E+03 0.  0.
        -13    1    3    3    0    0  0.33434383181E+02  0.42116054620E+02 -0.11962071785E+02  0.55088314195E+02  0.10566000000E+00 0. -1.
         23    2    1    0    0    0  0.20074797044E+02  0.68585081290E+01 -0.22428624839E+02  0.94218009098E+02  0.89016590679E+02 0.  0.
         13    1    3    3    0    0 -0.13359586137E+02 -0.35257546491E+02 -0.10466553054E+02  0.39129694903E+02  0.10566000000E+00 0.  1.
         22    1    1    0    0    0 -0.20074797044E+02 -0.68585081290E+01  0.22428624839E+02  0.30871990902E+02  0.00000000000E+00 0. -1.
</event>
<event>
 5    1  0.1255769E-009  0.9118800E+02  0.7561462E-02  0.1125453E+00
         25   -1    0    0    0    0  0.00000000000E+00  0.00000000000E+00  0.99999998245E-14  0.12509000000E+03  0.12509000000E+03 0.  0.
        -13    1    3    3    0    0  0.33761979710E+02  0.57518441819E+00  0.39930510588E+02  0.52293966677E+02  0.10566000000E+00 0.  1.
         23    2    1    0    0    0  0.42447317443E+01 -0.22346253631E+02  0.20753536133E+02  0.94299058785E+02  0.89130412469E+02 0.  0.
         13    1    3    3    0    0 -0.29517247965E+02 -0.22921438049E+02 -0.19176974455E+02  0.42005092108E+02  0.10566000000E+00 0. -1.
         22    1    1    0    0    0 -0.42447317443E+01  0.22346253631E+02 -0.20753536133E+02  0.30790941215E+02  0.00000000000E+00 0.  1.
</event>
<event>
 5    1  0.1255769E-009  0.9118800E+02  0.7561462E-02  0.1125453E+00
         25   -1    0    0    0    0  0.00000000000E+00  0.00000000000E+00  0.99999998245E-14  0.12509000000E+03  0.12509000000E+03 0.  0.
        -13    1    3    3    0    0  0.19791033975E+01 -0.20395901861E+02 -0.36281935158E+02  0.41668929022E+02  0.10566000000E+00 0.  1.
         23    2    1    0    0    0  0.10953949128E+02 -0.20365722715E+02  0.17434112804E+02  0.96129683143E+02  0.91663602529E+02 0.  0.
         13    1    3    3    0    0  0.89748457309E+01  0.30179145776E-01  0.53716047962E+02  0.54460754121E+02  0.10566000000E+00 0. -1.
         22    1    1    0    0    0 -0.10953949128E+02  0.20365722715E+02 -0.17434112804E+02  0.28960316857E+02  0.00000000000E+00 0. -1.
</event>
<event>
 5    1  0.1255769E-009  0.9118800E+02  0.7561462E-02  0.1125453E+00
         25   -1    0    0    0    0  0.00000000000E+00  0.00000000000E+00  0.99999998245E-14  0.12509000000E+03  0.12509000000E+03 0.  0.
        -13    1    3    3    0    0  0.24054985696E+02 -0.38896906165E+02  0.15411636670E+02  0.48261178549E+02  0.10566000000E+00 0. -1.
         23    2    1    0    0    0  0.55552578318E+01  0.43490496014E+01  0.27395512137E+02  0.96800616704E+02  0.92574673573E+02 0.  0.
         13    1    3    3    0    0 -0.18499727864E+02  0.43245955767E+02  0.11983875466E+02  0.48539438155E+02  0.10566000000E+00 0.  1.
         22    1    1    0    0    0 -0.55552578318E+01 -0.43490496014E+01 -0.27395512137E+02  0.28289383296E+02  0.00000000000E+00 0.  1.
</event>
<event>
 5    1  0.1255769E-009  0.9118800E+02  0.7561462E-02  0.1125453E+00
         25   -1    0    0    0    0  0.00000000000E+00  0.00000000000E+00  0.99999998245E-14  0.12509000000E+03  0.12509000000E+03 0.  0.
        -13    1    3    3    0    0  0.11081162493E+01 -0.35505478807E+02 -0.49117713030E+02  0.60617059021E+02  0.10566000000E+00 0.  1.
         23    2    1    0    0    0  0.90895631106E+01 -0.25621750131E+02 -0.23739410080E+02  0.88997704032E+02  0.81350706787E+02 0.  0.
         13    1    3    3    0    0  0.79814468612E+01  0.98837286762E+01  0.25378302951E+02  0.28380645011E+02  0.10566000000E+00 0. -1.
         22    1    1    0    0    0 -0.90895631106E+01  0.25621750131E+02  0.23739410080E+02  0.36092295968E+02  0.00000000000E+00 0.  1.
</event>
<event>
 4    1  0.1255769E-009  0.9118800E+02  0.7561462E-02  0.1125453E+00
         25   -1    0    0    0    0  0.00000000000E+00  0.00000000000E+00  0.99999998245E-14  0.12509000000E+03  0.12509000000E+03 0.  0.
        -13    1    1    0    0    0  0.21703158034E+02 -0.47355154670E+02  0.22819503736E+02  0.56870718804E+02  0.10566000000E+00 0. -1.
         13    1    1    0    0    0  0.34088043769E+01  0.72472215619E+00 -0.14123872623E+02  0.14547855903E+02  0.10566000000E+00 0.  1.
         22    1    1    0    0    0 -0.25111962411E+02  0.46630432514E+02 -0.86956311128E+01  0.53671425293E+02  0.00000000000E+00 0. -1.
</event>
<event>
 5    1  0.1255769E-009  0.9118800E+02  0.7561462E-02  0.1125453E+00
         25   -1    0    0    0    0  0.00000000000E+00  0.00000000000E+00  0.99999998245E-14  0.12509000000E+03  0.12509000000E+03 0.  0.
        -13    1    3    3    0    0 -0.96546163838E+01  0.36425066954E+02 -0.30951133203E+01  0.37809893026E+02  0.10566000000E+00 0.  1.
         23    2    1    0    0    0 -0.12137727401E+02 -0.19077279340E+02 -0.18952282536E+02  0.95586508227E+02  0.90919329783E+02 0.  0.
         13    1    3    3    0    0 -0.24831110176E+01 -0.55502346294E+02 -0.15857169216E+02  0.57776615201E+02  0.10566000000E+00 0. -1.
         22    1    1    0    0    0  0.12137727401E+02  0.19077279340E+02  0.18952282536E+02  0.29503491773E+02  0.00000000000E+00 0. -1.
</event>
<event>
 5    1  0.1255769E-009  0.9118800E+02  0.7561462E-02  0.1125453E+00
         25   -1    0    0    0    0  0.00000000000E+00  0.00000000000E+00  0.99999998245E-14  0.12509000000E+03  0.12509000000E+03 0.  0.
        -13    1    3    3    0    0 -0.27165948916E+01  0.44126427546E+02  0.15352846242E+02  0.46800027217E+02  0.10566000000E+00 0. -1.
         23    2    1    0    0    0  0.21025883876E+02  0.15398638303E+02 -0.15136291948E+02  0.94951765342E+02  0.90041793370E+02 0.  0.
         13    1    3    3    0    0  0.23742478768E+02 -0.28727789243E+02 -0.30489138190E+02  0.48151738125E+02  0.10566000000E+00 0.  1.
         22    1    1    0    0    0 -0.21025883876E+02 -0.15398638303E+02  0.15136291948E+02  0.30138234658E+02  0.00000000000E+00 0.  1.
</event>
<event>
 5    1  0.1255769E-009  0.9118800E+02  0.7561462E-02  0.1125453E+00
         25   -1    0    0    0    0  0.00000000000E+00  0.00000000000E+00  0.99999998245E-14  0.12509000000E+03  0.12509000000E+03 0.  0.
        -13    1    3    3    0    0 -0.32190213600E+02 -0.26312576647E+02 -0.79547799777E+01  0.42330263759E+02  0.10566000000E+00 0.  1.
         23    2    1    0    0    0  0.20146567344E+02 -0.15424704991E+02 -0.13970059645E+02  0.96125051074E+02  0.91657281095E+02 0.  0.
         13    1    3    3    0    0  0.52336780944E+02  0.10887871656E+02 -0.60152796675E+01  0.53794787315E+02  0.10566000000E+00 0. -1.
         22    1    1    0    0    0 -0.20146567344E+02  0.15424704991E+02  0.13970059645E+02  0.28964948926E+02  0.00000000000E+00 0. -1.
</event>
<event>
 5    1  0.1255769E-009  0.9118800E+02  0.7561462E-02  0.1125453E+00
         25   -1    0    0    0    0  0.00000000000E+00  0.00000000000E+00  0.99999998245E-14  0.12509000000E+03  0.12509000000E+03 0.  0.
        -13    1    3    3    0    0 -0.43549374947E+02 -0.38083843712E+01  0.24319937874E+02  0.50025217561E+02  0.10566000000E+00 0.  1.
         23    2    1    0    0    0  0.17349647626E+01 -0.18567559206E+02  0.19835496822E+02  0.97864804101E+02  0.94001641421E+02 0.  0.
         13    1    3    3    0    0  0.45284339709E+02 -0.14759174835E+02 -0.44844410526E+01  0.47839586540E+02  0.10566000000E+00 0. -1.
         22    1    1    0    0    0 -0.17349647626E+01  0.18567559206E+02 -0.19835496822E+02  0.27225195899E+02  0.00000000000E+00 0.  1.
</event>
<event>
 5    1  0.1255769E-009  0.9118800E+02  0.7561462E-02  0.1125453E+00
         25   -1    0    0    0    0  0.00000000000E+00  0.00000000000E+00  0.99999998245E-14  0.12509000000E+03  0.12509000000E+03 0.  0.
        -13    1    3    3    0    0  0.44697135304E+02 -0.12239348429E+01 -0.71664059955E+01  0.45284660315E+02  0.10566000000E+00 0.  1.
         23    2    1    0    0    0 -0.18723198750E+01 -0.84816874161E+01 -0.27229318414E+02  0.96508880630E+02  0.92179627120E+02 0.  0.
         13    1    3    3    0    0 -0.46569455179E+02 -0.72577525732E+01 -0.20062912419E+02  0.51224220315E+02  0.10566000000E+00 0. -1.
         22    1    1    0    0    0  0.18723198750E+01  0.84816874161E+01  0.27229318414E+02  0.28581119370E+02  0.00000000000E+00 0.  1.
</event>
<event>
 5    1  0.1255769E-009  0.9118800E+02  0.7561462E-02  0.1125453E+00
         25   -1    0    0    0    0  0.00000000000E+00  0.00000000000E+00  0.99999998245E-14  0.12509000000E+03  0.12509000000E+03 0.  0.
        -13    1    3    3    0    0 -0.22687093575E+02 -0.56610784566E+02 -0.86900508228E+01  0.61603679203E+02  0.10566000000E+00 0. -1.
         23    2    1    0    0    0 -0.90762930081E+01 -0.28222106609E+02  0.32324385030E+01  0.95268614135E+02  0.90480902871E+02 0.  0.
         13    1    3    3    0    0  0.13610800567E+02  0.28388677956E+02  0.11922489326E+02  0.33664934932E+02  0.10566000000E+00 0.  1.
         22    1    1    0    0    0  0.90762930081E+01  0.28222106609E+02 -0.32324385030E+01  0.29821385865E+02  0.00000000000E+00 0. -1.
</event>
<event>
 5    1  0.1255769E-009  0.9118800E+02  0.7561462E-02  0.1125453E+00
         25   -1    0    0    0    0  0.00000000000E+00  0.00000000000E+00  0.99999998245E-14  0.12509000000E+03  0.12509000000E+03 0.  0.
        -13    1    3    3    0    0 -0.92868146842E+01  0.39420047228E+02  0.23866166574E+02  0.47008404795E+02  0.10566000000E+00 0.  1.
         23    2    1    0    0    0 -0.25914253791E+01 -0.80750984864E+01  0.28649922389E+02  0.95211232389E+02  0.90401537703E+02 0.  0.
         13    1    3    3    0    0  0.66953893051E+01 -0.47495145714E+02  0.47837558151E+01  0.48202827594E+02  0.10566000000E+00 0. -1.
         22    1    1    0    0    0  0.25914253791E+01  0.80750984864E+01 -0.28649922389E+02  0.29878767611E+02  0.00000000000E+00 0.  1.
</event>
<event>
 5    1  0.1255769E-009  0.9118800E+02  0.7561462E-02  0.1125453E+00
         25   -1    0    0    0    0  0.00000000000E+00  0.00000000000E+00  0.99999998245E-14  0.12509000000E+03  0.12509000000E+03 0.  0.
        -13    1    3    3    0    0  0.21486121153E+02  0.26460723433E+02 -0.38818467314E+02  0.51659537894E+02  0.10566000000E+00 0.  1.
         23    2    1    0    0    0 -0.28214115045E+01 -0.48007240055E+01 -0.32927313511E+02  0.91695160744E+02  0.85397817390E+02 0.  0.
         13    1    3    3    0    0 -0.24307532657E+02 -0.31261447438E+02  0.58911538027E+01  0.40035622850E+02  0.10566000000E+00 0. -1.
         22    1    1    0    0    0  0.28214115045E+01  0.48007240055E+01  0.32927313511E+02  0.33394839256E+02  0.00000000000E+00 0.  1.
</event>
<event>
 5    1  0.1255769E-009  0.9118800E+02  0.7561462E-02  0.1125453E+00
         25   -1    0    0    0    0  0.00000000000E+00  0.00000000000E+00  0.99999998245E-14  0.12509000000E+03  0.12509000000E+03 0.  0.
        -13    1    3    3    0    0 -0.38804457445E+02 -0.88933688902E+01 -0.27212953857E+02  0.48222753441E+02  0.10566000000E+00 0.  1.
         23    2    1    0    0    0 -0.15343429694E+02 -0.34055631960E+02 -0.16502665933E+02  0.84254416426E+02  0.73697094932E+02 0.  0.
         13    1    3    3    0    0  0.23461027751E+02 -0.25162263070E+02  0.10710287924E+02  0.36031662984E+02  0.10566000000E+00 0. -1.
         22    1    1    0    0    0  0.15343429694E+02  0.34055631960E+02  0.16502665933E+02  0.40835583574E+02  0.00000000000E+00 0.  1.
</event>
<event>
 5    1  0.1255769E-009  0.9118800E+02  0.7561462E-02  0.1125453E+00
         25   -1    0    0    0    0  0.00000000000E+00  0.00000000000E+00  0.99999998245E-14  0.12509000000E+03  0.12509000000E+03 0.  0.
        -13    1    3    3    0    0 -0.19789514554E+02  0.74101449202E+01  0.53838988637E+02  0.57837556963E+02  0.10566000000E+00 0. -1.
         23    2    1    0    0    0 -0.49593623490E+01  0.19441867140E+02  0.19607194989E+02  0.97036059669E+02  0.92892267213E+02 0.  0.
         13    1    3    3    0    0  0.14830152205E+02  0.12031722219E+02 -0.34231793648E+02  0.39198502706E+02  0.10566000000E+00 0.  1.
         22    1    1    0    0    0  0.49593623490E+01 -0.19441867140E+02 -0.19607194989E+02  0.28053940331E+02  0.00000000000E+00 0. -1.
</event>
<event>
 5    1  0.1255769E-009  0.9118800E+02  0.7561462E-02  0.1125453E+00
         25   -1    0    0    0    0  0.00000000000E+00  0.00000000000E+00  0.99999998245E-14  0.12509000000E+03  0.12509000000E+03 0.  0.
        -13    1    3    3    0    0  0.37503418343E+02 -0.71332122481E+01  0.23421186889E+02  0.44787858441E+02  0.10566000000E+00 0.  1.
         23    2    1    0    0    0  0.34115735188E-01  0.25961598012E+02  0.13767900057E+02  0.95703594857E+02  0.91080279212E+02 0.  0.
         13    1    3    3    0    0 -0.37469302608E+02  0.33094810261E+02 -0.96532868318E+01  0.50915736416E+02  0.10566000000E+00 0. -1.
         22    1    1    0    0    0 -0.34115735188E-01 -0.25961598012E+02 -0.13767900057E+02  0.29386405143E+02  0.00000000000E+00 0. -1.
</event>
<event>
 5    1  0.1255769E-009  0.9118800E+02  0.7561462E-02  0.1125453E+00
         25   -1    0    0    0    0  0.00000000000E+00  0.00000000000E+00  0.99999998245E-14  0.12509000000E+03  0.12509000000E+03 0.  0.
        -13    1    3    3    0    0 -0.11950205256E+02  0.21444203861E+01  0.36580681821E+02  0.38543007031E+02  0.10566000000E+00 0. -1.
         23    2    1    0    0    0 -0.19018231763E+02  0.54689200169E+01 -0.20757677549E+02  0.96411028561E+02  0.92046743698E+02 0.  0.
         13    1    3    3    0    0 -0.70680265073E+01  0.33244996307E+01 -0.57338359370E+02  0.57868021530E+02  0.10566000000E+00 0.  1.
         22    1    1    0    0    0  0.19018231763E+02 -0.54689200169E+01  0.20757677549E+02  0.28678971439E+02  0.00000000000E+00 0.  1.
</event>
<event>
 5    1  0.1255769E-009  0.9118800E+02  0.7561462E-02  0.1125453E+00
         25   -1    0    0    0    0  0.00000000000E+00  0.00000000000E+00  0.99999998245E-14  0.12509000000E+03  0.12509000000E+03 0.  0.
        -13    1    3    3    0    0  0.46997324946E+02  0.47238389040E+01  0.57335483270E+01  0.47580962018E+02  0.10566000000E+00 0.  1.
         23    2    1    0    0    0  0.14990953493E+02 -0.27844875719E+02  0.29446409316E+01  0.93329384441E+02  0.87758972758E+02 0.  0.
         13    1    3    3    0    0 -0.32006371453E+02 -0.32568714623E+02 -0.27889073955E+01  0.45748422424E+02  0.10566000000E+00 0. -1.
         22    1    1    0    0    0 -0.14990953493E+02  0.27844875719E+02 -0.29446409316E+01  0.31760615559E+02  0.00000000000E+00 0.  1.
</event>
<event>
 5    1  0.1255769E-009  0.9118800E+02  0.7561462E-02  0.1125453E+00
         25   -1    0    0    0    0  0.00000000000E+00  0.00000000000E+00  0.99999998245E-14  0.12509000000E+03  0.12509000000E+03 0.  0.
        -13    1    3    3    0    0 -0.25454105815E+02 -0.37589902553E+02  0.89144625640E+01  0.46264360837E+02  0.10566000000E+00 0. -1.
         23    2    1    0    0    0  0.19142826167E+02 -0.25735939225E+02  0.17020531094E+01  0.92970172070E+02  0.87245455747E+02 0.  0.
         13    1    3    3    0    0  0.44596931982E+02  0.11853963329E+02 -0.72124094546E+01  0.46705811234E+02  0.10566000000E+00 0.  1.
         22    1    1    0    0    0 -0.19142826167E+02  0.25735939225E+02 -0.17020531094E+01  0.32119827930E+02  0.00000000000E+00 0. -1.
</event>
<event>
 5    1  0.1255769E-009  0.9118800E+02  0.7561462E-02  0.1125453E+00
         25   -1    0    0    0    0  0.00000000000E+00  0.00000000000E+00  0.99999998245E-14  0.12509000000E+03  0.12509000000E+03 0.  0.
        -13    1    3    3    0    0  0.19665636672E+02  0.36626248877E+02 -0.40041245379E+02  0.57719423663E+02  0.10566000000E+00 0.  1.
         23    2    1    0    0    0  0.65289458596E+01  0.61266940061E+01 -0.31963397549E+02  0.91896291314E+02  0.85691925295E+02 0.  0.
         13    1    3    3    0    0 -0.13136690812E+02 -0.30499554870E+02  0.80778478297E+01  0.34176867650E+02  0.10566000000E+00 0. -1.
         22    1    1    0    0    0 -0.65289458596E+01 -0.61266940061E+01  0.31963397549E+02  0.33193708686E+02  0.00000000000E+00 0.  1.
</event>
<event>
 5    1  0.1255769E-009  0.9118800E+02  0.7561462E-02  0.1125453E+00
         25   -1    0    0    0    0  0.00000000000E+00  0.00000000000E+00  0.99999998245E-14  0.12509000000E+03  0.12509000000E+03 0.  0.
        -13    1    3    3    0    0  0.10483058186E+02 -0.94459363734E+01 -0.37640302287E+02  0.40198553994E+02  0.10566000000E+00 0.  1.
         23    2    1    0    0    0 -0.29094937382E+02 -0.43558399291E+01  0.87452158744E+00  0.95657815053E+02  0.91017383339E+02 0.  0.
         13    1    3    3    0    0 -0.39577995568E+02  0.50900964443E+01  0.38514823875E+02  0.55459261058E+02  0.10566000000E+00 0. -1.
         22    1    1    0    0    0  0.29094937382E+02  0.43558399291E+01 -0.87452158744E+00  0.29432184947E+02  0.00000000000E+00 0. -1.
</event>
<event>
 5    1  0.1255769E-009  0.9118800E+02  0.7561462E-02  0.1125453E+00
         25   -1    0    0    0    0  0.00000000000E+00  0.00000000000E+00  0.99999998245E-14  0.12509000000E+03  0.12509000000E+03 0.  0.
        -13    1    3    3    0    0  0.56591347153E+01  0.18863234797E+01  0.33046514333E+02  0.33580757818E+02  0.10566000000E+00 0.  1.
         23    2    1    0    0    0 -0.12495885449E+01 -0.32163069674E+02 -0.12235250094E+02  0.90655629565E+02  0.83861298014E+02 0.  0.
         13    1    3    3    0    0 -0.69087232602E+01 -0.34049393154E+02 -0.45281764427E+02  0.57074871747E+02  0.10566000000E+00 0. -1.
         22    1    1    0    0    0  0.12495885449E+01  0.32163069674E+02  0.12235250094E+02  0.34434370435E+02  0.00000000000E+00 0. -1.
</event>
<event>
 5    1  0.1255769E-009  0.9118800E+02  0.7561462E-02  0.1125453E+00
         25   -1    0    0    0    0  0.00000000000E+00  0.00000000000E+00  0.99999998245E-14  0.12509000000E+03  0.12509000000E+03 0.  0.
        -13    1    3    3    0    0 -0.29202586775E+02 -0.44685119648E+02 -0.15895158832E+02  0.55697560365E+02  0.10566000000E+00 0.  1.
         23    2    1    0    0    0 -0.25525597352E+02 -0.15042384295E+02  0.85032403800E+01  0.94265747496E+02  0.89083649502E+02 0.  0.
         13    1    3    3    0    0  0.36769894230E+01  0.29642735353E+02  0.24398399212E+02  0.38568187131E+02  0.10566000000E+00 0. -1.
         22    1    1    0    0    0  0.25525597352E+02  0.15042384295E+02 -0.85032403800E+01  0.30824252504E+02  0.00000000000E+00 0.  1.
</event>
<event>
 5    1  0.1255769E-009  0.9118800E+02  0.7561462E-02  0.1125453E+00
         25   -1    0    0    0    0  0.00000000000E+00  0.00000000000E+00  0.99999998245E-14  0.12509000000E+03  0.12509000000E+03 0.  0.
        -13    1    3    3    0    0 -0.36702381940E+02  0.43534006877E+02 -0.55632746202E+01  0.57212199602E+02  0.10566000000E+00 0.  1.
         23    2    1    0    0    0 -0.25509322376E+02  0.10505301297E+02  0.10453178337E+02  0.95588206482E+02  0.90921666272E+02 0.  0.
         13    1    3    3    0    0  0.11193059564E+02 -0.33028705579E+02  0.16016452958E+02  0.38376006880E+02  0.10566000000E+00 0. -1.
         22    1    1    0    0    0  0.25509322376E+02 -0.10505301297E+02 -0.10453178337E+02  0.29501793518E+02  0.00000000000E+00 0.  1.
</event>
<event>
 5    1  0.1255769E-009  0.9118800E+02  0.7561462E-02  0.1125453E+00
         25   -1    0    0    0    0  0.00000000000E+00  0.00000000000E+00  0.99999998245E-14  0.12509000000E+03  0.12509000000E+03 0.  0.
        -13    1    3    3    0    0 -0.36207091949E+02 -0.31979329861E+01 -0.10942202500E+02  0.37959494759E+02  0.10566000000E+00 0. -1.
         23    2    1    0    0    0  0.25193877883E+01  0.31534125402E+02  0.64398200789E+01  0.92806572946E+02  0.87010575907E+02 0.  0.
         13    1    3    3    0    0  0.38726479737E+02  0.34732058388E+02  0.17382022578E+02  0.54847078187E+02  0.10566000000E+00 0.  1.
         22    1    1    0    0    0 -0.25193877883E+01 -0.31534125402E+02 -0.64398200789E+01  0.32283427054E+02  0.00000000000E+00 0.  1.
</event>
<event>
 5    1  0.1255769E-009  0.9118800E+02  0.7561462E-02  0.1125453E+00
         25   -1    0    0    0    0  0.00000000000E+00  0.00000000000E+00  0.99999998245E-14  0.12509000000E+03  0.12509000000E+03 0.  0.
        -13    1    3    3    0    0 -0.37060076546E+02 -0.18693651702E+02 -0.43400251874E+02  0.60054099896E+02  0.10566000000E+00 0.  1.
         23    2    1    0    0    0 -0.24057379683E+02 -0.88942235084E+01 -0.93624982630E+01  0.97785767677E+02  0.93896407052E+02 0.  0.
         13    1    3    3    0    0  0.13002696862E+02  0.97994281933E+01  0.34037753611E+02  0.37731667781E+02  0.10566000000E+00 0. -1.
         22    1    1    0    0    0  0.24057379683E+02  0.88942235084E+01  0.93624982630E+01  0.27304232323E+02  0.00000000000E+00 0.  1.
</event>
<event>
 5    1  0.1255769E-009  0.9118800E+02  0.7561462E-02  0.1125453E+00
         25   -1    0    0    0    0  0.00000000000E+00  0.00000000000E+00  0.99999998245E-14  0.12509000000E+03  0.12509000000E+03 0.  0.
        -13    1    3    3    0    0  0.23299672565E+02 -0.18449250684E+02 -0.18043289558E+01  0.29774424587E+02  0.10566000000E+00 0. -1.
         23    2    1    0    0    0  0.19490750349E+01  0.10004138811E+02 -0.41079531635E+02  0.82764952969E+02  0.71124031337E+02 0.  0.
         13    1    3    3    0    0 -0.21350597530E+02  0.28453389495E+02 -0.39275202679E+02  0.52990528382E+02  0.10566000000E+00 0.  1.
         22    1    1    0    0    0 -0.19490750349E+01 -0.10004138811E+02  0.41079531635E+02  0.42325047031E+02  0.00000000000E+00 0.  1.
</event>
<event>
 5    1  0.1255769E-009  0.9118800E+02  0.7561462E-02  0.1125453E+00
         25   -1    0    0    0    0  0.00000000000E+00  0.00000000000E+00  0.99999998245E-14  0.12509000000E+03  0.12509000000E+03 0.  0.
        -13    1    3    3    0    0  0.30529507178E+01  0.12051478835E+02  0.31086520196E+02  0.33480465232E+02  0.10566000000E+00 0.  1.
         23    2    1    0    0    0 -0.21395488409E+01  0.55474175529E+01 -0.29683022872E+02  0.94817349678E+02  0.89854863209E+02 0.  0.
         13    1    3    3    0    0 -0.51924995587E+01 -0.65040612824E+01 -0.60769543068E+02  0.61336884446E+02  0.10566000000E+00 0. -1.
         22    1    1    0    0    0  0.21395488409E+01 -0.55474175529E+01  0.29683022872E+02  0.30272650322E+02  0.00000000000E+00 0. -1.
</event>
<event>
 5    1  0.1255769E-009  0.9118800E+02  0.7561462E-02  0.1125453E+00
         25   -1    0    0    0    0  0.00000000000E+00  0.00000000000E+00  0.99999998245E-14  0.12509000000E+03  0.12509000000E+03 0.  0.
        -13    1    3    3    0    0  0.22214445132E+02 -0.45778328995E+02 -0.30895448466E+02  0.59528790329E+02  0.10566000000E+00 0.  1.
         23    2    1    0    0    0 -0.30271418104E+01 -0.24855629966E+02 -0.13411714075E+02  0.96685070798E+02  0.92418412193E+02 0.  0.
         13    1    3    3    0    0 -0.25241586942E+02  0.20922699029E+02  0.17483734392E+02  0.37156280469E+02  0.10566000000E+00 0. -1.
         22    1    1    0    0    0  0.30271418104E+01  0.24855629966E+02  0.13411714075E+02  0.28404929202E+02  0.00000000000E+00 0.  1.
</event>
<event>
 5    1  0.1255769E-009  0.9118800E+02  0.7561462E-02  0.1125453E+00
         25   -1    0    0    0    0  0.00000000000E+00  0.00000000000E+00  0.99999998245E-14  0.12509000000E+03  0.12509000000E+03 0.  0.
        -13    1    3    3    0    0 -0.38026566235E+02  0.15301196421E+02  0.37091628021E+02  0.55280614910E+02  0.10566000000E+00 0.  1.
         23    2    1    0    0    0 -0.21654173623E+02  0.21948514240E+02  0.24604838247E+01  0.94159521613E+02  0.88934363533E+02 0.  0.
         13    1    3    3    0    0  0.16372392612E+02  0.66473178189E+01 -0.34631144196E+02  0.38878906703E+02  0.10566000000E+00 0. -1.
         22    1    1    0    0    0  0.21654173623E+02 -0.21948514240E+02 -0.24604838247E+01  0.30930478387E+02  0.00000000000E+00 0.  1.
</event>
<event>
 5    1  0.1255769E-009  0.9118800E+02  0.7561462E-02  0.1125453E+00
         25   -1    0    0    0    0  0.00000000000E+00  0.00000000000E+00  0.99999998245E-14  0.12509000000E+03  0.12509000000E+03 0.  0.
        -13    1    3    3    0    0  0.33754070848E+02  0.14924880589E+01 -0.10849583329E+02  0.35486468433E+02  0.10566000000E+00 0. -1.
         23    2    1    0    0    0 -0.16184788510E+02  0.94325391790E+01  0.22312129755E+02  0.95956663276E+02  0.91427183695E+02 0.  0.
         13    1    3    3    0    0 -0.49938859357E+02  0.79400511201E+01  0.33161713084E+02  0.60470194843E+02  0.10566000000E+00 0.  1.
         22    1    1    0    0    0  0.16184788510E+02 -0.94325391790E+01 -0.22312129755E+02  0.29133336724E+02  0.00000000000E+00 0.  1.
</event>
<event>
 5    1  0.1255769E-009  0.9118800E+02  0.7561462E-02  0.1125453E+00
         25   -1    0    0    0    0  0.00000000000E+00  0.00000000000E+00  0.99999998245E-14  0.12509000000E+03  0.12509000000E+03 0.  0.
        -13    1    3    3    0    0  0.36802177880E+02  0.10113394778E+01  0.47541117918E+02  0.60129794289E+02  0.10566000000E+00 0.  1.
         23    2    1    0    0    0  0.12824278559E+02 -0.87952944700E+01  0.29638022192E+02  0.91620137664E+02  0.85287853419E+02 0.  0.
         13    1    3    3    0    0 -0.23977899322E+02 -0.98066339478E+01 -0.17903095727E+02  0.31490343375E+02  0.10566000000E+00 0. -1.
         22    1    1    0    0    0 -0.12824278559E+02  0.87952944700E+01 -0.29638022192E+02  0.33469862336E+02  0.00000000000E+00 0.  1.
</event>
<event>
 5    1  0.1255769E-009  0.9118800E+02  0.7561462E-02  0.1125453E+00
         25   -1    0    0    0    0  0.00000000000E+00  0.00000000000E+00  0.99999998245E-14  0.12509000000E+03  0.12509000000E+03 0.  0.
        -13    1    3    3    0    0  0.14724049390E+02 -0.16555264052E+02  0.24084924462E+02  0.32725664984E+02  0.10566000000E+00 0.  1.
         23    2    1    0    0    0 -0.85207034248E+01  0.33177985526E+02  0.83829491183E+01  0.89824507711E+02  0.82612270512E+02 0.  0.
         13    1    3    3    0    0 -0.23244752815E+02  0.49733249579E+02 -0.15701975343E+02  0.57098842727E+02  0.10566000000E+00 0. -1.
         22    1    1    0    0    0  0.85207034248E+01 -0.33177985526E+02 -0.83829491183E+01  0.35265492289E+02  0.00000000000E+00 0. -1.
</event>
<event>
 5    1  0.1255769E-009  0.9118800E+02  0.7561462E-02  0.1125453E+00
         25   -1    0    0    0    0  0.00000000000E+00  0.00000000000E+00  0.99999998245E-14  0.12509000000E+03  0.12509000000E+03 0.  0.
        -13    1    3    3    0    0  0.38634519963E+02  0.45510782744E+02 -0.28594312344E+01  0.59766587570E+02  0.10566000000E+00 0.  1.
         23    2    1    0    0    0  0.15015624134E+02  0.19034823143E+02 -0.14172918002E+02  0.97006818825E+02  0.92852882742E+02 0.  0.
         13    1    3    3    0    0 -0.23618895829E+02 -0.26475959602E+02 -0.11313486768E+02  0.37240231254E+02  0.10566000000E+00 0. -1.
         22    1    1    0    0    0 -0.15015624134E+02 -0.19034823143E+02  0.14172918002E+02  0.28083181175E+02  0.00000000000E+00 0.  1.
</event>
<event>
 5    1  0.1255769E-009  0.9118800E+02  0.7561462E-02  0.1125453E+00
         25   -1    0    0    0    0  0.00000000000E+00  0.00000000000E+00  0.99999998245E-14  0.12509000000E+03  0.12509000000E+03 0.  0.
        -13    1    3    3    0    0  0.15888365264E+02 -0.77074426955E+01  0.49599700044E+02  0.52649655575E+02  0.10566000000E+00 0.  1.
         23    2    1    0    0    0 -0.17819979332E+02 -0.28716063285E+01  0.22955366442E+02  0.95888174119E+02  0.91333429264E+02 0.  0.
         13    1    3    3    0    0 -0.33708344595E+02  0.48358363670E+01 -0.26644333603E+02  0.43238518544E+02  0.10566000000E+00 0. -1.
         22    1    1    0    0    0  0.17819979332E+02  0.28716063285E+01 -0.22955366442E+02  0.29201825881E+02  0.00000000000E+00 0.  1.
</event>
<event>
 5    1  0.1255769E-009  0.9118800E+02  0.7561462E-02  0.1125453E+00
         25   -1    0    0    0    0  0.00000000000E+00  0.00000000000E+00  0.99999998245E-14  0.12509000000E+03  0.12509000000E+03 0.  0.
        -13    1    3    3    0    0 -0.18272440174E+02 -0.25653680252E+02  0.26578197507E+02  0.41211711044E+02  0.10566000000E+00 0.  1.
         23    2    1    0    0    0 -0.25488761539E+02  0.20147135088E+02  0.16459154433E+02  0.88669020034E+02  0.80843721662E+02 0.  0.
         13    1    3    3    0    0 -0.72163213649E+01  0.45800815340E+02 -0.10119043074E+02  0.47457308990E+02  0.10566000000E+00 0. -1.
         22    1    1    0    0    0  0.25488761539E+02 -0.20147135088E+02 -0.16459154433E+02  0.36420979966E+02  0.00000000000E+00 0. -1.
</event>
<event>
 5    1  0.1255769E-009  0.9118800E+02  0.7561462E-02  0.1125453E+00
         25   -1    0    0    0    0  0.00000000000E+00  0.00000000000E+00  0.99999998245E-14  0.12509000000E+03  0.12509000000E+03 0.  0.
        -13    1    3    3    0    0 -0.18025318124E+02 -0.22909782751E+02 -0.33873233093E+02  0.44689789923E+02  0.10566000000E+00 0. -1.
         23    2    1    0    0    0 -0.62453529583E+01  0.23328250114E+02 -0.17979165588E+02  0.94982491266E+02  0.90084469055E+02 0.  0.
         13    1    3    3    0    0  0.11779965166E+02  0.46238032864E+02  0.15894067505E+02  0.50292701343E+02  0.10566000000E+00 0.  1.
         22    1    1    0    0    0  0.62453529583E+01 -0.23328250114E+02  0.17979165588E+02  0.30107508734E+02  0.00000000000E+00 0. -1.
</event>
<event>
 5    1  0.1255769E-009  0.9118800E+02  0.7561462E-02  0.1125453E+00
         25   -1    0    0    0    0  0.00000000000E+00  0.00000000000E+00  0.99999998245E-14  0.12509000000E+03  0.12509000000E+03 0.  0.
        -13    1    3    3    0    0 -0.19281521066E+02  0.10497697613E+02 -0.31395066367E+02  0.38309790734E+02  0.10566000000E+00 0.  1.
         23    2    1    0    0    0  0.73248742122E+01  0.22850289461E+02  0.17542520519E+02  0.95365775252E+02  0.90615128718E+02 0.  0.
         13    1    3    3    0    0  0.26606395279E+02  0.12352591848E+02  0.48937586886E+02  0.57055984519E+02  0.10566000000E+00 0. -1.
         22    1    1    0    0    0 -0.73248742122E+01 -0.22850289461E+02 -0.17542520519E+02  0.29724224748E+02  0.00000000000E+00 0. -1.
</event>
<event>
 5    1  0.1255769E-009  0.9118800E+02  0.7561462E-02  0.1125453E+00
         25   -1    0    0    0    0  0.00000000000E+00  0.00000000000E+00  0.99999998245E-14  0.12509000000E+03  0.12509000000E+03 0.  0.
        -13    1    3    3    0    0 -0.90815979703E+01  0.30024778814E+02  0.23074522407E+02  0.38941077449E+02  0.10566000000E+00 0. -1.
         23    2    1    0    0    0 -0.12562869644E+02 -0.24411751119E+02  0.15195342406E+01  0.97593304368E+02  0.93639653922E+02 0.  0.
         13    1    3    3    0    0 -0.34812716733E+01 -0.54436529933E+02 -0.21554988166E+02  0.58652226919E+02  0.10566000000E+00 0.  1.
         22    1    1    0    0    0  0.12562869644E+02  0.24411751119E+02 -0.15195342406E+01  0.27496695632E+02  0.00000000000E+00 0.  1.
</event>
<event>
 5    1  0.1255769E-009  0.9118800E+02  0.7561462E-02  0.1125453E+00
         25   -1    0    0    0    0  0.00000000000E+00  0.00000000000E+00  0.99999998245E-14  0.12509000000E+03  0.12509000000E+03 0.  0.
        -13    1    3    3    0    0 -0.52228142336E+02 -0.35925472197E+01  0.65124632320E+01  0.52755175943E+02  0.10566000000E+00 0. -1.
         23    2    1    0    0    0 -0.18492572805E+02 -0.20666701876E+02 -0.12021899192E+02  0.94863953690E+02  0.89919718828E+02 0.  0.
         13    1    3    3    0    0  0.33735569531E+02 -0.17074154656E+02 -0.18534362424E+02  0.42108777746E+02  0.10566000000E+00 0.  1.
         22    1    1    0    0    0  0.18492572805E+02  0.20666701876E+02  0.12021899192E+02  0.30226046310E+02  0.00000000000E+00 0. -1.
</event>
<event>
 5    1  0.1255769E-009  0.9118800E+02  0.7561462E-02  0.1125453E+00
         25   -1    0    0    0    0  0.00000000000E+00  0.00000000000E+00  0.99999998245E-14  0.12509000000E+03  0.12509000000E+03 0.  0.
        -13    1    3    3    0    0 -0.31645385687E+02  0.34776515002E+02  0.12838306795E+01  0.47037174833E+02  0.10566000000E+00 0. -1.
         23    2    1    0    0    0 -0.13487689954E+02  0.39806503049E+02  0.24110750409E+02  0.76635859304E+02  0.59373825721E+02 0.  0.
         13    1    3    3    0    0  0.18157695733E+02  0.50299880470E+01  0.22826919729E+02  0.29598684471E+02  0.10566000000E+00 0.  1.
         22    1    1    0    0    0  0.13487689954E+02 -0.39806503049E+02 -0.24110750409E+02  0.48454140696E+02  0.00000000000E+00 0. -1.
</event>
<event>
 5    1  0.1255769E-009  0.9118800E+02  0.7561462E-02  0.1125453E+00
         25   -1    0    0    0    0  0.00000000000E+00  0.00000000000E+00  0.99999998245E-14  0.12509000000E+03  0.12509000000E+03 0.  0.
        -13    1    3    3    0    0  0.58746454578E+02 -0.47420666247E+01 -0.63289325297E+01  0.59276468116E+02  0.10566000000E+00 0.  1.
         23    2    1    0    0    0  0.23841379663E+02 -0.15331447591E+02 -0.74919504408E+01  0.95771166618E+02  0.91173035293E+02 0.  0.
         13    1    3    3    0    0 -0.34905074914E+02 -0.10589380967E+02 -0.11630179111E+01  0.36494698502E+02  0.10566000000E+00 0. -1.
         22    1    1    0    0    0 -0.23841379663E+02  0.15331447591E+02  0.74919504408E+01  0.29318833382E+02  0.00000000000E+00 0.  1.
</event>
<event>
 5    1  0.1255769E-009  0.9118800E+02  0.7561462E-02  0.1125453E+00
         25   -1    0    0    0    0  0.00000000000E+00  0.00000000000E+00  0.99999998245E-14  0.12509000000E+03  0.12509000000E+03 0.  0.
        -13    1    3    3    0    0 -0.40434899953E+02 -0.17076349774E+01  0.16467271661E+02  0.43693012616E+02  0.10566000000E+00 0. -1.
         23    2    1    0    0    0 -0.76721237252E+01 -0.24960943518E+02 -0.15223033555E+02  0.94863340668E+02  0.89918866031E+02 0.  0.
         13    1    3    3    0    0  0.32762776228E+02 -0.23253308541E+02 -0.31690305215E+02  0.51170328052E+02  0.10566000000E+00 0.  1.
         22    1    1    0    0    0  0.76721237252E+01  0.24960943518E+02  0.15223033555E+02  0.30226659332E+02  0.00000000000E+00 0.  1.
</event>
<event>
 5    1  0.1255769E-009  0.9118800E+02  0.7561462E-02  0.1125453E+00
         25   -1    0    0    0    0  0.00000000000E+00  0.00000000000E+00  0.99999998245E-14  0.12509000000E+03  0.12509000000E+03 0.  0.
        -13    1    3    3    0    0  0.33601459644E+02 -0.13982927071E+02 -0.64171910002E+01  0.36956350524E+02  0.10566000000E+00 0. -1.
         23    2    1    0    0    0 -0.72832034054E+01  0.26062281551E+02  0.95868178932E+01  0.96381209555E+02  0.92006211239E+02 0.  0.
         13    1    3    3    0    0 -0.40884663049E+02  0.40045208622E+02  0.16004008893E+02  0.59424859031E+02  0.10566000000E+00 0.  1.
         22    1    1    0    0    0  0.72832034054E+01 -0.26062281551E+02 -0.95868178932E+01  0.28708790445E+02  0.00000000000E+00 0.  1.
</event>
<event>
 5    1  0.1255769E-009  0.9118800E+02  0.7561462E-02  0.1125453E+00
         25   -1    0    0    0    0  0.00000000000E+00  0.00000000000E+00  0.99999998245E-14  0.12509000000E+03  0.12509000000E+03 0.  0.
        -13    1    3    3    0    0 -0.33799738587E+02  0.48631957324E+01  0.14244888853E+02  0.37000013835E+02  0.10566000000E+00 0. -1.
         23    2    1    0    0    0  0.10725295239E+02  0.76650522197E+01 -0.25264446053E+02  0.96593031427E+02  0.92293751156E+02 0.  0.
         13    1    3    3    0    0  0.44525033826E+02  0.28018564873E+01 -0.39509334906E+02  0.59593017592E+02  0.10566000000E+00 0.  1.
         22    1    1    0    0    0 -0.10725295239E+02 -0.76650522197E+01  0.25264446053E+02  0.28496968573E+02  0.00000000000E+00 0.  1.
</event>
<event>
 5    1  0.1255769E-009  0.9118800E+02  0.7561462E-02  0.1125453E+00
         25   -1    0    0    0    0  0.00000000000E+00  0.00000000000E+00  0.99999998245E-14  0.12509000000E+03  0.12509000000E+03 0.  0.
        -13    1    3    3    0    0  0.48086468779E+02  0.37163646031E+02 -0.54313441753E+01  0.61016028464E+02  0.10566000000E+00 0. -1.
         23    2    1    0    0    0  0.25005645118E+02  0.12484741794E+02  0.56472371292E+01  0.96576102466E+02  0.92270803697E+02 0.  0.
         13    1    3    3    0    0 -0.23080823661E+02 -0.24678904237E+02  0.11078581305E+02  0.35560074001E+02  0.10566000000E+00 0.  1.
         22    1    1    0    0    0 -0.25005645118E+02 -0.12484741794E+02 -0.56472371292E+01  0.28513897534E+02  0.00000000000E+00 0. -1.
</event>
<event>
 5    1  0.1255769E-009  0.9118800E+02  0.7561462E-02  0.1125453E+00
         25   -1    0    0    0    0  0.00000000000E+00  0.00000000000E+00  0.99999998245E-14  0.12509000000E+03  0.12509000000E+03 0.  0.
        -13    1    3    3    0    0 -0.14036807283E+02 -0.48318806461E+02 -0.36762191848E+02  0.62315398820E+02  0.10566000000E+00 0. -1.
         23    2    1    0    0    0 -0.85068822243E+01 -0.20763823717E+02 -0.19951262681E+02  0.95064072819E+02  0.90197680890E+02 0.  0.
         13    1    3    3    0    0  0.55299250582E+01  0.27554982745E+02  0.16810929167E+02  0.32748673999E+02  0.10566000000E+00 0.  1.
         22    1    1    0    0    0  0.85068822243E+01  0.20763823717E+02  0.19951262681E+02  0.30025927181E+02  0.00000000000E+00 0. -1.
</event>
<event>
 5    1  0.1255769E-009  0.9118800E+02  0.7561462E-02  0.1125453E+00
         25   -1    0    0    0    0  0.00000000000E+00  0.00000000000E+00  0.99999998245E-14  0.12509000000E+03  0.12509000000E+03 0.  0.
        -13    1    3    3    0    0  0.96258552007E+01 -0.50092209655E+02  0.62942176762E+01  0.51395670018E+02  0.10566000000E+00 0.  1.
         23    2    1    0    0    0  0.11014854817E+02 -0.92239539603E+01  0.24916407166E+02  0.96328294568E+02  0.91934240819E+02 0.  0.
         13    1    3    3    0    0  0.13889996163E+01  0.40868255695E+02  0.18622189490E+02  0.44932624549E+02  0.10566000000E+00 0. -1.
         22    1    1    0    0    0 -0.11014854817E+02  0.92239539603E+01 -0.24916407166E+02  0.28761705432E+02  0.00000000000E+00 0. -1.
</event>
<event>
 5    1  0.1255769E-009  0.9118800E+02  0.7561462E-02  0.1125453E+00
         25   -1    0    0    0    0  0.00000000000E+00  0.00000000000E+00  0.99999998245E-14  0.12509000000E+03  0.12509000000E+03 0.  0.
        -13    1    3    3    0    0  0.27260619435E+02 -0.27553225646E+02 -0.37987722404E+01  0.38945647383E+02  0.10566000000E+00 0.  1.
         23    2    1    0    0    0  0.11028121228E+02  0.26126837464E+02  0.65773968126E+01  0.95978262805E+02  0.91456731236E+02 0.  0.
         13    1    3    3    0    0 -0.16232498207E+02  0.53680063110E+02  0.10376169053E+02  0.57032615422E+02  0.10566000000E+00 0. -1.
         22    1    1    0    0    0 -0.11028121228E+02 -0.26126837464E+02 -0.65773968126E+01  0.29111737195E+02  0.00000000000E+00 0. -1.
</event>
<event>
 5    1  0.1255769E-009  0.9118800E+02  0.7561462E-02  0.1125453E+00
         25   -1    0    0    0    0  0.00000000000E+00  0.00000000000E+00  0.99999998245E-14  0.12509000000E+03  0.12509000000E+03 0.  0.
        -13    1    3    3    0    0  0.71188007098E+01 -0.25315911367E+02  0.40637873371E+02  0.48404758114E+02  0.10566000000E+00 0.  1.
         23    2    1    0    0    0 -0.14220343354E-01  0.18144285843E+02  0.22872616434E+02  0.95894591225E+02  0.91342217691E+02 0.  0.
         13    1    3    3    0    0 -0.71330210531E+01  0.43460197210E+02 -0.17765256937E+02  0.47489833111E+02  0.10566000000E+00 0. -1.
         22    1    1    0    0    0  0.14220343354E-01 -0.18144285843E+02 -0.22872616434E+02  0.29195408775E+02  0.00000000000E+00 0.  1.
</event>
<event>
 5    1  0.1255769E-009  0.9118800E+02  0.7561462E-02  0.1125453E+00
         25   -1    0    0    0    0  0.00000000000E+00  0.00000000000E+00  0.99999998245E-14  0.12509000000E+03  0.12509000000E+03 0.  0.
        -13    1    3    3    0    0  0.28741541417E+02  0.28941109292E+02 -0.10523370861E+02  0.42123823525E+02  0.10566000000E+00 0.  1.
         23    2    1    0    0    0 -0.14985249752E+02  0.35016191957E+02 -0.64700898810E+01  0.86456420404E+02  0.77344419041E+02 0.  0.
         13    1    3    3    0    0 -0.43726791169E+02  0.60750826654E+01  0.40532809802E+01  0.44332596879E+02  0.10566000000E+00 0. -1.
         22    1    1    0    0    0  0.14985249752E+02 -0.35016191957E+02  0.64700898810E+01  0.38633579596E+02  0.00000000000E+00 0.  1.
</event>
<event>
 5    1  0.1255769E-009  0.9118800E+02  0.7561462E-02  0.1125453E+00
         25   -1    0    0    0    0  0.00000000000E+00  0.00000000000E+00  0.99999998245E-14  0.12509000000E+03  0.12509000000E+03 0.  0.
        -13    1    3    3    0    0 -0.52900833706E+01  0.25804329965E+01 -0.33987089088E+02  0.34493144322E+02  0.10566000000E+00 0. -1.
         23    2    1    0    0    0  0.14758308187E+02  0.27219614353E+01  0.24521047416E+02  0.96341113048E+02  0.91951680584E+02 0.  0.
         13    1    3    3    0    0  0.20048391558E+02  0.14152843875E+00  0.58508136504E+02  0.61847968726E+02  0.10566000000E+00 0.  1.
         22    1    1    0    0    0 -0.14758308187E+02 -0.27219614353E+01 -0.24521047416E+02  0.28748886952E+02  0.00000000000E+00 0.  1.
</event>
<event>
 5    1  0.1255769E-009  0.9118800E+02  0.7561462E-02  0.1125453E+00
         25   -1    0    0    0    0  0.00000000000E+00  0.00000000000E+00  0.99999998245E-14  0.12509000000E+03  0.12509000000E+03 0.  0.
        -13    1    3    3    0    0  0.13543571860E+02  0.12851569282E+02 -0.52906038359E+02  0.56103932399E+02  0.10566000000E+00 0.  1.
         23    2    1    0    0    0  0.15978291157E+02 -0.11562466877E+02 -0.24436164910E+02  0.93687411188E+02  0.88267822172E+02 0.  0.
         13    1    3    3    0    0  0.24347192973E+01 -0.24414036159E+02  0.28469873449E+02  0.37583478789E+02  0.10566000000E+00 0. -1.
         22    1    1    0    0    0 -0.15978291157E+02  0.11562466877E+02  0.24436164910E+02  0.31402588812E+02  0.00000000000E+00 0.  1.
</event>
<event>
 5    1  0.1255769E-009  0.9118800E+02  0.7561462E-02  0.1125453E+00
         25   -1    0    0    0    0  0.00000000000E+00  0.00000000000E+00  0.99999998245E-14  0.12509000000E+03  0.12509000000E+03 0.  0.
        -13    1    3    3    0    0 -0.49809993203E+02 -0.19239764502E+01  0.18258164925E+02  0.53085863078E+02  0.10566000000E+00 0.  1.
         23    2    1    0    0    0 -0.22816652366E+02 -0.16062499760E+02 -0.10778473708E+02  0.95177142912E+02  0.90354355256E+02 0.  0.
         13    1    3    3    0    0  0.26993340837E+02 -0.14138523310E+02 -0.29036638633E+02  0.42091279834E+02  0.10566000000E+00 0. -1.
         22    1    1    0    0    0  0.22816652366E+02  0.16062499760E+02  0.10778473708E+02  0.29912857088E+02  0.00000000000E+00 0.  1.
</event>
<event>
 5    1  0.1255769E-009  0.9118800E+02  0.7561462E-02  0.1125453E+00
         25   -1    0    0    0    0  0.00000000000E+00  0.00000000000E+00  0.99999998245E-14  0.12509000000E+03  0.12509000000E+03 0.  0.
        -13    1    3    3    0    0  0.38075516442E+02  0.40674175251E+02  0.13565568746E+02  0.57342561018E+02  0.10566000000E+00 0.  1.
         23    2    1    0    0    0  0.88543629589E+01  0.25199821934E+02  0.20855318832E+02  0.91202316508E+02  0.84672825888E+02 0.  0.
         13    1    3    3    0    0 -0.29221153483E+02 -0.15474353317E+02  0.72897500859E+01  0.33859755490E+02  0.10566000000E+00 0. -1.
         22    1    1    0    0    0 -0.88543629589E+01 -0.25199821934E+02 -0.20855318832E+02  0.33887683492E+02  0.00000000000E+00 0.  1.
</event>
<event>
 5    1  0.1255769E-009  0.9118800E+02  0.7561462E-02  0.1125453E+00
         25   -1    0    0    0    0  0.00000000000E+00  0.00000000000E+00  0.99999998245E-14  0.12509000000E+03  0.12509000000E+03 0.  0.
        -13    1    3    3    0    0  0.48272663812E+00  0.28617164180E+02  0.20803636759E+02  0.35383295171E+02  0.10566000000E+00 0. -1.
         23    2    1    0    0    0 -0.14930344591E+02 -0.16961819499E+02 -0.17196253713E+02  0.96694055710E+02  0.92430572635E+02 0.  0.
         13    1    3    3    0    0 -0.15413071229E+02 -0.45578983680E+02 -0.37999890472E+02  0.61310760539E+02  0.10566000000E+00 0.  1.
         22    1    1    0    0    0  0.14930344591E+02  0.16961819499E+02  0.17196253713E+02  0.28395944290E+02  0.00000000000E+00 0.  1.
</event>
<event>
 5    1  0.1255769E-009  0.9118800E+02  0.7561462E-02  0.1125453E+00
         25   -1    0    0    0    0  0.00000000000E+00  0.00000000000E+00  0.99999998245E-14  0.12509000000E+03  0.12509000000E+03 0.  0.
        -13    1    3    3    0    0  0.37428107269E+02  0.18503302459E+01  0.63072714459E+01  0.38001049628E+02  0.10566000000E+00 0.  1.
         23    2    1    0    0    0 -0.48798662762E+01 -0.22044168304E+02 -0.21439486081E+02  0.93954650082E+02  0.88645734570E+02 0.  0.
         13    1    3    3    0    0 -0.42307973545E+02 -0.23894498550E+02 -0.27746757527E+02  0.55953600454E+02  0.10566000000E+00 0. -1.
         22    1    1    0    0    0  0.48798662762E+01  0.22044168304E+02  0.21439486081E+02  0.31135349918E+02  0.00000000000E+00 0. -1.
</event>
<event>
 5    1  0.1255769E-009  0.9118800E+02  0.7561462E-02  0.1125453E+00
         25   -1    0    0    0    0  0.00000000000E+00  0.00000000000E+00  0.99999998245E-14  0.12509000000E+03  0.12509000000E+03 0.  0.
        -13    1    3    3    0    0  0.10110411524E+02  0.28611157570E+01 -0.58812643610E+02  0.59743992309E+02  0.10566000000E+00 0. -1.
         23    2    1    0    0    0 -0.64956813247E+01 -0.61411556094E+01 -0.25883361278E+02  0.97706500240E+02  0.93790746505E+02 0.  0.
         13    1    3    3    0    0 -0.16606092849E+02 -0.90022713664E+01  0.32929282332E+02  0.37962507931E+02  0.10566000000E+00 0.  1.
         22    1    1    0    0    0  0.64956813247E+01  0.61411556094E+01  0.25883361278E+02  0.27383499760E+02  0.00000000000E+00 0. -1.
</event>
<event>
 5    1  0.1255769E-009  0.9118800E+02  0.7561462E-02  0.1125453E+00
         25   -1    0    0    0    0  0.00000000000E+00  0.00000000000E+00  0.99999998245E-14  0.12509000000E+03  0.12509000000E+03 0.  0.
        -13    1    3    3    0    0  0.34704899034E+02  0.44125320767E+02  0.83195009725E+01  0.56751204483E+02  0.10566000000E+00 0.  1.
         23    2    1    0    0    0  0.27496842414E+02  0.49836603426E+01  0.17428215823E+01  0.97090881438E+02  0.92966061647E+02 0.  0.
         13    1    3    3    0    0 -0.72080566192E+01 -0.39141660425E+02 -0.65766793901E+01  0.40339676956E+02  0.10566000000E+00 0. -1.
         22    1    1    0    0    0 -0.27496842414E+02 -0.49836603426E+01 -0.17428215823E+01  0.27999118562E+02  0.00000000000E+00 0.  1.
</event>
<event>
 5    1  0.1255769E-009  0.9118800E+02  0.7561462E-02  0.1125453E+00
         25   -1    0    0    0    0  0.00000000000E+00  0.00000000000E+00  0.99999998245E-14  0.12509000000E+03  0.12509000000E+03 0.  0.
        -13    1    3    3    0    0  0.26378464018E+02  0.52472775070E+02 -0.62687728942E+01  0.59063729692E+02  0.10566000000E+00 0. -1.
         23    2    1    0    0    0  0.29728889402E+02  0.28755016044E+02 -0.75285160646E+01  0.83050300109E+02  0.71624129881E+02 0.  0.
         13    1    3    3    0    0  0.33504253845E+01 -0.23717759026E+02 -0.12597431704E+01  0.23986570417E+02  0.10566000000E+00 0.  1.
         22    1    1    0    0    0 -0.29728889402E+02 -0.28755016044E+02  0.75285160646E+01  0.42039699891E+02  0.00000000000E+00 0. -1.
</event>
<event>
 5    1  0.1255769E-009  0.9118800E+02  0.7561462E-02  0.1125453E+00
         25   -1    0    0    0    0  0.00000000000E+00  0.00000000000E+00  0.99999998245E-14  0.12509000000E+03  0.12509000000E+03 0.  0.
        -13    1    3    3    0    0  0.20393244290E+02  0.30048704578E+02 -0.69225176631E+01  0.36969466784E+02  0.10566000000E+00 0. -1.
         23    2    1    0    0    0  0.17972496254E+02 -0.25108693398E+02 -0.10952625651E+02  0.92326955049E+02  0.86318303472E+02 0.  0.
         13    1    3    3    0    0 -0.24207480355E+01 -0.55157397976E+02 -0.40301079879E+01  0.55357488265E+02  0.10566000000E+00 0.  1.
         22    1    1    0    0    0 -0.17972496254E+02  0.25108693398E+02  0.10952625651E+02  0.32763044951E+02  0.00000000000E+00 0.  1.
</event>
<event>
 5    1  0.1255769E-009  0.9118800E+02  0.7561462E-02  0.1125453E+00
         25   -1    0    0    0    0  0.00000000000E+00  0.00000000000E+00  0.99999998245E-14  0.12509000000E+03  0.12509000000E+03 0.  0.
        -13    1    3    3    0    0  0.35653595179E+01  0.34730225349E+02  0.36129391129E+02  0.50241859129E+02  0.10566000000E+00 0.  1.
         23    2    1    0    0    0  0.26653562792E+02  0.10185713050E+02  0.49910987971E+01  0.96123256534E+02  0.91654831949E+02 0.  0.
         13    1    3    3    0    0  0.23088203274E+02 -0.24544512300E+02 -0.31138292332E+02  0.45881397405E+02  0.10566000000E+00 0. -1.
         22    1    1    0    0    0 -0.26653562792E+02 -0.10185713050E+02 -0.49910987971E+01  0.28966743466E+02  0.00000000000E+00 0. -1.
</event>
<event>
 5    1  0.1255769E-009  0.9118800E+02  0.7561462E-02  0.1125453E+00
         25   -1    0    0    0    0  0.00000000000E+00  0.00000000000E+00  0.99999998245E-14  0.12509000000E+03  0.12509000000E+03 0.  0.
        -13    1    3    3    0    0 -0.10034628316E+02 -0.21697707064E+02  0.35746243808E+02  0.43003364609E+02  0.10566000000E+00 0.  1.
         23    2    1    0    0    0 -0.14892117107E+02 -0.17597030627E+02 -0.17198566217E+02  0.96328544565E+02  0.91934580976E+02 0.  0.
         13    1    3    3    0    0 -0.48574887915E+01  0.41006764369E+01 -0.52944810026E+02  0.53325179956E+02  0.10566000000E+00 0. -1.
         22    1    1    0    0    0  0.14892117107E+02  0.17597030627E+02  0.17198566217E+02  0.28761455435E+02  0.00000000000E+00 0.  1.
</event>
<event>
 5    1  0.1255769E-009  0.9118800E+02  0.7561462E-02  0.1125453E+00
         25   -1    0    0    0    0  0.00000000000E+00  0.00000000000E+00  0.99999998245E-14  0.12509000000E+03  0.12509000000E+03 0.  0.
        -13    1    3    3    0    0 -0.23912604122E+02 -0.98900590640E+01 -0.22345813434E+02  0.34190239049E+02  0.10566000000E+00 0.  1.
         23    2    1    0    0    0  0.28087912643E+02  0.13066595263E+02 -0.43859310310E+01  0.93802572183E+02  0.88430873617E+02 0.  0.
         13    1    3    3    0    0  0.52000516764E+02  0.22956654327E+02  0.17959882403E+02  0.59612333134E+02  0.10566000000E+00 0. -1.
         22    1    1    0    0    0 -0.28087912643E+02 -0.13066595263E+02  0.43859310310E+01  0.31287427817E+02  0.00000000000E+00 0. -1.
</event>
<event>
 5    1  0.1255769E-009  0.9118800E+02  0.7561462E-02  0.1125453E+00
         25   -1    0    0    0    0  0.00000000000E+00  0.00000000000E+00  0.99999998245E-14  0.12509000000E+03  0.12509000000E+03 0.  0.
        -13    1    3    3    0    0  0.23070029923E+02 -0.33716399471E+01  0.51632066684E+02  0.56652234825E+02  0.10566000000E+00 0.  1.
         23    2    1    0    0    0  0.22680516191E+02  0.12073619023E+02  0.17837200944E+02  0.93811511728E+02  0.88443518158E+02 0.  0.
         13    1    3    3    0    0 -0.38951373109E+00  0.15445258970E+02 -0.33794865740E+02  0.37159276904E+02  0.10566000000E+00 0. -1.
         22    1    1    0    0    0 -0.22680516191E+02 -0.12073619023E+02 -0.17837200944E+02  0.31278488272E+02  0.00000000000E+00 0.  1.
</event>
<event>
 5    1  0.1255769E-009  0.9118800E+02  0.7561462E-02  0.1125453E+00
         25   -1    0    0    0    0  0.00000000000E+00  0.00000000000E+00  0.99999998245E-14  0.12509000000E+03  0.12509000000E+03 0.  0.
        -13    1    3    3    0    0 -0.22259144006E+02 -0.25702537302E+02  0.11784618794E+01  0.34021902534E+02  0.10566000000E+00 0. -1.
         23    2    1    0    0    0  0.10583871144E+02  0.24081530725E+02  0.14385937551E+02  0.95108444842E+02  0.90259196931E+02 0.  0.
         13    1    3    3    0    0  0.32843015150E+02  0.49784068027E+02  0.13207475671E+02  0.61086542308E+02  0.10566000000E+00 0.  1.
         22    1    1    0    0    0 -0.10583871144E+02 -0.24081530725E+02 -0.14385937551E+02  0.29981555158E+02  0.00000000000E+00 0.  1.
</event>
<event>
 5    1  0.1255769E-009  0.9118800E+02  0.7561462E-02  0.1125453E+00
         25   -1    0    0    0    0  0.00000000000E+00  0.00000000000E+00  0.99999998245E-14  0.12509000000E+03  0.12509000000E+03 0.  0.
        -13    1    3    3    0    0 -0.37140831375E+02 -0.11128005010E+02 -0.41466869161E+02  0.56769589155E+02  0.10566000000E+00 0. -1.
         23    2    1    0    0    0 -0.28342570102E+02 -0.10229215729E+02 -0.46898611552E+01  0.94595198278E+02  0.89545064662E+02 0.  0.
         13    1    3    3    0    0  0.87982612738E+01  0.89878928117E+00  0.36777008006E+02  0.37825609123E+02  0.10566000000E+00 0.  1.
         22    1    1    0    0    0  0.28342570102E+02  0.10229215729E+02  0.46898611552E+01  0.30494801722E+02  0.00000000000E+00 0. -1.
</event>
<event>
 5    1  0.1255769E-009  0.9118800E+02  0.7561462E-02  0.1125453E+00
         25   -1    0    0    0    0  0.00000000000E+00  0.00000000000E+00  0.99999998245E-14  0.12509000000E+03  0.12509000000E+03 0.  0.
        -13    1    3    3    0    0 -0.25003896975E+02  0.28915538026E+01 -0.52798431037E+02  0.58491379120E+02  0.10566000000E+00 0.  1.
         23    2    1    0    0    0 -0.24227539741E+02  0.55566336205E+01 -0.15707176007E+02  0.95686509778E+02  0.91056811477E+02 0.  0.
         13    1    3    3    0    0  0.77635723398E+00  0.26650798179E+01  0.37091255030E+02  0.37195130659E+02  0.10566000000E+00 0. -1.
         22    1    1    0    0    0  0.24227539741E+02 -0.55566336205E+01  0.15707176007E+02  0.29403490222E+02  0.00000000000E+00 0.  1.
</event>
<event>
 5    1  0.1255769E-009  0.9118800E+02  0.7561462E-02  0.1125453E+00
         25   -1    0    0    0    0  0.00000000000E+00  0.00000000000E+00  0.99999998245E-14  0.12509000000E+03  0.12509000000E+03 0.  0.
        -13    1    3    3    0    0  0.31449595113E+02  0.52900088454E+02  0.28513526511E+01  0.61608747489E+02  0.10566000000E+00 0.  1.
         23    2    1    0    0    0  0.21417918736E+02  0.21452481685E+02 -0.36235672570E+00  0.94773873667E+02  0.89794318383E+02 0.  0.
         13    1    3    3    0    0 -0.10031676377E+02 -0.31447606768E+02 -0.32137093768E+01  0.33165126178E+02  0.10566000000E+00 0. -1.
         22    1    1    0    0    0 -0.21417918736E+02 -0.21452481685E+02  0.36235672570E+00  0.30316126333E+02  0.00000000000E+00 0.  1.
</event>
<event>
 5    1  0.1255769E-009  0.9118800E+02  0.7561462E-02  0.1125453E+00
         25   -1    0    0    0    0  0.00000000000E+00  0.00000000000E+00  0.99999998245E-14  0.12509000000E+03  0.12509000000E+03 0.  0.
        -13    1    3    3    0    0  0.24206133647E+02 -0.31919917435E+02  0.40327826720E+02  0.56843318053E+02  0.10566000000E+00 0. -1.
         23    2    1    0    0    0  0.26170430127E+02 -0.49003062649E+01  0.12513326643E+02  0.95670826691E+02  0.91035264164E+02 0.  0.
         13    1    3    3    0    0  0.19642964801E+01  0.27019611170E+02 -0.27814500077E+02  0.38827508638E+02  0.10566000000E+00 0.  1.
         22    1    1    0    0    0 -0.26170430127E+02  0.49003062649E+01 -0.12513326643E+02  0.29419173309E+02  0.00000000000E+00 0. -1.
</event>
<event>
 5    1  0.1255769E-009  0.9118800E+02  0.7561462E-02  0.1125453E+00
         25   -1    0    0    0    0  0.00000000000E+00  0.00000000000E+00  0.99999998245E-14  0.12509000000E+03  0.12509000000E+03 0.  0.
        -13    1    3    3    0    0 -0.21398334050E+02 -0.21277089324E+02 -0.20446476496E+02  0.36450964258E+02  0.10566000000E+00 0. -1.
         23    2    1    0    0    0  0.21681331803E+02  0.17598674006E+02 -0.10106965456E+02  0.95392454205E+02  0.90651950299E+02 0.  0.
         13    1    3    3    0    0  0.43079665854E+02  0.38875763330E+02  0.10339511040E+02  0.58941489947E+02  0.10566000000E+00 0.  1.
         22    1    1    0    0    0 -0.21681331803E+02 -0.17598674006E+02  0.10106965456E+02  0.29697545795E+02  0.00000000000E+00 0.  1.
</event>
<event>
 5    1  0.1255769E-009  0.9118800E+02  0.7561462E-02  0.1125453E+00
         25   -1    0    0    0    0  0.00000000000E+00  0.00000000000E+00  0.99999998245E-14  0.12509000000E+03  0.12509000000E+03 0.  0.
        -13    1    3    3    0    0  0.17065679323E+02  0.34673471206E+02 -0.39116864568E+02  0.54987519256E+02  0.10566000000E+00 0.  1.
         23    2    1    0    0    0  0.61250278386E+01  0.30202034798E+02 -0.17006203296E+01  0.94226251338E+02  0.89028172281E+02 0.  0.
         13    1    3    3    0    0 -0.10940651485E+02 -0.44714364076E+01  0.37416244239E+02  0.39238732082E+02  0.10566000000E+00 0. -1.
         22    1    1    0    0    0 -0.61250278386E+01 -0.30202034798E+02  0.17006203296E+01  0.30863748662E+02  0.00000000000E+00 0.  1.
</event>
<event>
 5    1  0.1255769E-009  0.9118800E+02  0.7561462E-02  0.1125453E+00
         25   -1    0    0    0    0  0.00000000000E+00  0.00000000000E+00  0.99999998245E-14  0.12509000000E+03  0.12509000000E+03 0.  0.
        -13    1    3    3    0    0 -0.15626793614E+02 -0.14650948191E+02 -0.45211821121E+02  0.50029660149E+02  0.10566000000E+00 0.  1.
         23    2    1    0    0    0 -0.23926333910E+02 -0.94392820093E+00  0.31144532603E+01  0.10094335895E+03  0.98012761631E+02 0.  0.
         13    1    3    3    0    0 -0.82995402958E+01  0.13707019990E+02  0.48326274381E+02  0.50913698802E+02  0.10566000000E+00 0. -1.
         22    1    1    0    0    0  0.23926333910E+02  0.94392820093E+00 -0.31144532603E+01  0.24146641048E+02  0.00000000000E+00 0. -1.
</event>
<event>
 5    1  0.1255769E-009  0.9118800E+02  0.7561462E-02  0.1125453E+00
         25   -1    0    0    0    0  0.00000000000E+00  0.00000000000E+00  0.99999998245E-14  0.12509000000E+03  0.12509000000E+03 0.  0.
        -13    1    3    3    0    0  0.33097366828E+02 -0.94042505878E+00 -0.63051351657E+01  0.33705874618E+02  0.10566000000E+00 0. -1.
         23    2    1    0    0    0 -0.23374254447E+02  0.17461937420E+02  0.80754318919E+01  0.94816453302E+02  0.89853615326E+02 0.  0.
         13    1    3    3    0    0 -0.56471621275E+02  0.18402362479E+02  0.14380567058E+02  0.61110578685E+02  0.10566000000E+00 0.  1.
         22    1    1    0    0    0  0.23374254447E+02 -0.17461937420E+02 -0.80754318919E+01  0.30273546698E+02  0.00000000000E+00 0.  1.
</event>
<event>
 5    1  0.1255769E-009  0.9118800E+02  0.7561462E-02  0.1125453E+00
         25   -1    0    0    0    0  0.00000000000E+00  0.00000000000E+00  0.99999998245E-14  0.12509000000E+03  0.12509000000E+03 0.  0.
        -13    1    3    3    0    0 -0.32109370043E+02  0.17803872118E+02  0.11143374480E+02  0.38368938815E+02  0.10566000000E+00 0. -1.
         23    2    1    0    0    0  0.18303652685E+02  0.20473224269E+02 -0.13434578572E+02  0.94517716556E+02  0.89436761055E+02 0.  0.
         13    1    3    3    0    0  0.50413022728E+02  0.26693521515E+01 -0.24577953052E+02  0.56148777741E+02  0.10566000000E+00 0.  1.
         22    1    1    0    0    0 -0.18303652685E+02 -0.20473224269E+02  0.13434578572E+02  0.30572283444E+02  0.00000000000E+00 0.  1.
</event>
<event>
 5    1  0.1255769E-009  0.9118800E+02  0.7561462E-02  0.1125453E+00
         25   -1    0    0    0    0  0.00000000000E+00  0.00000000000E+00  0.99999998245E-14  0.12509000000E+03  0.12509000000E+03 0.  0.
        -13    1    3    3    0    0 -0.19163553094E+01  0.58607499021E+02 -0.15790762389E+02  0.60727841227E+02  0.10566000000E+00 0.  1.
         23    2    1    0    0    0 -0.10250797445E+02  0.24081394225E+02 -0.11494701615E+02  0.96504679269E+02  0.92173925595E+02 0.  0.
         13    1    3    3    0    0 -0.83344421353E+01 -0.34526104796E+02  0.42960607742E+01  0.35776838042E+02  0.10566000000E+00 0. -1.
         22    1    1    0    0    0  0.10250797445E+02 -0.24081394225E+02  0.11494701615E+02  0.28585320731E+02  0.00000000000E+00 0.  1.
</event>
<event>
 5    1  0.1255769E-009  0.9118800E+02  0.7561462E-02  0.1125453E+00
         25   -1    0    0    0    0  0.00000000000E+00  0.00000000000E+00  0.99999998245E-14  0.12509000000E+03  0.12509000000E+03 0.  0.
        -13    1    3    3    0    0  0.49031175918E+02  0.12678182140E+02  0.19700321907E+01  0.50682193176E+02  0.10566000000E+00 0. -1.
         23    2    1    0    0    0  0.23489333868E+02 -0.10525191481E+02  0.22557487669E+02  0.90864735776E+02  0.84172629141E+02 0.  0.
         13    1    3    3    0    0 -0.25541842050E+02 -0.23203373622E+02  0.20587455478E+02  0.40182542600E+02  0.10566000000E+00 0.  1.
         22    1    1    0    0    0 -0.23489333868E+02  0.10525191481E+02 -0.22557487669E+02  0.34225264224E+02  0.00000000000E+00 0.  1.
</event>
<event>
 5    1  0.1255769E-009  0.9118800E+02  0.7561462E-02  0.1125453E+00
         25   -1    0    0    0    0  0.00000000000E+00  0.00000000000E+00  0.99999998245E-14  0.12509000000E+03  0.12509000000E+03 0.  0.
        -13    1    3    3    0    0  0.12182534055E+02 -0.52581753360E+01 -0.57893272865E+02  0.59394484179E+02  0.10566000000E+00 0.  1.
         23    2    1    0    0    0 -0.19954615780E+01 -0.14112011550E+02 -0.24242259531E+02  0.96968515614E+02  0.92801266889E+02 0.  0.
         13    1    3    3    0    0 -0.14177995633E+02 -0.88538362142E+01  0.33651013333E+02  0.37574031435E+02  0.10566000000E+00 0. -1.
         22    1    1    0    0    0  0.19954615780E+01  0.14112011550E+02  0.24242259531E+02  0.28121484386E+02  0.00000000000E+00 0.  1.
</event>
<event>
 5    1  0.1255769E-009  0.9118800E+02  0.7561462E-02  0.1125453E+00
         25   -1    0    0    0    0  0.00000000000E+00  0.00000000000E+00  0.99999998245E-14  0.12509000000E+03  0.12509000000E+03 0.  0.
        -13    1    3    3    0    0 -0.47008022631E+01 -0.51611358875E+02  0.12899471721E+02  0.53406342709E+02  0.10566000000E+00 0. -1.
         23    2    1    0    0    0 -0.15826680986E+02 -0.20927593680E+02 -0.13680935529E+02  0.95499190528E+02  0.90799115559E+02 0.  0.
         13    1    3    3    0    0 -0.11125878723E+02  0.30683765196E+02 -0.26580407249E+02  0.42092847819E+02  0.10566000000E+00 0.  1.
         22    1    1    0    0    0  0.15826680986E+02  0.20927593680E+02  0.13680935529E+02  0.29590809472E+02  0.00000000000E+00 0. -1.
</event>
<event>
 5    1  0.1255769E-009  0.9118800E+02  0.7561462E-02  0.1125453E+00
         25   -1    0    0    0    0  0.00000000000E+00  0.00000000000E+00  0.99999998245E-14  0.12509000000E+03  0.12509000000E+03 0.  0.
        -13    1    3    3    0    0  0.91144715774E+01  0.29406688050E+02  0.51949308274E+02  0.60386825454E+02  0.10566000000E+00 0.  1.
         23    2    1    0    0    0 -0.42501155992E+01  0.48693859628E+01  0.25223118365E+02  0.99051948953E+02  0.95568344598E+02 0.  0.
         13    1    3    3    0    0 -0.13364587177E+02 -0.24537302087E+02 -0.26726189909E+02  0.38665123500E+02  0.10566000000E+00 0. -1.
         22    1    1    0    0    0  0.42501155992E+01 -0.48693859628E+01 -0.25223118365E+02  0.26038051047E+02  0.00000000000E+00 0.  1.
</event>
<event>
 5    1  0.1255769E-009  0.9118800E+02  0.7561462E-02  0.1125453E+00
         25   -1    0    0    0    0  0.00000000000E+00  0.00000000000E+00  0.99999998245E-14  0.12509000000E+03  0.12509000000E+03 0.  0.
        -13    1    3    3    0    0  0.11148892339E+02  0.21314232202E+02 -0.51056112972E+02  0.56438746713E+02  0.10566000000E+00 0. -1.
         23    2    1    0    0    0  0.16774499121E+02 -0.59695319004E+01 -0.23321755806E+02  0.95748503348E+02  0.91141935835E+02 0.  0.
         13    1    3    3    0    0  0.56256067823E+01 -0.27283764102E+02  0.27734357166E+02  0.39309756635E+02  0.10566000000E+00 0.  1.
         22    1    1    0    0    0 -0.16774499121E+02  0.59695319004E+01  0.23321755806E+02  0.29341496652E+02  0.00000000000E+00 0. -1.
</event>
<event>
 5    1  0.1255769E-009  0.9118800E+02  0.7561462E-02  0.1125453E+00
         25   -1    0    0    0    0  0.00000000000E+00  0.00000000000E+00  0.99999998245E-14  0.12509000000E+03  0.12509000000E+03 0.  0.
        -13    1    3    3    0    0  0.33289817368E+02 -0.19513895172E+02  0.42653129177E+02  0.57517863641E+02  0.10566000000E+00 0. -1.
         23    2    1    0    0    0  0.28356075967E+01 -0.21545567010E+02  0.20324370639E+02  0.95335468074E+02  0.90573281396E+02 0.  0.
         13    1    3    3    0    0 -0.30454209771E+02 -0.20316718376E+01 -0.22328758538E+02  0.37817604434E+02  0.10566000000E+00 0.  1.
         22    1    1    0    0    0 -0.28356075967E+01  0.21545567010E+02 -0.20324370639E+02  0.29754531926E+02  0.00000000000E+00 0.  1.
</event>
<event>
 5    1  0.1255769E-009  0.9118800E+02  0.7561462E-02  0.1125453E+00
         25   -1    0    0    0    0  0.00000000000E+00  0.00000000000E+00  0.99999998245E-14  0.12509000000E+03  0.12509000000E+03 0.  0.
        -13    1    3    3    0    0  0.60579696466E+02 -0.69493139892E+01 -0.34771048571E+01  0.61076132909E+02  0.10566000000E+00 0. -1.
         23    2    1    0    0    0  0.27768394602E+02 -0.18537643001E+00 -0.10671059685E+02  0.95341224933E+02  0.90581231797E+02 0.  0.
         13    1    3    3    0    0 -0.32811301864E+02  0.67639375592E+01 -0.71939548283E+01  0.34265092025E+02  0.10566000000E+00 0.  1.
         22    1    1    0    0    0 -0.27768394602E+02  0.18537643001E+00  0.10671059685E+02  0.29748775067E+02  0.00000000000E+00 0. -1.
</event>
<event>
 5    1  0.1255769E-009  0.9118800E+02  0.7561462E-02  0.1125453E+00
         25   -1    0    0    0    0  0.00000000000E+00  0.00000000000E+00  0.99999998245E-14  0.12509000000E+03  0.12509000000E+03 0.  0.
        -13    1    3    3    0    0  0.28758406629E+02 -0.32061989125E+02  0.32217074798E+02  0.53786319553E+02  0.10566000000E+00 0. -1.
         23    2    1    0    0    0  0.31066081945E+02 -0.54448292500E+01  0.29523429895E+01  0.93412501012E+02  0.87877365705E+02 0.  0.
         13    1    3    3    0    0  0.23076753168E+01  0.26617159875E+02 -0.29264731808E+02  0.39626181459E+02  0.10566000000E+00 0.  1.
         22    1    1    0    0    0 -0.31066081945E+02  0.54448292500E+01 -0.29523429895E+01  0.31677498988E+02  0.00000000000E+00 0. -1.
</event>
<event>
 5    1  0.1255769E-009  0.9118800E+02  0.7561462E-02  0.1125453E+00
         25   -1    0    0    0    0  0.00000000000E+00  0.00000000000E+00  0.99999998245E-14  0.12509000000E+03  0.12509000000E+03 0.  0.
        -13    1    3    3    0    0  0.81882863072E+01 -0.28494939501E+02  0.54943011987E+02  0.62432005734E+02  0.10566000000E+00 0. -1.
         23    2    1    0    0    0  0.37944319809E+01 -0.12891326519E+02  0.30485139959E+02  0.91774421485E+02  0.85513839038E+02 0.  0.
         13    1    3    3    0    0 -0.43938543263E+01  0.15603612981E+02 -0.24457872028E+02  0.29342415750E+02  0.10566000000E+00 0.  1.
         22    1    1    0    0    0 -0.37944319809E+01  0.12891326519E+02 -0.30485139959E+02  0.33315578515E+02  0.00000000000E+00 0. -1.
</event>
<event>
 5    1  0.1255769E-009  0.9118800E+02  0.7561462E-02  0.1125453E+00
         25   -1    0    0    0    0  0.00000000000E+00  0.00000000000E+00  0.99999998245E-14  0.12509000000E+03  0.12509000000E+03 0.  0.
        -13    1    3    3    0    0  0.20261841527E+02  0.26186283918E+02 -0.12340263752E+02  0.35334925513E+02  0.10566000000E+00 0. -1.
         23    2    1    0    0    0 -0.27684160944E+02 -0.92354509846E+01 -0.19906818158E+01  0.95838177217E+02  0.91264927963E+02 0.  0.
         13    1    3    3    0    0 -0.47946002471E+02 -0.35421734902E+02  0.10349581936E+02  0.60503251704E+02  0.10566000000E+00 0.  1.
         22    1    1    0    0    0  0.27684160944E+02  0.92354509846E+01  0.19906818158E+01  0.29251822783E+02  0.00000000000E+00 0.  1.
</event>
<event>
 5    1  0.1255769E-009  0.9118800E+02  0.7561462E-02  0.1125453E+00
         25   -1    0    0    0    0  0.00000000000E+00  0.00000000000E+00  0.99999998245E-14  0.12509000000E+03  0.12509000000E+03 0.  0.
        -13    1    3    3    0    0 -0.62284167544E+01 -0.48155277540E+02  0.32629146127E+02  0.58501250168E+02  0.10566000000E+00 0.  1.
         23    2    1    0    0    0 -0.14138307174E+02 -0.12946349867E+02  0.21543269508E+02  0.96252313447E+02  0.91830799181E+02 0.  0.
         13    1    3    3    0    0 -0.79098904198E+01  0.35208927673E+02 -0.11085876619E+02  0.37751063280E+02  0.10566000000E+00 0. -1.
         22    1    1    0    0    0  0.14138307174E+02  0.12946349867E+02 -0.21543269508E+02  0.28837686553E+02  0.00000000000E+00 0.  1.
</event>
<event>
 5    1  0.1255769E-009  0.9118800E+02  0.7561462E-02  0.1125453E+00
         25   -1    0    0    0    0  0.00000000000E+00  0.00000000000E+00  0.99999998245E-14  0.12509000000E+03  0.12509000000E+03 0.  0.
        -13    1    3    3    0    0 -0.54177612216E+02 -0.16444434233E+02 -0.24073122222E+02  0.61523649601E+02  0.10566000000E+00 0.  1.
         23    2    1    0    0    0 -0.21052154300E+02 -0.13067431996E+02 -0.15342391214E+02  0.95946562526E+02  0.91413362878E+02 0.  0.
         13    1    3    3    0    0  0.33125457916E+02  0.33770022367E+01  0.87307310074E+01  0.34422912925E+02  0.10566000000E+00 0. -1.
         22    1    1    0    0    0  0.21052154300E+02  0.13067431996E+02  0.15342391214E+02  0.29143437474E+02  0.00000000000E+00 0.  1.
</event>
<event>
 5    1  0.1255769E-009  0.9118800E+02  0.7561462E-02  0.1125453E+00
         25   -1    0    0    0    0  0.00000000000E+00  0.00000000000E+00  0.99999998245E-14  0.12509000000E+03  0.12509000000E+03 0.  0.
        -13    1    3    3    0    0 -0.31627881796E+02  0.31251872133E+02  0.12643317838E+02  0.46226259514E+02  0.10566000000E+00 0.  1.
         23    2    1    0    0    0  0.13451280986E+02  0.10937545320E+02  0.22541772801E+02  0.96652377406E+02  0.92374150494E+02 0.  0.
         13    1    3    3    0    0  0.45079162781E+02 -0.20314326813E+02  0.98984549637E+01  0.50426117892E+02  0.10566000000E+00 0. -1.
         22    1    1    0    0    0 -0.13451280986E+02 -0.10937545320E+02 -0.22541772801E+02  0.28437622594E+02  0.00000000000E+00 0. -1.
</event>
<event>
 5    1  0.1255769E-009  0.9118800E+02  0.7561462E-02  0.1125453E+00
         25   -1    0    0    0    0  0.00000000000E+00  0.00000000000E+00  0.99999998245E-14  0.12509000000E+03  0.12509000000E+03 0.  0.
        -13    1    3    3    0    0  0.33422983092E+02  0.25433316042E+02  0.12653066417E+00  0.41999720686E+02  0.10566000000E+00 0.  1.
         23    2    1    0    0    0 -0.80233894077E+01  0.12830104121E+02 -0.27727402126E+02  0.93502103932E+02  0.88004819537E+02 0.  0.
         13    1    3    3    0    0 -0.41446372500E+02 -0.12603211921E+02 -0.27853932790E+02  0.51502383246E+02  0.10566000000E+00 0. -1.
         22    1    1    0    0    0  0.80233894077E+01 -0.12830104121E+02  0.27727402126E+02  0.31587896068E+02  0.00000000000E+00 0. -1.
</event>
<event>
 5    1  0.1255769E-009  0.9118800E+02  0.7561462E-02  0.1125453E+00
         25   -1    0    0    0    0  0.00000000000E+00  0.00000000000E+00  0.99999998245E-14  0.12509000000E+03  0.12509000000E+03 0.  0.
        -13    1    3    3    0    0 -0.20302683696E+01 -0.53661930907E+02 -0.11854014673E+02  0.54993214548E+02  0.10566000000E+00 0. -1.
         23    2    1    0    0    0  0.18798100882E+02 -0.16972497627E+02 -0.11720723661E+02  0.97182838991E+02  0.93089712422E+02 0.  0.
         13    1    3    3    0    0  0.20828369251E+02  0.36689433281E+02  0.13329101226E+00  0.42189624443E+02  0.10566000000E+00 0.  1.
         22    1    1    0    0    0 -0.18798100882E+02  0.16972497627E+02  0.11720723661E+02  0.27907161009E+02  0.00000000000E+00 0.  1.
</event>
<event>
 5    1  0.1255769E-009  0.9118800E+02  0.7561462E-02  0.1125453E+00
         25   -1    0    0    0    0  0.00000000000E+00  0.00000000000E+00  0.99999998245E-14  0.12509000000E+03  0.12509000000E+03 0.  0.
        -13    1    3    3    0    0  0.58437722700E+02  0.98273061264E+01  0.16676057702E+02  0.61560096204E+02  0.10566000000E+00 0.  1.
         23    2    1    0    0    0  0.28910185559E+02 -0.25667760346E+01  0.50417615274E+01  0.95631443899E+02  0.90981132850E+02 0.  0.
         13    1    3    3    0    0 -0.29527537142E+02 -0.12394082161E+02 -0.11634296174E+02  0.34071347695E+02  0.10566000000E+00 0. -1.
         22    1    1    0    0    0 -0.28910185559E+02  0.25667760346E+01 -0.50417615274E+01  0.29458556101E+02  0.00000000000E+00 0.  1.
</event>
<event>
 5    1  0.1255769E-009  0.9118800E+02  0.7561462E-02  0.1125453E+00
         25   -1    0    0    0    0  0.00000000000E+00  0.00000000000E+00  0.99999998245E-14  0.12509000000E+03  0.12509000000E+03 0.  0.
        -13    1    3    3    0    0 -0.18704434495E+02 -0.40156364210E+02  0.42464312590E+02  0.61364635289E+02  0.10566000000E+00 0.  1.
         23    2    1    0    0    0 -0.78692858123E+00 -0.21801432927E+02  0.20963791343E+02  0.94834384294E+02  0.89878574548E+02 0.  0.
         13    1    3    3    0    0  0.17917505914E+02  0.18354931283E+02 -0.21500521247E+02  0.33469749005E+02  0.10566000000E+00 0. -1.
         22    1    1    0    0    0  0.78692858123E+00  0.21801432927E+02 -0.20963791343E+02  0.30255615706E+02  0.00000000000E+00 0.  1.
</event>
<event>
 4    1  0.1255769E-009  0.9118800E+02  0.7561462E-02  0.1125453E+00
         25   -1    0    0    0    0  0.00000000000E+00  0.00000000000E+00  0.99999998245E-14  0.12509000000E+03  0.12509000000E+03 0.  0.
        -13    1    1    0    0    0 -0.14046174232E+02 -0.14491054724E+02 -0.23468359610E+02  0.30952556346E+02  0.10566000000E+00 0. -1.
         13    1    1    0    0    0 -0.26226411602E+02 -0.19543949950E+02  0.25341105038E+02  0.41376000456E+02  0.10566000000E+00 0.  1.
         22    1    1    0    0    0  0.40272585833E+02  0.34035004674E+02 -0.18727454279E+01  0.52761443198E+02  0.00000000000E+00 0.  1.
</event>
<event>
 5    1  0.1255769E-009  0.9118800E+02  0.7561462E-02  0.1125453E+00
         25   -1    0    0    0    0  0.00000000000E+00  0.00000000000E+00  0.99999998245E-14  0.12509000000E+03  0.12509000000E+03 0.  0.
        -13    1    3    3    0    0  0.34308603282E+02  0.85109063411E+01  0.50554774055E+02  0.61687212043E+02  0.10566000000E+00 0. -1.
         23    2    1    0    0    0  0.13300075233E+02 -0.16529567831E+01  0.27526966024E+02  0.94473695099E+02  0.89375169593E+02 0.  0.
         13    1    3    3    0    0 -0.21008528050E+02 -0.10163863124E+02 -0.23027808031E+02  0.32786483056E+02  0.10566000000E+00 0.  1.
         22    1    1    0    0    0 -0.13300075233E+02  0.16529567831E+01 -0.27526966024E+02  0.30616304901E+02  0.00000000000E+00 0. -1.
</event>
<event>
 5    1  0.1255769E-009  0.9118800E+02  0.7561462E-02  0.1125453E+00
         25   -1    0    0    0    0  0.00000000000E+00  0.00000000000E+00  0.99999998245E-14  0.12509000000E+03  0.12509000000E+03 0.  0.
        -13    1    3    3    0    0 -0.18858216073E+02  0.49343562398E+02  0.22816298745E+02  0.57541412183E+02  0.10566000000E+00 0.  1.
         23    2    1    0    0    0 -0.15258534588E+02  0.23237889866E+02 -0.60625094133E+01  0.96636943511E+02  0.92353248061E+02 0.  0.
         13    1    3    3    0    0  0.35996814852E+01 -0.26105672532E+02 -0.28878808158E+02  0.39095531328E+02  0.10566000000E+00 0. -1.
         22    1    1    0    0    0  0.15258534588E+02 -0.23237889866E+02  0.60625094133E+01  0.28453056489E+02  0.00000000000E+00 0.  1.
</event>
<event>
 5    1  0.1255769E-009  0.9118800E+02  0.7561462E-02  0.1125453E+00
         25   -1    0    0    0    0  0.00000000000E+00  0.00000000000E+00  0.99999998245E-14  0.12509000000E+03  0.12509000000E+03 0.  0.
        -13    1    3    3    0    0 -0.16134500032E+02 -0.26507038360E+02  0.15030053533E+02  0.34479832470E+02  0.10566000000E+00 0.  1.
         23    2    1    0    0    0  0.68100256142E+00  0.29594201835E+02 -0.18473659754E+01  0.95430375799E+02  0.90704262950E+02 0.  0.
         13    1    3    3    0    0  0.16815502593E+02  0.56101240194E+02 -0.16877419509E+02  0.60950543329E+02  0.10566000000E+00 0. -1.
         22    1    1    0    0    0 -0.68100256142E+00 -0.29594201835E+02  0.18473659754E+01  0.29659624201E+02  0.00000000000E+00 0. -1.
</event>
<event>
 5    1  0.1255769E-009  0.9118800E+02  0.7561462E-02  0.1125453E+00
         25   -1    0    0    0    0  0.00000000000E+00  0.00000000000E+00  0.99999998245E-14  0.12509000000E+03  0.12509000000E+03 0.  0.
        -13    1    3    3    0    0 -0.42130896720E+02  0.25476053993E+02 -0.32264643830E+02  0.58864761878E+02  0.10566000000E+00 0.  1.
         23    2    1    0    0    0 -0.23720185556E+02  0.20005400609E+02 -0.29378619474E+01  0.93921196861E+02  0.88598515397E+02 0.  0.
         13    1    3    3    0    0  0.18410711164E+02 -0.54706533844E+01  0.29326781883E+02  0.35056434982E+02  0.10566000000E+00 0. -1.
         22    1    1    0    0    0  0.23720185556E+02 -0.20005400609E+02  0.29378619474E+01  0.31168803139E+02  0.00000000000E+00 0.  1.
</event>
<event>
 5    1  0.1255769E-009  0.9118800E+02  0.7561462E-02  0.1125453E+00
         25   -1    0    0    0    0  0.00000000000E+00  0.00000000000E+00  0.99999998245E-14  0.12509000000E+03  0.12509000000E+03 0.  0.
        -13    1    3    3    0    0  0.28927063164E+02 -0.43458859624E+02  0.25659579283E+02  0.58171063564E+02  0.10566000000E+00 0.  1.
         23    2    1    0    0    0 -0.29560129089E+01 -0.23742898220E+02  0.13698514727E+02  0.97519861554E+02  0.93541492738E+02 0.  0.
         13    1    3    3    0    0 -0.31883076073E+02  0.19715961404E+02 -0.11961064556E+02  0.39348797991E+02  0.10566000000E+00 0. -1.
         22    1    1    0    0    0  0.29560129089E+01  0.23742898220E+02 -0.13698514727E+02  0.27570138446E+02  0.00000000000E+00 0.  1.
</event>
<event>
 5    1  0.1255769E-009  0.9118800E+02  0.7561462E-02  0.1125453E+00
         25   -1    0    0    0    0  0.00000000000E+00  0.00000000000E+00  0.99999998245E-14  0.12509000000E+03  0.12509000000E+03 0.  0.
        -13    1    3    3    0    0  0.84702000813E+01  0.41203158019E+02 -0.25626741074E+01  0.42142887689E+02  0.10566000000E+00 0.  1.
         23    2    1    0    0    0  0.23787802955E+02 -0.42425982041E+01  0.18634076054E+02  0.94576265398E+02  0.89518612463E+02 0.  0.
         13    1    3    3    0    0  0.15317602874E+02 -0.45445756223E+02  0.21196750161E+02  0.52433377709E+02  0.10566000000E+00 0. -1.
         22    1    1    0    0    0 -0.23787802955E+02  0.42425982041E+01 -0.18634076054E+02  0.30513734602E+02  0.00000000000E+00 0. -1.
</event>
<event>
 5    1  0.1255769E-009  0.9118800E+02  0.7561462E-02  0.1125453E+00
         25   -1    0    0    0    0  0.00000000000E+00  0.00000000000E+00  0.99999998245E-14  0.12509000000E+03  0.12509000000E+03 0.  0.
        -13    1    3    3    0    0  0.21717143708E+02  0.23232307196E+02 -0.13003633099E+02  0.34358114999E+02  0.10566000000E+00 0.  1.
         23    2    1    0    0    0 -0.53097226566E+01 -0.28008889593E+02  0.71563914586E+01  0.95697739290E+02  0.91072236799E+02 0.  0.
         13    1    3    3    0    0 -0.27026866364E+02 -0.51241196790E+02  0.20160024558E+02  0.61339624291E+02  0.10566000000E+00 0. -1.
         22    1    1    0    0    0  0.53097226566E+01  0.28008889593E+02 -0.71563914586E+01  0.29392260710E+02  0.00000000000E+00 0. -1.
</event>
<event>
 5    1  0.1255769E-009  0.9118800E+02  0.7561462E-02  0.1125453E+00
         25   -1    0    0    0    0  0.00000000000E+00  0.00000000000E+00  0.99999998245E-14  0.12509000000E+03  0.12509000000E+03 0.  0.
        -13    1    3    3    0    0  0.32343319691E+01  0.28487735711E+02  0.28302431308E+02  0.40287104279E+02  0.10566000000E+00 0. -1.
         23    2    1    0    0    0  0.21958842011E+02  0.11037096784E+02 -0.18969699251E+02  0.94043941675E+02  0.88771646533E+02 0.  0.
         13    1    3    3    0    0  0.18724510042E+02 -0.17450638927E+02 -0.47272130558E+02  0.53756837396E+02  0.10566000000E+00 0.  1.
         22    1    1    0    0    0 -0.21958842011E+02 -0.11037096784E+02  0.18969699251E+02  0.31046058325E+02  0.00000000000E+00 0.  1.
</event>
<event>
 5    1  0.1255769E-009  0.9118800E+02  0.7561462E-02  0.1125453E+00
         25   -1    0    0    0    0  0.00000000000E+00  0.00000000000E+00  0.99999998245E-14  0.12509000000E+03  0.12509000000E+03 0.  0.
        -13    1    3    3    0    0 -0.14107578579E+02 -0.91557437175E+01 -0.42209207493E+02  0.45436546718E+02  0.10566000000E+00 0.  1.
         23    2    1    0    0    0 -0.16719919667E+02  0.25291825870E+02 -0.87411766958E+01  0.93536230978E+02  0.88053314339E+02 0.  0.
         13    1    3    3    0    0 -0.26123410881E+01  0.34447569587E+02  0.33468030797E+02  0.48099684260E+02  0.10566000000E+00 0. -1.
         22    1    1    0    0    0  0.16719919667E+02 -0.25291825870E+02  0.87411766958E+01  0.31553769022E+02  0.00000000000E+00 0. -1.
</event>
<event>
 5    1  0.1255769E-009  0.9118800E+02  0.7561462E-02  0.1125453E+00
         25   -1    0    0    0    0  0.00000000000E+00  0.00000000000E+00  0.99999998245E-14  0.12509000000E+03  0.12509000000E+03 0.  0.
        -13    1    3    3    0    0 -0.21568561745E+02  0.24984251473E+02 -0.24341557779E+02  0.41011440801E+02  0.10566000000E+00 0.  1.
         23    2    1    0    0    0 -0.42721500769E+01  0.15289026594E+02  0.25724793475E+02  0.94861361265E+02  0.89916112356E+02 0.  0.
         13    1    3    3    0    0  0.17296411668E+02 -0.96952248795E+01  0.50066351254E+02  0.53849920464E+02  0.10566000000E+00 0. -1.
         22    1    1    0    0    0  0.42721500769E+01 -0.15289026594E+02 -0.25724793475E+02  0.30228638735E+02  0.00000000000E+00 0. -1.
</event>
<event>
 5    1  0.1255769E-009  0.9118800E+02  0.7561462E-02  0.1125453E+00
         25   -1    0    0    0    0  0.00000000000E+00  0.00000000000E+00  0.99999998245E-14  0.12509000000E+03  0.12509000000E+03 0.  0.
        -13    1    3    3    0    0  0.10884503573E+02 -0.30852110993E+02  0.22413272018E+02  0.39657169558E+02  0.10566000000E+00 0.  1.
         23    2    1    0    0    0  0.19951707724E+02  0.21274640460E+02  0.41517095782E+01  0.95629557705E+02  0.90978539484E+02 0.  0.
         13    1    3    3    0    0  0.90672041513E+01  0.52126751452E+02 -0.18261562440E+02  0.55972388147E+02  0.10566000000E+00 0. -1.
         22    1    1    0    0    0 -0.19951707724E+02 -0.21274640460E+02 -0.41517095782E+01  0.29460442295E+02  0.00000000000E+00 0. -1.
</event>
<event>
 5    1  0.1255769E-009  0.9118800E+02  0.7561462E-02  0.1125453E+00
         25   -1    0    0    0    0  0.00000000000E+00  0.00000000000E+00  0.99999998245E-14  0.12509000000E+03  0.12509000000E+03 0.  0.
        -13    1    3    3    0    0  0.40582400265E+02 -0.19967064603E+02 -0.16092618738E+02  0.48006233158E+02  0.10566000000E+00 0. -1.
         23    2    1    0    0    0  0.91530548873E+01 -0.19779049738E+02  0.19750563690E+02  0.95677859847E+02  0.91044927791E+02 0.  0.
         13    1    3    3    0    0 -0.31429345378E+02  0.18801486473E+00  0.35843182428E+02  0.47671626688E+02  0.10566000000E+00 0.  1.
         22    1    1    0    0    0 -0.91530548873E+01  0.19779049738E+02 -0.19750563690E+02  0.29412140153E+02  0.00000000000E+00 0.  1.
</event>
<event>
 5    1  0.1255769E-009  0.9118800E+02  0.7561462E-02  0.1125453E+00
         25   -1    0    0    0    0  0.00000000000E+00  0.00000000000E+00  0.99999998245E-14  0.12509000000E+03  0.12509000000E+03 0.  0.
        -13    1    3    3    0    0  0.33529998672E+02 -0.34127459844E+01 -0.15989434442E+02  0.37303898240E+02  0.10566000000E+00 0.  1.
         23    2    1    0    0    0 -0.13076225385E+02  0.27353073388E+02 -0.31270542508E+01  0.94611207990E+02  0.89567426640E+02 0.  0.
         13    1    3    3    0    0 -0.46606224057E+02  0.30765819373E+02  0.12862380191E+02  0.57307309750E+02  0.10566000000E+00 0. -1.
         22    1    1    0    0    0  0.13076225385E+02 -0.27353073388E+02  0.31270542508E+01  0.30478792010E+02  0.00000000000E+00 0. -1.
</event>
<event>
 5    1  0.1255769E-009  0.9118800E+02  0.7561462E-02  0.1125453E+00
         25   -1    0    0    0    0  0.00000000000E+00  0.00000000000E+00  0.99999998245E-14  0.12509000000E+03  0.12509000000E+03 0.  0.
        -13    1    3    3    0    0  0.22870055538E+02 -0.47637757166E+02 -0.26780872094E+02  0.59242059572E+02  0.10566000000E+00 0.  1.
         23    2    1    0    0    0  0.13320118863E+02 -0.26320970321E+02  0.10444692980E+01  0.95572040022E+02  0.90899421740E+02 0.  0.
         13    1    3    3    0    0 -0.95499366748E+01  0.21316786846E+02  0.27825341392E+02  0.36329980450E+02  0.10566000000E+00 0. -1.
         22    1    1    0    0    0 -0.13320118863E+02  0.26320970321E+02 -0.10444692980E+01  0.29517959978E+02  0.00000000000E+00 0.  1.
</event>
<event>
 5    1  0.1255769E-009  0.9118800E+02  0.7561462E-02  0.1125453E+00
         25   -1    0    0    0    0  0.00000000000E+00  0.00000000000E+00  0.99999998245E-14  0.12509000000E+03  0.12509000000E+03 0.  0.
        -13    1    3    3    0    0  0.30312133029E+02  0.17264940233E+02  0.13809933974E+02  0.37518382300E+02  0.10566000000E+00 0. -1.
         23    2    1    0    0    0 -0.25033225090E+02 -0.28907953348E+01  0.13673108785E+02  0.96419929196E+02  0.92058838719E+02 0.  0.
         13    1    3    3    0    0 -0.55345358119E+02 -0.20155735568E+02 -0.13682518910E+00  0.58901546896E+02  0.10566000000E+00 0.  1.
         22    1    1    0    0    0  0.25033225090E+02  0.28907953348E+01 -0.13673108785E+02  0.28670070804E+02  0.00000000000E+00 0.  1.
</event>
<event>
 5    1  0.1255769E-009  0.9118800E+02  0.7561462E-02  0.1125453E+00
         25   -1    0    0    0    0  0.00000000000E+00  0.00000000000E+00  0.99999998245E-14  0.12509000000E+03  0.12509000000E+03 0.  0.
        -13    1    3    3    0    0 -0.36498501805E+02 -0.14224618422E+02  0.20889628702E+02  0.44394460855E+02  0.10566000000E+00 0. -1.
         23    2    1    0    0    0 -0.15287162876E+02  0.10052774234E+02 -0.20989804797E+02  0.97245296302E+02  0.93173602103E+02 0.  0.
         13    1    3    3    0    0  0.21211338928E+02  0.24277392656E+02 -0.41879433499E+02  0.52850835448E+02  0.10566000000E+00 0.  1.
         22    1    1    0    0    0  0.15287162876E+02 -0.10052774234E+02  0.20989804797E+02  0.27844703698E+02  0.00000000000E+00 0.  1.
</event>
<event>
 5    1  0.1255769E-009  0.9118800E+02  0.7561462E-02  0.1125453E+00
         25   -1    0    0    0    0  0.00000000000E+00  0.00000000000E+00  0.99999998245E-14  0.12509000000E+03  0.12509000000E+03 0.  0.
        -13    1    3    3    0    0 -0.15640195510E+02  0.27204496015E+02 -0.46483944932E+02  0.56084477527E+02  0.10566000000E+00 0.  1.
         23    2    1    0    0    0 -0.13080767010E+01 -0.54366032550E+01 -0.28563312710E+02  0.95984492745E+02  0.91465251844E+02 0.  0.
         13    1    3    3    0    0  0.14332118809E+02 -0.32641099270E+02  0.17920632222E+02  0.39900015218E+02  0.10566000000E+00 0. -1.
         22    1    1    0    0    0  0.13080767010E+01  0.54366032550E+01  0.28563312710E+02  0.29105507255E+02  0.00000000000E+00 0.  1.
</event>
<event>
 5    1  0.1255769E-009  0.9118800E+02  0.7561462E-02  0.1125453E+00
         25   -1    0    0    0    0  0.00000000000E+00  0.00000000000E+00  0.99999998245E-14  0.12509000000E+03  0.12509000000E+03 0.  0.
        -13    1    3    3    0    0 -0.89835197086E+01 -0.47136526677E+02 -0.34751271765E+02  0.59247091295E+02  0.10566000000E+00 0.  1.
         23    2    1    0    0    0  0.84697247058E+01 -0.16361554467E+02 -0.20866708304E+02  0.97253760732E+02  0.93184965310E+02 0.  0.
         13    1    3    3    0    0  0.17453244414E+02  0.30774972211E+02  0.13884563461E+02  0.38006669437E+02  0.10566000000E+00 0. -1.
         22    1    1    0    0    0 -0.84697247058E+01  0.16361554467E+02  0.20866708304E+02  0.27836239268E+02  0.00000000000E+00 0.  1.
</event>
<event>
 5    1  0.1255769E-009  0.9118800E+02  0.7561462E-02  0.1125453E+00
         25   -1    0    0    0    0  0.00000000000E+00  0.00000000000E+00  0.99999998245E-14  0.12509000000E+03  0.12509000000E+03 0.  0.
        -13    1    3    3    0    0 -0.30726153327E+02 -0.17578874699E+02  0.36018581053E+01  0.35582269177E+02  0.10566000000E+00 0.  1.
         23    2    1    0    0    0  0.23962825434E+02 -0.21941649670E+02 -0.79333665671E+01  0.91644652071E+02  0.85323800636E+02 0.  0.
         13    1    3    3    0    0  0.54688978761E+02 -0.43627749707E+01 -0.11535224672E+02  0.56062382893E+02  0.10566000000E+00 0. -1.
         22    1    1    0    0    0 -0.23962825434E+02  0.21941649670E+02  0.79333665671E+01  0.33445347929E+02  0.00000000000E+00 0. -1.
</event>
<event>
 5    1  0.1255769E-009  0.9118800E+02  0.7561462E-02  0.1125453E+00
         25   -1    0    0    0    0  0.00000000000E+00  0.00000000000E+00  0.99999998245E-14  0.12509000000E+03  0.12509000000E+03 0.  0.
        -13    1    3    3    0    0 -0.35534106378E+02 -0.19509122791E+02  0.32773841396E+02  0.52128825346E+02  0.10566000000E+00 0.  1.
         23    2    1    0    0    0 -0.20773847596E+02 -0.20501623070E+02 -0.74334992021E+01  0.94971464131E+02  0.90069155633E+02 0.  0.
         13    1    3    3    0    0  0.14760258781E+02 -0.99250027965E+00 -0.40207340598E+02  0.42842638785E+02  0.10566000000E+00 0. -1.
         22    1    1    0    0    0  0.20773847596E+02  0.20501623070E+02  0.74334992021E+01  0.30118535869E+02  0.00000000000E+00 0.  1.
</event>
<event>
 5    1  0.1255769E-009  0.9118800E+02  0.7561462E-02  0.1125453E+00
         25   -1    0    0    0    0  0.00000000000E+00  0.00000000000E+00  0.99999998245E-14  0.12509000000E+03  0.12509000000E+03 0.  0.
        -13    1    3    3    0    0 -0.19441874117E+02 -0.21492273173E+02 -0.53145882069E+02  0.60534289623E+02  0.10566000000E+00 0.  1.
         23    2    1    0    0    0 -0.54632860888E+01  0.37206155914E+00 -0.27609717314E+02  0.96942488301E+02  0.92766177150E+02 0.  0.
         13    1    3    3    0    0  0.13978588028E+02  0.21864334732E+02  0.25536164754E+02  0.36408198677E+02  0.10566000000E+00 0. -1.
         22    1    1    0    0    0  0.54632860888E+01 -0.37206155914E+00  0.27609717314E+02  0.28147511699E+02  0.00000000000E+00 0.  1.
</event>
<event>
 5    1  0.1255769E-009  0.9118800E+02  0.7561462E-02  0.1125453E+00
         25   -1    0    0    0    0  0.00000000000E+00  0.00000000000E+00  0.99999998245E-14  0.12509000000E+03  0.12509000000E+03 0.  0.
        -13    1    3    3    0    0  0.64609476003E+01  0.32807089484E+02 -0.25095439939E+02  0.41807191176E+02  0.10566000000E+00 0. -1.
         23    2    1    0    0    0 -0.18112783612E+02 -0.16356240616E+02 -0.64407762683E+01  0.99849494137E+02  0.96606616456E+02 0.  0.
         13    1    3    3    0    0 -0.24573731213E+02 -0.49163330100E+02  0.18654663671E+02  0.58042302960E+02  0.10566000000E+00 0.  1.
         22    1    1    0    0    0  0.18112783612E+02  0.16356240616E+02  0.64407762683E+01  0.25240505863E+02  0.00000000000E+00 0.  1.
</event>
<event>
 5    1  0.1255769E-009  0.9118800E+02  0.7561462E-02  0.1125453E+00
         25   -1    0    0    0    0  0.00000000000E+00  0.00000000000E+00  0.99999998245E-14  0.12509000000E+03  0.12509000000E+03 0.  0.
        -13    1    3    3    0    0  0.16249323991E+01 -0.39176406753E+02 -0.63562946958E+01  0.39722095837E+02  0.10566000000E+00 0.  1.
         23    2    1    0    0    0 -0.25695384082E+02 -0.46927275987E+01  0.21040015964E+02  0.91549625417E+02  0.85184371729E+02 0.  0.
         13    1    3    3    0    0 -0.27320316481E+02  0.34483679154E+02  0.27396310660E+02  0.51827529580E+02  0.10566000000E+00 0. -1.
         22    1    1    0    0    0  0.25695384082E+02  0.46927275987E+01 -0.21040015964E+02  0.33540374583E+02  0.00000000000E+00 0. -1.
</event>
<event>
 5    1  0.1255769E-009  0.9118800E+02  0.7561462E-02  0.1125453E+00
         25   -1    0    0    0    0  0.00000000000E+00  0.00000000000E+00  0.99999998245E-14  0.12509000000E+03  0.12509000000E+03 0.  0.
        -13    1    3    3    0    0 -0.43182449240E+02  0.19804123714E+02  0.27280841348E+02  0.54783051276E+02  0.10566000000E+00 0.  1.
         23    2    1    0    0    0 -0.13584971397E+02 -0.82257044213E+01  0.24823646850E+02  0.95620912739E+02  0.90966652401E+02 0.  0.
         13    1    3    3    0    0  0.29597477843E+02 -0.28029828135E+02 -0.24571944984E+01  0.40837861462E+02  0.10566000000E+00 0. -1.
         22    1    1    0    0    0  0.13584971397E+02  0.82257044213E+01 -0.24823646850E+02  0.29469087261E+02  0.00000000000E+00 0.  1.
</event>
<event>
 5    1  0.1255769E-009  0.9118800E+02  0.7561462E-02  0.1125453E+00
         25   -1    0    0    0    0  0.00000000000E+00  0.00000000000E+00  0.99999998245E-14  0.12509000000E+03  0.12509000000E+03 0.  0.
        -13    1    3    3    0    0  0.34544655144E+02 -0.25434259079E+01 -0.59665659567E+01  0.35148446448E+02  0.10566000000E+00 0. -1.
         23    2    1    0    0    0 -0.22123855782E+02 -0.17110009035E+02  0.92964966494E+01  0.95617262533E+02  0.90961632794E+02 0.  0.
         13    1    3    3    0    0 -0.56668510926E+02 -0.14566583127E+02  0.15263062606E+02  0.60468816085E+02  0.10566000000E+00 0.  1.
         22    1    1    0    0    0  0.22123855782E+02  0.17110009035E+02 -0.92964966494E+01  0.29472737467E+02  0.00000000000E+00 0.  1.
</event>
<event>
 5    1  0.1255769E-009  0.9118800E+02  0.7561462E-02  0.1125453E+00
         25   -1    0    0    0    0  0.00000000000E+00  0.00000000000E+00  0.99999998245E-14  0.12509000000E+03  0.12509000000E+03 0.  0.
        -13    1    3    3    0    0 -0.56932291234E+02  0.30740705268E+00 -0.63535175892E+01  0.57286635737E+02  0.10566000000E+00 0.  1.
         23    2    1    0    0    0 -0.21259246963E+02  0.14766523793E+02 -0.12632413852E+02  0.96287505558E+02  0.91878724635E+02 0.  0.
         13    1    3    3    0    0  0.35673044271E+02  0.14459116740E+02 -0.62788962627E+01  0.39000869821E+02  0.10566000000E+00 0. -1.
         22    1    1    0    0    0  0.21259246963E+02 -0.14766523793E+02  0.12632413852E+02  0.28802494442E+02  0.00000000000E+00 0.  1.
</event>
<event>
 5    1  0.1255769E-009  0.9118800E+02  0.7561462E-02  0.1125453E+00
         25   -1    0    0    0    0  0.00000000000E+00  0.00000000000E+00  0.99999998245E-14  0.12509000000E+03  0.12509000000E+03 0.  0.
        -13    1    3    3    0    0  0.32618100400E+02 -0.17820683602E+02  0.10672057653E+02  0.38670676440E+02  0.10566000000E+00 0.  1.
         23    2    1    0    0    0  0.53221063030E+01  0.94887294752E+01 -0.29051723668E+02  0.94068016655E+02  0.88805564616E+02 0.  0.
         13    1    3    3    0    0 -0.27295994097E+02  0.27309413077E+02 -0.39723781322E+02  0.55397340215E+02  0.10566000000E+00 0. -1.
         22    1    1    0    0    0 -0.53221063030E+01 -0.94887294752E+01  0.29051723668E+02  0.31021983345E+02  0.00000000000E+00 0. -1.
</event>
<event>
 5    1  0.1255769E-009  0.9118800E+02  0.7561462E-02  0.1125453E+00
         25   -1    0    0    0    0  0.00000000000E+00  0.00000000000E+00  0.99999998245E-14  0.12509000000E+03  0.12509000000E+03 0.  0.
        -13    1    3    3    0    0  0.23584657726E+01  0.38537968425E+02  0.43688235548E+02  0.58304463470E+02  0.10566000000E+00 0. -1.
         23    2    1    0    0    0 -0.15121485365E+02  0.17075674448E+02  0.18693894250E+02  0.95599329276E+02  0.90936967721E+02 0.  0.
         13    1    3    3    0    0 -0.17479951138E+02 -0.21462293977E+02 -0.24994341299E+02  0.37294865806E+02  0.10566000000E+00 0.  1.
         22    1    1    0    0    0  0.15121485365E+02 -0.17075674448E+02 -0.18693894250E+02  0.29490670724E+02  0.00000000000E+00 0. -1.
</event>
<event>
 5    1  0.1255769E-009  0.9118800E+02  0.7561462E-02  0.1125453E+00
         25   -1    0    0    0    0  0.00000000000E+00  0.00000000000E+00  0.99999998245E-14  0.12509000000E+03  0.12509000000E+03 0.  0.
        -13    1    3    3    0    0 -0.19509554907E+02  0.25979622765E+02  0.32910807700E+02  0.46246037227E+02  0.10566000000E+00 0.  1.
         23    2    1    0    0    0  0.90308306941E+01  0.23242870541E+02 -0.10305757834E+02  0.98108606809E+02  0.94325516969E+02 0.  0.
         13    1    3    3    0    0  0.28540385601E+02 -0.27367522242E+01 -0.43216565534E+02  0.51862569582E+02  0.10566000000E+00 0. -1.
         22    1    1    0    0    0 -0.90308306941E+01 -0.23242870541E+02  0.10305757834E+02  0.26981393191E+02  0.00000000000E+00 0. -1.
</event>
<event>
 5    1  0.1255769E-009  0.9118800E+02  0.7561462E-02  0.1125453E+00
         25   -1    0    0    0    0  0.00000000000E+00  0.00000000000E+00  0.99999998245E-14  0.12509000000E+03  0.12509000000E+03 0.  0.
        -13    1    3    3    0    0  0.25376966554E+02  0.31173322595E+01  0.26496892466E+02  0.36821252916E+02  0.10566000000E+00 0. -1.
         23    2    1    0    0    0 -0.28319812681E+02  0.66620329041E+01  0.20578223901E+01  0.95924453448E+02  0.91383103819E+02 0.  0.
         13    1    3    3    0    0 -0.53696779235E+02  0.35447006446E+01 -0.24439070076E+02  0.59103200532E+02  0.10566000000E+00 0.  1.
         22    1    1    0    0    0  0.28319812681E+02 -0.66620329041E+01 -0.20578223901E+01  0.29165546552E+02  0.00000000000E+00 0.  1.
</event>
<event>
 5    1  0.1255769E-009  0.9118800E+02  0.7561462E-02  0.1125453E+00
         25   -1    0    0    0    0  0.00000000000E+00  0.00000000000E+00  0.99999998245E-14  0.12509000000E+03  0.12509000000E+03 0.  0.
        -13    1    3    3    0    0  0.28262891019E+02  0.24438802241E+02  0.10177132340E+02  0.38725072633E+02  0.10566000000E+00 0. -1.
         23    2    1    0    0    0  0.11078008436E+02 -0.27769689804E+02 -0.23542697704E+01  0.95099659407E+02  0.90247020396E+02 0.  0.
         13    1    3    3    0    0 -0.17184882582E+02 -0.52208492046E+02 -0.12531402111E+02  0.56374586774E+02  0.10566000000E+00 0.  1.
         22    1    1    0    0    0 -0.11078008436E+02  0.27769689804E+02  0.23542697704E+01  0.29990340593E+02  0.00000000000E+00 0.  1.
</event>
<event>
 5    1  0.1255769E-009  0.9118800E+02  0.7561462E-02  0.1125453E+00
         25   -1    0    0    0    0  0.00000000000E+00  0.00000000000E+00  0.99999998245E-14  0.12509000000E+03  0.12509000000E+03 0.  0.
        -13    1    3    3    0    0 -0.20093335589E+02  0.24557125228E+02  0.36028039678E+02  0.48008596539E+02  0.10566000000E+00 0.  1.
         23    2    1    0    0    0 -0.18190285200E+01  0.28142412644E+02 -0.79688840189E+01  0.95784584687E+02  0.91191443112E+02 0.  0.
         13    1    3    3    0    0  0.18274307069E+02  0.35852874159E+01 -0.43996923697E+02  0.47775988148E+02  0.10566000000E+00 0. -1.
         22    1    1    0    0    0  0.18190285200E+01 -0.28142412644E+02  0.79688840189E+01  0.29305415313E+02  0.00000000000E+00 0.  1.
</event>
<event>
 5    1  0.1255769E-009  0.9118800E+02  0.7561462E-02  0.1125453E+00
         25   -1    0    0    0    0  0.00000000000E+00  0.00000000000E+00  0.99999998245E-14  0.12509000000E+03  0.12509000000E+03 0.  0.
        -13    1    3    3    0    0  0.37176762831E+02 -0.30051158299E+02 -0.11877908079E+02  0.49257280417E+02  0.10566000000E+00 0. -1.
         23    2    1    0    0    0  0.27747935158E+02  0.12059597283E+02  0.24712721697E+01  0.94733963067E+02  0.89738702799E+02 0.  0.
         13    1    3    3    0    0 -0.94288276732E+01  0.42110755582E+02  0.14349180249E+02  0.45476682650E+02  0.10566000000E+00 0.  1.
         22    1    1    0    0    0 -0.27747935158E+02 -0.12059597283E+02 -0.24712721697E+01  0.30356036933E+02  0.00000000000E+00 0.  1.
</event>
<event>
 5    1  0.1255769E-009  0.9118800E+02  0.7561462E-02  0.1125453E+00
         25   -1    0    0    0    0  0.00000000000E+00  0.00000000000E+00  0.99999998245E-14  0.12509000000E+03  0.12509000000E+03 0.  0.
        -13    1    3    3    0    0 -0.40616236699E+02 -0.36642139652E+02 -0.75652432312E+01  0.55222904225E+02  0.10566000000E+00 0. -1.
         23    2    1    0    0    0 -0.16945628999E+02 -0.69871479664E+01 -0.22560265937E+02  0.96022145280E+02  0.91516731837E+02 0.  0.
         13    1    3    3    0    0  0.23670607699E+02  0.29654991685E+02 -0.14995022705E+02  0.40799241055E+02  0.10566000000E+00 0.  1.
         22    1    1    0    0    0  0.16945628999E+02  0.69871479664E+01  0.22560265937E+02  0.29067854720E+02  0.00000000000E+00 0. -1.
</event>
<event>
 5    1  0.1255769E-009  0.9118800E+02  0.7561462E-02  0.1125453E+00
         25   -1    0    0    0    0  0.00000000000E+00  0.00000000000E+00  0.99999998245E-14  0.12509000000E+03  0.12509000000E+03 0.  0.
        -13    1    3    3    0    0 -0.25531865833E+02  0.31297861480E+02  0.13696171251E+02  0.42650071244E+02  0.10566000000E+00 0.  1.
         23    2    1    0    0    0  0.20586795450E+01 -0.72604692178E+01  0.31047622478E+02  0.93138357847E+02  0.87486263300E+02 0.  0.
         13    1    3    3    0    0  0.27590545378E+02 -0.38558330698E+02  0.17351451227E+02  0.50488286604E+02  0.10566000000E+00 0. -1.
         22    1    1    0    0    0 -0.20586795450E+01  0.72604692178E+01 -0.31047622478E+02  0.31951642153E+02  0.00000000000E+00 0. -1.
</event>
<event>
 5    1  0.1255769E-009  0.9118800E+02  0.7561462E-02  0.1125453E+00
         25   -1    0    0    0    0  0.00000000000E+00  0.00000000000E+00  0.99999998245E-14  0.12509000000E+03  0.12509000000E+03 0.  0.
        -13    1    3    3    0    0 -0.33243895824E+02 -0.11482517385E+02 -0.73389546480E+00  0.35178893980E+02  0.10566000000E+00 0. -1.
         23    2    1    0    0    0  0.26848216931E+02 -0.11700429890E+02  0.43308144678E+01  0.95484548375E+02  0.90778941459E+02 0.  0.
         13    1    3    3    0    0  0.60092112755E+02 -0.21791250446E+00  0.50647099326E+01  0.60305654395E+02  0.10566000000E+00 0.  1.
         22    1    1    0    0    0 -0.26848216931E+02  0.11700429890E+02 -0.43308144678E+01  0.29605451625E+02  0.00000000000E+00 0.  1.
</event>
<event>
 5    1  0.1255769E-009  0.9118800E+02  0.7561462E-02  0.1125453E+00
         25   -1    0    0    0    0  0.00000000000E+00  0.00000000000E+00  0.99999998245E-14  0.12509000000E+03  0.12509000000E+03 0.  0.
        -13    1    3    3    0    0  0.26738778469E+02  0.31839559007E+02 -0.37106425684E+02  0.55728069972E+02  0.10566000000E+00 0.  1.
         23    2    1    0    0    0  0.25978976002E+02  0.13828768963E+02 -0.15194946994E+01  0.95620508839E+02  0.90966096989E+02 0.  0.
         13    1    3    3    0    0 -0.75980246643E+00 -0.18010790044E+02  0.35586930985E+02  0.39892438867E+02  0.10566000000E+00 0. -1.
         22    1    1    0    0    0 -0.25978976002E+02 -0.13828768963E+02  0.15194946994E+01  0.29469491161E+02  0.00000000000E+00 0.  1.
</event>
<event>
 5    1  0.1255769E-009  0.9118800E+02  0.7561462E-02  0.1125453E+00
         25   -1    0    0    0    0  0.00000000000E+00  0.00000000000E+00  0.99999998245E-14  0.12509000000E+03  0.12509000000E+03 0.  0.
        -13    1    3    3    0    0  0.86290631383E+00 -0.41350907519E+02 -0.33282742895E+02  0.53088551483E+02  0.10566000000E+00 0.  1.
         23    2    1    0    0    0  0.60876600959E+01  0.79201502867E+00 -0.28630980369E+02  0.95808266271E+02  0.91223922059E+02 0.  0.
         13    1    3    3    0    0  0.52247537821E+01  0.42142922548E+02  0.46517625261E+01  0.42719714788E+02  0.10566000000E+00 0. -1.
         22    1    1    0    0    0 -0.60876600959E+01 -0.79201502867E+00  0.28630980369E+02  0.29281733729E+02  0.00000000000E+00 0. -1.
</event>
<event>
 5    1  0.1255769E-009  0.9118800E+02  0.7561462E-02  0.1125453E+00
         25   -1    0    0    0    0  0.00000000000E+00  0.00000000000E+00  0.99999998245E-14  0.12509000000E+03  0.12509000000E+03 0.  0.
        -13    1    3    3    0    0  0.28565970476E+02  0.15575630362E+02  0.12572185882E+02  0.34881025677E+02  0.10566000000E+00 0. -1.
         23    2    1    0    0    0 -0.13486633708E+02  0.42591772967E+01 -0.27567123231E+02  0.94106517897E+02  0.88859780258E+02 0.  0.
         13    1    3    3    0    0 -0.42052604184E+02 -0.11316453065E+02 -0.40139309112E+02  0.59225492220E+02  0.10566000000E+00 0.  1.
         22    1    1    0    0    0  0.13486633708E+02 -0.42591772967E+01  0.27567123231E+02  0.30983482103E+02  0.00000000000E+00 0.  1.
</event>
<event>
 5    1  0.1255769E-009  0.9118800E+02  0.7561462E-02  0.1125453E+00
         25   -1    0    0    0    0  0.00000000000E+00  0.00000000000E+00  0.99999998245E-14  0.12509000000E+03  0.12509000000E+03 0.  0.
        -13    1    3    3    0    0 -0.65495559124E+01  0.14684523671E+02  0.28349962786E+02  0.32592383651E+02  0.10566000000E+00 0. -1.
         23    2    1    0    0    0  0.20790951995E+02 -0.28622291214E+02  0.34327224267E+01  0.89547309858E+02  0.82191470849E+02 0.  0.
         13    1    3    3    0    0  0.27340507908E+02 -0.43306814885E+02 -0.24917240359E+02  0.56954926207E+02  0.10566000000E+00 0.  1.
         22    1    1    0    0    0 -0.20790951995E+02  0.28622291214E+02 -0.34327224267E+01  0.35542690142E+02  0.00000000000E+00 0.  1.
</event>
<event>
 5    1  0.1255769E-009  0.9118800E+02  0.7561462E-02  0.1125453E+00
         25   -1    0    0    0    0  0.00000000000E+00  0.00000000000E+00  0.99999998245E-14  0.12509000000E+03  0.12509000000E+03 0.  0.
        -13    1    3    3    0    0  0.12845682129E+02  0.13417022996E+02 -0.33891190833E+02  0.38647794704E+02  0.10566000000E+00 0.  1.
         23    2    1    0    0    0 -0.25263486418E+02  0.28561059063E+02 -0.20565148134E+02  0.81766759602E+02  0.69346231456E+02 0.  0.
         13    1    3    3    0    0 -0.38109168547E+02  0.15144036068E+02  0.13326042699E+02  0.43118964897E+02  0.10566000000E+00 0. -1.
         22    1    1    0    0    0  0.25263486418E+02 -0.28561059063E+02  0.20565148134E+02  0.43323240398E+02  0.00000000000E+00 0.  1.
</event>
<event>
 5    1  0.1255769E-009  0.9118800E+02  0.7561462E-02  0.1125453E+00
         25   -1    0    0    0    0  0.00000000000E+00  0.00000000000E+00  0.99999998245E-14  0.12509000000E+03  0.12509000000E+03 0.  0.
        -13    1    3    3    0    0 -0.25455902880E+02 -0.22357983975E+02 -0.46501280209E+02  0.57534882149E+02  0.10566000000E+00 0.  1.
         23    2    1    0    0    0 -0.17819853878E+02  0.63635037297E+01 -0.22162267748E+02  0.95948835238E+02  0.91416472804E+02 0.  0.
         13    1    3    3    0    0  0.76360490018E+01  0.28721487705E+02  0.24339012461E+02  0.38413953089E+02  0.10566000000E+00 0. -1.
         22    1    1    0    0    0  0.17819853878E+02 -0.63635037297E+01  0.22162267748E+02  0.29141164762E+02  0.00000000000E+00 0.  1.
</event>
<event>
 5    1  0.1255769E-009  0.9118800E+02  0.7561462E-02  0.1125453E+00
         25   -1    0    0    0    0  0.00000000000E+00  0.00000000000E+00  0.99999998245E-14  0.12509000000E+03  0.12509000000E+03 0.  0.
        -13    1    3    3    0    0  0.13410917853E+02  0.11707178988E+02 -0.31011616941E+02  0.35758108267E+02  0.10566000000E+00 0. -1.
         23    2    1    0    0    0 -0.24318590532E+02 -0.14031995901E+02  0.80775651644E+01  0.95874630528E+02  0.91314878116E+02 0.  0.
         13    1    3    3    0    0 -0.37729508385E+02 -0.25739174889E+02  0.39089182106E+02  0.60116522260E+02  0.10566000000E+00 0.  1.
         22    1    1    0    0    0  0.24318590532E+02  0.14031995901E+02 -0.80775651644E+01  0.29215369472E+02  0.00000000000E+00 0.  1.
</event>
<event>
 5    1  0.1255769E-009  0.9118800E+02  0.7561462E-02  0.1125453E+00
         25   -1    0    0    0    0  0.00000000000E+00  0.00000000000E+00  0.99999998245E-14  0.12509000000E+03  0.12509000000E+03 0.  0.
        -13    1    3    3    0    0 -0.23604685178E+02 -0.21365836243E+02  0.48996054424E+02  0.58432051426E+02  0.10566000000E+00 0.  1.
         23    2    1    0    0    0 -0.23991497847E+02 -0.11730529610E+02  0.13595243941E+02  0.95122885496E+02  0.90279207980E+02 0.  0.
         13    1    3    3    0    0 -0.38681266894E+00  0.96353066331E+01 -0.35400810482E+02  0.36690834071E+02  0.10566000000E+00 0. -1.
         22    1    1    0    0    0  0.23991497847E+02  0.11730529610E+02 -0.13595243941E+02  0.29967114504E+02  0.00000000000E+00 0.  1.
</event>
<event>
 5    1  0.1255769E-009  0.9118800E+02  0.7561462E-02  0.1125453E+00
         25   -1    0    0    0    0  0.00000000000E+00  0.00000000000E+00  0.99999998245E-14  0.12509000000E+03  0.12509000000E+03 0.  0.
        -13    1    3    3    0    0 -0.14103543729E+01 -0.56539947572E+02 -0.76360873905E+01  0.57070796083E+02  0.10566000000E+00 0. -1.
         23    2    1    0    0    0  0.11564863559E+02 -0.25697940526E+02  0.10362493951E+02  0.95064818947E+02  0.90198715645E+02 0.  0.
         13    1    3    3    0    0  0.12975217932E+02  0.30842007046E+02  0.17998581341E+02  0.37994022864E+02  0.10566000000E+00 0.  1.
         22    1    1    0    0    0 -0.11564863559E+02  0.25697940526E+02 -0.10362493951E+02  0.30025181053E+02  0.00000000000E+00 0. -1.
</event>
<event>
 5    1  0.1255769E-009  0.9118800E+02  0.7561462E-02  0.1125453E+00
         25   -1    0    0    0    0  0.00000000000E+00  0.00000000000E+00  0.99999998245E-14  0.12509000000E+03  0.12509000000E+03 0.  0.
        -13    1    3    3    0    0 -0.33190103872E+01 -0.34577846543E+02 -0.24605678331E+02  0.42568695912E+02  0.10566000000E+00 0.  1.
         23    2    1    0    0    0 -0.28315843661E+02  0.72569316292E+01 -0.35955431069E+01  0.95638718379E+02  0.90991133986E+02 0.  0.
         13    1    3    3    0    0 -0.24996833274E+02  0.41834778172E+02  0.21010135225E+02  0.53070022467E+02  0.10566000000E+00 0. -1.
         22    1    1    0    0    0  0.28315843661E+02 -0.72569316292E+01  0.35955431069E+01  0.29451281621E+02  0.00000000000E+00 0. -1.
</event>
<event>
 5    1  0.1255769E-009  0.9118800E+02  0.7561462E-02  0.1125453E+00
         25   -1    0    0    0    0  0.00000000000E+00  0.00000000000E+00  0.99999998245E-14  0.12509000000E+03  0.12509000000E+03 0.  0.
        -13    1    3    3    0    0 -0.32623475145E+02 -0.20255536195E+02  0.34781083133E+02  0.51810354033E+02  0.10566000000E+00 0.  1.
         23    2    1    0    0    0 -0.18943389396E+02 -0.30706717997E+02  0.18586658758E+01  0.88962321265E+02  0.81296281798E+02 0.  0.
         13    1    3    3    0    0  0.13680085749E+02 -0.10451181801E+02 -0.32922417257E+02  0.37151967232E+02  0.10566000000E+00 0. -1.
         22    1    1    0    0    0  0.18943389396E+02  0.30706717997E+02 -0.18586658758E+01  0.36127678735E+02  0.00000000000E+00 0.  1.
</event>
<event>
 5    1  0.1255769E-009  0.9118800E+02  0.7561462E-02  0.1125453E+00
         25   -1    0    0    0    0  0.00000000000E+00  0.00000000000E+00  0.99999998245E-14  0.12509000000E+03  0.12509000000E+03 0.  0.
        -13    1    3    3    0    0 -0.32371327480E+01  0.55091153381E+02 -0.27156657106E+02  0.61506173661E+02  0.10566000000E+00 0.  1.
         23    2    1    0    0    0 -0.72984115556E+01  0.28059426234E+02 -0.75986118200E+01  0.95117727590E+02  0.90272060952E+02 0.  0.
         13    1    3    3    0    0 -0.40612788076E+01 -0.27031727147E+02  0.19558045286E+02  0.33611553929E+02  0.10566000000E+00 0. -1.
         22    1    1    0    0    0  0.72984115556E+01 -0.28059426234E+02  0.75986118200E+01  0.29972272410E+02  0.00000000000E+00 0.  1.
</event>
<event>
 5    1  0.1255769E-009  0.9118800E+02  0.7561462E-02  0.1125453E+00
         25   -1    0    0    0    0  0.00000000000E+00  0.00000000000E+00  0.99999998245E-14  0.12509000000E+03  0.12509000000E+03 0.  0.
        -13    1    3    3    0    0  0.24105560260E+02 -0.80487075084E+01 -0.23693810944E+02  0.34745756131E+02  0.10566000000E+00 0.  1.
         23    2    1    0    0    0 -0.66521668415E+01  0.16652961652E+02  0.23033795033E+02  0.95898765543E+02  0.91347934096E+02 0.  0.
         13    1    3    3    0    0 -0.30757727102E+02  0.24701669161E+02  0.46727605977E+02  0.61153009412E+02  0.10566000000E+00 0. -1.
         22    1    1    0    0    0  0.66521668415E+01 -0.16652961652E+02 -0.23033795033E+02  0.29191234457E+02  0.00000000000E+00 0. -1.
</event>
<event>
 5    1  0.1255769E-009  0.9118800E+02  0.7561462E-02  0.1125453E+00
         25   -1    0    0    0    0  0.00000000000E+00  0.00000000000E+00  0.99999998245E-14  0.12509000000E+03  0.12509000000E+03 0.  0.
        -13    1    3    3    0    0  0.52735435649E+01  0.55324233439E+02 -0.18860593567E+02  0.58688280100E+02  0.10566000000E+00 0.  1.
         23    2    1    0    0    0 -0.12930180428E+02  0.24399230031E+02 -0.58178282870E+01  0.96870164459E+02  0.92668601178E+02 0.  0.
         13    1    3    3    0    0 -0.18203723993E+02 -0.30925003408E+02  0.13042765280E+02  0.38181884359E+02  0.10566000000E+00 0. -1.
         22    1    1    0    0    0  0.12930180428E+02 -0.24399230031E+02  0.58178282870E+01  0.28219835541E+02  0.00000000000E+00 0.  1.
</event>
<event>
 5    1  0.1255769E-009  0.9118800E+02  0.7561462E-02  0.1125453E+00
         25   -1    0    0    0    0  0.00000000000E+00  0.00000000000E+00  0.99999998245E-14  0.12509000000E+03  0.12509000000E+03 0.  0.
        -13    1    3    3    0    0  0.32348863451E+02  0.48379417037E+02  0.20165020730E+02  0.61592663398E+02  0.10566000000E+00 0. -1.
         23    2    1    0    0    0  0.17131998623E+02  0.18150997378E+02  0.15381971892E+02  0.95771590392E+02  0.91173616712E+02 0.  0.
         13    1    3    3    0    0 -0.15216864828E+02 -0.30228419659E+02 -0.47830488384E+01  0.34178926994E+02  0.10566000000E+00 0.  1.
         22    1    1    0    0    0 -0.17131998623E+02 -0.18150997378E+02 -0.15381971892E+02  0.29318409608E+02  0.00000000000E+00 0. -1.
</event>
<event>
 5    1  0.1255769E-009  0.9118800E+02  0.7561462E-02  0.1125453E+00
         25   -1    0    0    0    0  0.00000000000E+00  0.00000000000E+00  0.99999998245E-14  0.12509000000E+03  0.12509000000E+03 0.  0.
        -13    1    3    3    0    0  0.10960865662E+01  0.34812434021E+02 -0.48991620162E+02  0.60110706021E+02  0.10566000000E+00 0.  1.
         23    2    1    0    0    0 -0.11386776549E+02  0.11469855406E+02 -0.17012180761E+02  0.10162448152E+03  0.98878231614E+02 0.  0.
         13    1    3    3    0    0 -0.12482863115E+02 -0.23342578615E+02  0.31979439401E+02  0.41513775501E+02  0.10566000000E+00 0. -1.
         22    1    1    0    0    0  0.11386776549E+02 -0.11469855406E+02  0.17012180761E+02  0.23465518478E+02  0.00000000000E+00 0.  1.
</event>
<event>
 5    1  0.1255769E-009  0.9118800E+02  0.7561462E-02  0.1125453E+00
         25   -1    0    0    0    0  0.00000000000E+00  0.00000000000E+00  0.99999998245E-14  0.12509000000E+03  0.12509000000E+03 0.  0.
        -13    1    3    3    0    0  0.38880360305E+02  0.42457512916E+02 -0.44342185273E+01  0.57740767907E+02  0.10566000000E+00 0. -1.
         23    2    1    0    0    0  0.21968740929E+02  0.15098222298E+02  0.14173150546E+02  0.94899602669E+02  0.89969297517E+02 0.  0.
         13    1    3    3    0    0 -0.16911619375E+02 -0.27359290618E+02  0.18607369074E+02  0.37158834763E+02  0.10566000000E+00 0.  1.
         22    1    1    0    0    0 -0.21968740929E+02 -0.15098222298E+02 -0.14173150546E+02  0.30190397331E+02  0.00000000000E+00 0. -1.
</event>
<event>
 5    1  0.1255769E-009  0.9118800E+02  0.7561462E-02  0.1125453E+00
         25   -1    0    0    0    0  0.00000000000E+00  0.00000000000E+00  0.99999998245E-14  0.12509000000E+03  0.12509000000E+03 0.  0.
        -13    1    3    3    0    0  0.15360316170E+02  0.51906179881E+02 -0.10442409693E+02  0.55129356127E+02  0.10566000000E+00 0.  1.
         23    2    1    0    0    0 -0.13283114936E+01  0.16672267670E+02 -0.23501331997E+02  0.96244869972E+02  0.91820659275E+02 0.  0.
         13    1    3    3    0    0 -0.16688627664E+02 -0.35233912211E+02 -0.13058922304E+02  0.41115513846E+02  0.10566000000E+00 0. -1.
         22    1    1    0    0    0  0.13283114936E+01 -0.16672267670E+02  0.23501331997E+02  0.28845130028E+02  0.00000000000E+00 0.  1.
</event>
<event>
 5    1  0.1255769E-009  0.9118800E+02  0.7561462E-02  0.1125453E+00
         25   -1    0    0    0    0  0.00000000000E+00  0.00000000000E+00  0.99999998245E-14  0.12509000000E+03  0.12509000000E+03 0.  0.
        -13    1    3    3    0    0  0.13231858215E+02 -0.35462270990E+02  0.23756913285E+02  0.44688441777E+02  0.10566000000E+00 0. -1.
         23    2    1    0    0    0 -0.25965952517E+02 -0.13976653349E+02 -0.60270409133E+00  0.95595241463E+02  0.90931344481E+02 0.  0.
         13    1    3    3    0    0 -0.39197810732E+02  0.21485617640E+02 -0.24359617376E+02  0.50906799686E+02  0.10566000000E+00 0.  1.
         22    1    1    0    0    0  0.25965952517E+02  0.13976653349E+02  0.60270409133E+00  0.29494758537E+02  0.00000000000E+00 0.  1.
</event>
<event>
 5    1  0.1255769E-009  0.9118800E+02  0.7561462E-02  0.1125453E+00
         25   -1    0    0    0    0  0.00000000000E+00  0.00000000000E+00  0.99999998245E-14  0.12509000000E+03  0.12509000000E+03 0.  0.
        -13    1    3    3    0    0  0.43065898419E+02  0.33038642118E+02 -0.20117143237E+02  0.57887253309E+02  0.10566000000E+00 0. -1.
         23    2    1    0    0    0  0.28413470732E+02  0.16382110523E+02  0.55640956598E+01  0.91823530023E+02  0.85585645064E+02 0.  0.
         13    1    3    3    0    0 -0.14652427686E+02 -0.16656531595E+02  0.25681238897E+02  0.33936276714E+02  0.10566000000E+00 0.  1.
         22    1    1    0    0    0 -0.28413470732E+02 -0.16382110523E+02 -0.55640956598E+01  0.33266469977E+02  0.00000000000E+00 0. -1.
</event>
<event>
 5    1  0.1255769E-009  0.9118800E+02  0.7561462E-02  0.1125453E+00
         25   -1    0    0    0    0  0.00000000000E+00  0.00000000000E+00  0.99999998245E-14  0.12509000000E+03  0.12509000000E+03 0.  0.
        -13    1    3    3    0    0  0.62486401062E+01  0.39394847967E+02  0.45005829881E+02  0.60137637440E+02  0.10566000000E+00 0. -1.
         23    2    1    0    0    0 -0.87201886671E+01  0.17058279653E+02  0.24694127089E+02  0.93835776161E+02  0.88477829878E+02 0.  0.
         13    1    3    3    0    0 -0.14968828773E+02 -0.22336568314E+02 -0.20311702792E+02  0.33698138721E+02  0.10566000000E+00 0.  1.
         22    1    1    0    0    0  0.87201886671E+01 -0.17058279653E+02 -0.24694127089E+02  0.31254223839E+02  0.00000000000E+00 0. -1.
</event>
<event>
 5    1  0.1255769E-009  0.9118800E+02  0.7561462E-02  0.1125453E+00
         25   -1    0    0    0    0  0.00000000000E+00  0.00000000000E+00  0.99999998245E-14  0.12509000000E+03  0.12509000000E+03 0.  0.
        -13    1    3    3    0    0  0.46044135902E+02  0.20404779938E+02 -0.31878369553E+02  0.59604186973E+02  0.10566000000E+00 0.  1.
         23    2    1    0    0    0  0.13269947693E+02  0.76562407752E+01 -0.25495971786E+02  0.95345183445E+02  0.90586698219E+02 0.  0.
         13    1    3    3    0    0 -0.32774188209E+02 -0.12748539163E+02  0.63823977674E+01  0.35740996472E+02  0.10566000000E+00 0. -1.
         22    1    1    0    0    0 -0.13269947693E+02 -0.76562407752E+01  0.25495971786E+02  0.29744816555E+02  0.00000000000E+00 0.  1.
</event>
<event>
 5    1  0.1255769E-009  0.9118800E+02  0.7561462E-02  0.1125453E+00
         25   -1    0    0    0    0  0.00000000000E+00  0.00000000000E+00  0.99999998245E-14  0.12509000000E+03  0.12509000000E+03 0.  0.
        -13    1    3    3    0    0  0.35917337457E+02 -0.43287099841E+02 -0.13100435536E+02  0.57753447671E+02  0.10566000000E+00 0.  1.
         23    2    1    0    0    0  0.26894718268E+02 -0.60558919949E+01 -0.78891237713E+01  0.96415307806E+02  0.92052558937E+02 0.  0.
         13    1    3    3    0    0 -0.90226191888E+01  0.37231207846E+02  0.52113117652E+01  0.38661860134E+02  0.10566000000E+00 0. -1.
         22    1    1    0    0    0 -0.26894718268E+02  0.60558919949E+01  0.78891237713E+01  0.28674692194E+02  0.00000000000E+00 0.  1.
</event>
<event>
 5    1  0.1255769E-009  0.9118800E+02  0.7561462E-02  0.1125453E+00
         25   -1    0    0    0    0  0.00000000000E+00  0.00000000000E+00  0.99999998245E-14  0.12509000000E+03  0.12509000000E+03 0.  0.
        -13    1    3    3    0    0 -0.16859441181E+02 -0.45107728711E+01  0.32190966650E+02  0.36617718753E+02  0.10566000000E+00 0.  1.
         23    2    1    0    0    0 -0.25819193240E+02  0.46726667740E+01 -0.21092752408E+02  0.91424457402E+02  0.85000368545E+02 0.  0.
         13    1    3    3    0    0 -0.89597520589E+01  0.91834396451E+01 -0.53283719057E+02  0.54806738648E+02  0.10566000000E+00 0. -1.
         22    1    1    0    0    0  0.25819193240E+02 -0.46726667740E+01  0.21092752408E+02  0.33665542598E+02  0.00000000000E+00 0. -1.
</event>
<event>
 5    1  0.1255769E-009  0.9118800E+02  0.7561462E-02  0.1125453E+00
         25   -1    0    0    0    0  0.00000000000E+00  0.00000000000E+00  0.99999998245E-14  0.12509000000E+03  0.12509000000E+03 0.  0.
        -13    1    3    3    0    0 -0.20327488690E+01 -0.33779468500E+02 -0.10783633442E+02  0.35517354552E+02  0.10566000000E+00 0.  1.
         23    2    1    0    0    0  0.91069755450E+01  0.26291486314E+02 -0.36440189344E+01  0.97028315621E+02  0.92881838387E+02 0.  0.
         13    1    3    3    0    0  0.11139724414E+02  0.60070954814E+02  0.71396145078E+01  0.61510961069E+02  0.10566000000E+00 0. -1.
         22    1    1    0    0    0 -0.91069755450E+01 -0.26291486314E+02  0.36440189344E+01  0.28061684379E+02  0.00000000000E+00 0. -1.
</event>
<event>
 5    1  0.1255769E-009  0.9118800E+02  0.7561462E-02  0.1125453E+00
         25   -1    0    0    0    0  0.00000000000E+00  0.00000000000E+00  0.99999998245E-14  0.12509000000E+03  0.12509000000E+03 0.  0.
        -13    1    3    3    0    0  0.21428481247E+02  0.15886458829E+02 -0.22286224671E+02  0.34759838273E+02  0.10566000000E+00 0.  1.
         23    2    1    0    0    0 -0.18241681994E+02 -0.18765477057E+02  0.10597442707E+02  0.96855130015E+02  0.92648304502E+02 0.  0.
         13    1    3    3    0    0 -0.39670163242E+02 -0.34651935886E+02  0.32883667378E+02  0.62095291741E+02  0.10566000000E+00 0. -1.
         22    1    1    0    0    0  0.18241681994E+02  0.18765477057E+02 -0.10597442707E+02  0.28234869985E+02  0.00000000000E+00 0. -1.
</event>
<event>
 5    1  0.1255769E-009  0.9118800E+02  0.7561462E-02  0.1125453E+00
         25   -1    0    0    0    0  0.00000000000E+00  0.00000000000E+00  0.99999998245E-14  0.12509000000E+03  0.12509000000E+03 0.  0.
        -13    1    3    3    0    0  0.18770684506E+02  0.23880775940E+02  0.39504027627E+02  0.49831811317E+02  0.10566000000E+00 0. -1.
         23    2    1    0    0    0  0.21220949590E+02 -0.14432174976E+02  0.15571422795E+02  0.95071912388E+02  0.90208552484E+02 0.  0.
         13    1    3    3    0    0  0.24502650834E+01 -0.38312950916E+02 -0.23932604832E+02  0.45240101071E+02  0.10566000000E+00 0.  1.
         22    1    1    0    0    0 -0.21220949590E+02  0.14432174976E+02 -0.15571422795E+02  0.30018087612E+02  0.00000000000E+00 0.  1.
</event>
<event>
 5    1  0.1255769E-009  0.9118800E+02  0.7561462E-02  0.1125453E+00
         25   -1    0    0    0    0  0.00000000000E+00  0.00000000000E+00  0.99999998245E-14  0.12509000000E+03  0.12509000000E+03 0.  0.
        -13    1    3    3    0    0 -0.20900156545E+02  0.15065133962E+02  0.19012553799E+02  0.32019730962E+02  0.10566000000E+00 0. -1.
         23    2    1    0    0    0  0.27576078252E+02 -0.79786420168E+01 -0.11961657524E+02  0.93990481179E+02  0.88696282230E+02 0.  0.
         13    1    3    3    0    0  0.48476234797E+02 -0.23043775979E+02 -0.30974211322E+02  0.61970750217E+02  0.10566000000E+00 0.  1.
         22    1    1    0    0    0 -0.27576078252E+02  0.79786420168E+01  0.11961657524E+02  0.31099518821E+02  0.00000000000E+00 0.  1.
</event>
<event>
 5    1  0.1255769E-009  0.9118800E+02  0.7561462E-02  0.1125453E+00
         25   -1    0    0    0    0  0.00000000000E+00  0.00000000000E+00  0.99999998245E-14  0.12509000000E+03  0.12509000000E+03 0.  0.
        -13    1    3    3    0    0 -0.14588499931E+02  0.41684391900E+02 -0.42344094706E+01  0.44366138506E+02  0.10566000000E+00 0. -1.
         23    2    1    0    0    0  0.50148909124E+00 -0.43126270727E+01 -0.26916438485E+02  0.97825647738E+02  0.93949520760E+02 0.  0.
         13    1    3    3    0    0  0.15089989022E+02 -0.45997018973E+02 -0.22682029014E+02  0.53459509232E+02  0.10566000000E+00 0.  1.
         22    1    1    0    0    0 -0.50148909124E+00  0.43126270727E+01  0.26916438485E+02  0.27264352262E+02  0.00000000000E+00 0.  1.
</event>
<event>
 5    1  0.1255769E-009  0.9118800E+02  0.7561462E-02  0.1125453E+00
         25   -1    0    0    0    0  0.00000000000E+00  0.00000000000E+00  0.99999998245E-14  0.12509000000E+03  0.12509000000E+03 0.  0.
        -13    1    3    3    0    0  0.28548089942E+02 -0.74039385741E+01 -0.32361871480E+02  0.43784856235E+02  0.10566000000E+00 0. -1.
         23    2    1    0    0    0 -0.12687683048E+02  0.19750443829E+02 -0.18877102141E+02  0.94966880676E+02  0.90062789806E+02 0.  0.
         13    1    3    3    0    0 -0.41235772990E+02  0.27154382403E+02  0.13484769339E+02  0.51182024442E+02  0.10566000000E+00 0.  1.
         22    1    1    0    0    0  0.12687683048E+02 -0.19750443829E+02  0.18877102141E+02  0.30123119324E+02  0.00000000000E+00 0.  1.
</event>
<event>
 5    1  0.1255769E-009  0.9118800E+02  0.7561462E-02  0.1125453E+00
         25   -1    0    0    0    0  0.00000000000E+00  0.00000000000E+00  0.99999998245E-14  0.12509000000E+03  0.12509000000E+03 0.  0.
        -13    1    3    3    0    0 -0.35814704174E+02  0.37860808972E+02 -0.15173275941E+01  0.52138731650E+02  0.10566000000E+00 0.  1.
         23    2    1    0    0    0 -0.10994826886E+02  0.12542811915E+02  0.24029730317E+02  0.95838738693E+02  0.91265697533E+02 0.  0.
         13    1    3    3    0    0  0.24819877288E+02 -0.25317997057E+02  0.25547057911E+02  0.43700007042E+02  0.10566000000E+00 0. -1.
         22    1    1    0    0    0  0.10994826886E+02 -0.12542811915E+02 -0.24029730317E+02  0.29251261307E+02  0.00000000000E+00 0.  1.
</event>
<event>
 5    1  0.1255769E-009  0.9118800E+02  0.7561462E-02  0.1125453E+00
         25   -1    0    0    0    0  0.00000000000E+00  0.00000000000E+00  0.99999998245E-14  0.12509000000E+03  0.12509000000E+03 0.  0.
        -13    1    3    3    0    0  0.27530986903E+02 -0.28886952306E+02 -0.11712814564E+02  0.41588609528E+02  0.10566000000E+00 0.  1.
         23    2    1    0    0    0  0.18524122303E+02  0.19231298878E+02  0.11800635521E+02  0.95896833636E+02  0.91345288544E+02 0.  0.
         13    1    3    3    0    0 -0.90068646003E+01  0.48118251183E+02  0.23513450086E+02  0.54308224109E+02  0.10566000000E+00 0. -1.
         22    1    1    0    0    0 -0.18524122303E+02 -0.19231298878E+02 -0.11800635521E+02  0.29193166364E+02  0.00000000000E+00 0. -1.
</event>
<event>
 5    1  0.1255769E-009  0.9118800E+02  0.7561462E-02  0.1125453E+00
         25   -1    0    0    0    0  0.00000000000E+00  0.00000000000E+00  0.99999998245E-14  0.12509000000E+03  0.12509000000E+03 0.  0.
        -13    1    3    3    0    0  0.31134150485E+02 -0.32550928687E+02 -0.52406363266E+01  0.45347257006E+02  0.10566000000E+00 0.  1.
         23    2    1    0    0    0  0.14132658449E+02  0.10125521499E+02 -0.24407297172E+02  0.95123779422E+02  0.90280446587E+02 0.  0.
         13    1    3    3    0    0 -0.17001492036E+02  0.42676450185E+02 -0.19166660846E+02  0.49776522417E+02  0.10566000000E+00 0. -1.
         22    1    1    0    0    0 -0.14132658449E+02 -0.10125521499E+02  0.24407297172E+02  0.29966220578E+02  0.00000000000E+00 0.  1.
</event>
<event>
 5    1  0.1255769E-009  0.9118800E+02  0.7561462E-02  0.1125453E+00
         25   -1    0    0    0    0  0.00000000000E+00  0.00000000000E+00  0.99999998245E-14  0.12509000000E+03  0.12509000000E+03 0.  0.
        -13    1    3    3    0    0 -0.21415268609E+02  0.15643482119E+02 -0.23483133616E+02  0.35423170255E+02  0.10566000000E+00 0.  1.
         23    2    1    0    0    0  0.13105958379E+02  0.15463286668E+01  0.25138959616E+02  0.96697667092E+02  0.92435459933E+02 0.  0.
         13    1    3    3    0    0  0.34521226989E+02 -0.14097153452E+02  0.48622093233E+02  0.61274496837E+02  0.10566000000E+00 0. -1.
         22    1    1    0    0    0 -0.13105958379E+02 -0.15463286668E+01 -0.25138959616E+02  0.28392332908E+02  0.00000000000E+00 0. -1.
</event>
<event>
 5    1  0.1255769E-009  0.9118800E+02  0.7561462E-02  0.1125453E+00
         25   -1    0    0    0    0  0.00000000000E+00  0.00000000000E+00  0.99999998245E-14  0.12509000000E+03  0.12509000000E+03 0.  0.
        -13    1    3    3    0    0  0.64602237239E+01  0.45497154750E+01 -0.43541162812E+02  0.44252439758E+02  0.10566000000E+00 0.  1.
         23    2    1    0    0    0 -0.28638269590E+02  0.11373116926E+02 -0.11703767136E+02  0.92128257951E+02  0.86029875475E+02 0.  0.
         13    1    3    3    0    0 -0.35098493314E+02  0.68234014513E+01  0.31837395676E+02  0.47875818194E+02  0.10566000000E+00 0. -1.
         22    1    1    0    0    0  0.28638269590E+02 -0.11373116926E+02  0.11703767136E+02  0.32961742049E+02  0.00000000000E+00 0. -1.
</event>
<event>
 5    1  0.1255769E-009  0.9118800E+02  0.7561462E-02  0.1125453E+00
         25   -1    0    0    0    0  0.00000000000E+00  0.00000000000E+00  0.99999998245E-14  0.12509000000E+03  0.12509000000E+03 0.  0.
        -13    1    3    3    0    0 -0.26418086793E+02  0.35747666328E+02 -0.42072496600E+02  0.61203897685E+02  0.10566000000E+00 0.  1.
         23    2    1    0    0    0 -0.17251060408E+02  0.97245783414E+01 -0.22969556761E+02  0.94762338584E+02  0.89778247739E+02 0.  0.
         13    1    3    3    0    0  0.91670263845E+01 -0.26023087987E+02  0.19102939838E+02  0.33558440899E+02  0.10566000000E+00 0. -1.
         22    1    1    0    0    0  0.17251060408E+02 -0.97245783414E+01  0.22969556761E+02  0.30327661416E+02  0.00000000000E+00 0.  1.
</event>
<event>
 5    1  0.1255769E-009  0.9118800E+02  0.7561462E-02  0.1125453E+00
         25   -1    0    0    0    0  0.00000000000E+00  0.00000000000E+00  0.99999998245E-14  0.12509000000E+03  0.12509000000E+03 0.  0.
        -13    1    3    3    0    0 -0.42507211594E+02  0.21638367009E+02 -0.10003071924E+02  0.48735557617E+02  0.10566000000E+00 0.  1.
         23    2    1    0    0    0 -0.10304741488E+02 -0.66593533743E+01 -0.27452857810E+02  0.95020179808E+02  0.90136787630E+02 0.  0.
         13    1    3    3    0    0  0.32202470107E+02 -0.28297720383E+02 -0.17449785885E+02  0.46284622190E+02  0.10566000000E+00 0. -1.
         22    1    1    0    0    0  0.10304741488E+02  0.66593533743E+01  0.27452857810E+02  0.30069820192E+02  0.00000000000E+00 0.  1.
</event>
<event>
 5    1  0.1255769E-009  0.9118800E+02  0.7561462E-02  0.1125453E+00
         25   -1    0    0    0    0  0.00000000000E+00  0.00000000000E+00  0.99999998245E-14  0.12509000000E+03  0.12509000000E+03 0.  0.
        -13    1    3    3    0    0  0.29395667757E+02  0.21602985164E+02  0.13558019910E+02  0.38918187507E+02  0.10566000000E+00 0.  1.
         23    2    1    0    0    0  0.14956925168E+01 -0.56104775187E+01 -0.28351924191E+02  0.96149610241E+02  0.91690792286E+02 0.  0.
         13    1    3    3    0    0 -0.27899975240E+02 -0.27213462683E+02 -0.41909944101E+02  0.57231422734E+02  0.10566000000E+00 0. -1.
         22    1    1    0    0    0 -0.14956925168E+01  0.56104775187E+01  0.28351924191E+02  0.28940389759E+02  0.00000000000E+00 0.  1.
</event>
<event>
 5    1  0.1255769E-009  0.9118800E+02  0.7561462E-02  0.1125453E+00
         25   -1    0    0    0    0  0.00000000000E+00  0.00000000000E+00  0.99999998245E-14  0.12509000000E+03  0.12509000000E+03 0.  0.
        -13    1    3    3    0    0  0.44776737321E+02  0.12854828071E+02 -0.89126401097E+01  0.47430466238E+02  0.10566000000E+00 0.  1.
         23    2    1    0    0    0  0.56496274248E+01  0.19756731372E+02  0.19880791022E+02  0.96498172913E+02  0.92165095342E+02 0.  0.
         13    1    3    3    0    0 -0.39127109896E+02  0.69019033009E+01  0.28793431131E+02  0.49067706675E+02  0.10566000000E+00 0. -1.
         22    1    1    0    0    0 -0.56496274248E+01 -0.19756731372E+02 -0.19880791022E+02  0.28591827087E+02  0.00000000000E+00 0.  1.
</event>
<event>
 5    1  0.1255769E-009  0.9118800E+02  0.7561462E-02  0.1125453E+00
         25   -1    0    0    0    0  0.00000000000E+00  0.00000000000E+00  0.99999998245E-14  0.12509000000E+03  0.12509000000E+03 0.  0.
        -13    1    3    3    0    0 -0.21132775282E+02 -0.27283415887E+02  0.15000750105E+02  0.37629943414E+02  0.10566000000E+00 0.  1.
         23    2    1    0    0    0  0.24653190943E+02  0.85461138217E+01  0.13322945266E+02  0.95792956537E+02  0.91202926303E+02 0.  0.
         13    1    3    3    0    0  0.45785966225E+02  0.35829529709E+02 -0.16778048396E+01  0.58163013122E+02  0.10566000000E+00 0. -1.
         22    1    1    0    0    0 -0.24653190943E+02 -0.85461138217E+01 -0.13322945266E+02  0.29297043463E+02  0.00000000000E+00 0. -1.
</event>
<event>
 5    1  0.1255769E-009  0.9118800E+02  0.7561462E-02  0.1125453E+00
         25   -1    0    0    0    0  0.00000000000E+00  0.00000000000E+00  0.99999998245E-14  0.12509000000E+03  0.12509000000E+03 0.  0.
        -13    1    3    3    0    0  0.63133209470E+01 -0.39613855055E+01 -0.41128301527E+02  0.41798312729E+02  0.10566000000E+00 0.  1.
         23    2    1    0    0    0  0.15403446653E+02 -0.29033179496E+02  0.16205149030E+01  0.92183803790E+02  0.86110602903E+02 0.  0.
         13    1    3    3    0    0  0.90901257055E+01 -0.25071793991E+02  0.42748816430E+02  0.50385491061E+02  0.10566000000E+00 0. -1.
         22    1    1    0    0    0 -0.15403446653E+02  0.29033179496E+02 -0.16205149030E+01  0.32906196210E+02  0.00000000000E+00 0. -1.
</event>
<event>
 5    1  0.1255769E-009  0.9118800E+02  0.7561462E-02  0.1125453E+00
         25   -1    0    0    0    0  0.00000000000E+00  0.00000000000E+00  0.99999998245E-14  0.12509000000E+03  0.12509000000E+03 0.  0.
        -13    1    3    3    0    0 -0.26595159906E+02 -0.11796250676E+02  0.34290926410E+02  0.44970355330E+02  0.10566000000E+00 0. -1.
         23    2    1    0    0    0 -0.22431543462E+02 -0.13287445741E+02 -0.15368081727E+02  0.94826023190E+02  0.89866937089E+02 0.  0.
         13    1    3    3    0    0  0.41636164448E+01 -0.14911950650E+01 -0.49659008136E+02  0.49855667860E+02  0.10566000000E+00 0.  1.
         22    1    1    0    0    0  0.22431543462E+02  0.13287445741E+02  0.15368081727E+02  0.30263976810E+02  0.00000000000E+00 0. -1.
</event>
<event>
 5    1  0.1255769E-009  0.9118800E+02  0.7561462E-02  0.1125453E+00
         25   -1    0    0    0    0  0.00000000000E+00  0.00000000000E+00  0.99999998245E-14  0.12509000000E+03  0.12509000000E+03 0.  0.
        -13    1    3    3    0    0  0.34944919927E+02 -0.32337414022E+02  0.16669650444E+02  0.50445457519E+02  0.10566000000E+00 0.  1.
         23    2    1    0    0    0  0.11056358636E+02  0.47155652083E+01  0.26832784853E+02  0.95687993870E+02  0.91058850237E+02 0.  0.
         13    1    3    3    0    0 -0.23888561291E+02  0.37052979230E+02  0.10163134409E+02  0.45242536351E+02  0.10566000000E+00 0. -1.
         22    1    1    0    0    0 -0.11056358636E+02 -0.47155652083E+01 -0.26832784853E+02  0.29402006130E+02  0.00000000000E+00 0. -1.
</event>
<event>
 5    1  0.1255769E-009  0.9118800E+02  0.7561462E-02  0.1125453E+00
         25   -1    0    0    0    0  0.00000000000E+00  0.00000000000E+00  0.99999998245E-14  0.12509000000E+03  0.12509000000E+03 0.  0.
        -13    1    3    3    0    0 -0.24980565064E+02 -0.46427133982E+01  0.27303076200E+02  0.37296816923E+02  0.10566000000E+00 0.  1.
         23    2    1    0    0    0 -0.74672508338E+01  0.15085957271E+02 -0.24461702646E+02  0.95396215497E+02  0.90657140331E+02 0.  0.
         13    1    3    3    0    0  0.17513314230E+02  0.19728670669E+02 -0.51764778845E+02  0.58099398574E+02  0.10566000000E+00 0. -1.
         22    1    1    0    0    0  0.74672508338E+01 -0.15085957271E+02  0.24461702646E+02  0.29693784503E+02  0.00000000000E+00 0. -1.
</event>
<event>
 5    1  0.1255769E-009  0.9118800E+02  0.7561462E-02  0.1125453E+00
         25   -1    0    0    0    0  0.00000000000E+00  0.00000000000E+00  0.99999998245E-14  0.12509000000E+03  0.12509000000E+03 0.  0.
        -13    1    3    3    0    0  0.10157544955E+02  0.36188127873E+02  0.32667187774E+01  0.37728489687E+02  0.10566000000E+00 0.  1.
         23    2    1    0    0    0  0.14994847120E+02 -0.17879621010E+02 -0.17576118383E+02  0.95876198039E+02  0.91317025386E+02 0.  0.
         13    1    3    3    0    0  0.48373021646E+01 -0.54067748884E+02 -0.20842837160E+02  0.58147708351E+02  0.10566000000E+00 0. -1.
         22    1    1    0    0    0 -0.14994847120E+02  0.17879621010E+02  0.17576118383E+02  0.29213801961E+02  0.00000000000E+00 0.  1.
</event>
<event>
 5    1  0.1255769E-009  0.9118800E+02  0.7561462E-02  0.1125453E+00
         25   -1    0    0    0    0  0.00000000000E+00  0.00000000000E+00  0.99999998245E-14  0.12509000000E+03  0.12509000000E+03 0.  0.
        -13    1    3    3    0    0  0.43995857130E+02  0.32205884212E+02 -0.25507994978E+02  0.60195709102E+02  0.10566000000E+00 0.  1.
         23    2    1    0    0    0  0.27721521455E+02  0.90516999560E+01 -0.41883477829E+01  0.95628868300E+02  0.90977591589E+02 0.  0.
         13    1    3    3    0    0 -0.16274335674E+02 -0.23154184256E+02  0.21319647195E+02  0.35433159198E+02  0.10566000000E+00 0. -1.
         22    1    1    0    0    0 -0.27721521455E+02 -0.90516999560E+01  0.41883477829E+01  0.29461131700E+02  0.00000000000E+00 0.  1.
</event>
<event>
 5    1  0.1255769E-009  0.9118800E+02  0.7561462E-02  0.1125453E+00
         25   -1    0    0    0    0  0.00000000000E+00  0.00000000000E+00  0.99999998245E-14  0.12509000000E+03  0.12509000000E+03 0.  0.
        -13    1    3    3    0    0 -0.48897830270E+02  0.48449446380E+01  0.10753733761E+02  0.50300350372E+02  0.10566000000E+00 0. -1.
         23    2    1    0    0    0 -0.19077830328E+02 -0.18224708022E+02 -0.13821909054E+02  0.95304957404E+02  0.90531133559E+02 0.  0.
         13    1    3    3    0    0  0.29819999942E+02 -0.23069652660E+02 -0.24575642815E+02  0.45004607033E+02  0.10566000000E+00 0.  1.
         22    1    1    0    0    0  0.19077830328E+02  0.18224708022E+02  0.13821909054E+02  0.29785042596E+02  0.00000000000E+00 0.  1.
</event>
<event>
 5    1  0.1255769E-009  0.9118800E+02  0.7561462E-02  0.1125453E+00
         25   -1    0    0    0    0  0.00000000000E+00  0.00000000000E+00  0.99999998245E-14  0.12509000000E+03  0.12509000000E+03 0.  0.
        -13    1    3    3    0    0  0.22250804492E+02  0.12549556530E+02 -0.31593990239E+02  0.40629804982E+02  0.10566000000E+00 0.  1.
         23    2    1    0    0    0 -0.29240890175E+01  0.34838061119E+02  0.43626466925E+01  0.89858288641E+02  0.82663405158E+02 0.  0.
         13    1    3    3    0    0 -0.25174893509E+02  0.22288504589E+02  0.35956636931E+02  0.49228483660E+02  0.10566000000E+00 0. -1.
         22    1    1    0    0    0  0.29240890175E+01 -0.34838061119E+02 -0.43626466925E+01  0.35231711359E+02  0.00000000000E+00 0.  1.
</event>
<event>
 5    1  0.1255769E-009  0.9118800E+02  0.7561462E-02  0.1125453E+00
         25   -1    0    0    0    0  0.00000000000E+00  0.00000000000E+00  0.99999998245E-14  0.12509000000E+03  0.12509000000E+03 0.  0.
        -13    1    3    3    0    0  0.91133539852E+00  0.36707685370E+02 -0.21190496141E+02  0.42394964184E+02  0.10566000000E+00 0.  1.
         23    2    1    0    0    0  0.19192824106E+02  0.83882142025E+01  0.20346869124E+02  0.95888600756E+02  0.91334013583E+02 0.  0.
         13    1    3    3    0    0  0.18281488708E+02 -0.28319471167E+02  0.41537365265E+02  0.53493636572E+02  0.10566000000E+00 0. -1.
         22    1    1    0    0    0 -0.19192824106E+02 -0.83882142025E+01 -0.20346869124E+02  0.29201399244E+02  0.00000000000E+00 0. -1.
</event>
<event>
 5    1  0.1255769E-009  0.9118800E+02  0.7561462E-02  0.1125453E+00
         25   -1    0    0    0    0  0.00000000000E+00  0.00000000000E+00  0.99999998245E-14  0.12509000000E+03  0.12509000000E+03 0.  0.
        -13    1    3    3    0    0  0.89492923910E+00  0.49340189169E+02 -0.14973812214E+02  0.51570159800E+02  0.10566000000E+00 0.  1.
         23    2    1    0    0    0 -0.23308639812E+02  0.11658081340E+02 -0.11838802715E+02  0.96465520963E+02  0.92120768204E+02 0.  0.
         13    1    3    3    0    0 -0.24203569051E+02 -0.37682107829E+02  0.31350094988E+01  0.44895361162E+02  0.10566000000E+00 0. -1.
         22    1    1    0    0    0  0.23308639812E+02 -0.11658081340E+02  0.11838802715E+02  0.28624479037E+02  0.00000000000E+00 0.  1.
</event>
<event>
 5    1  0.1255769E-009  0.9118800E+02  0.7561462E-02  0.1125453E+00
         25   -1    0    0    0    0  0.00000000000E+00  0.00000000000E+00  0.99999998245E-14  0.12509000000E+03  0.12509000000E+03 0.  0.
        -13    1    3    3    0    0  0.42966713558E+02 -0.31761220104E+01 -0.39262152894E+01  0.43262599963E+02  0.10566000000E+00 0.  1.
         23    2    1    0    0    0  0.65552617958E+00 -0.23970454474E+02  0.17852376068E+02  0.95194854348E+02  0.90378872315E+02 0.  0.
         13    1    3    3    0    0 -0.42311187379E+02 -0.20794332463E+02  0.21778591358E+02  0.51932254385E+02  0.10566000000E+00 0. -1.
         22    1    1    0    0    0 -0.65552617958E+00  0.23970454474E+02 -0.17852376068E+02  0.29895145652E+02  0.00000000000E+00 0. -1.
</event>
<event>
 5    1  0.1255769E-009  0.9118800E+02  0.7561462E-02  0.1125453E+00
         25   -1    0    0    0    0  0.00000000000E+00  0.00000000000E+00  0.99999998245E-14  0.12509000000E+03  0.12509000000E+03 0.  0.
        -13    1    3    3    0    0  0.43246350876E+02  0.36049411318E+02  0.42147634208E+01  0.56458677944E+02  0.10566000000E+00 0. -1.
         23    2    1    0    0    0  0.37261772506E+02  0.22123804627E+02 -0.13431824364E+02  0.79721328792E+02  0.65552833174E+02 0.  0.
         13    1    3    3    0    0 -0.59845783705E+01 -0.13925606691E+02 -0.17646587785E+02  0.23262650848E+02  0.10566000000E+00 0.  1.
         22    1    1    0    0    0 -0.37261772506E+02 -0.22123804627E+02  0.13431824364E+02  0.45368671208E+02  0.00000000000E+00 0. -1.
</event>
<event>
 5    1  0.1255769E-009  0.9118800E+02  0.7561462E-02  0.1125453E+00
         25   -1    0    0    0    0  0.00000000000E+00  0.00000000000E+00  0.99999998245E-14  0.12509000000E+03  0.12509000000E+03 0.  0.
        -13    1    3    3    0    0  0.30732986240E+02  0.20186748484E+02  0.13497689550E+02  0.39169121062E+02  0.10566000000E+00 0.  1.
         23    2    1    0    0    0 -0.25046307464E+02  0.55624126554E+01 -0.32792553105E+01  0.99224744008E+02  0.95794250120E+02 0.  0.
         13    1    3    3    0    0 -0.55779293704E+02 -0.14624335829E+02 -0.16776944860E+02  0.60055622946E+02  0.10566000000E+00 0. -1.
         22    1    1    0    0    0  0.25046307464E+02 -0.55624126554E+01  0.32792553105E+01  0.25865255992E+02  0.00000000000E+00 0. -1.
</event>
<event>
 5    1  0.1255769E-009  0.9118800E+02  0.7561462E-02  0.1125453E+00
         25   -1    0    0    0    0  0.00000000000E+00  0.00000000000E+00  0.99999998245E-14  0.12509000000E+03  0.12509000000E+03 0.  0.
        -13    1    3    3    0    0  0.16912885661E+02  0.35270864399E+02  0.61031106039E+01  0.39589628692E+02  0.10566000000E+00 0.  1.
         23    2    1    0    0    0  0.16991692928E+02 -0.18925667831E+02  0.16497237446E+02  0.94774040923E+02  0.89794551383E+02 0.  0.
         13    1    3    3    0    0  0.78807266916E-01 -0.54196532231E+02  0.10394126842E+02  0.55184412231E+02  0.10566000000E+00 0. -1.
         22    1    1    0    0    0 -0.16991692928E+02  0.18925667831E+02 -0.16497237446E+02  0.30315959077E+02  0.00000000000E+00 0. -1.
</event>
<event>
 5    1  0.1255769E-009  0.9118800E+02  0.7561462E-02  0.1125453E+00
         25   -1    0    0    0    0  0.00000000000E+00  0.00000000000E+00  0.99999998245E-14  0.12509000000E+03  0.12509000000E+03 0.  0.
        -13    1    3    3    0    0  0.17478017504E+02  0.34981205483E+02  0.21275352668E+02  0.44517610315E+02  0.10566000000E+00 0.  1.
         23    2    1    0    0    0 -0.25929512796E+02  0.11605912362E+02  0.81148456803E+01  0.95545329483E+02  0.90862656961E+02 0.  0.
         13    1    3    3    0    0 -0.43407530300E+02 -0.23375293122E+02 -0.13160506988E+02  0.51027719168E+02  0.10566000000E+00 0. -1.
         22    1    1    0    0    0  0.25929512796E+02 -0.11605912362E+02 -0.81148456803E+01  0.29544670517E+02  0.00000000000E+00 0.  1.
</event>
<event>
 5    1  0.1255769E-009  0.9118800E+02  0.7561462E-02  0.1125453E+00
         25   -1    0    0    0    0  0.00000000000E+00  0.00000000000E+00  0.99999998245E-14  0.12509000000E+03  0.12509000000E+03 0.  0.
        -13    1    3    3    0    0 -0.23064285170E+02 -0.23425628507E+02  0.36986094560E+02  0.49484378102E+02  0.10566000000E+00 0. -1.
         23    2    1    0    0    0 -0.25099374348E+02  0.95628204236E+01  0.11918220941E+01  0.98204193949E+02  0.94452195010E+02 0.  0.
         13    1    3    3    0    0 -0.20350891777E+01  0.32988448931E+02 -0.35794272465E+02  0.48719815847E+02  0.10566000000E+00 0.  1.
         22    1    1    0    0    0  0.25099374348E+02 -0.95628204236E+01 -0.11918220941E+01  0.26885806051E+02  0.00000000000E+00 0.  1.
</event>
<event>
 5    1  0.1255769E-009  0.9118800E+02  0.7561462E-02  0.1125453E+00
         25   -1    0    0    0    0  0.00000000000E+00  0.00000000000E+00  0.99999998245E-14  0.12509000000E+03  0.12509000000E+03 0.  0.
        -13    1    3    3    0    0 -0.43944903203E+01 -0.23157078559E+02  0.29140084604E+02  0.37479561461E+02  0.10566000000E+00 0. -1.
         23    2    1    0    0    0 -0.99307592930E+01  0.54807012621E+01 -0.24250344358E+02  0.98318050726E+02  0.94602863755E+02 0.  0.
         13    1    3    3    0    0 -0.55362689726E+01  0.28637779821E+02 -0.53390428962E+02  0.60838489265E+02  0.10566000000E+00 0.  1.
         22    1    1    0    0    0  0.99307592930E+01 -0.54807012621E+01  0.24250344358E+02  0.26771949274E+02  0.00000000000E+00 0.  1.
</event>
<event>
 5    1  0.1255769E-009  0.9118800E+02  0.7561462E-02  0.1125453E+00
         25   -1    0    0    0    0  0.00000000000E+00  0.00000000000E+00  0.99999998245E-14  0.12509000000E+03  0.12509000000E+03 0.  0.
        -13    1    3    3    0    0  0.99886543857E+01  0.26159387695E+02 -0.55159123960E+02  0.61859735701E+02  0.10566000000E+00 0. -1.
         23    2    1    0    0    0  0.51012002096E+01  0.17972068142E+02 -0.22698270679E+02  0.95692228508E+02  0.91064667287E+02 0.  0.
         13    1    3    3    0    0 -0.48874541760E+01 -0.81873195533E+01  0.32460853280E+02  0.33832492806E+02  0.10566000000E+00 0.  1.
         22    1    1    0    0    0 -0.51012002096E+01 -0.17972068142E+02  0.22698270679E+02  0.29397771492E+02  0.00000000000E+00 0. -1.
</event>
<event>
 5    1  0.1255769E-009  0.9118800E+02  0.7561462E-02  0.1125453E+00
         25   -1    0    0    0    0  0.00000000000E+00  0.00000000000E+00  0.99999998245E-14  0.12509000000E+03  0.12509000000E+03 0.  0.
        -13    1    3    3    0    0  0.18277313384E+02 -0.28179158749E+02 -0.17893310681E+02  0.38056627590E+02  0.10566000000E+00 0.  1.
         23    2    1    0    0    0 -0.83099843135E+01 -0.58431502458E+01  0.27825877273E+02  0.95467750084E+02  0.90755791087E+02 0.  0.
         13    1    3    3    0    0 -0.26587297697E+02  0.22336008504E+02  0.45719187954E+02  0.57411122494E+02  0.10566000000E+00 0. -1.
         22    1    1    0    0    0  0.83099843135E+01  0.58431502458E+01 -0.27825877273E+02  0.29622249916E+02  0.00000000000E+00 0. -1.
</event>
<event>
 5    1  0.1255769E-009  0.9118800E+02  0.7561462E-02  0.1125453E+00
         25   -1    0    0    0    0  0.00000000000E+00  0.00000000000E+00  0.99999998245E-14  0.12509000000E+03  0.12509000000E+03 0.  0.
        -13    1    3    3    0    0 -0.36674564843E+02 -0.39558112010E+02 -0.44755402335E+01  0.54128638969E+02  0.10566000000E+00 0.  1.
         23    2    1    0    0    0 -0.86369013393E+01 -0.14522993797E+02 -0.23411845162E+02  0.96217384817E+02  0.91783207798E+02 0.  0.
         13    1    3    3    0    0  0.28037663504E+02  0.25035118213E+02 -0.18936304929E+02  0.42088745848E+02  0.10566000000E+00 0. -1.
         22    1    1    0    0    0  0.86369013393E+01  0.14522993797E+02  0.23411845162E+02  0.28872615183E+02  0.00000000000E+00 0.  1.
</event>
<event>
 5    1  0.1255769E-009  0.9118800E+02  0.7561462E-02  0.1125453E+00
         25   -1    0    0    0    0  0.00000000000E+00  0.00000000000E+00  0.99999998245E-14  0.12509000000E+03  0.12509000000E+03 0.  0.
        -13    1    3    3    0    0  0.33115871159E+02 -0.58271737104E+01  0.54777144498E+01  0.34068070032E+02  0.10566000000E+00 0.  1.
         23    2    1    0    0    0 -0.26643454232E+02 -0.12737044125E+02 -0.50205950350E+01  0.95134828144E+02  0.90295754081E+02 0.  0.
         13    1    3    3    0    0 -0.59759325390E+02 -0.69098704147E+01 -0.10498309485E+02  0.61066758112E+02  0.10566000000E+00 0. -1.
         22    1    1    0    0    0  0.26643454232E+02  0.12737044125E+02  0.50205950350E+01  0.29955171856E+02  0.00000000000E+00 0. -1.
</event>
<event>
 5    1  0.1255769E-009  0.9118800E+02  0.7561462E-02  0.1125453E+00
         25   -1    0    0    0    0  0.00000000000E+00  0.00000000000E+00  0.99999998245E-14  0.12509000000E+03  0.12509000000E+03 0.  0.
        -13    1    3    3    0    0  0.19815098482E+02 -0.46229358990E+02  0.28457518094E+02  0.57789560135E+02  0.10566000000E+00 0.  1.
         23    2    1    0    0    0  0.63622597386E+01 -0.10573699335E+02  0.26392868222E+02  0.95954712811E+02  0.91424515045E+02 0.  0.
         13    1    3    3    0    0 -0.13452838743E+02  0.35655659655E+02 -0.20646498722E+01  0.38165152677E+02  0.10566000000E+00 0. -1.
         22    1    1    0    0    0 -0.63622597386E+01  0.10573699335E+02 -0.26392868222E+02  0.29135287189E+02  0.00000000000E+00 0.  1.
</event>
<event>
 5    1  0.1255769E-009  0.9118800E+02  0.7561462E-02  0.1125453E+00
         25   -1    0    0    0    0  0.00000000000E+00  0.00000000000E+00  0.99999998245E-14  0.12509000000E+03  0.12509000000E+03 0.  0.
        -13    1    3    3    0    0  0.32272697499E+02  0.17598874703E+02  0.82764362787E+01  0.37679675638E+02  0.10566000000E+00 0.  1.
         23    2    1    0    0    0 -0.25582449714E+02  0.99931961496E+01  0.94506387320E+01  0.96044513688E+02  0.91547301078E+02 0.  0.
         13    1    3    3    0    0 -0.57855147213E+02 -0.76056785532E+01  0.11742024533E+01  0.58364838051E+02  0.10566000000E+00 0. -1.
         22    1    1    0    0    0  0.25582449714E+02 -0.99931961496E+01 -0.94506387320E+01  0.29045486312E+02  0.00000000000E+00 0. -1.
</event>
<event>
 5    1  0.1255769E-009  0.9118800E+02  0.7561462E-02  0.1125453E+00
         25   -1    0    0    0    0  0.00000000000E+00  0.00000000000E+00  0.99999998245E-14  0.12509000000E+03  0.12509000000E+03 0.  0.
        -13    1    3    3    0    0  0.33224273273E+02 -0.12561839413E+02 -0.51231123492E+02  0.62340126100E+02  0.10566000000E+00 0.  1.
         23    2    1    0    0    0  0.18777721744E+02 -0.63444533215E+01 -0.22418180369E+02  0.95166268065E+02  0.90339298450E+02 0.  0.
         13    1    3    3    0    0 -0.14446551529E+02  0.62173860913E+01  0.28812943122E+02  0.32826141965E+02  0.10566000000E+00 0. -1.
         22    1    1    0    0    0 -0.18777721744E+02  0.63444533215E+01  0.22418180369E+02  0.29923731935E+02  0.00000000000E+00 0.  1.
</event>
<event>
 5    1  0.1255769E-009  0.9118800E+02  0.7561462E-02  0.1125453E+00
         25   -1    0    0    0    0  0.00000000000E+00  0.00000000000E+00  0.99999998245E-14  0.12509000000E+03  0.12509000000E+03 0.  0.
        -13    1    3    3    0    0  0.17710899337E+02 -0.45822411642E+02 -0.74527649136E+01  0.49688270576E+02  0.10566000000E+00 0.  1.
         23    2    1    0    0    0  0.28859546857E+02 -0.11778851614E+02  0.13425294655E+02  0.91151035273E+02  0.84597032481E+02 0.  0.
         13    1    3    3    0    0  0.11148647520E+02  0.34043560028E+02  0.20878059569E+02  0.41462764697E+02  0.10566000000E+00 0. -1.
         22    1    1    0    0    0 -0.28859546857E+02  0.11778851614E+02 -0.13425294655E+02  0.33938964727E+02  0.00000000000E+00 0. -1.
</event>
<event>
 5    1  0.1255769E-009  0.9118800E+02  0.7561462E-02  0.1125453E+00
         25   -1    0    0    0    0  0.00000000000E+00  0.00000000000E+00  0.99999998245E-14  0.12509000000E+03  0.12509000000E+03 0.  0.
        -13    1    3    3    0    0  0.10314922688E+02 -0.18839005548E+02  0.38624288712E+02  0.44194486111E+02  0.10566000000E+00 0.  1.
         23    2    1    0    0    0 -0.25573586236E+02 -0.16252971791E+02  0.33135653974E+01  0.94608085351E+02  0.89563065452E+02 0.  0.
         13    1    3    3    0    0 -0.35888508923E+02  0.25860337568E+01 -0.35310723315E+02  0.50413599240E+02  0.10566000000E+00 0. -1.
         22    1    1    0    0    0  0.25573586236E+02  0.16252971791E+02 -0.33135653974E+01  0.30481914649E+02  0.00000000000E+00 0. -1.
</event>
<event>
 5    1  0.1255769E-009  0.9118800E+02  0.7561462E-02  0.1125453E+00
         25   -1    0    0    0    0  0.00000000000E+00  0.00000000000E+00  0.99999998245E-14  0.12509000000E+03  0.12509000000E+03 0.  0.
        -13    1    3    3    0    0  0.34491637287E+02 -0.29241868838E+02 -0.25278733667E+02  0.51805264942E+02  0.10566000000E+00 0.  1.
         23    2    1    0    0    0  0.63804926897E+00 -0.28397506503E+02  0.37886699661E+01  0.96433770266E+02  0.92077644112E+02 0.  0.
         13    1    3    3    0    0 -0.33853588018E+02  0.84436233551E+00  0.29067403633E+02  0.44628505324E+02  0.10566000000E+00 0. -1.
         22    1    1    0    0    0 -0.63804926897E+00  0.28397506503E+02 -0.37886699661E+01  0.28656229734E+02  0.00000000000E+00 0.  1.
</event>
<event>
 5    1  0.1255769E-009  0.9118800E+02  0.7561462E-02  0.1125453E+00
         25   -1    0    0    0    0  0.00000000000E+00  0.00000000000E+00  0.99999998245E-14  0.12509000000E+03  0.12509000000E+03 0.  0.
        -13    1    3    3    0    0  0.40585239265E+01  0.18193309416E+01  0.35753879182E+02  0.36029607576E+02  0.10566000000E+00 0.  1.
         23    2    1    0    0    0  0.22873253906E+01  0.18160118083E+02 -0.22227743891E+02  0.96296001585E+02  0.91890290981E+02 0.  0.
         13    1    3    3    0    0 -0.17711985359E+01  0.16340787142E+02 -0.57981623072E+02  0.60266394009E+02  0.10566000000E+00 0. -1.
         22    1    1    0    0    0 -0.22873253906E+01 -0.18160118083E+02  0.22227743891E+02  0.28793998415E+02  0.00000000000E+00 0. -1.
</event>
<event>
 5    1  0.1255769E-009  0.9118800E+02  0.7561462E-02  0.1125453E+00
         25   -1    0    0    0    0  0.00000000000E+00  0.00000000000E+00  0.99999998245E-14  0.12509000000E+03  0.12509000000E+03 0.  0.
        -13    1    3    3    0    0  0.59349584165E+01 -0.53004504040E+02 -0.29724989937E+01  0.53418611871E+02  0.10566000000E+00 0.  1.
         23    2    1    0    0    0 -0.14835638827E+02 -0.21533219444E+02  0.14732830788E+02  0.95076136169E+02  0.90214409308E+02 0.  0.
         13    1    3    3    0    0 -0.20770597244E+02  0.31471284596E+02  0.17705329781E+02  0.41657524298E+02  0.10566000000E+00 0. -1.
         22    1    1    0    0    0  0.14835638827E+02  0.21533219444E+02 -0.14732830788E+02  0.30013863831E+02  0.00000000000E+00 0. -1.
</event>
<event>
 5    1  0.1255769E-009  0.9118800E+02  0.7561462E-02  0.1125453E+00
         25   -1    0    0    0    0  0.00000000000E+00  0.00000000000E+00  0.99999998245E-14  0.12509000000E+03  0.12509000000E+03 0.  0.
        -13    1    3    3    0    0  0.21583502108E+02 -0.32451785556E+02  0.10546128478E+01  0.38988322884E+02  0.10566000000E+00 0.  1.
         23    2    1    0    0    0 -0.24147626312E+02 -0.84322782115E+01 -0.17746413773E+02  0.93958884148E+02  0.88651709156E+02 0.  0.
         13    1    3    3    0    0 -0.45731128420E+02  0.24019507345E+02 -0.18801026621E+02  0.54970561264E+02  0.10566000000E+00 0. -1.
         22    1    1    0    0    0  0.24147626312E+02  0.84322782115E+01  0.17746413773E+02  0.31131115852E+02  0.00000000000E+00 0. -1.
</event>
<event>
 5    1  0.1255769E-009  0.9118800E+02  0.7561462E-02  0.1125453E+00
         25   -1    0    0    0    0  0.00000000000E+00  0.00000000000E+00  0.99999998245E-14  0.12509000000E+03  0.12509000000E+03 0.  0.
        -13    1    3    3    0    0 -0.20562858250E+02  0.23547547605E+02 -0.18017005632E+02  0.36082430539E+02  0.10566000000E+00 0. -1.
         23    2    1    0    0    0  0.26089861065E+02 -0.11798330856E+02 -0.57263661909E+01  0.95889439540E+02  0.91335162365E+02 0.  0.
         13    1    3    3    0    0  0.46652719316E+02 -0.35345878461E+02  0.12290639441E+02  0.59807009001E+02  0.10566000000E+00 0.  1.
         22    1    1    0    0    0 -0.26089861065E+02  0.11798330856E+02  0.57263661909E+01  0.29200560460E+02  0.00000000000E+00 0.  1.
</event>
<event>
 5    1  0.1255769E-009  0.9118800E+02  0.7561462E-02  0.1125453E+00
         25   -1    0    0    0    0  0.00000000000E+00  0.00000000000E+00  0.99999998245E-14  0.12509000000E+03  0.12509000000E+03 0.  0.
        -13    1    3    3    0    0 -0.46549674875E+02  0.99778764695E+01 -0.40213364342E+02  0.62318184228E+02  0.10566000000E+00 0.  1.
         23    2    1    0    0    0 -0.29577035632E+02  0.80737354122E+01 -0.29871589045E+02  0.82284649022E+02  0.70274215701E+02 0.  0.
         13    1    3    3    0    0  0.16972639243E+02 -0.19041410573E+01  0.10341775297E+02  0.19966464794E+02  0.10566000000E+00 0. -1.
         22    1    1    0    0    0  0.29577035632E+02 -0.80737354122E+01  0.29871589045E+02  0.42805350978E+02  0.00000000000E+00 0.  1.
</event>
<event>
 5    1  0.1255769E-009  0.9118800E+02  0.7561462E-02  0.1125453E+00
         25   -1    0    0    0    0  0.00000000000E+00  0.00000000000E+00  0.99999998245E-14  0.12509000000E+03  0.12509000000E+03 0.  0.
        -13    1    3    3    0    0 -0.13075372931E+02  0.18175905962E+02 -0.55283006398E+02  0.59645208485E+02  0.10566000000E+00 0.  1.
         23    2    1    0    0    0 -0.13134118200E+02 -0.30053033565E+01 -0.26254873407E+02  0.95579742685E+02  0.90910021037E+02 0.  0.
         13    1    3    3    0    0 -0.58745269711E-01 -0.21181209319E+02  0.29028132991E+02  0.35934534200E+02  0.10566000000E+00 0. -1.
         22    1    1    0    0    0  0.13134118200E+02  0.30053033565E+01  0.26254873407E+02  0.29510257315E+02  0.00000000000E+00 0.  1.
</event>
<event>
 5    1  0.1255769E-009  0.9118800E+02  0.7561462E-02  0.1125453E+00
         25   -1    0    0    0    0  0.00000000000E+00  0.00000000000E+00  0.99999998245E-14  0.12509000000E+03  0.12509000000E+03 0.  0.
        -13    1    3    3    0    0 -0.32981629122E+02 -0.16571801726E+02  0.17399120443E+02  0.40806286626E+02  0.10566000000E+00 0.  1.
         23    2    1    0    0    0 -0.19049825863E+02  0.27397319761E+02 -0.36800108906E+01  0.91518412673E+02  0.85138524667E+02 0.  0.
         13    1    3    3    0    0  0.13931803259E+02  0.43969121487E+02 -0.21079131333E+02  0.50712126047E+02  0.10566000000E+00 0. -1.
         22    1    1    0    0    0  0.19049825863E+02 -0.27397319761E+02  0.36800108906E+01  0.33571587327E+02  0.00000000000E+00 0. -1.
</event>
<event>
 5    1  0.1255769E-009  0.9118800E+02  0.7561462E-02  0.1125453E+00
         25   -1    0    0    0    0  0.00000000000E+00  0.00000000000E+00  0.99999998245E-14  0.12509000000E+03  0.12509000000E+03 0.  0.
        -13    1    3    3    0    0 -0.34936935108E+02  0.46232900100E+02 -0.22246318242E+02  0.62072379733E+02  0.10566000000E+00 0.  1.
         23    2    1    0    0    0 -0.16348550904E+02  0.18060313338E+02 -0.14630402773E+02  0.96673478049E+02  0.92402719864E+02 0.  0.
         13    1    3    3    0    0  0.18588384204E+02 -0.28172586762E+02  0.76159154687E+01  0.34601098316E+02  0.10566000000E+00 0. -1.
         22    1    1    0    0    0  0.16348550904E+02 -0.18060313338E+02  0.14630402773E+02  0.28416521951E+02  0.00000000000E+00 0.  1.
</event>
<event>
 5    1  0.1255769E-009  0.9118800E+02  0.7561462E-02  0.1125453E+00
         25   -1    0    0    0    0  0.00000000000E+00  0.00000000000E+00  0.99999998245E-14  0.12509000000E+03  0.12509000000E+03 0.  0.
        -13    1    3    3    0    0 -0.38950613503E+02 -0.14675591892E+02  0.26420658240E+01  0.41707492918E+02  0.10566000000E+00 0. -1.
         23    2    1    0    0    0  0.17525543885E+02 -0.38987756400E+01  0.16341852586E+02  0.10081241186E+03  0.97845496060E+02 0.  0.
         13    1    3    3    0    0  0.56476157388E+02  0.10776816252E+02  0.13699786762E+02  0.59104918942E+02  0.10566000000E+00 0.  1.
         22    1    1    0    0    0 -0.17525543885E+02  0.38987756400E+01 -0.16341852586E+02  0.24277588140E+02  0.00000000000E+00 0.  1.
</event>
<event>
 5    1  0.1255769E-009  0.9118800E+02  0.7561462E-02  0.1125453E+00
         25   -1    0    0    0    0  0.00000000000E+00  0.00000000000E+00  0.99999998245E-14  0.12509000000E+03  0.12509000000E+03 0.  0.
        -13    1    3    3    0    0 -0.67262139474E+01  0.38914708322E+02 -0.15996831972E+02  0.42608758196E+02  0.10566000000E+00 0.  1.
         23    2    1    0    0    0  0.14835875945E+02  0.68328636929E+01  0.22581273965E+02  0.97220569163E+02  0.93140398825E+02 0.  0.
         13    1    3    3    0    0  0.21562089892E+02 -0.32081844629E+02  0.38578105937E+02  0.54611810967E+02  0.10566000000E+00 0. -1.
         22    1    1    0    0    0 -0.14835875945E+02 -0.68328636929E+01 -0.22581273965E+02  0.27869430837E+02  0.00000000000E+00 0.  1.
</event>
<event>
 5    1  0.1255769E-009  0.9118800E+02  0.7561462E-02  0.1125453E+00
         25   -1    0    0    0    0  0.00000000000E+00  0.00000000000E+00  0.99999998245E-14  0.12509000000E+03  0.12509000000E+03 0.  0.
        -13    1    3    3    0    0 -0.12412640015E+02  0.26014752890E+02 -0.16650336277E+02  0.33287923670E+02  0.10566000000E+00 0.  1.
         23    2    1    0    0    0  0.13266210482E+02 -0.27594870650E+02 -0.26461556792E+01  0.94357747128E+02  0.89212740550E+02 0.  0.
         13    1    3    3    0    0  0.25678850497E+02 -0.53609623540E+02  0.14004180598E+02  0.61069823458E+02  0.10566000000E+00 0. -1.
         22    1    1    0    0    0 -0.13266210482E+02  0.27594870650E+02  0.26461556792E+01  0.30732252872E+02  0.00000000000E+00 0. -1.
</event>
<event>
 5    1  0.1255769E-009  0.9118800E+02  0.7561462E-02  0.1125453E+00
         25   -1    0    0    0    0  0.00000000000E+00  0.00000000000E+00  0.99999998245E-14  0.12509000000E+03  0.12509000000E+03 0.  0.
        -13    1    3    3    0    0  0.21958200807E+02 -0.28232026573E+02 -0.28905216843E+01  0.35882811857E+02  0.10566000000E+00 0.  1.
         23    2    1    0    0    0 -0.91033863626E+01  0.21740265249E+02 -0.16554545156E+02  0.96287851787E+02  0.91879196014E+02 0.  0.
         13    1    3    3    0    0 -0.31061587170E+02  0.49972291822E+02 -0.13664023472E+02  0.60405039930E+02  0.10566000000E+00 0. -1.
         22    1    1    0    0    0  0.91033863626E+01 -0.21740265249E+02  0.16554545156E+02  0.28802148213E+02  0.00000000000E+00 0. -1.
</event>
<event>
 5    1  0.1255769E-009  0.9118800E+02  0.7561462E-02  0.1125453E+00
         25   -1    0    0    0    0  0.00000000000E+00  0.00000000000E+00  0.99999998245E-14  0.12509000000E+03  0.12509000000E+03 0.  0.
        -13    1    3    3    0    0 -0.40055174336E+02  0.91546199802E+01 -0.29357485000E+02  0.50498486587E+02  0.10566000000E+00 0.  1.
         23    2    1    0    0    0 -0.93933350697E-01 -0.13438618876E+02 -0.25121711050E+02  0.96599551305E+02  0.92302587425E+02 0.  0.
         13    1    3    3    0    0  0.39961240985E+02 -0.22593238856E+02  0.42357739505E+01  0.46101064717E+02  0.10566000000E+00 0. -1.
         22    1    1    0    0    0  0.93933350697E-01  0.13438618876E+02  0.25121711050E+02  0.28490448695E+02  0.00000000000E+00 0.  1.
</event>
<event>
 5    1  0.1255769E-009  0.9118800E+02  0.7561462E-02  0.1125453E+00
         25   -1    0    0    0    0  0.00000000000E+00  0.00000000000E+00  0.99999998245E-14  0.12509000000E+03  0.12509000000E+03 0.  0.
        -13    1    3    3    0    0 -0.25573615737E+02 -0.12325445481E+02  0.22816644716E+02  0.36421653838E+02  0.10566000000E+00 0. -1.
         23    2    1    0    0    0  0.27431515014E+02 -0.29240165222E+01 -0.50584880475E+01  0.97043142958E+02  0.92901805177E+02 0.  0.
         13    1    3    3    0    0  0.53005130752E+02  0.94014289585E+01 -0.27875132764E+02  0.60621489120E+02  0.10566000000E+00 0.  1.
         22    1    1    0    0    0 -0.27431515014E+02  0.29240165222E+01  0.50584880475E+01  0.28046857042E+02  0.00000000000E+00 0.  1.
</event>
<event>
 5    1  0.1255769E-009  0.9118800E+02  0.7561462E-02  0.1125453E+00
         25   -1    0    0    0    0  0.00000000000E+00  0.00000000000E+00  0.99999998245E-14  0.12509000000E+03  0.12509000000E+03 0.  0.
        -13    1    3    3    0    0  0.22840708739E+02  0.12166963780E+01  0.58196353127E+02  0.62530032841E+02  0.10566000000E+00 0.  1.
         23    2    1    0    0    0  0.11045436765E+02  0.13167966634E+01  0.26515622724E+02  0.96335628589E+02  0.91944219288E+02 0.  0.
         13    1    3    3    0    0 -0.11795271973E+02  0.10010028540E+00 -0.31680730403E+02  0.33805595748E+02  0.10566000000E+00 0. -1.
         22    1    1    0    0    0 -0.11045436765E+02 -0.13167966634E+01 -0.26515622724E+02  0.28754371411E+02  0.00000000000E+00 0.  1.
</event>
<event>
 5    1  0.1255769E-009  0.9118800E+02  0.7561462E-02  0.1125453E+00
         25   -1    0    0    0    0  0.00000000000E+00  0.00000000000E+00  0.99999998245E-14  0.12509000000E+03  0.12509000000E+03 0.  0.
        -13    1    3    3    0    0 -0.27716430927E+02 -0.28072732323E+02  0.73886670699E+01  0.40135799587E+02  0.10566000000E+00 0. -1.
         23    2    1    0    0    0 -0.62602907735E+01  0.20665459108E+02  0.20861457132E+02  0.95065795858E+02  0.90200070442E+02 0.  0.
         13    1    3    3    0    0  0.21456140153E+02  0.48738191431E+02  0.13472790062E+02  0.54929996271E+02  0.10566000000E+00 0.  1.
         22    1    1    0    0    0  0.62602907735E+01 -0.20665459108E+02 -0.20861457132E+02  0.30024204142E+02  0.00000000000E+00 0.  1.
</event>
<event>
 5    1  0.1255769E-009  0.9118800E+02  0.7561462E-02  0.1125453E+00
         25   -1    0    0    0    0  0.00000000000E+00  0.00000000000E+00  0.99999998245E-14  0.12509000000E+03  0.12509000000E+03 0.  0.
        -13    1    3    3    0    0  0.37972419554E+02 -0.24190305810E+02  0.31082089349E+02  0.54709989804E+02  0.10566000000E+00 0.  1.
         23    2    1    0    0    0  0.93177752378E+01  0.51961106306E+01  0.27121902526E+02  0.95945221776E+02  0.91411528179E+02 0.  0.
         13    1    3    3    0    0 -0.28654644317E+02  0.29386416440E+02 -0.39601868226E+01  0.41235231972E+02  0.10566000000E+00 0. -1.
         22    1    1    0    0    0 -0.93177752378E+01 -0.51961106306E+01 -0.27121902526E+02  0.29144778224E+02  0.00000000000E+00 0.  1.
</event>
<event>
 5    1  0.1255769E-009  0.9118800E+02  0.7561462E-02  0.1125453E+00
         25   -1    0    0    0    0  0.00000000000E+00  0.00000000000E+00  0.99999998245E-14  0.12509000000E+03  0.12509000000E+03 0.  0.
        -13    1    3    3    0    0 -0.87777216499E+01 -0.38800985991E+02 -0.67153212471E+01  0.40344412435E+02  0.10566000000E+00 0.  1.
         23    2    1    0    0    0  0.29087875921E+02  0.14468612249E+01 -0.41026317092E+00  0.95963272602E+02  0.91436226080E+02 0.  0.
         13    1    3    3    0    0  0.37865597571E+02  0.40247847216E+02  0.63050580762E+01  0.55618860167E+02  0.10566000000E+00 0. -1.
         22    1    1    0    0    0 -0.29087875921E+02 -0.14468612249E+01  0.41026317092E+00  0.29126727398E+02  0.00000000000E+00 0. -1.
</event>
<event>
 5    1  0.1255769E-009  0.9118800E+02  0.7561462E-02  0.1125453E+00
         25   -1    0    0    0    0  0.00000000000E+00  0.00000000000E+00  0.99999998245E-14  0.12509000000E+03  0.12509000000E+03 0.  0.
        -13    1    3    3    0    0  0.32410372411E+02  0.24424591426E+02 -0.84683638801E+01  0.41457414982E+02  0.10566000000E+00 0.  1.
         23    2    1    0    0    0  0.14523946089E+02 -0.21176546162E+02  0.14545422515E+02  0.95577961211E+02  0.90907569739E+02 0.  0.
         13    1    3    3    0    0 -0.17886426322E+02 -0.45601137588E+02  0.23013786395E+02  0.54120546229E+02  0.10566000000E+00 0. -1.
         22    1    1    0    0    0 -0.14523946089E+02  0.21176546162E+02 -0.14545422515E+02  0.29512038789E+02  0.00000000000E+00 0. -1.
</event>
<event>
 5    1  0.1255769E-009  0.9118800E+02  0.7561462E-02  0.1125453E+00
         25   -1    0    0    0    0  0.00000000000E+00  0.00000000000E+00  0.99999998245E-14  0.12509000000E+03  0.12509000000E+03 0.  0.
        -13    1    3    3    0    0 -0.19832864372E+02 -0.24658515263E+02  0.21140512318E+02  0.38056764304E+02  0.10566000000E+00 0. -1.
         23    2    1    0    0    0  0.28220862895E+02  0.16809001146E-01 -0.19457413203E+01  0.96802135210E+02  0.92576725406E+02 0.  0.
         13    1    3    3    0    0  0.48053727267E+02  0.24675324264E+02 -0.23086253638E+02  0.58745370906E+02  0.10566000000E+00 0.  1.
         22    1    1    0    0    0 -0.28220862895E+02 -0.16809001146E-01  0.19457413203E+01  0.28287864790E+02  0.00000000000E+00 0.  1.
</event>
<event>
 5    1  0.1255769E-009  0.9118800E+02  0.7561462E-02  0.1125453E+00
         25   -1    0    0    0    0  0.00000000000E+00  0.00000000000E+00  0.99999998245E-14  0.12509000000E+03  0.12509000000E+03 0.  0.
        -13    1    3    3    0    0 -0.10097710063E+02  0.49945306051E+02  0.26895924785E+02  0.57618567139E+02  0.10566000000E+00 0. -1.
         23    2    1    0    0    0 -0.16574904567E+02  0.14159400482E+02  0.21656983357E+02  0.94361495131E+02  0.89217995672E+02 0.  0.
         13    1    3    3    0    0 -0.64771945035E+01 -0.35785905570E+02 -0.52389414284E+01  0.36742927992E+02  0.10566000000E+00 0.  1.
         22    1    1    0    0    0  0.16574904567E+02 -0.14159400482E+02 -0.21656983357E+02  0.30728504869E+02  0.00000000000E+00 0. -1.
</event>
<event>
 5    1  0.1255769E-009  0.9118800E+02  0.7561462E-02  0.1125453E+00
         25   -1    0    0    0    0  0.00000000000E+00  0.00000000000E+00  0.99999998245E-14  0.12509000000E+03  0.12509000000E+03 0.  0.
        -13    1    3    3    0    0 -0.57294276888E+02 -0.71759476168E+01 -0.34691130395E+01  0.57846126039E+02  0.10566000000E+00 0. -1.
         23    2    1    0    0    0 -0.23976596709E+02  0.12207842212E+02 -0.88504823139E+01  0.96766164836E+02  0.92528109343E+02 0.  0.
         13    1    3    3    0    0  0.33317680180E+02  0.19383789829E+02 -0.53813692744E+01  0.38920038797E+02  0.10566000000E+00 0.  1.
         22    1    1    0    0    0  0.23976596709E+02 -0.12207842212E+02  0.88504823139E+01  0.28323835164E+02  0.00000000000E+00 0. -1.
</event>
<event>
 5    1  0.1255769E-009  0.9118800E+02  0.7561462E-02  0.1125453E+00
         25   -1    0    0    0    0  0.00000000000E+00  0.00000000000E+00  0.99999998245E-14  0.12509000000E+03  0.12509000000E+03 0.  0.
        -13    1    3    3    0    0  0.85966440205E+01 -0.66983687520E+01  0.32861088947E+02  0.34621276164E+02  0.10566000000E+00 0. -1.
         23    2    1    0    0    0 -0.16899844092E+02  0.12149901918E+02 -0.19975432964E+02  0.96241381852E+02  0.91815907182E+02 0.  0.
         13    1    3    3    0    0 -0.25496488113E+02  0.18848270670E+02 -0.52836521911E+02  0.61620105688E+02  0.10566000000E+00 0.  1.
         22    1    1    0    0    0  0.16899844092E+02 -0.12149901918E+02  0.19975432964E+02  0.28848618148E+02  0.00000000000E+00 0.  1.
</event>
<event>
 5    1  0.1255769E-009  0.9118800E+02  0.7561462E-02  0.1125453E+00
         25   -1    0    0    0    0  0.00000000000E+00  0.00000000000E+00  0.99999998245E-14  0.12509000000E+03  0.12509000000E+03 0.  0.
        -13    1    3    3    0    0 -0.29136469021E+02 -0.80968751377E+01  0.47907268416E+02  0.56653426596E+02  0.10566000000E+00 0.  1.
         23    2    1    0    0    0  0.41026529024E+01 -0.94515402417E+01  0.27601868846E+02  0.95627709906E+02  0.90975998836E+02 0.  0.
         13    1    3    3    0    0  0.33239121923E+02 -0.13546651040E+01 -0.20305399570E+02  0.38974283310E+02  0.10566000000E+00 0. -1.
         22    1    1    0    0    0 -0.41026529024E+01  0.94515402417E+01 -0.27601868846E+02  0.29462290094E+02  0.00000000000E+00 0.  1.
</event>
<event>
 5    1  0.1255769E-009  0.9118800E+02  0.7561462E-02  0.1125453E+00
         25   -1    0    0    0    0  0.00000000000E+00  0.00000000000E+00  0.99999998245E-14  0.12509000000E+03  0.12509000000E+03 0.  0.
        -13    1    3    3    0    0 -0.32926602315E+02 -0.44521009284E+02  0.19053560328E+02  0.58560487813E+02  0.10566000000E+00 0.  1.
         23    2    1    0    0    0 -0.12578594922E+02 -0.24920492135E+02 -0.62451593640E+01  0.96484860708E+02  0.92147025735E+02 0.  0.
         13    1    3    3    0    0  0.20348007392E+02  0.19600517150E+02 -0.25298719692E+02  0.37924372895E+02  0.10566000000E+00 0. -1.
         22    1    1    0    0    0  0.12578594922E+02  0.24920492135E+02  0.62451593640E+01  0.28605139292E+02  0.00000000000E+00 0.  1.
</event>
<event>
 5    1  0.1255769E-009  0.9118800E+02  0.7561462E-02  0.1125453E+00
         25   -1    0    0    0    0  0.00000000000E+00  0.00000000000E+00  0.99999998245E-14  0.12509000000E+03  0.12509000000E+03 0.  0.
        -13    1    3    3    0    0  0.24000440149E+02  0.38774693525E+02 -0.21208847093E+02  0.50292388533E+02  0.10566000000E+00 0.  1.
         23    2    1    0    0    0  0.27413066156E+02  0.24597958973E+01  0.73323491117E+01  0.96606844707E+02  0.92312471037E+02 0.  0.
         13    1    3    3    0    0  0.34126260069E+01 -0.36314897627E+02  0.28541196204E+02  0.46314456175E+02  0.10566000000E+00 0. -1.
         22    1    1    0    0    0 -0.27413066156E+02 -0.24597958973E+01 -0.73323491117E+01  0.28483155293E+02  0.00000000000E+00 0. -1.
</event>
<event>
 5    1  0.1255769E-009  0.9118800E+02  0.7561462E-02  0.1125453E+00
         25   -1    0    0    0    0  0.00000000000E+00  0.00000000000E+00  0.99999998245E-14  0.12509000000E+03  0.12509000000E+03 0.  0.
        -13    1    3    3    0    0  0.17300336809E+02  0.14764682757E+00  0.32734491870E+02  0.37025417962E+02  0.10566000000E+00 0.  1.
         23    2    1    0    0    0 -0.27220199594E+02  0.53065175793E+00 -0.73028806146E+01  0.96902184858E+02  0.92711814283E+02 0.  0.
         13    1    3    3    0    0 -0.44520536403E+02  0.38300493036E+00 -0.40037372484E+02  0.59876766895E+02  0.10566000000E+00 0. -1.
         22    1    1    0    0    0  0.27220199594E+02 -0.53065175793E+00  0.73028806146E+01  0.28187815142E+02  0.00000000000E+00 0. -1.
</event>
<event>
 5    1  0.1255769E-009  0.9118800E+02  0.7561462E-02  0.1125453E+00
         25   -1    0    0    0    0  0.00000000000E+00  0.00000000000E+00  0.99999998245E-14  0.12509000000E+03  0.12509000000E+03 0.  0.
        -13    1    3    3    0    0 -0.35776250049E+02  0.49574540851E+02 -0.89288004904E+01  0.61784381606E+02  0.10566000000E+00 0. -1.
         23    2    1    0    0    0 -0.26935895569E+02  0.30611526031E+02 -0.58140727236E+00  0.84310764715E+02  0.73792675899E+02 0.  0.
         13    1    3    3    0    0  0.88403544798E+01 -0.18963014820E+02  0.83473932181E+01  0.22526383109E+02  0.10566000000E+00 0.  1.
         22    1    1    0    0    0  0.26935895569E+02 -0.30611526031E+02  0.58140727236E+00  0.40779235285E+02  0.00000000000E+00 0. -1.
</event>
<event>
 5    1  0.1255769E-009  0.9118800E+02  0.7561462E-02  0.1125453E+00
         25   -1    0    0    0    0  0.00000000000E+00  0.00000000000E+00  0.99999998245E-14  0.12509000000E+03  0.12509000000E+03 0.  0.
        -13    1    3    3    0    0 -0.26339238226E+02  0.97387349991E+01 -0.38880623627E+02  0.47961573028E+02  0.10566000000E+00 0.  1.
         23    2    1    0    0    0 -0.27066301465E+02  0.78724294192E+01  0.87042893252E+01  0.95588737779E+02  0.90922397227E+02 0.  0.
         13    1    3    3    0    0 -0.72706323959E+00 -0.18663055798E+01  0.47584912952E+02  0.47627164751E+02  0.10566000000E+00 0. -1.
         22    1    1    0    0    0  0.27066301465E+02 -0.78724294192E+01 -0.87042893252E+01  0.29501262221E+02  0.00000000000E+00 0. -1.
</event>
<event>
 5    1  0.1255769E-009  0.9118800E+02  0.7561462E-02  0.1125453E+00
         25   -1    0    0    0    0  0.00000000000E+00  0.00000000000E+00  0.99999998245E-14  0.12509000000E+03  0.12509000000E+03 0.  0.
        -13    1    3    3    0    0 -0.21668630299E+02 -0.25736555307E+02 -0.48071422103E+02  0.58675144697E+02  0.10566000000E+00 0. -1.
         23    2    1    0    0    0 -0.48556162972E+01 -0.25355621286E+02 -0.16486216243E+02  0.94458645697E+02  0.89354103881E+02 0.  0.
         13    1    3    3    0    0  0.16813014002E+02  0.38093402037E+00  0.31585205860E+02  0.35783501000E+02  0.10566000000E+00 0.  1.
         22    1    1    0    0    0  0.48556162972E+01  0.25355621286E+02  0.16486216243E+02  0.30631354303E+02  0.00000000000E+00 0. -1.
</event>
<event>
 5    1  0.1255769E-009  0.9118800E+02  0.7561462E-02  0.1125453E+00
         25   -1    0    0    0    0  0.00000000000E+00  0.00000000000E+00  0.99999998245E-14  0.12509000000E+03  0.12509000000E+03 0.  0.
        -13    1    3    3    0    0 -0.55667826108E+02 -0.20155767451E+02 -0.10784725605E+01  0.59214323371E+02  0.10566000000E+00 0. -1.
         23    2    1    0    0    0 -0.19711145019E+02 -0.14759773108E+02  0.11795777652E+02  0.97785778521E+02  0.93896421499E+02 0.  0.
         13    1    3    3    0    0  0.35956681089E+02  0.53959943427E+01  0.12874250212E+02  0.38571455150E+02  0.10566000000E+00 0.  1.
         22    1    1    0    0    0  0.19711145019E+02  0.14759773108E+02 -0.11795777652E+02  0.27304221479E+02  0.00000000000E+00 0. -1.
</event>
<event>
 5    1  0.1255769E-009  0.9118800E+02  0.7561462E-02  0.1125453E+00
         25   -1    0    0    0    0  0.00000000000E+00  0.00000000000E+00  0.99999998245E-14  0.12509000000E+03  0.12509000000E+03 0.  0.
        -13    1    3    3    0    0  0.45389716862E+02 -0.11467278460E+02  0.41021758901E+02  0.62245648358E+02  0.10566000000E+00 0. -1.
         23    2    1    0    0    0  0.21687004043E+02 -0.11346049780E+01  0.19933070386E+02  0.95612198728E+02  0.90954668807E+02 0.  0.
         13    1    3    3    0    0 -0.23702712819E+02  0.10332673482E+02 -0.21088688515E+02  0.33366550370E+02  0.10566000000E+00 0.  1.
         22    1    1    0    0    0 -0.21687004043E+02  0.11346049780E+01 -0.19933070386E+02  0.29477801272E+02  0.00000000000E+00 0. -1.
</event>
<event>
 5    1  0.1255769E-009  0.9118800E+02  0.7561462E-02  0.1125453E+00
         25   -1    0    0    0    0  0.00000000000E+00  0.00000000000E+00  0.99999998245E-14  0.12509000000E+03  0.12509000000E+03 0.  0.
        -13    1    3    3    0    0  0.21439854624E+02 -0.29283223162E+02  0.36224577810E+02  0.51277731293E+02  0.10566000000E+00 0. -1.
         23    2    1    0    0    0  0.25659578432E+02  0.72208404257E+01  0.92057284424E+01  0.96888937291E+02  0.92693938483E+02 0.  0.
         13    1    3    3    0    0  0.42197238077E+01  0.36504063588E+02 -0.27018849368E+02  0.45611205998E+02  0.10566000000E+00 0.  1.
         22    1    1    0    0    0 -0.25659578432E+02 -0.72208404257E+01 -0.92057284424E+01  0.28201062709E+02  0.00000000000E+00 0. -1.
</event>
<event>
 5    1  0.1255769E-009  0.9118800E+02  0.7561462E-02  0.1125453E+00
         25   -1    0    0    0    0  0.00000000000E+00  0.00000000000E+00  0.99999998245E-14  0.12509000000E+03  0.12509000000E+03 0.  0.
        -13    1    3    3    0    0  0.45616021258E+02 -0.56585539992E+01 -0.37917686487E+02  0.59586934318E+02  0.10566000000E+00 0. -1.
         23    2    1    0    0    0  0.27403385302E+02 -0.57917016446E+01 -0.58336813322E+01  0.96480190986E+02  0.92140686349E+02 0.  0.
         13    1    3    3    0    0 -0.18212635957E+02 -0.13314764542E+00  0.32084005155E+02  0.36893256668E+02  0.10566000000E+00 0.  1.
         22    1    1    0    0    0 -0.27403385302E+02  0.57917016446E+01  0.58336813322E+01  0.28609809014E+02  0.00000000000E+00 0. -1.
</event>
<event>
 5    1  0.1255769E-009  0.9118800E+02  0.7561462E-02  0.1125453E+00
         25   -1    0    0    0    0  0.00000000000E+00  0.00000000000E+00  0.99999998245E-14  0.12509000000E+03  0.12509000000E+03 0.  0.
        -13    1    3    3    0    0 -0.19975790849E+02 -0.56204579846E+02 -0.54915739798E-01  0.59648983189E+02  0.10566000000E+00 0. -1.
         23    2    1    0    0    0  0.35125173659E+01 -0.30080264310E+02 -0.93231376092E+00  0.94791001862E+02  0.89818176032E+02 0.  0.
         13    1    3    3    0    0  0.23488308215E+02  0.26124315536E+02 -0.87739802112E+00  0.35142018672E+02  0.10566000000E+00 0.  1.
         22    1    1    0    0    0 -0.35125173659E+01  0.30080264310E+02  0.93231376092E+00  0.30298998138E+02  0.00000000000E+00 0. -1.
</event>
<event>
 5    1  0.1255769E-009  0.9118800E+02  0.7561462E-02  0.1125453E+00
         25   -1    0    0    0    0  0.00000000000E+00  0.00000000000E+00  0.99999998245E-14  0.12509000000E+03  0.12509000000E+03 0.  0.
        -13    1    3    3    0    0  0.19839789604E+02  0.12006101720E+02  0.38870805603E+02  0.45262726633E+02  0.10566000000E+00 0. -1.
         23    2    1    0    0    0  0.21287207404E+02 -0.20531388859E+02  0.61039139863E+00  0.95508659509E+02  0.90812159627E+02 0.  0.
         13    1    3    3    0    0  0.14474178001E+01 -0.32537490580E+02 -0.38260414204E+02  0.50245932876E+02  0.10566000000E+00 0.  1.
         22    1    1    0    0    0 -0.21287207404E+02  0.20531388859E+02 -0.61039139863E+00  0.29581340491E+02  0.00000000000E+00 0.  1.
</event>
<event>
 4    1  0.1255769E-009  0.9118800E+02  0.7561462E-02  0.1125453E+00
         25   -1    0    0    0    0  0.00000000000E+00  0.00000000000E+00  0.99999998245E-14  0.12509000000E+03  0.12509000000E+03 0.  0.
        -13    1    1    0    0    0 -0.11420187793E+02 -0.19873629894E+02 -0.37395321484E+02  0.43861179731E+02  0.10566000000E+00 0.  1.
         13    1    1    0    0    0  0.23424449339E+02  0.12411821833E+02 -0.12543977340E+02  0.29327814095E+02  0.10566000000E+00 0. -1.
         22    1    1    0    0    0 -0.12004261545E+02  0.74618080612E+01  0.49939298825E+02  0.51901006174E+02  0.00000000000E+00 0. -1.
</event>
<event>
 5    1  0.1255769E-009  0.9118800E+02  0.7561462E-02  0.1125453E+00
         25   -1    0    0    0    0  0.00000000000E+00  0.00000000000E+00  0.99999998245E-14  0.12509000000E+03  0.12509000000E+03 0.  0.
        -13    1    3    3    0    0 -0.37599006109E+01 -0.25622055327E+02 -0.23077616684E+02  0.34687377065E+02  0.10566000000E+00 0. -1.
         23    2    1    0    0    0  0.34554778358E+01  0.98745285195E+01  0.26794312171E+02  0.96325754742E+02  0.91930784949E+02 0.  0.
         13    1    3    3    0    0  0.72153784467E+01  0.35496583847E+02  0.49871928855E+02  0.61638377677E+02  0.10566000000E+00 0.  1.
         22    1    1    0    0    0 -0.34554778358E+01 -0.98745285195E+01 -0.26794312171E+02  0.28764245258E+02  0.00000000000E+00 0.  1.
</event>
<event>
 5    1  0.1255769E-009  0.9118800E+02  0.7561462E-02  0.1125453E+00
         25   -1    0    0    0    0  0.00000000000E+00  0.00000000000E+00  0.99999998245E-14  0.12509000000E+03  0.12509000000E+03 0.  0.
        -13    1    3    3    0    0 -0.32910558303E+02  0.19328869022E+02 -0.34264885789E+01  0.38320516875E+02  0.10566000000E+00 0. -1.
         23    2    1    0    0    0  0.17724143511E+02 -0.15837635664E+02 -0.76667543997E+01  0.10011491062E+03  0.96949678897E+02 0.  0.
         13    1    3    3    0    0  0.50634701815E+02 -0.35166504686E+02 -0.42402658208E+01  0.61794393743E+02  0.10566000000E+00 0.  1.
         22    1    1    0    0    0 -0.17724143511E+02  0.15837635664E+02  0.76667543997E+01  0.24975089383E+02  0.00000000000E+00 0.  1.
</event>
<event>
 5    1  0.1255769E-009  0.9118800E+02  0.7561462E-02  0.1125453E+00
         25   -1    0    0    0    0  0.00000000000E+00  0.00000000000E+00  0.99999998245E-14  0.12509000000E+03  0.12509000000E+03 0.  0.
        -13    1    3    3    0    0 -0.26793676461E+02 -0.13220263391E+02 -0.26556004541E+02  0.39973854001E+02  0.10566000000E+00 0.  1.
         23    2    1    0    0    0 -0.11180596251E+02  0.17443348044E+02  0.18941117948E+02  0.97017912927E+02  0.92867827347E+02 0.  0.
         13    1    3    3    0    0  0.15613080211E+02  0.30663611435E+02  0.45497122490E+02  0.57044058926E+02  0.10566000000E+00 0. -1.
         22    1    1    0    0    0  0.11180596251E+02 -0.17443348044E+02 -0.18941117948E+02  0.28072087073E+02  0.00000000000E+00 0. -1.
</event>
<event>
 5    1  0.1255769E-009  0.9118800E+02  0.7561462E-02  0.1125453E+00
         25   -1    0    0    0    0  0.00000000000E+00  0.00000000000E+00  0.99999998245E-14  0.12509000000E+03  0.12509000000E+03 0.  0.
        -13    1    3    3    0    0 -0.59250839285E+01  0.45712955545E+02 -0.72620344781E+01  0.46664003611E+02  0.10566000000E+00 0.  1.
         23    2    1    0    0    0  0.23833898899E+02  0.10232243395E+02  0.11612825436E+02  0.96671497994E+02  0.92400039330E+02 0.  0.
         13    1    3    3    0    0  0.29758982828E+02 -0.35480712150E+02  0.18874859914E+02  0.50007494383E+02  0.10566000000E+00 0. -1.
         22    1    1    0    0    0 -0.23833898899E+02 -0.10232243395E+02 -0.11612825436E+02  0.28418502006E+02  0.00000000000E+00 0.  1.
</event>
<event>
 5    1  0.1255769E-009  0.9118800E+02  0.7561462E-02  0.1125453E+00
         25   -1    0    0    0    0  0.00000000000E+00  0.00000000000E+00  0.99999998245E-14  0.12509000000E+03  0.12509000000E+03 0.  0.
        -13    1    3    3    0    0 -0.17868749314E+02  0.55870044383E+02 -0.43546255010E+01  0.58819452468E+02  0.10566000000E+00 0.  1.
         23    2    1    0    0    0 -0.73916460980E+01  0.24676779778E+02  0.13232107003E+02  0.96130225346E+02  0.91664342451E+02 0.  0.
         13    1    3    3    0    0  0.10477103215E+02 -0.31193264605E+02  0.17586732504E+02  0.37310772877E+02  0.10566000000E+00 0. -1.
         22    1    1    0    0    0  0.73916460980E+01 -0.24676779778E+02 -0.13232107003E+02  0.28959774654E+02  0.00000000000E+00 0.  1.
</event>
<event>
 5    1  0.1255769E-009  0.9118800E+02  0.7561462E-02  0.1125453E+00
         25   -1    0    0    0    0  0.00000000000E+00  0.00000000000E+00  0.99999998245E-14  0.12509000000E+03  0.12509000000E+03 0.  0.
        -13    1    3    3    0    0  0.54879348203E+02 -0.15726918485E+02 -0.19086926940E+02  0.60194690532E+02  0.10566000000E+00 0.  1.
         23    2    1    0    0    0  0.26561047858E+02 -0.15413063941E+02  0.61274463483E-01  0.94380790340E+02  0.89245044834E+02 0.  0.
         13    1    3    3    0    0 -0.28318300345E+02  0.31385454442E+00  0.19148201404E+02  0.34186099808E+02  0.10566000000E+00 0. -1.
         22    1    1    0    0    0 -0.26561047858E+02  0.15413063941E+02 -0.61274463483E-01  0.30709209660E+02  0.00000000000E+00 0.  1.
</event>
<event>
 5    1  0.1255769E-009  0.9118800E+02  0.7561462E-02  0.1125453E+00
         25   -1    0    0    0    0  0.00000000000E+00  0.00000000000E+00  0.99999998245E-14  0.12509000000E+03  0.12509000000E+03 0.  0.
        -13    1    3    3    0    0 -0.12183318116E+02 -0.14026921028E+02  0.32666211236E+02  0.37580317646E+02  0.10566000000E+00 0. -1.
         23    2    1    0    0    0  0.24537885342E+02  0.16641707984E+02  0.12666693124E+00  0.95440880178E+02  0.90718748354E+02 0.  0.
         13    1    3    3    0    0  0.36721203458E+02  0.30668629012E+02 -0.32539544305E+02  0.57860562532E+02  0.10566000000E+00 0.  1.
         22    1    1    0    0    0 -0.24537885342E+02 -0.16641707984E+02 -0.12666693124E+00  0.29649119822E+02  0.00000000000E+00 0.  1.
</event>
<event>
 5    1  0.1255769E-009  0.9118800E+02  0.7561462E-02  0.1125453E+00
         25   -1    0    0    0    0  0.00000000000E+00  0.00000000000E+00  0.99999998245E-14  0.12509000000E+03  0.12509000000E+03 0.  0.
        -13    1    3    3    0    0 -0.27640441143E+02 -0.35623833261E+02 -0.11391673567E+02  0.46506267035E+02  0.10566000000E+00 0.  1.
         23    2    1    0    0    0  0.10418196540E+02 -0.24658516753E+02  0.15289895066E+02  0.94262055554E+02  0.89078465179E+02 0.  0.
         13    1    3    3    0    0  0.38058637683E+02  0.10965316508E+02  0.26681568633E+02  0.47755788520E+02  0.10566000000E+00 0. -1.
         22    1    1    0    0    0 -0.10418196540E+02  0.24658516753E+02 -0.15289895066E+02  0.30827944446E+02  0.00000000000E+00 0. -1.
</event>
<event>
 5    1  0.1255769E-009  0.9118800E+02  0.7561462E-02  0.1125453E+00
         25   -1    0    0    0    0  0.00000000000E+00  0.00000000000E+00  0.99999998245E-14  0.12509000000E+03  0.12509000000E+03 0.  0.
        -13    1    3    3    0    0 -0.11566948554E+02  0.25828718033E+02 -0.10370202044E+02  0.30140823289E+02  0.10566000000E+00 0.  1.
         23    2    1    0    0    0 -0.57175403587E+01 -0.29018161377E+02  0.16203261750E+02  0.91366274690E+02  0.84914701330E+02 0.  0.
         13    1    3    3    0    0  0.58494081954E+01 -0.54846879410E+02  0.26573463794E+02  0.61225451401E+02  0.10566000000E+00 0. -1.
         22    1    1    0    0    0  0.57175403587E+01  0.29018161377E+02 -0.16203261750E+02  0.33723725310E+02  0.00000000000E+00 0. -1.
</event>
<event>
 5    1  0.1255769E-009  0.9118800E+02  0.7561462E-02  0.1125453E+00
         25   -1    0    0    0    0  0.00000000000E+00  0.00000000000E+00  0.99999998245E-14  0.12509000000E+03  0.12509000000E+03 0.  0.
        -13    1    3    3    0    0 -0.30236919047E+02  0.15213473098E+02 -0.21347850511E+02  0.40018282355E+02  0.10566000000E+00 0.  1.
         23    2    1    0    0    0  0.23682958903E+02  0.15509139629E+02 -0.51812767681E+01  0.96310465893E+02  0.91909979095E+02 0.  0.
         13    1    3    3    0    0  0.53919877950E+02  0.29566653083E+00  0.16166573743E+02  0.56292183538E+02  0.10566000000E+00 0. -1.
         22    1    1    0    0    0 -0.23682958903E+02 -0.15509139629E+02  0.51812767681E+01  0.28779534107E+02  0.00000000000E+00 0.  1.
</event>
<event>
 5    1  0.1255769E-009  0.9118800E+02  0.7561462E-02  0.1125453E+00
         25   -1    0    0    0    0  0.00000000000E+00  0.00000000000E+00  0.99999998245E-14  0.12509000000E+03  0.12509000000E+03 0.  0.
        -13    1    3    3    0    0 -0.11798361201E+02  0.15697579558E+02 -0.30977232427E+02  0.36677178515E+02  0.10566000000E+00 0. -1.
         23    2    1    0    0    0  0.26084290935E+02 -0.50537261529E+00  0.12139127504E+02  0.96314940459E+02  0.91916068802E+02 0.  0.
         13    1    3    3    0    0  0.37882652136E+02 -0.16202952173E+02  0.43116359930E+02  0.59637761944E+02  0.10566000000E+00 0.  1.
         22    1    1    0    0    0 -0.26084290935E+02  0.50537261529E+00 -0.12139127504E+02  0.28775059541E+02  0.00000000000E+00 0.  1.
</event>
<event>
 5    1  0.1255769E-009  0.9118800E+02  0.7561462E-02  0.1125453E+00
         25   -1    0    0    0    0  0.00000000000E+00  0.00000000000E+00  0.99999998245E-14  0.12509000000E+03  0.12509000000E+03 0.  0.
        -13    1    3    3    0    0 -0.14624922829E+02 -0.56836421990E+02  0.79576549070E+00  0.58693369636E+02  0.10566000000E+00 0. -1.
         23    2    1    0    0    0 -0.21043569967E+02 -0.20397743314E+02  0.20202675725E+01  0.95713457482E+02  0.91093823571E+02 0.  0.
         13    1    3    3    0    0 -0.64186471376E+01  0.36438678677E+02  0.12245020818E+01  0.37020087846E+02  0.10566000000E+00 0.  1.
         22    1    1    0    0    0  0.21043569967E+02  0.20397743314E+02 -0.20202675725E+01  0.29376542518E+02  0.00000000000E+00 0. -1.
</event>
<event>
 5    1  0.1255769E-009  0.9118800E+02  0.7561462E-02  0.1125453E+00
         25   -1    0    0    0    0  0.00000000000E+00  0.00000000000E+00  0.99999998245E-14  0.12509000000E+03  0.12509000000E+03 0.  0.
        -13    1    3    3    0    0 -0.39519180402E+02  0.76769235771E+01  0.33478580995E+02  0.52359596300E+02  0.10566000000E+00 0.  1.
         23    2    1    0    0    0 -0.20390351747E+02 -0.19507180839E+02  0.43868039084E+01  0.96532328576E+02  0.92211441064E+02 0.  0.
         13    1    3    3    0    0  0.19128828655E+02 -0.27184104416E+02 -0.29091777086E+02  0.44172732275E+02  0.10566000000E+00 0. -1.
         22    1    1    0    0    0  0.20390351747E+02  0.19507180839E+02 -0.43868039084E+01  0.28557671424E+02  0.00000000000E+00 0.  1.
</event>
<event>
 5    1  0.1255769E-009  0.9118800E+02  0.7561462E-02  0.1125453E+00
         25   -1    0    0    0    0  0.00000000000E+00  0.00000000000E+00  0.99999998245E-14  0.12509000000E+03  0.12509000000E+03 0.  0.
        -13    1    3    3    0    0  0.21831597652E+02  0.50758847494E+01 -0.28888510234E+01  0.22599555002E+02  0.10566000000E+00 0.  1.
         23    2    1    0    0    0 -0.22369565235E+02  0.21460392685E+02  0.31457600927E+02  0.80925233964E+02  0.67811259633E+02 0.  0.
         13    1    3    3    0    0 -0.44201162886E+02  0.16384507935E+02  0.34346451950E+02  0.58325678962E+02  0.10566000000E+00 0. -1.
         22    1    1    0    0    0  0.22369565235E+02 -0.21460392685E+02 -0.31457600927E+02  0.44164766036E+02  0.00000000000E+00 0. -1.
</event>
<event>
 5    1  0.1255769E-009  0.9118800E+02  0.7561462E-02  0.1125453E+00
         25   -1    0    0    0    0  0.00000000000E+00  0.00000000000E+00  0.99999998245E-14  0.12509000000E+03  0.12509000000E+03 0.  0.
        -13    1    3    3    0    0 -0.16550357124E+02  0.12096312951E+02  0.25033311486E+02  0.32356034304E+02  0.10566000000E+00 0. -1.
         23    2    1    0    0    0  0.13529660475E+02 -0.32645847503E+02  0.85705832465E+01  0.88727134754E+02  0.80933592980E+02 0.  0.
         13    1    3    3    0    0  0.30080017599E+02 -0.44742160453E+02 -0.16462728239E+02  0.56371100449E+02  0.10566000000E+00 0.  1.
         22    1    1    0    0    0 -0.13529660475E+02  0.32645847503E+02 -0.85705832465E+01  0.36362865246E+02  0.00000000000E+00 0.  1.
</event>
<event>
 5    1  0.1255769E-009  0.9118800E+02  0.7561462E-02  0.1125453E+00
         25   -1    0    0    0    0  0.00000000000E+00  0.00000000000E+00  0.99999998245E-14  0.12509000000E+03  0.12509000000E+03 0.  0.
        -13    1    3    3    0    0 -0.22282832665E+02 -0.51782100091E+02  0.16624152153E+02  0.58773158161E+02  0.10566000000E+00 0.  1.
         23    2    1    0    0    0 -0.17572164512E+02 -0.19531507176E+02 -0.56064098093E+01  0.98225663620E+02  0.94480624598E+02 0.  0.
         13    1    3    3    0    0  0.47106681525E+01  0.32250592915E+02 -0.22230561962E+02  0.39452505459E+02  0.10566000000E+00 0. -1.
         22    1    1    0    0    0  0.17572164512E+02  0.19531507176E+02  0.56064098093E+01  0.26864336380E+02  0.00000000000E+00 0.  1.
</event>
<event>
 5    1  0.1255769E-009  0.9118800E+02  0.7561462E-02  0.1125453E+00
         25   -1    0    0    0    0  0.00000000000E+00  0.00000000000E+00  0.99999998245E-14  0.12509000000E+03  0.12509000000E+03 0.  0.
        -13    1    3    3    0    0 -0.27851485746E+02  0.63147359458E+01 -0.40926932247E+02  0.49905972544E+02  0.10566000000E+00 0.  1.
         23    2    1    0    0    0 -0.22159474210E+02 -0.17648069410E+02 -0.10915628195E+01  0.96740605641E+02  0.92493549068E+02 0.  0.
         13    1    3    3    0    0  0.56920115362E+01 -0.23962805356E+02  0.39835369428E+02  0.46834633097E+02  0.10566000000E+00 0. -1.
         22    1    1    0    0    0  0.22159474210E+02  0.17648069410E+02  0.10915628195E+01  0.28349394359E+02  0.00000000000E+00 0.  1.
</event>
<event>
 5    1  0.1255769E-009  0.9118800E+02  0.7561462E-02  0.1125453E+00
         25   -1    0    0    0    0  0.00000000000E+00  0.00000000000E+00  0.99999998245E-14  0.12509000000E+03  0.12509000000E+03 0.  0.
        -13    1    3    3    0    0  0.14597300793E+02 -0.18004526778E+02  0.86189969364E+01  0.24729384286E+02  0.10566000000E+00 0. -1.
         23    2    1    0    0    0  0.85524148301E+01  0.34447568678E+02  0.26847095390E+02  0.80586681942E+02  0.67183837254E+02 0.  0.
         13    1    3    3    0    0 -0.60448859630E+01  0.52452095457E+02  0.18228098454E+02  0.55857297656E+02  0.10566000000E+00 0.  1.
         22    1    1    0    0    0 -0.85524148301E+01 -0.34447568678E+02 -0.26847095390E+02  0.44503318058E+02  0.00000000000E+00 0.  1.
</event>
<event>
 5    1  0.1255769E-009  0.9118800E+02  0.7561462E-02  0.1125453E+00
         25   -1    0    0    0    0  0.00000000000E+00  0.00000000000E+00  0.99999998245E-14  0.12509000000E+03  0.12509000000E+03 0.  0.
        -13    1    3    3    0    0 -0.48983718769E+02  0.17597380949E+02  0.28963542562E+02  0.59564842671E+02  0.10566000000E+00 0.  1.
         23    2    1    0    0    0 -0.15695683308E+02  0.96605811759E+01  0.25022850310E+02  0.94012285464E+02  0.88727027885E+02 0.  0.
         13    1    3    3    0    0  0.33288035461E+02 -0.79367997734E+01 -0.39406922518E+01  0.34447442793E+02  0.10566000000E+00 0. -1.
         22    1    1    0    0    0  0.15695683308E+02 -0.96605811759E+01 -0.25022850310E+02  0.31077714536E+02  0.00000000000E+00 0.  1.
</event>
<event>
 5    1  0.1255769E-009  0.9118800E+02  0.7561462E-02  0.1125453E+00
         25   -1    0    0    0    0  0.00000000000E+00  0.00000000000E+00  0.99999998245E-14  0.12509000000E+03  0.12509000000E+03 0.  0.
        -13    1    3    3    0    0  0.30664912988E+02 -0.40106117569E+02 -0.18595580813E+02  0.53801899081E+02  0.10566000000E+00 0. -1.
         23    2    1    0    0    0 -0.66011939624E+01 -0.27813218863E+02 -0.19192267610E+01  0.96439793428E+02  0.92085826378E+02 0.  0.
         13    1    3    3    0    0 -0.37266106950E+02  0.12292898705E+02  0.16676354052E+02  0.42637894346E+02  0.10566000000E+00 0.  1.
         22    1    1    0    0    0  0.66011939624E+01  0.27813218863E+02  0.19192267610E+01  0.28650206572E+02  0.00000000000E+00 0.  1.
</event>
<event>
 5    1  0.1255769E-009  0.9118800E+02  0.7561462E-02  0.1125453E+00
         25   -1    0    0    0    0  0.00000000000E+00  0.00000000000E+00  0.99999998245E-14  0.12509000000E+03  0.12509000000E+03 0.  0.
        -13    1    3    3    0    0 -0.26405936002E+02  0.16846421247E+02 -0.28284527996E+02  0.42203092931E+02  0.10566000000E+00 0.  1.
         23    2    1    0    0    0  0.10939029209E+02  0.25808650204E+02  0.89195898152E+01  0.95673884215E+02  0.91039465360E+02 0.  0.
         13    1    3    3    0    0  0.37344965211E+02  0.89622289571E+01  0.37204117811E+02  0.53470791285E+02  0.10566000000E+00 0. -1.
         22    1    1    0    0    0 -0.10939029209E+02 -0.25808650204E+02 -0.89195898152E+01  0.29416115785E+02  0.00000000000E+00 0.  1.
</event>
<event>
 4    1  0.1255769E-009  0.9118800E+02  0.7561462E-02  0.1125453E+00
         25   -1    0    0    0    0  0.00000000000E+00  0.00000000000E+00  0.99999998245E-14  0.12509000000E+03  0.12509000000E+03 0.  0.
        -13    1    1    0    0    0 -0.20695180858E+01 -0.10625797694E+02  0.86308070048E+01  0.13845305173E+02  0.10566000000E+00 0. -1.
         13    1    1    0    0    0  0.28624416497E+00  0.33890332889E+02  0.42903105811E+02  0.54674713089E+02  0.10566000000E+00 0.  1.
         22    1    1    0    0    0  0.17832739208E+01 -0.23264535194E+02 -0.51533912816E+02  0.56569981738E+02  0.00000000000E+00 0.  1.
</event>
<event>
 5    1  0.1255769E-009  0.9118800E+02  0.7561462E-02  0.1125453E+00
         25   -1    0    0    0    0  0.00000000000E+00  0.00000000000E+00  0.99999998245E-14  0.12509000000E+03  0.12509000000E+03 0.  0.
        -13    1    3    3    0    0  0.11578748422E+02 -0.18719050975E+02 -0.35009645278E+02  0.41354041048E+02  0.10566000000E+00 0. -1.
         23    2    1    0    0    0 -0.14086316144E+02  0.22982976944E+02 -0.14902931937E+02  0.94288394327E+02  0.89115444188E+02 0.  0.
         13    1    3    3    0    0 -0.25665064566E+02  0.41702027919E+02  0.20106713341E+02  0.52934353280E+02  0.10566000000E+00 0.  1.
         22    1    1    0    0    0  0.14086316144E+02 -0.22982976944E+02  0.14902931937E+02  0.30801605673E+02  0.00000000000E+00 0.  1.
</event>
<event>
 5    1  0.1255769E-009  0.9118800E+02  0.7561462E-02  0.1125453E+00
         25   -1    0    0    0    0  0.00000000000E+00  0.00000000000E+00  0.99999998245E-14  0.12509000000E+03  0.12509000000E+03 0.  0.
        -13    1    3    3    0    0  0.47425431616E+02 -0.22660344349E+02  0.22571146740E+02  0.57202540146E+02  0.10566000000E+00 0.  1.
         23    2    1    0    0    0  0.91359694204E+01 -0.63799098951E+01  0.23781626159E+02  0.98827194927E+02  0.95273708477E+02 0.  0.
         13    1    3    3    0    0 -0.38289462195E+02  0.16280434454E+02  0.12104794190E+01  0.41624654782E+02  0.10566000000E+00 0. -1.
         22    1    1    0    0    0 -0.91359694204E+01  0.63799098951E+01 -0.23781626159E+02  0.26262805073E+02  0.00000000000E+00 0.  1.
</event>
<event>
 5    1  0.1255769E-009  0.9118800E+02  0.7561462E-02  0.1125453E+00
         25   -1    0    0    0    0  0.00000000000E+00  0.00000000000E+00  0.99999998245E-14  0.12509000000E+03  0.12509000000E+03 0.  0.
        -13    1    3    3    0    0 -0.39944885162E+02 -0.22138476755E+02  0.41251762194E+02  0.61542059210E+02  0.10566000000E+00 0. -1.
         23    2    1    0    0    0 -0.24098844130E+02 -0.45444336453E+01  0.18596135741E+02  0.94313021102E+02  0.89150005717E+02 0.  0.
         13    1    3    3    0    0  0.15846041032E+02  0.17594043110E+02 -0.22655626453E+02  0.32770961892E+02  0.10566000000E+00 0.  1.
         22    1    1    0    0    0  0.24098844130E+02  0.45444336453E+01 -0.18596135741E+02  0.30776978898E+02  0.00000000000E+00 0. -1.
</event>
<event>
 5    1  0.1255769E-009  0.9118800E+02  0.7561462E-02  0.1125453E+00
         25   -1    0    0    0    0  0.00000000000E+00  0.00000000000E+00  0.99999998245E-14  0.12509000000E+03  0.12509000000E+03 0.  0.
        -13    1    3    3    0    0 -0.61914141624E-01 -0.16793872673E+02  0.41890943607E+02  0.45132032007E+02  0.10566000000E+00 0.  1.
         23    2    1    0    0    0 -0.18260415375E+02  0.19764377589E+02  0.12666740099E+02  0.95349124158E+02  0.90592139735E+02 0.  0.
         13    1    3    3    0    0 -0.18198501233E+02  0.36558250262E+02 -0.29224203509E+02  0.50217092151E+02  0.10566000000E+00 0. -1.
         22    1    1    0    0    0  0.18260415375E+02 -0.19764377589E+02 -0.12666740099E+02  0.29740875842E+02  0.00000000000E+00 0. -1.
</event>
<event>
 5    1  0.1255769E-009  0.9118800E+02  0.7561462E-02  0.1125453E+00
         25   -1    0    0    0    0  0.00000000000E+00  0.00000000000E+00  0.99999998245E-14  0.12509000000E+03  0.12509000000E+03 0.  0.
        -13    1    3    3    0    0  0.78640236319E+01 -0.38737346197E+02 -0.80340075000E+01  0.40335856240E+02  0.10566000000E+00 0.  1.
         23    2    1    0    0    0 -0.26971689159E+02  0.12026795402E+01  0.99720934440E+01  0.96308736966E+02  0.91907625985E+02 0.  0.
         13    1    3    3    0    0 -0.34835712791E+02  0.39940025737E+02  0.18006100944E+02  0.55972880726E+02  0.10566000000E+00 0. -1.
         22    1    1    0    0    0  0.26971689159E+02 -0.12026795402E+01 -0.99720934440E+01  0.28781263034E+02  0.00000000000E+00 0. -1.
</event>
<event>
 5    1  0.1255769E-009  0.9118800E+02  0.7561462E-02  0.1125453E+00
         25   -1    0    0    0    0  0.00000000000E+00  0.00000000000E+00  0.99999998245E-14  0.12509000000E+03  0.12509000000E+03 0.  0.
        -13    1    3    3    0    0  0.17445245122E+02  0.26509127552E+02  0.31805724280E+02  0.44929786133E+02  0.10566000000E+00 0. -1.
         23    2    1    0    0    0 -0.30443962304E+01 -0.20170046216E+02  0.63696699712E+00  0.10468154980E+03  0.10267288848E+03 0.  0.
         13    1    3    3    0    0 -0.20489641352E+02 -0.46679173767E+02 -0.31168757283E+02  0.59751763664E+02  0.10566000000E+00 0.  1.
         22    1    1    0    0    0  0.30443962304E+01  0.20170046216E+02 -0.63696699712E+00  0.20408450204E+02  0.00000000000E+00 0.  1.
</event>
<event>
 5    1  0.1255769E-009  0.9118800E+02  0.7561462E-02  0.1125453E+00
         25   -1    0    0    0    0  0.00000000000E+00  0.00000000000E+00  0.99999998245E-14  0.12509000000E+03  0.12509000000E+03 0.  0.
        -13    1    3    3    0    0 -0.64333800029E+01  0.48637971077E+02  0.88927662221E+01  0.49861137812E+02  0.10566000000E+00 0. -1.
         23    2    1    0    0    0  0.21912951437E+02  0.16411660498E+02  0.16022749915E+02  0.93368578912E+02  0.87814822054E+02 0.  0.
         13    1    3    3    0    0  0.28346331440E+02 -0.32226310579E+02  0.71299836934E+01  0.43507441101E+02  0.10566000000E+00 0.  1.
         22    1    1    0    0    0 -0.21912951437E+02 -0.16411660498E+02 -0.16022749915E+02  0.31721421088E+02  0.00000000000E+00 0. -1.
</event>
<event>
 5    1  0.1255769E-009  0.9118800E+02  0.7561462E-02  0.1125453E+00
         25   -1    0    0    0    0  0.00000000000E+00  0.00000000000E+00  0.99999998245E-14  0.12509000000E+03  0.12509000000E+03 0.  0.
        -13    1    3    3    0    0  0.10110168155E+02 -0.31174023042E+02 -0.12506830025E+02  0.35078015537E+02  0.10566000000E+00 0.  1.
         23    2    1    0    0    0 -0.18207188957E+02  0.21681505448E+02  0.17867513404E+01  0.96721322051E+02  0.92467465904E+02 0.  0.
         13    1    3    3    0    0 -0.28317357111E+02  0.52855528490E+02  0.14293581365E+02  0.61643306514E+02  0.10566000000E+00 0. -1.
         22    1    1    0    0    0  0.18207188957E+02 -0.21681505448E+02 -0.17867513404E+01  0.28368677949E+02  0.00000000000E+00 0. -1.
</event>
<event>
 5    1  0.1255769E-009  0.9118800E+02  0.7561462E-02  0.1125453E+00
         25   -1    0    0    0    0  0.00000000000E+00  0.00000000000E+00  0.99999998245E-14  0.12509000000E+03  0.12509000000E+03 0.  0.
        -13    1    3    3    0    0  0.32411627430E+02 -0.30915647096E+02 -0.16975829424E+02  0.47900738790E+02  0.10566000000E+00 0.  1.
         23    2    1    0    0    0  0.24338117198E+02  0.26962612349E+01  0.16132588347E+02  0.95766388691E+02  0.91166479710E+02 0.  0.
         13    1    3    3    0    0 -0.80735102317E+01  0.33611908331E+02  0.33108417771E+02  0.47865649901E+02  0.10566000000E+00 0. -1.
         22    1    1    0    0    0 -0.24338117198E+02 -0.26962612349E+01 -0.16132588347E+02  0.29323611309E+02  0.00000000000E+00 0.  1.
</event>
<event>
 5    1  0.1255769E-009  0.9118800E+02  0.7561462E-02  0.1125453E+00
         25   -1    0    0    0    0  0.00000000000E+00  0.00000000000E+00  0.99999998245E-14  0.12509000000E+03  0.12509000000E+03 0.  0.
        -13    1    3    3    0    0 -0.19251664772E+02  0.13828483260E+02 -0.51295809842E+02  0.56507741215E+02  0.10566000000E+00 0.  1.
         23    2    1    0    0    0 -0.75788068954E+01  0.24052197247E+02 -0.15583675036E+02  0.95445482227E+02  0.90725093792E+02 0.  0.
         13    1    3    3    0    0  0.11672857877E+02  0.10223713987E+02  0.35712134806E+02  0.38937741013E+02  0.10566000000E+00 0. -1.
         22    1    1    0    0    0  0.75788068954E+01 -0.24052197247E+02  0.15583675036E+02  0.29644517773E+02  0.00000000000E+00 0.  1.
</event>
<event>
 5    1  0.1255769E-009  0.9118800E+02  0.7561462E-02  0.1125453E+00
         25   -1    0    0    0    0  0.00000000000E+00  0.00000000000E+00  0.99999998245E-14  0.12509000000E+03  0.12509000000E+03 0.  0.
        -13    1    3    3    0    0  0.17089566768E+02 -0.32229930814E+02 -0.14045116847E+02  0.39090896688E+02  0.10566000000E+00 0.  1.
         23    2    1    0    0    0 -0.28442384659E+02  0.89219916620E+00 -0.65175092428E+01  0.95896795462E+02  0.91345236267E+02 0.  0.
         13    1    3    3    0    0 -0.45531951427E+02  0.33122129980E+02  0.75276076044E+01  0.56805898774E+02  0.10566000000E+00 0. -1.
         22    1    1    0    0    0  0.28442384659E+02 -0.89219916620E+00  0.65175092428E+01  0.29193204538E+02  0.00000000000E+00 0. -1.
</event>
<event>
 5    1  0.1255769E-009  0.9118800E+02  0.7561462E-02  0.1125453E+00
         25   -1    0    0    0    0  0.00000000000E+00  0.00000000000E+00  0.99999998245E-14  0.12509000000E+03  0.12509000000E+03 0.  0.
        -13    1    3    3    0    0  0.11666870624E+02  0.39983089283E+02  0.63673078684E+01  0.42134511654E+02  0.10566000000E+00 0. -1.
         23    2    1    0    0    0 -0.25504875962E+02  0.79190868485E+01 -0.13588317300E+02  0.95125804677E+02  0.90283252677E+02 0.  0.
         13    1    3    3    0    0 -0.37171746586E+02 -0.32064002434E+02 -0.19955625169E+02  0.52991293023E+02  0.10566000000E+00 0.  1.
         22    1    1    0    0    0  0.25504875962E+02 -0.79190868485E+01  0.13588317300E+02  0.29964195323E+02  0.00000000000E+00 0.  1.
</event>
<event>
 5    1  0.1255769E-009  0.9118800E+02  0.7561462E-02  0.1125453E+00
         25   -1    0    0    0    0  0.00000000000E+00  0.00000000000E+00  0.99999998245E-14  0.12509000000E+03  0.12509000000E+03 0.  0.
        -13    1    3    3    0    0  0.82744767235E+01  0.54304668729E+02  0.38512804480E+01  0.55066392073E+02  0.10566000000E+00 0.  1.
         23    2    1    0    0    0 -0.60927312671E+00  0.18730183923E+02  0.22174857575E+02  0.96056996159E+02  0.91564355505E+02 0.  0.
         13    1    3    3    0    0 -0.88837498502E+01 -0.35574484805E+02  0.18323577127E+02  0.40990604086E+02  0.10566000000E+00 0. -1.
         22    1    1    0    0    0  0.60927312671E+00 -0.18730183923E+02 -0.22174857575E+02  0.29033003841E+02  0.00000000000E+00 0.  1.
</event>
<event>
 5    1  0.1255769E-009  0.9118800E+02  0.7561462E-02  0.1125453E+00
         25   -1    0    0    0    0  0.00000000000E+00  0.00000000000E+00  0.99999998245E-14  0.12509000000E+03  0.12509000000E+03 0.  0.
        -13    1    3    3    0    0 -0.19669794552E+02 -0.14759905392E+02 -0.42965102437E+02  0.49505220092E+02  0.10566000000E+00 0.  1.
         23    2    1    0    0    0 -0.23387619655E+02  0.65412169261E+01  0.33072691811E+01  0.10058068949E+03  0.97548802134E+02 0.  0.
         13    1    3    3    0    0 -0.37178251025E+01  0.21301122318E+02  0.46272371618E+02  0.51075469403E+02  0.10566000000E+00 0. -1.
         22    1    1    0    0    0  0.23387619655E+02 -0.65412169261E+01 -0.33072691811E+01  0.24509310505E+02  0.00000000000E+00 0.  1.
</event>
<event>
 5    1  0.1255769E-009  0.9118800E+02  0.7561462E-02  0.1125453E+00
         25   -1    0    0    0    0  0.00000000000E+00  0.00000000000E+00  0.99999998245E-14  0.12509000000E+03  0.12509000000E+03 0.  0.
        -13    1    3    3    0    0  0.83381994373E+01  0.18109671084E+02 -0.51343894974E+02  0.55078965783E+02  0.10566000000E+00 0. -1.
         23    2    1    0    0    0 -0.17270406959E+02  0.38368015175E+01 -0.24790995980E+02  0.94633777580E+02  0.89598941818E+02 0.  0.
         13    1    3    3    0    0 -0.25608606397E+02 -0.14272869566E+02  0.26552898994E+02  0.39554811796E+02  0.10566000000E+00 0.  1.
         22    1    1    0    0    0  0.17270406959E+02 -0.38368015175E+01  0.24790995980E+02  0.30456222420E+02  0.00000000000E+00 0. -1.
</event>
<event>
 5    1  0.1255769E-009  0.9118800E+02  0.7561462E-02  0.1125453E+00
         25   -1    0    0    0    0  0.00000000000E+00  0.00000000000E+00  0.99999998245E-14  0.12509000000E+03  0.12509000000E+03 0.  0.
        -13    1    3    3    0    0 -0.27638876166E+02 -0.13107852175E+02 -0.48937736039E+02  0.57711666386E+02  0.10566000000E+00 0. -1.
         23    2    1    0    0    0  0.56159644580E+00 -0.17607028950E+02 -0.21250686010E+02  0.97487200959E+02  0.93497806584E+02 0.  0.
         13    1    3    3    0    0  0.28200472612E+02 -0.44991767750E+01  0.27687050030E+02  0.39775534573E+02  0.10566000000E+00 0.  1.
         22    1    1    0    0    0 -0.56159644580E+00  0.17607028950E+02  0.21250686010E+02  0.27602799041E+02  0.00000000000E+00 0. -1.
</event>
<event>
 5    1  0.1255769E-009  0.9118800E+02  0.7561462E-02  0.1125453E+00
         25   -1    0    0    0    0  0.00000000000E+00  0.00000000000E+00  0.99999998245E-14  0.12509000000E+03  0.12509000000E+03 0.  0.
        -13    1    3    3    0    0 -0.23883194702E+02 -0.50089272644E+01  0.42695867328E+02  0.49177683887E+02  0.10566000000E+00 0. -1.
         23    2    1    0    0    0  0.17556878694E+02  0.61692191571E+01  0.20154471644E+02  0.97658157522E+02  0.93726248985E+02 0.  0.
         13    1    3    3    0    0  0.41440073396E+02  0.11178146421E+02 -0.22541395684E+02  0.48480473635E+02  0.10566000000E+00 0.  1.
         22    1    1    0    0    0 -0.17556878694E+02 -0.61692191571E+01 -0.20154471644E+02  0.27431842478E+02  0.00000000000E+00 0. -1.
</event>
<event>
 5    1  0.1255769E-009  0.9118800E+02  0.7561462E-02  0.1125453E+00
         25   -1    0    0    0    0  0.00000000000E+00  0.00000000000E+00  0.99999998245E-14  0.12509000000E+03  0.12509000000E+03 0.  0.
        -13    1    3    3    0    0 -0.29629075138E+02 -0.84811439618E+01 -0.17094882864E+02  0.35242844389E+02  0.10566000000E+00 0. -1.
         23    2    1    0    0    0  0.14273876385E+02  0.32765950224E+01  0.24299656228E+02  0.96718307862E+02  0.92463388218E+02 0.  0.
         13    1    3    3    0    0  0.43902951523E+02  0.11757738984E+02  0.41394539092E+02  0.61475463473E+02  0.10566000000E+00 0.  1.
         22    1    1    0    0    0 -0.14273876385E+02 -0.32765950224E+01 -0.24299656228E+02  0.28371692138E+02  0.00000000000E+00 0.  1.
</event>
<event>
 5    1  0.1255769E-009  0.9118800E+02  0.7561462E-02  0.1125453E+00
         25   -1    0    0    0    0  0.00000000000E+00  0.00000000000E+00  0.99999998245E-14  0.12509000000E+03  0.12509000000E+03 0.  0.
        -13    1    3    3    0    0  0.25715551272E+02 -0.25756735938E-01  0.23756224501E+02  0.35009421693E+02  0.10566000000E+00 0.  1.
         23    2    1    0    0    0 -0.28536354939E+02 -0.65804665479E+00 -0.45185036038E+01  0.96190632301E+02  0.91746739937E+02 0.  0.
         13    1    3    3    0    0 -0.54251906211E+02 -0.63228991886E+00 -0.28274728105E+02  0.61181210608E+02  0.10566000000E+00 0. -1.
         22    1    1    0    0    0  0.28536354939E+02  0.65804665479E+00  0.45185036038E+01  0.28899367699E+02  0.00000000000E+00 0. -1.
</event>
<event>
 5    1  0.1255769E-009  0.9118800E+02  0.7561462E-02  0.1125453E+00
         25   -1    0    0    0    0  0.00000000000E+00  0.00000000000E+00  0.99999998245E-14  0.12509000000E+03  0.12509000000E+03 0.  0.
        -13    1    3    3    0    0  0.19135561523E+02 -0.47888738589E+02  0.29964214443E+02  0.59643661102E+02  0.10566000000E+00 0. -1.
         23    2    1    0    0    0 -0.22161201656E+01 -0.26355226945E+02  0.68616508218E+01  0.97766174720E+02  0.93870301435E+02 0.  0.
         13    1    3    3    0    0 -0.21351681688E+02  0.21533511644E+02 -0.23102563621E+02  0.38122513618E+02  0.10566000000E+00 0.  1.
         22    1    1    0    0    0  0.22161201656E+01  0.26355226945E+02 -0.68616508218E+01  0.27323825280E+02  0.00000000000E+00 0. -1.
</event>
<event>
 5    1  0.1255769E-009  0.9118800E+02  0.7561462E-02  0.1125453E+00
         25   -1    0    0    0    0  0.00000000000E+00  0.00000000000E+00  0.99999998245E-14  0.12509000000E+03  0.12509000000E+03 0.  0.
        -13    1    3    3    0    0  0.38694523263E+02  0.38729703856E+02 -0.71792089783E+01  0.55216014859E+02  0.10566000000E+00 0.  1.
         23    2    1    0    0    0  0.25903419453E+02  0.45640085414E+01 -0.17940312427E+02  0.93251782033E+02  0.87648289938E+02 0.  0.
         13    1    3    3    0    0 -0.12791103810E+02 -0.34165695315E+02 -0.10761103449E+02  0.38035767174E+02  0.10566000000E+00 0. -1.
         22    1    1    0    0    0 -0.25903419453E+02 -0.45640085414E+01  0.17940312427E+02  0.31838217967E+02  0.00000000000E+00 0.  1.
</event>
<event>
 5    1  0.1255769E-009  0.9118800E+02  0.7561462E-02  0.1125453E+00
         25   -1    0    0    0    0  0.00000000000E+00  0.00000000000E+00  0.99999998245E-14  0.12509000000E+03  0.12509000000E+03 0.  0.
        -13    1    3    3    0    0  0.11691342358E+02  0.39260184232E+01 -0.44741704733E+02  0.46410477408E+02  0.10566000000E+00 0.  1.
         23    2    1    0    0    0  0.23370534222E+02  0.11034078099E+02  0.56594292028E+01  0.98633207144E+02  0.95018670077E+02 0.  0.
         13    1    3    3    0    0  0.11679191865E+02  0.71080596760E+01  0.50401133936E+02  0.52222729736E+02  0.10566000000E+00 0. -1.
         22    1    1    0    0    0 -0.23370534222E+02 -0.11034078099E+02 -0.56594292028E+01  0.26456792856E+02  0.00000000000E+00 0. -1.
</event>
<event>
 5    1  0.1255769E-009  0.9118800E+02  0.7561462E-02  0.1125453E+00
         25   -1    0    0    0    0  0.00000000000E+00  0.00000000000E+00  0.99999998245E-14  0.12509000000E+03  0.12509000000E+03 0.  0.
        -13    1    3    3    0    0 -0.34262222107E+02  0.14235830934E+02  0.10428654066E+02  0.38539936893E+02  0.10566000000E+00 0. -1.
         23    2    1    0    0    0  0.17939279984E+02  0.19671374609E+02 -0.12335687824E+02  0.95748051539E+02  0.91141315736E+02 0.  0.
         13    1    3    3    0    0  0.52201502091E+02  0.54355436749E+01 -0.22764341890E+02  0.57208114646E+02  0.10566000000E+00 0.  1.
         22    1    1    0    0    0 -0.17939279984E+02 -0.19671374609E+02  0.12335687824E+02  0.29341948461E+02  0.00000000000E+00 0.  1.
</event>
<event>
 5    1  0.1255769E-009  0.9118800E+02  0.7561462E-02  0.1125453E+00
         25   -1    0    0    0    0  0.00000000000E+00  0.00000000000E+00  0.99999998245E-14  0.12509000000E+03  0.12509000000E+03 0.  0.
        -13    1    3    3    0    0  0.13884953166E+02 -0.53335956410E+02  0.13330541424E+01  0.55129886341E+02  0.10566000000E+00 0. -1.
         23    2    1    0    0    0  0.21811763932E+02 -0.10425942784E+02  0.87260895092E+01  0.99387899563E+02  0.96007065430E+02 0.  0.
         13    1    3    3    0    0  0.79268107667E+01  0.42910013626E+02  0.73930353667E+01  0.44258013221E+02  0.10566000000E+00 0.  1.
         22    1    1    0    0    0 -0.21811763932E+02  0.10425942784E+02 -0.87260895092E+01  0.25702100437E+02  0.00000000000E+00 0. -1.
</event>
<event>
 5    1  0.1255769E-009  0.9118800E+02  0.7561462E-02  0.1125453E+00
         25   -1    0    0    0    0  0.00000000000E+00  0.00000000000E+00  0.99999998245E-14  0.12509000000E+03  0.12509000000E+03 0.  0.
        -13    1    3    3    0    0  0.16502573727E+02  0.18473803882E+02 -0.19832057662E+02  0.31732287101E+02  0.10566000000E+00 0.  1.
         23    2    1    0    0    0 -0.37193877681E+01  0.59258044040E+01  0.33887631371E+02  0.90487679802E+02  0.83610403855E+02 0.  0.
         13    1    3    3    0    0 -0.20221961496E+02 -0.12547999478E+02  0.53719689033E+02  0.58755392701E+02  0.10566000000E+00 0. -1.
         22    1    1    0    0    0  0.37193877681E+01 -0.59258044040E+01 -0.33887631371E+02  0.34602320198E+02  0.00000000000E+00 0. -1.
</event>
<event>
 5    1  0.1255769E-009  0.9118800E+02  0.7561462E-02  0.1125453E+00
         25   -1    0    0    0    0  0.00000000000E+00  0.00000000000E+00  0.99999998245E-14  0.12509000000E+03  0.12509000000E+03 0.  0.
        -13    1    3    3    0    0  0.70548834946E+01 -0.15077394385E+02  0.35932706753E+02  0.39601386102E+02  0.10566000000E+00 0.  1.
         23    2    1    0    0    0  0.11055152351E+02  0.25471174725E+02 -0.44506267399E+01  0.96968740894E+02  0.92801570551E+02 0.  0.
         13    1    3    3    0    0  0.40002688563E+01  0.40548569109E+02 -0.40383333493E+02  0.57367354792E+02  0.10566000000E+00 0. -1.
         22    1    1    0    0    0 -0.11055152351E+02 -0.25471174725E+02  0.44506267399E+01  0.28121259106E+02  0.00000000000E+00 0. -1.
</event>
<event>
 5    1  0.1255769E-009  0.9118800E+02  0.7561462E-02  0.1125453E+00
         25   -1    0    0    0    0  0.00000000000E+00  0.00000000000E+00  0.99999998245E-14  0.12509000000E+03  0.12509000000E+03 0.  0.
        -13    1    3    3    0    0 -0.22070772425E+02  0.21684105466E+02  0.21676404480E+02  0.37778262275E+02  0.10566000000E+00 0. -1.
         23    2    1    0    0    0  0.11339429539E+02  0.19496027549E+02 -0.22515173961E+02  0.93221350657E+02  0.87604848081E+02 0.  0.
         13    1    3    3    0    0  0.33410201964E+02 -0.21880779165E+01 -0.44191578441E+02  0.55443088382E+02  0.10566000000E+00 0.  1.
         22    1    1    0    0    0 -0.11339429539E+02 -0.19496027549E+02  0.22515173961E+02  0.31868649343E+02  0.00000000000E+00 0. -1.
</event>
<event>
 5    1  0.1255769E-009  0.9118800E+02  0.7561462E-02  0.1125453E+00
         25   -1    0    0    0    0  0.00000000000E+00  0.00000000000E+00  0.99999998245E-14  0.12509000000E+03  0.12509000000E+03 0.  0.
        -13    1    3    3    0    0  0.33650806741E+01  0.27720393715E+02  0.15564638026E+02  0.31968939872E+02  0.10566000000E+00 0.  1.
         23    2    1    0    0    0  0.86746209326E+00 -0.15473758162E+02 -0.27822432442E+02  0.93242277489E+02  0.87634724181E+02 0.  0.
         13    1    3    3    0    0 -0.24976185808E+01 -0.43194151877E+02 -0.43387070467E+02  0.61273337617E+02  0.10566000000E+00 0. -1.
         22    1    1    0    0    0 -0.86746209326E+00  0.15473758162E+02  0.27822432442E+02  0.31847722511E+02  0.00000000000E+00 0. -1.
</event>
<event>
 5    1  0.1255769E-009  0.9118800E+02  0.7561462E-02  0.1125453E+00
         25   -1    0    0    0    0  0.00000000000E+00  0.00000000000E+00  0.99999998245E-14  0.12509000000E+03  0.12509000000E+03 0.  0.
        -13    1    3    3    0    0 -0.55749856431E+02 -0.13489069933E+02  0.99406957941E+01  0.58213659021E+02  0.10566000000E+00 0.  1.
         23    2    1    0    0    0 -0.22293685261E+02 -0.18700058433E+02 -0.55809443361E+01  0.95461508179E+02  0.90747187373E+02 0.  0.
         13    1    3    3    0    0  0.33456171170E+02 -0.52109885003E+01 -0.15521640130E+02  0.37247849158E+02  0.10566000000E+00 0. -1.
         22    1    1    0    0    0  0.22293685261E+02  0.18700058433E+02  0.55809443361E+01  0.29628491821E+02  0.00000000000E+00 0.  1.
</event>
<event>
 5    1  0.1255769E-009  0.9118800E+02  0.7561462E-02  0.1125453E+00
         25   -1    0    0    0    0  0.00000000000E+00  0.00000000000E+00  0.99999998245E-14  0.12509000000E+03  0.12509000000E+03 0.  0.
        -13    1    3    3    0    0 -0.43890727784E+02  0.66122771078E+01 -0.23886766739E+02  0.50405426129E+02  0.10566000000E+00 0.  1.
         23    2    1    0    0    0  0.65426179132E+00  0.19430429283E+02 -0.20431742224E+02  0.96886707091E+02  0.92690928790E+02 0.  0.
         13    1    3    3    0    0  0.44544989575E+02  0.12818152175E+02  0.34550245150E+01  0.46481280962E+02  0.10566000000E+00 0. -1.
         22    1    1    0    0    0 -0.65426179132E+00 -0.19430429283E+02  0.20431742224E+02  0.28203292909E+02  0.00000000000E+00 0.  1.
</event>
<event>
 5    1  0.1255769E-009  0.9118800E+02  0.7561462E-02  0.1125453E+00
         25   -1    0    0    0    0  0.00000000000E+00  0.00000000000E+00  0.99999998245E-14  0.12509000000E+03  0.12509000000E+03 0.  0.
        -13    1    3    3    0    0 -0.10587910153E+01 -0.65952530842E+01 -0.42153392664E+02  0.42679480770E+02  0.10566000000E+00 0.  1.
         23    2    1    0    0    0 -0.26795250348E+02  0.64553557067E+01  0.41287657706E+01  0.97220594457E+02  0.93140432795E+02 0.  0.
         13    1    3    3    0    0 -0.25736459333E+02  0.13050608791E+02  0.46282158435E+02  0.54541113687E+02  0.10566000000E+00 0. -1.
         22    1    1    0    0    0  0.26795250348E+02 -0.64553557067E+01 -0.41287657706E+01  0.27869405543E+02  0.00000000000E+00 0. -1.
</event>
<event>
 5    1  0.1255769E-009  0.9118800E+02  0.7561462E-02  0.1125453E+00
         25   -1    0    0    0    0  0.00000000000E+00  0.00000000000E+00  0.99999998245E-14  0.12509000000E+03  0.12509000000E+03 0.  0.
        -13    1    3    3    0    0  0.48728049144E+02  0.31391505210E+02 -0.56363698648E+01  0.58237695714E+02  0.10566000000E+00 0.  1.
         23    2    1    0    0    0  0.24205888104E+02  0.49663224464E+01 -0.15882300914E+02  0.95715915165E+02  0.91097198399E+02 0.  0.
         13    1    3    3    0    0 -0.24522161041E+02 -0.26425182763E+02 -0.10245931050E+02  0.37478219452E+02  0.10566000000E+00 0. -1.
         22    1    1    0    0    0 -0.24205888104E+02 -0.49663224464E+01  0.15882300914E+02  0.29374084835E+02  0.00000000000E+00 0.  1.
</event>
<event>
 5    1  0.1255769E-009  0.9118800E+02  0.7561462E-02  0.1125453E+00
         25   -1    0    0    0    0  0.00000000000E+00  0.00000000000E+00  0.99999998245E-14  0.12509000000E+03  0.12509000000E+03 0.  0.
        -13    1    3    3    0    0  0.18500197441E+02 -0.30872017762E+02  0.18863950815E+02  0.40634942973E+02  0.10566000000E+00 0.  1.
         23    2    1    0    0    0  0.28187285518E+02  0.62521622304E+01 -0.15656229299E+02  0.92245972944E+02  0.86200866649E+02 0.  0.
         13    1    3    3    0    0  0.96870880765E+01  0.37124179992E+02 -0.34520180114E+02  0.51611029971E+02  0.10566000000E+00 0. -1.
         22    1    1    0    0    0 -0.28187285518E+02 -0.62521622304E+01  0.15656229299E+02  0.32844027056E+02  0.00000000000E+00 0. -1.
</event>
<event>
 5    1  0.1255769E-009  0.9118800E+02  0.7561462E-02  0.1125453E+00
         25   -1    0    0    0    0  0.00000000000E+00  0.00000000000E+00  0.99999998245E-14  0.12509000000E+03  0.12509000000E+03 0.  0.
        -13    1    3    3    0    0 -0.91517740308E+01 -0.14123498801E+02 -0.34438858490E+02  0.38331114312E+02  0.10566000000E+00 0. -1.
         23    2    1    0    0    0  0.13272476478E+02  0.27567210644E+02 -0.49698315400E+01  0.94093081442E+02  0.88840863431E+02 0.  0.
         13    1    3    3    0    0  0.22424250509E+02  0.41690709444E+02  0.29469026950E+02  0.55761967130E+02  0.10566000000E+00 0.  1.
         22    1    1    0    0    0 -0.13272476478E+02 -0.27567210644E+02  0.49698315400E+01  0.30996918558E+02  0.00000000000E+00 0.  1.
</event>
<event>
 5    1  0.1255769E-009  0.9118800E+02  0.7561462E-02  0.1125453E+00
         25   -1    0    0    0    0  0.00000000000E+00  0.00000000000E+00  0.99999998245E-14  0.12509000000E+03  0.12509000000E+03 0.  0.
        -13    1    3    3    0    0  0.42173427935E+02  0.35086587985E+02  0.24359903904E+02  0.60025684190E+02  0.10566000000E+00 0. -1.
         23    2    1    0    0    0  0.22774428656E+02  0.18039967711E+02 -0.72392572983E+00  0.96027324554E+02  0.91523810875E+02 0.  0.
         13    1    3    3    0    0 -0.19398999280E+02 -0.17046620274E+02 -0.25083829634E+02  0.36001640365E+02  0.10566000000E+00 0.  1.
         22    1    1    0    0    0 -0.22774428656E+02 -0.18039967711E+02  0.72392572983E+00  0.29062675446E+02  0.00000000000E+00 0. -1.
</event>
<event>
 5    1  0.1255769E-009  0.9118800E+02  0.7561462E-02  0.1125453E+00
         25   -1    0    0    0    0  0.00000000000E+00  0.00000000000E+00  0.99999998245E-14  0.12509000000E+03  0.12509000000E+03 0.  0.
        -13    1    3    3    0    0 -0.15584881475E+02 -0.40835730609E+01 -0.34050131725E+02  0.37669440320E+02  0.10566000000E+00 0.  1.
         23    2    1    0    0    0 -0.72384573484E+01  0.27887497242E+02  0.11606417382E+02  0.94028501458E+02  0.88749886731E+02 0.  0.
         13    1    3    3    0    0  0.83464241262E+01  0.31971070303E+02  0.45656549107E+02  0.56359061138E+02  0.10566000000E+00 0. -1.
         22    1    1    0    0    0  0.72384573484E+01 -0.27887497242E+02 -0.11606417382E+02  0.31061498542E+02  0.00000000000E+00 0. -1.
</event>
<event>
 5    1  0.1255769E-009  0.9118800E+02  0.7561462E-02  0.1125453E+00
         25   -1    0    0    0    0  0.00000000000E+00  0.00000000000E+00  0.99999998245E-14  0.12509000000E+03  0.12509000000E+03 0.  0.
        -13    1    3    3    0    0  0.11359483257E+02 -0.10881690449E+02  0.60309619091E+02  0.62327444724E+02  0.10566000000E+00 0.  1.
         23    2    1    0    0    0  0.84182043324E+01 -0.30271939418E+01  0.28963416929E+02  0.94776478470E+02  0.89797946990E+02 0.  0.
         13    1    3    3    0    0 -0.29412789244E+01  0.78544965073E+01 -0.31346202162E+02  0.32449033747E+02  0.10566000000E+00 0. -1.
         22    1    1    0    0    0 -0.84182043324E+01  0.30271939418E+01 -0.28963416929E+02  0.30313521530E+02  0.00000000000E+00 0.  1.
</event>
<event>
 5    1  0.1255769E-009  0.9118800E+02  0.7561462E-02  0.1125453E+00
         25   -1    0    0    0    0  0.00000000000E+00  0.00000000000E+00  0.99999998245E-14  0.12509000000E+03  0.12509000000E+03 0.  0.
        -13    1    3    3    0    0  0.33868666987E+02 -0.29720163057E+02  0.11739059801E+02  0.46563842030E+02  0.10566000000E+00 0.  1.
         23    2    1    0    0    0 -0.10489285079E+02 -0.17496184376E+02  0.23416397102E+02  0.94034095208E+02  0.88757770584E+02 0.  0.
         13    1    3    3    0    0 -0.44357952066E+02  0.12223978681E+02  0.11677337302E+02  0.47470253178E+02  0.10566000000E+00 0. -1.
         22    1    1    0    0    0  0.10489285079E+02  0.17496184376E+02 -0.23416397102E+02  0.31055904792E+02  0.00000000000E+00 0. -1.
</event>
<event>
 5    1  0.1255769E-009  0.9118800E+02  0.7561462E-02  0.1125453E+00
         25   -1    0    0    0    0  0.00000000000E+00  0.00000000000E+00  0.99999998245E-14  0.12509000000E+03  0.12509000000E+03 0.  0.
        -13    1    3    3    0    0 -0.26612591798E+02  0.16897096229E+02  0.28191200437E+02  0.42290623657E+02  0.10566000000E+00 0. -1.
         23    2    1    0    0    0 -0.22069190602E+02 -0.10274447332E+02 -0.17126821872E+02  0.95325231074E+02  0.90559142057E+02 0.  0.
         13    1    3    3    0    0  0.45434011967E+01 -0.27171543561E+02 -0.45318022308E+02  0.53034607417E+02  0.10566000000E+00 0.  1.
         22    1    1    0    0    0  0.22069190602E+02  0.10274447332E+02  0.17126821872E+02  0.29764768926E+02  0.00000000000E+00 0.  1.
</event>
<event>
 5    1  0.1255769E-009  0.9118800E+02  0.7561462E-02  0.1125453E+00
         25   -1    0    0    0    0  0.00000000000E+00  0.00000000000E+00  0.99999998245E-14  0.12509000000E+03  0.12509000000E+03 0.  0.
        -13    1    3    3    0    0 -0.17588374571E+01 -0.13973175746E+02  0.34825831412E+02  0.37565846819E+02  0.10566000000E+00 0.  1.
         23    2    1    0    0    0  0.23725651227E+02  0.19516843969E+02 -0.30933039720E+01  0.94213111327E+02  0.89009707852E+02 0.  0.
         13    1    3    3    0    0  0.25484488684E+02  0.33490019715E+02 -0.37919135384E+02  0.56647264509E+02  0.10566000000E+00 0. -1.
         22    1    1    0    0    0 -0.23725651227E+02 -0.19516843969E+02  0.30933039720E+01  0.30876888673E+02  0.00000000000E+00 0. -1.
</event>
<event>
 5    1  0.1255769E-009  0.9118800E+02  0.7561462E-02  0.1125453E+00
         25   -1    0    0    0    0  0.00000000000E+00  0.00000000000E+00  0.99999998245E-14  0.12509000000E+03  0.12509000000E+03 0.  0.
        -13    1    3    3    0    0  0.18093826343E+02 -0.14588548988E+02 -0.53434598672E+02  0.58270745770E+02  0.10566000000E+00 0.  1.
         23    2    1    0    0    0  0.19886300515E+02  0.48168801014E+01 -0.24294764389E+02  0.93326768759E+02  0.87755244335E+02 0.  0.
         13    1    3    3    0    0  0.17924741720E+01  0.19405429090E+02  0.29139834282E+02  0.35056022990E+02  0.10566000000E+00 0. -1.
         22    1    1    0    0    0 -0.19886300515E+02 -0.48168801014E+01  0.24294764389E+02  0.31763231241E+02  0.00000000000E+00 0.  1.
</event>
<event>
 5    1  0.1255769E-009  0.9118800E+02  0.7561462E-02  0.1125453E+00
         25   -1    0    0    0    0  0.00000000000E+00  0.00000000000E+00  0.99999998245E-14  0.12509000000E+03  0.12509000000E+03 0.  0.
        -13    1    3    3    0    0 -0.19078471591E+02  0.40462502872E+02 -0.27750996397E+02  0.52643434367E+02  0.10566000000E+00 0. -1.
         23    2    1    0    0    0 -0.18091603309E+01  0.24638308636E+01 -0.30466429043E+02  0.94470613620E+02  0.89370856634E+02 0.  0.
         13    1    3    3    0    0  0.17269311260E+02 -0.37998672008E+02 -0.27154326460E+01  0.41827179253E+02  0.10566000000E+00 0.  1.
         22    1    1    0    0    0  0.18091603309E+01 -0.24638308636E+01  0.30466429043E+02  0.30619386380E+02  0.00000000000E+00 0. -1.
</event>
<event>
 5    1  0.1255769E-009  0.9118800E+02  0.7561462E-02  0.1125453E+00
         25   -1    0    0    0    0  0.00000000000E+00  0.00000000000E+00  0.99999998245E-14  0.12509000000E+03  0.12509000000E+03 0.  0.
        -13    1    3    3    0    0 -0.22489789956E+02 -0.25346809158E+02  0.10045815966E+02  0.35343754317E+02  0.10566000000E+00 0.  1.
         23    2    1    0    0    0 -0.14011602577E+01  0.21291600941E+02 -0.20953931795E+02  0.95184101278E+02  0.90363988168E+02 0.  0.
         13    1    3    3    0    0  0.21088629698E+02  0.46638410099E+02 -0.30999747762E+02  0.59840346961E+02  0.10566000000E+00 0. -1.
         22    1    1    0    0    0  0.14011602577E+01 -0.21291600941E+02  0.20953931795E+02  0.29905898722E+02  0.00000000000E+00 0. -1.
</event>
<event>
 5    1  0.1255769E-009  0.9118800E+02  0.7561462E-02  0.1125453E+00
         25   -1    0    0    0    0  0.00000000000E+00  0.00000000000E+00  0.99999998245E-14  0.12509000000E+03  0.12509000000E+03 0.  0.
        -13    1    3    3    0    0 -0.41688631071E+02  0.33814843580E+02 -0.79896618195E+01  0.54269986797E+02  0.10566000000E+00 0.  1.
         23    2    1    0    0    0 -0.13201325287E+02  0.11826597221E+02 -0.25296841153E+02  0.94201918748E+02  0.88993976944E+02 0.  0.
         13    1    3    3    0    0  0.28487305785E+02 -0.21988246359E+02 -0.17307179333E+02  0.39931931950E+02  0.10566000000E+00 0. -1.
         22    1    1    0    0    0  0.13201325287E+02 -0.11826597221E+02  0.25296841153E+02  0.30888081252E+02  0.00000000000E+00 0.  1.
</event>
<event>
 5    1  0.1255769E-009  0.9118800E+02  0.7561462E-02  0.1125453E+00
         25   -1    0    0    0    0  0.00000000000E+00  0.00000000000E+00  0.99999998245E-14  0.12509000000E+03  0.12509000000E+03 0.  0.
        -13    1    3    3    0    0 -0.24589619632E+02 -0.24602404310E+02  0.12273019534E+02  0.36885849102E+02  0.10566000000E+00 0.  1.
         23    2    1    0    0    0 -0.49733436927E+01  0.18522868025E+02 -0.22404242603E+02  0.95597952361E+02  0.90935073660E+02 0.  0.
         13    1    3    3    0    0  0.19616275939E+02  0.43125272335E+02 -0.34677262137E+02  0.58712103258E+02  0.10566000000E+00 0. -1.
         22    1    1    0    0    0  0.49733436927E+01 -0.18522868025E+02  0.22404242603E+02  0.29492047639E+02  0.00000000000E+00 0. -1.
</event>
<event>
 5    1  0.1255769E-009  0.9118800E+02  0.7561462E-02  0.1125453E+00
         25   -1    0    0    0    0  0.00000000000E+00  0.00000000000E+00  0.99999998245E-14  0.12509000000E+03  0.12509000000E+03 0.  0.
        -13    1    3    3    0    0 -0.92246035008E+01 -0.11709824536E+02  0.47888153493E+02  0.50154757595E+02  0.10566000000E+00 0.  1.
         23    2    1    0    0    0  0.64415263878E+00  0.22036864638E+02  0.22987304316E+02  0.93239497721E+02  0.87630756243E+02 0.  0.
         13    1    3    3    0    0  0.98687561396E+01  0.33746689174E+02 -0.24900849177E+02  0.43084740126E+02  0.10566000000E+00 0. -1.
         22    1    1    0    0    0 -0.64415263878E+00 -0.22036864638E+02 -0.22987304316E+02  0.31850502279E+02  0.00000000000E+00 0.  1.
</event>
<event>
 5    1  0.1255769E-009  0.9118800E+02  0.7561462E-02  0.1125453E+00
         25   -1    0    0    0    0  0.00000000000E+00  0.00000000000E+00  0.99999998245E-14  0.12509000000E+03  0.12509000000E+03 0.  0.
        -13    1    3    3    0    0 -0.95886711758E+00 -0.10653970570E+01 -0.33857831809E+02  0.33888323001E+02  0.10566000000E+00 0.  1.
         23    2    1    0    0    0  0.18133605668E+01  0.28929356464E+01  0.28476378122E+02  0.96409667643E+02  0.92044894214E+02 0.  0.
         13    1    3    3    0    0  0.27722276844E+01  0.39583327034E+01  0.62334209930E+02  0.62521344641E+02  0.10566000000E+00 0. -1.
         22    1    1    0    0    0 -0.18133605668E+01 -0.28929356464E+01 -0.28476378122E+02  0.28680332357E+02  0.00000000000E+00 0. -1.
</event>
<event>
 5    1  0.1255769E-009  0.9118800E+02  0.7561462E-02  0.1125453E+00
         25   -1    0    0    0    0  0.00000000000E+00  0.00000000000E+00  0.99999998245E-14  0.12509000000E+03  0.12509000000E+03 0.  0.
        -13    1    3    3    0    0 -0.19280319857E+01 -0.63435861803E+01  0.39975647494E+02  0.40521870016E+02  0.10566000000E+00 0. -1.
         23    2    1    0    0    0 -0.16602560831E+02  0.23748057487E+02 -0.40511325288E+01  0.95832062012E+02  0.91256545925E+02 0.  0.
         13    1    3    3    0    0 -0.14674528845E+02  0.30091643667E+02 -0.44026780023E+02  0.55310191996E+02  0.10566000000E+00 0.  1.
         22    1    1    0    0    0  0.16602560831E+02 -0.23748057487E+02  0.40511325288E+01  0.29257937988E+02  0.00000000000E+00 0.  1.
</event>
<event>
 5    1  0.1255769E-009  0.9118800E+02  0.7561462E-02  0.1125453E+00
         25   -1    0    0    0    0  0.00000000000E+00  0.00000000000E+00  0.99999998245E-14  0.12509000000E+03  0.12509000000E+03 0.  0.
        -13    1    3    3    0    0 -0.58207203237E+01  0.16695425753E+02 -0.55182744692E+02  0.57946220774E+02  0.10566000000E+00 0.  1.
         23    2    1    0    0    0 -0.15862156765E+02  0.16176149053E+02 -0.18932742584E+02  0.95565018083E+02  0.90889758081E+02 0.  0.
         13    1    3    3    0    0 -0.10041436442E+02 -0.51927670010E+00  0.36250002108E+02  0.37618797309E+02  0.10566000000E+00 0. -1.
         22    1    1    0    0    0  0.15862156765E+02 -0.16176149053E+02  0.18932742584E+02  0.29524981917E+02  0.00000000000E+00 0.  1.
</event>
<event>
 5    1  0.1255769E-009  0.9118800E+02  0.7561462E-02  0.1125453E+00
         25   -1    0    0    0    0  0.00000000000E+00  0.00000000000E+00  0.99999998245E-14  0.12509000000E+03  0.12509000000E+03 0.  0.
        -13    1    3    3    0    0  0.53956163451E+02  0.21139034749E+01  0.71238322716E+01  0.54465551614E+02  0.10566000000E+00 0.  1.
         23    2    1    0    0    0  0.23204118041E+02 -0.13131146100E+02 -0.14208754546E+02  0.94878300318E+02  0.89939674635E+02 0.  0.
         13    1    3    3    0    0 -0.30752045411E+02 -0.15245049575E+02 -0.21332586817E+02  0.40412748704E+02  0.10566000000E+00 0. -1.
         22    1    1    0    0    0 -0.23204118041E+02  0.13131146100E+02  0.14208754546E+02  0.30211699682E+02  0.00000000000E+00 0.  1.
</event>
<event>
 5    1  0.1255769E-009  0.9118800E+02  0.7561462E-02  0.1125453E+00
         25   -1    0    0    0    0  0.00000000000E+00  0.00000000000E+00  0.99999998245E-14  0.12509000000E+03  0.12509000000E+03 0.  0.
        -13    1    3    3    0    0 -0.32533871745E+02 -0.14122937531E+02  0.23388617852E+02  0.42484688822E+02  0.10566000000E+00 0. -1.
         23    2    1    0    0    0 -0.10119682419E+01  0.27050762403E+02  0.11463951147E+02  0.95692891261E+02  0.91065577666E+02 0.  0.
         13    1    3    3    0    0  0.31521903503E+02  0.41173699934E+02 -0.11924666704E+02  0.53208202439E+02  0.10566000000E+00 0.  1.
         22    1    1    0    0    0  0.10119682419E+01 -0.27050762403E+02 -0.11463951147E+02  0.29397108739E+02  0.00000000000E+00 0.  1.
</event>
<event>
 5    1  0.1255769E-009  0.9118800E+02  0.7561462E-02  0.1125453E+00
         25   -1    0    0    0    0  0.00000000000E+00  0.00000000000E+00  0.99999998245E-14  0.12509000000E+03  0.12509000000E+03 0.  0.
        -13    1    3    3    0    0  0.47207306511E+02 -0.24796838435E+02 -0.31197309209E+02  0.61779416073E+02  0.10566000000E+00 0.  1.
         23    2    1    0    0    0  0.15972014280E+02 -0.14074317345E+02 -0.17500338617E+02  0.97531816087E+02  0.93557477780E+02 0.  0.
         13    1    3    3    0    0 -0.31235292231E+02  0.10722521090E+02  0.13696970592E+02  0.35752400013E+02  0.10566000000E+00 0. -1.
         22    1    1    0    0    0 -0.15972014280E+02  0.14074317345E+02  0.17500338617E+02  0.27558183913E+02  0.00000000000E+00 0.  1.
</event>
<event>
 5    1  0.1255769E-009  0.9118800E+02  0.7561462E-02  0.1125453E+00
         25   -1    0    0    0    0  0.00000000000E+00  0.00000000000E+00  0.99999998245E-14  0.12509000000E+03  0.12509000000E+03 0.  0.
        -13    1    3    3    0    0  0.30615571007E+02  0.83528728035E+01 -0.28568842343E+02  0.42699807833E+02  0.10566000000E+00 0. -1.
         23    2    1    0    0    0  0.96869956313E+01  0.33270852488E+02  0.57164396569E+01  0.89969276887E+02  0.82831187313E+02 0.  0.
         13    1    3    3    0    0 -0.20928575376E+02  0.24917979684E+02  0.34285282000E+02  0.47269469054E+02  0.10566000000E+00 0.  1.
         22    1    1    0    0    0 -0.96869956313E+01 -0.33270852488E+02 -0.57164396569E+01  0.35120723113E+02  0.00000000000E+00 0.  1.
</event>
<event>
 5    1  0.1255769E-009  0.9118800E+02  0.7561462E-02  0.1125453E+00
         25   -1    0    0    0    0  0.00000000000E+00  0.00000000000E+00  0.99999998245E-14  0.12509000000E+03  0.12509000000E+03 0.  0.
        -13    1    3    3    0    0 -0.77862483134E+01 -0.67519720435E+01 -0.42812936390E+02  0.44036047457E+02  0.10566000000E+00 0. -1.
         23    2    1    0    0    0  0.91629311991E+01  0.26996401390E+02 -0.29463730448E+02  0.84091507246E+02  0.73420059812E+02 0.  0.
         13    1    3    3    0    0  0.16949179513E+02  0.33748373434E+02  0.13349205942E+02  0.40055459789E+02  0.10566000000E+00 0.  1.
         22    1    1    0    0    0 -0.91629311991E+01 -0.26996401390E+02  0.29463730448E+02  0.40998492754E+02  0.00000000000E+00 0. -1.
</event>
<event>
 5    1  0.1255769E-009  0.9118800E+02  0.7561462E-02  0.1125453E+00
         25   -1    0    0    0    0  0.00000000000E+00  0.00000000000E+00  0.99999998245E-14  0.12509000000E+03  0.12509000000E+03 0.  0.
        -13    1    3    3    0    0  0.22941000264E+02  0.21374350826E+01  0.29585757140E+02  0.37499150809E+02  0.10566000000E+00 0. -1.
         23    2    1    0    0    0 -0.17166979067E+01  0.22939330560E+02 -0.18614041675E+02  0.95498743087E+02  0.90798499137E+02 0.  0.
         13    1    3    3    0    0 -0.24657698171E+02  0.20801895477E+02 -0.48199798815E+02  0.57999592277E+02  0.10566000000E+00 0.  1.
         22    1    1    0    0    0  0.17166979067E+01 -0.22939330560E+02  0.18614041675E+02  0.29591256913E+02  0.00000000000E+00 0.  1.
</event>
<event>
 5    1  0.1255769E-009  0.9118800E+02  0.7561462E-02  0.1125453E+00
         25   -1    0    0    0    0  0.00000000000E+00  0.00000000000E+00  0.99999998245E-14  0.12509000000E+03  0.12509000000E+03 0.  0.
        -13    1    3    3    0    0 -0.20641860498E+02 -0.13406051571E+02 -0.81257297394E+01  0.25920016809E+02  0.10566000000E+00 0. -1.
         23    2    1    0    0    0  0.37189808754E+02 -0.55671241469E+01  0.83668350014E+01  0.86566258303E+02  0.77521857577E+02 0.  0.
         13    1    3    3    0    0  0.57831669252E+02  0.78389274239E+01  0.16492564741E+02  0.60646241494E+02  0.10566000000E+00 0.  1.
         22    1    1    0    0    0 -0.37189808754E+02  0.55671241469E+01 -0.83668350014E+01  0.38523741697E+02  0.00000000000E+00 0.  1.
</event>
<event>
 5    1  0.1255769E-009  0.9118800E+02  0.7561462E-02  0.1125453E+00
         25   -1    0    0    0    0  0.00000000000E+00  0.00000000000E+00  0.99999998245E-14  0.12509000000E+03  0.12509000000E+03 0.  0.
        -13    1    3    3    0    0  0.17002607411E+02  0.17565097277E+02 -0.11687288393E+02  0.27096589733E+02  0.10566000000E+00 0. -1.
         23    2    1    0    0    0 -0.26165469559E+02 -0.18011275245E-01  0.26867051605E+02  0.87587059001E+02  0.79151893982E+02 0.  0.
         13    1    3    3    0    0 -0.43168076969E+02 -0.17583108552E+02  0.38554339998E+02  0.60490469268E+02  0.10566000000E+00 0.  1.
         22    1    1    0    0    0  0.26165469559E+02  0.18011275245E-01 -0.26867051605E+02  0.37502940999E+02  0.00000000000E+00 0.  1.
</event>
<event>
 5    1  0.1255769E-009  0.9118800E+02  0.7561462E-02  0.1125453E+00
         25   -1    0    0    0    0  0.00000000000E+00  0.00000000000E+00  0.99999998245E-14  0.12509000000E+03  0.12509000000E+03 0.  0.
        -13    1    3    3    0    0 -0.25851511892E+02 -0.26761241528E+01 -0.20251158767E+02  0.32948185125E+02  0.10566000000E+00 0.  1.
         23    2    1    0    0    0  0.14610858237E+02 -0.21463496555E+02  0.19435071910E+02  0.92657286840E+02  0.86795690685E+02 0.  0.
         13    1    3    3    0    0  0.40462370128E+02 -0.18787372402E+02  0.39686230678E+02  0.59709101715E+02  0.10566000000E+00 0. -1.
         22    1    1    0    0    0 -0.14610858237E+02  0.21463496555E+02 -0.19435071910E+02  0.32432713160E+02  0.00000000000E+00 0. -1.
</event>
<event>
 5    1  0.1255769E-009  0.9118800E+02  0.7561462E-02  0.1125453E+00
         25   -1    0    0    0    0  0.00000000000E+00  0.00000000000E+00  0.99999998245E-14  0.12509000000E+03  0.12509000000E+03 0.  0.
        -13    1    3    3    0    0  0.17010635331E+02  0.27429116461E+02  0.21360989318E+02  0.38704278482E+02  0.10566000000E+00 0. -1.
         23    2    1    0    0    0  0.12355337574E+02 -0.83708582812E+01 -0.24092114259E+02  0.96749999922E+02  0.92506253197E+02 0.  0.
         13    1    3    3    0    0 -0.46552977562E+01 -0.35799974742E+02 -0.45453103577E+02  0.58045721440E+02  0.10566000000E+00 0.  1.
         22    1    1    0    0    0 -0.12355337574E+02  0.83708582812E+01  0.24092114259E+02  0.28340000078E+02  0.00000000000E+00 0.  1.
</event>
<event>
 5    1  0.1255769E-009  0.9118800E+02  0.7561462E-02  0.1125453E+00
         25   -1    0    0    0    0  0.00000000000E+00  0.00000000000E+00  0.99999998245E-14  0.12509000000E+03  0.12509000000E+03 0.  0.
        -13    1    3    3    0    0  0.28420450368E+02 -0.17380585284E+02  0.46611088967E+02  0.57292333891E+02  0.10566000000E+00 0. -1.
         23    2    1    0    0    0  0.99347780349E+01 -0.26388956396E+02  0.31511283158E+02  0.82804804003E+02  0.71194085185E+02 0.  0.
         13    1    3    3    0    0 -0.18485672333E+02 -0.90083711120E+01 -0.15099805809E+02  0.25512470112E+02  0.10566000000E+00 0.  1.
         22    1    1    0    0    0 -0.99347780349E+01  0.26388956396E+02 -0.31511283158E+02  0.42285195997E+02  0.00000000000E+00 0. -1.
</event>
<event>
 5    1  0.1255769E-009  0.9118800E+02  0.7561462E-02  0.1125453E+00
         25   -1    0    0    0    0  0.00000000000E+00  0.00000000000E+00  0.99999998245E-14  0.12509000000E+03  0.12509000000E+03 0.  0.
        -13    1    3    3    0    0 -0.25065220972E+02 -0.55480257125E+01  0.21255344175E+02  0.33329367106E+02  0.10566000000E+00 0. -1.
         23    2    1    0    0    0  0.19973694478E+02  0.74075109229E+01 -0.20076921634E+02  0.95817103466E+02  0.91236039180E+02 0.  0.
         13    1    3    3    0    0  0.45038915450E+02  0.12955536635E+02 -0.41332265809E+02  0.62487736360E+02  0.10566000000E+00 0.  1.
         22    1    1    0    0    0 -0.19973694478E+02 -0.74075109229E+01  0.20076921634E+02  0.29272896534E+02  0.00000000000E+00 0.  1.
</event>
<event>
 5    1  0.1255769E-009  0.9118800E+02  0.7561462E-02  0.1125453E+00
         25   -1    0    0    0    0  0.00000000000E+00  0.00000000000E+00  0.99999998245E-14  0.12509000000E+03  0.12509000000E+03 0.  0.
        -13    1    3    3    0    0 -0.19068740849E+02  0.65688406445E+01  0.25359271494E+02  0.32401703038E+02  0.10566000000E+00 0.  1.
         23    2    1    0    0    0  0.16592146328E+02 -0.23705798839E+01 -0.25145508096E+02  0.94870543583E+02  0.89928885758E+02 0.  0.
         13    1    3    3    0    0  0.35660887177E+02 -0.89394205283E+01 -0.50504779590E+02  0.62468840545E+02  0.10566000000E+00 0. -1.
         22    1    1    0    0    0 -0.16592146328E+02  0.23705798839E+01  0.25145508096E+02  0.30219456417E+02  0.00000000000E+00 0. -1.
</event>
<event>
 5    1  0.1255769E-009  0.9118800E+02  0.7561462E-02  0.1125453E+00
         25   -1    0    0    0    0  0.00000000000E+00  0.00000000000E+00  0.99999998245E-14  0.12509000000E+03  0.12509000000E+03 0.  0.
        -13    1    3    3    0    0  0.98799251560E+01 -0.39087217626E+02 -0.99247913109E+01  0.41520310083E+02  0.10566000000E+00 0.  1.
         23    2    1    0    0    0 -0.13301546872E+02  0.76274510753E+01 -0.24961568262E+02  0.95795136130E+02  0.91205915690E+02 0.  0.
         13    1    3    3    0    0 -0.23181472028E+02  0.46714668701E+02 -0.15036776951E+02  0.54274826046E+02  0.10566000000E+00 0. -1.
         22    1    1    0    0    0  0.13301546872E+02 -0.76274510753E+01  0.24961568262E+02  0.29294863870E+02  0.00000000000E+00 0. -1.
</event>
<event>
 5    1  0.1255769E-009  0.9118800E+02  0.7561462E-02  0.1125453E+00
         25   -1    0    0    0    0  0.00000000000E+00  0.00000000000E+00  0.99999998245E-14  0.12509000000E+03  0.12509000000E+03 0.  0.
        -13    1    3    3    0    0 -0.25151546723E+02 -0.21369566175E+02  0.35770137728E+02  0.48670037787E+02  0.10566000000E+00 0. -1.
         23    2    1    0    0    0  0.17091507537E+02 -0.18325953595E+02  0.15511417934E+02  0.95618585181E+02  0.90963451675E+02 0.  0.
         13    1    3    3    0    0  0.42243054261E+02  0.30436125795E+01 -0.20258719793E+02  0.46948547395E+02  0.10566000000E+00 0.  1.
         22    1    1    0    0    0 -0.17091507537E+02  0.18325953595E+02 -0.15511417934E+02  0.29471414819E+02  0.00000000000E+00 0.  1.
</event>
<event>
 5    1  0.1255769E-009  0.9118800E+02  0.7561462E-02  0.1125453E+00
         25   -1    0    0    0    0  0.00000000000E+00  0.00000000000E+00  0.99999998245E-14  0.12509000000E+03  0.12509000000E+03 0.  0.
        -13    1    3    3    0    0  0.27060334004E+02  0.31941195593E+02 -0.68482763059E+01  0.42419473178E+02  0.10566000000E+00 0. -1.
         23    2    1    0    0    0  0.29235470503E+02 -0.92997317378E+01  0.16905149880E+02  0.90061699464E+02  0.82970644640E+02 0.  0.
         13    1    3    3    0    0  0.21751364995E+01 -0.41240927331E+02  0.23753426186E+02  0.47642226286E+02  0.10566000000E+00 0.  1.
         22    1    1    0    0    0 -0.29235470503E+02  0.92997317378E+01 -0.16905149880E+02  0.35028300536E+02  0.00000000000E+00 0.  1.
</event>
<event>
 5    1  0.1255769E-009  0.9118800E+02  0.7561462E-02  0.1125453E+00
         25   -1    0    0    0    0  0.00000000000E+00  0.00000000000E+00  0.99999998245E-14  0.12509000000E+03  0.12509000000E+03 0.  0.
        -13    1    3    3    0    0 -0.16233598669E+02  0.58031921380E+02  0.10702730315E+02  0.61202885758E+02  0.10566000000E+00 0.  1.
         23    2    1    0    0    0  0.13547265475E+01  0.28907734285E+02  0.57528931430E+01  0.95584268946E+02  0.90916248850E+02 0.  0.
         13    1    3    3    0    0  0.17588325216E+02 -0.29124187096E+02 -0.49498371724E+01  0.34381383188E+02  0.10566000000E+00 0. -1.
         22    1    1    0    0    0 -0.13547265475E+01 -0.28907734285E+02 -0.57528931430E+01  0.29505731054E+02  0.00000000000E+00 0.  1.
</event>
<event>
 5    1  0.1255769E-009  0.9118800E+02  0.7561462E-02  0.1125453E+00
         25   -1    0    0    0    0  0.00000000000E+00  0.00000000000E+00  0.99999998245E-14  0.12509000000E+03  0.12509000000E+03 0.  0.
        -13    1    3    3    0    0  0.11949183083E+02 -0.29523797969E+02  0.11554298974E+02  0.33881419859E+02  0.10566000000E+00 0.  1.
         23    2    1    0    0    0  0.56718032436E+00  0.28090830503E+02 -0.81637110567E+01  0.95831452017E+02  0.91255709770E+02 0.  0.
         13    1    3    3    0    0 -0.11382002759E+02  0.57614628472E+02 -0.19718010030E+02  0.61950032158E+02  0.10566000000E+00 0. -1.
         22    1    1    0    0    0 -0.56718032436E+00 -0.28090830503E+02  0.81637110567E+01  0.29258547983E+02  0.00000000000E+00 0. -1.
</event>
<event>
 5    1  0.1255769E-009  0.9118800E+02  0.7561462E-02  0.1125453E+00
         25   -1    0    0    0    0  0.00000000000E+00  0.00000000000E+00  0.99999998245E-14  0.12509000000E+03  0.12509000000E+03 0.  0.
        -13    1    3    3    0    0  0.27419018519E+02 -0.29378574209E+02  0.45141778118E+02  0.60437525552E+02  0.10566000000E+00 0.  1.
         23    2    1    0    0    0  0.22293240739E+01 -0.17622209465E+02  0.23307662498E+02  0.95785405080E+02  0.91192568464E+02 0.  0.
         13    1    3    3    0    0 -0.25189694445E+02  0.11756364744E+02 -0.21834115620E+02  0.35347879529E+02  0.10566000000E+00 0. -1.
         22    1    1    0    0    0 -0.22293240739E+01  0.17622209465E+02 -0.23307662498E+02  0.29304594920E+02  0.00000000000E+00 0.  1.
</event>
<event>
 5    1  0.1255769E-009  0.9118800E+02  0.7561462E-02  0.1125453E+00
         25   -1    0    0    0    0  0.00000000000E+00  0.00000000000E+00  0.99999998245E-14  0.12509000000E+03  0.12509000000E+03 0.  0.
        -13    1    3    3    0    0  0.94950355580E+01 -0.54561414975E+02  0.21088561059E+02  0.59260798812E+02  0.10566000000E+00 0.  1.
         23    2    1    0    0    0  0.13543164224E+02 -0.25470850156E+02 -0.13325945135E+01  0.96211680918E+02  0.91775433706E+02 0.  0.
         13    1    3    3    0    0  0.40481286662E+01  0.29090564818E+02 -0.22421155572E+02  0.36950882106E+02  0.10566000000E+00 0. -1.
         22    1    1    0    0    0 -0.13543164224E+02  0.25470850156E+02  0.13325945135E+01  0.28878319082E+02  0.00000000000E+00 0.  1.
</event>
<event>
 5    1  0.1255769E-009  0.9118800E+02  0.7561462E-02  0.1125453E+00
         25   -1    0    0    0    0  0.00000000000E+00  0.00000000000E+00  0.99999998245E-14  0.12509000000E+03  0.12509000000E+03 0.  0.
        -13    1    3    3    0    0  0.27903651255E+02  0.25520084092E+02  0.42787414479E+02  0.57102210529E+02  0.10566000000E+00 0. -1.
         23    2    1    0    0    0  0.10836321871E+02  0.27576075447E+02  0.10546229241E+02  0.93640218443E+02  0.88200916946E+02 0.  0.
         13    1    3    3    0    0 -0.17067329384E+02  0.20559913555E+01 -0.32241185238E+02  0.36538007915E+02  0.10566000000E+00 0.  1.
         22    1    1    0    0    0 -0.10836321871E+02 -0.27576075447E+02 -0.10546229241E+02  0.31449781557E+02  0.00000000000E+00 0. -1.
</event>
<event>
 5    1  0.1255769E-009  0.9118800E+02  0.7561462E-02  0.1125453E+00
         25   -1    0    0    0    0  0.00000000000E+00  0.00000000000E+00  0.99999998245E-14  0.12509000000E+03  0.12509000000E+03 0.  0.
        -13    1    3    3    0    0  0.43799355030E+02 -0.32492364264E-01  0.34790785195E+02  0.55935627782E+02  0.10566000000E+00 0.  1.
         23    2    1    0    0    0  0.13575131286E+02  0.19478450116E+02  0.15200950790E+02  0.96898456706E+02  0.92706783996E+02 0.  0.
         13    1    3    3    0    0 -0.30224223745E+02  0.19510942481E+02 -0.19589834405E+02  0.40962828925E+02  0.10566000000E+00 0. -1.
         22    1    1    0    0    0 -0.13575131286E+02 -0.19478450116E+02 -0.15200950790E+02  0.28191543294E+02  0.00000000000E+00 0.  1.
</event>
<event>
 5    1  0.1255769E-009  0.9118800E+02  0.7561462E-02  0.1125453E+00
         25   -1    0    0    0    0  0.00000000000E+00  0.00000000000E+00  0.99999998245E-14  0.12509000000E+03  0.12509000000E+03 0.  0.
        -13    1    3    3    0    0  0.45528086745E+02 -0.18105877505E+02  0.25944927436E+02  0.55441680229E+02  0.10566000000E+00 0. -1.
         23    2    1    0    0    0  0.84609674914E+01 -0.13565467677E+01  0.27639364646E+02  0.96152780575E+02  0.91695117341E+02 0.  0.
         13    1    3    3    0    0 -0.37067119254E+02  0.16749330738E+02  0.16944372103E+01  0.40711100346E+02  0.10566000000E+00 0.  1.
         22    1    1    0    0    0 -0.84609674914E+01  0.13565467677E+01 -0.27639364646E+02  0.28937219425E+02  0.00000000000E+00 0. -1.
</event>
<event>
 5    1  0.1255769E-009  0.9118800E+02  0.7561462E-02  0.1125453E+00
         25   -1    0    0    0    0  0.00000000000E+00  0.00000000000E+00  0.99999998245E-14  0.12509000000E+03  0.12509000000E+03 0.  0.
        -13    1    3    3    0    0  0.29607975569E+02 -0.51879133904E+02 -0.62058794033E+01  0.60054981934E+02  0.10566000000E+00 0. -1.
         23    2    1    0    0    0  0.11976726497E+02 -0.28873916666E+02  0.86926851421E+01  0.92644540900E+02  0.86777319285E+02 0.  0.
         13    1    3    3    0    0 -0.17631249073E+02  0.23005217238E+02  0.14898564545E+02  0.32589558965E+02  0.10566000000E+00 0.  1.
         22    1    1    0    0    0 -0.11976726497E+02  0.28873916666E+02 -0.86926851421E+01  0.32445459100E+02  0.00000000000E+00 0. -1.
</event>
<event>
 5    1  0.1255769E-009  0.9118800E+02  0.7561462E-02  0.1125453E+00
         25   -1    0    0    0    0  0.00000000000E+00  0.00000000000E+00  0.99999998245E-14  0.12509000000E+03  0.12509000000E+03 0.  0.
        -13    1    3    3    0    0 -0.28975500471E+02 -0.45214468033E+02  0.26853267877E+02  0.60041959552E+02  0.10566000000E+00 0.  1.
         23    2    1    0    0    0 -0.34391646759E+01 -0.21192733308E+02  0.19965253113E+02  0.95771556477E+02  0.91173570181E+02 0.  0.
         13    1    3    3    0    0  0.25536335795E+02  0.24021734725E+02 -0.68880147649E+01  0.35729596926E+02  0.10566000000E+00 0. -1.
         22    1    1    0    0    0  0.34391646759E+01  0.21192733308E+02 -0.19965253113E+02  0.29318443523E+02  0.00000000000E+00 0.  1.
</event>
<event>
 5    1  0.1255769E-009  0.9118800E+02  0.7561462E-02  0.1125453E+00
         25   -1    0    0    0    0  0.00000000000E+00  0.00000000000E+00  0.99999998245E-14  0.12509000000E+03  0.12509000000E+03 0.  0.
        -13    1    3    3    0    0 -0.64257999880E+01  0.56772621756E+02  0.16775703259E+02  0.59547097917E+02  0.10566000000E+00 0. -1.
         23    2    1    0    0    0 -0.16330960010E+02  0.23324502627E+02  0.72670156150E+01  0.95703911564E+02  0.91080714178E+02 0.  0.
         13    1    3    3    0    0 -0.99051600216E+01 -0.33448119129E+02 -0.95086876442E+01  0.36156813647E+02  0.10566000000E+00 0.  1.
         22    1    1    0    0    0  0.16330960010E+02 -0.23324502627E+02 -0.72670156150E+01  0.29386088436E+02  0.00000000000E+00 0. -1.
</event>
<event>
 5    1  0.1255769E-009  0.9118800E+02  0.7561462E-02  0.1125453E+00
         25   -1    0    0    0    0  0.00000000000E+00  0.00000000000E+00  0.99999998245E-14  0.12509000000E+03  0.12509000000E+03 0.  0.
        -13    1    3    3    0    0  0.49348800628E+02  0.28373854845E+02 -0.14833124632E+02  0.58825271037E+02  0.10566000000E+00 0.  1.
         23    2    1    0    0    0  0.14081671694E+02  0.18457463077E+02  0.61892758403E+01  0.10106337817E+03  0.98165818143E+02 0.  0.
         13    1    3    3    0    0 -0.35267128933E+02 -0.99163917680E+01  0.21022400473E+02  0.42238107138E+02  0.10566000000E+00 0. -1.
         22    1    1    0    0    0 -0.14081671694E+02 -0.18457463077E+02 -0.61892758403E+01  0.24026621826E+02  0.00000000000E+00 0.  1.
</event>
<event>
 5    1  0.1255769E-009  0.9118800E+02  0.7561462E-02  0.1125453E+00
         25   -1    0    0    0    0  0.00000000000E+00  0.00000000000E+00  0.99999998245E-14  0.12509000000E+03  0.12509000000E+03 0.  0.
        -13    1    3    3    0    0  0.24058452401E+02  0.29715595356E+02 -0.27899856380E+02  0.47331161927E+02  0.10566000000E+00 0.  1.
         23    2    1    0    0    0  0.21414953998E+02 -0.16023530153E+02 -0.11156602655E+02  0.96110290614E+02  0.91637134427E+02 0.  0.
         13    1    3    3    0    0 -0.26434984035E+01 -0.45739125509E+02  0.16743253725E+02  0.48779128687E+02  0.10566000000E+00 0. -1.
         22    1    1    0    0    0 -0.21414953998E+02  0.16023530153E+02  0.11156602655E+02  0.28979709386E+02  0.00000000000E+00 0.  1.
</event>
<event>
 5    1  0.1255769E-009  0.9118800E+02  0.7561462E-02  0.1125453E+00
         25   -1    0    0    0    0  0.00000000000E+00  0.00000000000E+00  0.99999998245E-14  0.12509000000E+03  0.12509000000E+03 0.  0.
        -13    1    3    3    0    0  0.37215144629E+02  0.11712600620E+02 -0.16754875812E+02  0.42460440772E+02  0.10566000000E+00 0.  1.
         23    2    1    0    0    0 -0.11003189257E+02 -0.71652673504E+01 -0.26835166829E+02  0.95214635420E+02  0.90406246407E+02 0.  0.
         13    1    3    3    0    0 -0.48218333887E+02 -0.18877867971E+02 -0.10080291017E+02  0.52754194648E+02  0.10566000000E+00 0. -1.
         22    1    1    0    0    0  0.11003189257E+02  0.71652673504E+01  0.26835166829E+02  0.29875364580E+02  0.00000000000E+00 0. -1.
</event>
<event>
 5    1  0.1255769E-009  0.9118800E+02  0.7561462E-02  0.1125453E+00
         25   -1    0    0    0    0  0.00000000000E+00  0.00000000000E+00  0.99999998245E-14  0.12509000000E+03  0.12509000000E+03 0.  0.
        -13    1    3    3    0    0 -0.24207616306E+02 -0.14186943051E+02  0.35668171482E+02  0.45381798789E+02  0.10566000000E+00 0.  1.
         23    2    1    0    0    0  0.18307161241E+02 -0.21124850656E+02  0.10795776240E+02  0.95124015074E+02  0.90280773098E+02 0.  0.
         13    1    3    3    0    0  0.42514777547E+02 -0.69379076050E+01 -0.24872395243E+02  0.49742216285E+02  0.10566000000E+00 0. -1.
         22    1    1    0    0    0 -0.18307161241E+02  0.21124850656E+02 -0.10795776240E+02  0.29965984926E+02  0.00000000000E+00 0. -1.
</event>
<event>
 5    1  0.1255769E-009  0.9118800E+02  0.7561462E-02  0.1125453E+00
         25   -1    0    0    0    0  0.00000000000E+00  0.00000000000E+00  0.99999998245E-14  0.12509000000E+03  0.12509000000E+03 0.  0.
        -13    1    3    3    0    0  0.90377975314E+01  0.48770660907E+01  0.59378904821E+02  0.60260543141E+02  0.10566000000E+00 0.  1.
         23    2    1    0    0    0  0.70579006593E+01 -0.92735930662E+01  0.29162865985E+02  0.93684805485E+02  0.88264129385E+02 0.  0.
         13    1    3    3    0    0 -0.19798968721E+01 -0.14150659157E+02 -0.30216038836E+02  0.33424262343E+02  0.10566000000E+00 0. -1.
         22    1    1    0    0    0 -0.70579006593E+01  0.92735930662E+01 -0.29162865985E+02  0.31405194515E+02  0.00000000000E+00 0.  1.
</event>
<event>
 5    1  0.1255769E-009  0.9118800E+02  0.7561462E-02  0.1125453E+00
         25   -1    0    0    0    0  0.00000000000E+00  0.00000000000E+00  0.99999998245E-14  0.12509000000E+03  0.12509000000E+03 0.  0.
        -13    1    3    3    0    0  0.43284159310E+02  0.70613497595E+01  0.18276191255E+02  0.47512224095E+02  0.10566000000E+00 0.  1.
         23    2    1    0    0    0  0.14631363040E+02  0.16732041917E+02 -0.19235321388E+02  0.95695517524E+02  0.91069185097E+02 0.  0.
         13    1    3    3    0    0 -0.28652796270E+02  0.96706921573E+01 -0.37511512643E+02  0.48183293429E+02  0.10566000000E+00 0. -1.
         22    1    1    0    0    0 -0.14631363040E+02 -0.16732041917E+02  0.19235321388E+02  0.29394482476E+02  0.00000000000E+00 0. -1.
</event>
<event>
 5    1  0.1255769E-009  0.9118800E+02  0.7561462E-02  0.1125453E+00
         25   -1    0    0    0    0  0.00000000000E+00  0.00000000000E+00  0.99999998245E-14  0.12509000000E+03  0.12509000000E+03 0.  0.
        -13    1    3    3    0    0 -0.12120637434E+02 -0.47425931441E+02 -0.13618805380E+02  0.50809564542E+02  0.10566000000E+00 0.  1.
         23    2    1    0    0    0  0.19803606081E+02 -0.14317341285E+02 -0.14240015322E+02  0.96806663711E+02  0.92582844130E+02 0.  0.
         13    1    3    3    0    0  0.31924243515E+02  0.33108590157E+02 -0.62120994144E+00  0.45997099169E+02  0.10566000000E+00 0. -1.
         22    1    1    0    0    0 -0.19803606081E+02  0.14317341285E+02  0.14240015322E+02  0.28283336289E+02  0.00000000000E+00 0.  1.
</event>
<event>
 5    1  0.1255769E-009  0.9118800E+02  0.7561462E-02  0.1125453E+00
         25   -1    0    0    0    0  0.00000000000E+00  0.00000000000E+00  0.99999998245E-14  0.12509000000E+03  0.12509000000E+03 0.  0.
        -13    1    3    3    0    0  0.31161191660E+02 -0.18231956358E+02 -0.27233228007E+02  0.45222604636E+02  0.10566000000E+00 0. -1.
         23    2    1    0    0    0 -0.11053373775E+02  0.11775152944E+02 -0.22724045791E+02  0.97211449899E+02  0.93128150608E+02 0.  0.
         13    1    3    3    0    0 -0.42214565435E+02  0.30007109301E+02  0.45091822158E+01  0.51988845263E+02  0.10566000000E+00 0.  1.
         22    1    1    0    0    0  0.11053373775E+02 -0.11775152944E+02  0.22724045791E+02  0.27878550101E+02  0.00000000000E+00 0.  1.
</event>
<event>
 5    1  0.1255769E-009  0.9118800E+02  0.7561462E-02  0.1125453E+00
         25   -1    0    0    0    0  0.00000000000E+00  0.00000000000E+00  0.99999998245E-14  0.12509000000E+03  0.12509000000E+03 0.  0.
        -13    1    3    3    0    0  0.36071322141E+02  0.13746660431E+02  0.19233308415E+02  0.43128207366E+02  0.10566000000E+00 0. -1.
         23    2    1    0    0    0 -0.46032878945E+01 -0.15160794949E+02  0.27151954375E+02  0.93653260518E+02  0.88219411789E+02 0.  0.
         13    1    3    3    0    0 -0.40674610035E+02 -0.28907455380E+02  0.79186459594E+01  0.50525053151E+02  0.10566000000E+00 0.  1.
         22    1    1    0    0    0  0.46032878945E+01  0.15160794949E+02 -0.27151954375E+02  0.31436739482E+02  0.00000000000E+00 0.  1.
</event>
<event>
 5    1  0.1255769E-009  0.9118800E+02  0.7561462E-02  0.1125453E+00
         25   -1    0    0    0    0  0.00000000000E+00  0.00000000000E+00  0.99999998245E-14  0.12509000000E+03  0.12509000000E+03 0.  0.
        -13    1    3    3    0    0 -0.31271742462E+02 -0.45104250578E+01 -0.50065765590E+02  0.59201839997E+02  0.10566000000E+00 0.  1.
         23    2    1    0    0    0 -0.48670862991E+01  0.99163226136E+01 -0.22570461230E+02  0.99961376812E+02  0.96751378030E+02 0.  0.
         13    1    3    3    0    0  0.26404656163E+02  0.14426747671E+02  0.27495304361E+02  0.40759536815E+02  0.10566000000E+00 0. -1.
         22    1    1    0    0    0  0.48670862991E+01 -0.99163226136E+01  0.22570461230E+02  0.25128623188E+02  0.00000000000E+00 0.  1.
</event>
<event>
 5    1  0.1255769E-009  0.9118800E+02  0.7561462E-02  0.1125453E+00
         25   -1    0    0    0    0  0.00000000000E+00  0.00000000000E+00  0.99999998245E-14  0.12509000000E+03  0.12509000000E+03 0.  0.
        -13    1    3    3    0    0  0.27553184161E+02 -0.24136073396E+02  0.17780651213E+02  0.40717204201E+02  0.10566000000E+00 0.  1.
         23    2    1    0    0    0  0.62471348831E+01 -0.22144010906E+01 -0.28304601347E+02  0.96019727833E+02  0.91513427480E+02 0.  0.
         13    1    3    3    0    0 -0.21306049278E+02  0.21921672305E+02 -0.46085252560E+02  0.55302523632E+02  0.10566000000E+00 0. -1.
         22    1    1    0    0    0 -0.62471348831E+01  0.22144010906E+01  0.28304601347E+02  0.29070272167E+02  0.00000000000E+00 0. -1.
</event>
<event>
 5    1  0.1255769E-009  0.9118800E+02  0.7561462E-02  0.1125453E+00
         25   -1    0    0    0    0  0.00000000000E+00  0.00000000000E+00  0.99999998245E-14  0.12509000000E+03  0.12509000000E+03 0.  0.
        -13    1    3    3    0    0  0.33689293744E+02 -0.30550909886E+01 -0.26375353204E+02  0.42894900799E+02  0.10566000000E+00 0.  1.
         23    2    1    0    0    0  0.58234189171E+01  0.26324348226E+02  0.90030727845E+01  0.96665735067E+02  0.92392237224E+02 0.  0.
         13    1    3    3    0    0 -0.27865874827E+02  0.29379439214E+02  0.35378425989E+02  0.53770834268E+02  0.10566000000E+00 0. -1.
         22    1    1    0    0    0 -0.58234189171E+01 -0.26324348226E+02 -0.90030727845E+01  0.28424264933E+02  0.00000000000E+00 0. -1.
</event>
<event>
 5    1  0.1255769E-009  0.9118800E+02  0.7561462E-02  0.1125453E+00
         25   -1    0    0    0    0  0.00000000000E+00  0.00000000000E+00  0.99999998245E-14  0.12509000000E+03  0.12509000000E+03 0.  0.
        -13    1    3    3    0    0  0.63619791555E+01 -0.24508325874E+02 -0.22864748426E+02  0.34116575158E+02  0.10566000000E+00 0. -1.
         23    2    1    0    0    0  0.38217630692E+01  0.12318339918E+02  0.26418208434E+02  0.95691545820E+02  0.91063729516E+02 0.  0.
         13    1    3    3    0    0 -0.25402160863E+01  0.36826665793E+02  0.49282956860E+02  0.61574970662E+02  0.10566000000E+00 0.  1.
         22    1    1    0    0    0 -0.38217630692E+01 -0.12318339918E+02 -0.26418208434E+02  0.29398454180E+02  0.00000000000E+00 0.  1.
</event>
<event>
 5    1  0.1255769E-009  0.9118800E+02  0.7561462E-02  0.1125453E+00
         25   -1    0    0    0    0  0.00000000000E+00  0.00000000000E+00  0.99999998245E-14  0.12509000000E+03  0.12509000000E+03 0.  0.
        -13    1    3    3    0    0 -0.57714283318E+02  0.16439046134E+02  0.14497048195E+02  0.61736183127E+02  0.10566000000E+00 0. -1.
         23    2    1    0    0    0 -0.24794920767E+02  0.14377558096E+02  0.76753875700E+01  0.95418231482E+02  0.90687513210E+02 0.  0.
         13    1    3    3    0    0  0.32919362551E+02 -0.20614880385E+01 -0.68216606247E+01  0.33682048355E+02  0.10566000000E+00 0.  1.
         22    1    1    0    0    0  0.24794920767E+02 -0.14377558096E+02 -0.76753875700E+01  0.29671768518E+02  0.00000000000E+00 0. -1.
</event>
<event>
 5    1  0.1255769E-009  0.9118800E+02  0.7561462E-02  0.1125453E+00
         25   -1    0    0    0    0  0.00000000000E+00  0.00000000000E+00  0.99999998245E-14  0.12509000000E+03  0.12509000000E+03 0.  0.
        -13    1    3    3    0    0  0.37903641406E+02 -0.37426983563E+02  0.18762708765E+02  0.56475796007E+02  0.10566000000E+00 0.  1.
         23    2    1    0    0    0  0.30054491500E+01 -0.20356006127E+02  0.21383770767E+02  0.95413993493E+02  0.90681667342E+02 0.  0.
         13    1    3    3    0    0 -0.34898192256E+02  0.17070977436E+02  0.26210620017E+01  0.38938197485E+02  0.10566000000E+00 0. -1.
         22    1    1    0    0    0 -0.30054491500E+01  0.20356006127E+02 -0.21383770767E+02  0.29676006507E+02  0.00000000000E+00 0.  1.
</event>
<event>
 5    1  0.1255769E-009  0.9118800E+02  0.7561462E-02  0.1125453E+00
         25   -1    0    0    0    0  0.00000000000E+00  0.00000000000E+00  0.99999998245E-14  0.12509000000E+03  0.12509000000E+03 0.  0.
        -13    1    3    3    0    0 -0.25277697192E+02 -0.19706817580E+02  0.52676039866E+02  0.61661146393E+02  0.10566000000E+00 0.  1.
         23    2    1    0    0    0 -0.40694466457E+01 -0.51955934557E+01  0.24146280486E+02  0.10005807142E+03  0.96876313962E+02 0.  0.
         13    1    3    3    0    0  0.21208250547E+02  0.14511224124E+02 -0.28529759381E+02  0.38396925023E+02  0.10566000000E+00 0. -1.
         22    1    1    0    0    0  0.40694466457E+01  0.51955934557E+01 -0.24146280486E+02  0.25031928584E+02  0.00000000000E+00 0.  1.
</event>
<event>
 5    1  0.1255769E-009  0.9118800E+02  0.7561462E-02  0.1125453E+00
         25   -1    0    0    0    0  0.00000000000E+00  0.00000000000E+00  0.99999998245E-14  0.12509000000E+03  0.12509000000E+03 0.  0.
        -13    1    3    3    0    0  0.12516403887E+02 -0.30558741641E+02  0.16308990284E+02  0.36830576768E+02  0.10566000000E+00 0.  1.
         23    2    1    0    0    0 -0.16632617590E+02  0.20554336925E+02  0.12633452488E+02  0.95785924241E+02  0.91193280600E+02 0.  0.
         13    1    3    3    0    0 -0.29149021476E+02  0.51113078566E+02 -0.36755377956E+01  0.58955347473E+02  0.10566000000E+00 0. -1.
         22    1    1    0    0    0  0.16632617590E+02 -0.20554336925E+02 -0.12633452488E+02  0.29304075759E+02  0.00000000000E+00 0. -1.
</event>
<event>
 5    1  0.1255769E-009  0.9118800E+02  0.7561462E-02  0.1125453E+00
         25   -1    0    0    0    0  0.00000000000E+00  0.00000000000E+00  0.99999998245E-14  0.12509000000E+03  0.12509000000E+03 0.  0.
        -13    1    3    3    0    0  0.43562405638E+02  0.11863957481E+02  0.39101550103E+00  0.45150866317E+02  0.10566000000E+00 0. -1.
         23    2    1    0    0    0  0.96344731740E+01 -0.26553903407E+02  0.41308141363E+01  0.96541856717E+02  0.92224365617E+02 0.  0.
         13    1    3    3    0    0 -0.33927932464E+02 -0.38417860887E+02  0.37397986353E+01  0.51390990400E+02  0.10566000000E+00 0.  1.
         22    1    1    0    0    0 -0.96344731740E+01  0.26553903407E+02 -0.41308141363E+01  0.28548143283E+02  0.00000000000E+00 0.  1.
</event>
<event>
 5    1  0.1255769E-009  0.9118800E+02  0.7561462E-02  0.1125453E+00
         25   -1    0    0    0    0  0.00000000000E+00  0.00000000000E+00  0.99999998245E-14  0.12509000000E+03  0.12509000000E+03 0.  0.
        -13    1    3    3    0    0 -0.28375628921E+01 -0.25012785704E+02 -0.23499009717E+02  0.34436983514E+02  0.10566000000E+00 0. -1.
         23    2    1    0    0    0 -0.13243885660E+02  0.11210762833E+02  0.24252158384E+02  0.95269723393E+02  0.90482436408E+02 0.  0.
         13    1    3    3    0    0 -0.10406322768E+02  0.36223548537E+02  0.47751168100E+02  0.60832739879E+02  0.10566000000E+00 0.  1.
         22    1    1    0    0    0  0.13243885660E+02 -0.11210762833E+02 -0.24252158384E+02  0.29820276607E+02  0.00000000000E+00 0.  1.
</event>
<event>
 5    1  0.1255769E-009  0.9118800E+02  0.7561462E-02  0.1125453E+00
         25   -1    0    0    0    0  0.00000000000E+00  0.00000000000E+00  0.99999998245E-14  0.12509000000E+03  0.12509000000E+03 0.  0.
        -13    1    3    3    0    0  0.24765232416E+02  0.36686109270E+02  0.20702118397E+02  0.48864877163E+02  0.10566000000E+00 0.  1.
         23    2    1    0    0    0  0.19662299555E+02 -0.88141159739E+01 -0.70667481266E+01  0.10241328081E+03  0.99871149452E+02 0.  0.
         13    1    3    3    0    0 -0.51029328609E+01 -0.45500225244E+02 -0.27768866523E+02  0.53548403646E+02  0.10566000000E+00 0. -1.
         22    1    1    0    0    0 -0.19662299555E+02  0.88141159739E+01  0.70667481266E+01  0.22676719191E+02  0.00000000000E+00 0. -1.
</event>
<event>
 5    1  0.1255769E-009  0.9118800E+02  0.7561462E-02  0.1125453E+00
         25   -1    0    0    0    0  0.00000000000E+00  0.00000000000E+00  0.99999998245E-14  0.12509000000E+03  0.12509000000E+03 0.  0.
        -13    1    3    3    0    0 -0.21849062800E+00 -0.29685492076E+01 -0.31348194664E+02  0.31489371148E+02  0.10566000000E+00 0.  1.
         23    2    1    0    0    0 -0.20737886685E+02 -0.66746556425E+01  0.25211246146E+02  0.91770067462E+02  0.85507469719E+02 0.  0.
         13    1    3    3    0    0 -0.20519396057E+02 -0.37061064349E+01  0.56559440810E+02  0.60280696315E+02  0.10566000000E+00 0. -1.
         22    1    1    0    0    0  0.20737886685E+02  0.66746556425E+01 -0.25211246146E+02  0.33319932538E+02  0.00000000000E+00 0. -1.
</event>
<event>
 5    1  0.1255769E-009  0.9118800E+02  0.7561462E-02  0.1125453E+00
         25   -1    0    0    0    0  0.00000000000E+00  0.00000000000E+00  0.99999998245E-14  0.12509000000E+03  0.12509000000E+03 0.  0.
        -13    1    3    3    0    0 -0.63415842166E+01 -0.51119503279E+02 -0.19525390489E+02  0.55087851144E+02  0.10566000000E+00 0.  1.
         23    2    1    0    0    0 -0.11173879834E+01 -0.10998090751E+02 -0.26711536405E+02  0.96181303502E+02  0.91734019917E+02 0.  0.
         13    1    3    3    0    0  0.52241962332E+01  0.40121412528E+02 -0.71861459165E+01  0.41093452358E+02  0.10566000000E+00 0. -1.
         22    1    1    0    0    0  0.11173879834E+01  0.10998090751E+02  0.26711536405E+02  0.28908696498E+02  0.00000000000E+00 0.  1.
</event>
<event>
 5    1  0.1255769E-009  0.9118800E+02  0.7561462E-02  0.1125453E+00
         25   -1    0    0    0    0  0.00000000000E+00  0.00000000000E+00  0.99999998245E-14  0.12509000000E+03  0.12509000000E+03 0.  0.
        -13    1    3    3    0    0  0.19894473296E+02  0.55324376532E+00  0.49898443792E+02  0.53721150428E+02  0.10566000000E+00 0.  1.
         23    2    1    0    0    0  0.28198999031E+02 -0.19595683195E+01  0.91563267408E+01  0.95377010017E+02  0.90630636464E+02 0.  0.
         13    1    3    3    0    0  0.83045257355E+01 -0.25128120848E+01 -0.40742117051E+02  0.41655859589E+02  0.10566000000E+00 0. -1.
         22    1    1    0    0    0 -0.28198999031E+02  0.19595683195E+01 -0.91563267408E+01  0.29712989983E+02  0.00000000000E+00 0.  1.
</event>
<event>
 5    1  0.1255769E-009  0.9118800E+02  0.7561462E-02  0.1125453E+00
         25   -1    0    0    0    0  0.00000000000E+00  0.00000000000E+00  0.99999998245E-14  0.12509000000E+03  0.12509000000E+03 0.  0.
        -13    1    3    3    0    0 -0.24139864587E+02  0.44816775299E+02 -0.19899802221E+02  0.54656103986E+02  0.10566000000E+00 0.  1.
         23    2    1    0    0    0 -0.27121463593E+02  0.69091129888E+01 -0.15926688697E+02  0.92887996296E+02  0.87127554845E+02 0.  0.
         13    1    3    3    0    0 -0.29815990062E+01 -0.37907662310E+02  0.39731135238E+01  0.38231892309E+02  0.10566000000E+00 0. -1.
         22    1    1    0    0    0  0.27121463593E+02 -0.69091129888E+01  0.15926688697E+02  0.32202003704E+02  0.00000000000E+00 0.  1.
</event>
<event>
 5    1  0.1255769E-009  0.9118800E+02  0.7561462E-02  0.1125453E+00
         25   -1    0    0    0    0  0.00000000000E+00  0.00000000000E+00  0.99999998245E-14  0.12509000000E+03  0.12509000000E+03 0.  0.
        -13    1    3    3    0    0 -0.42268243089E+02  0.20465555022E+01  0.34003459832E+01  0.42454284590E+02  0.10566000000E+00 0.  1.
         23    2    1    0    0    0  0.65598901660E+01  0.26509174182E+02  0.60015604401E+01  0.97129542162E+02  0.93018066837E+02 0.  0.
         13    1    3    3    0    0  0.48828133255E+02  0.24462618680E+02  0.26012144569E+01  0.54675257571E+02  0.10566000000E+00 0. -1.
         22    1    1    0    0    0 -0.65598901660E+01 -0.26509174182E+02 -0.60015604401E+01  0.27960457838E+02  0.00000000000E+00 0. -1.
</event>
<event>
 5    1  0.1255769E-009  0.9118800E+02  0.7561462E-02  0.1125453E+00
         25   -1    0    0    0    0  0.00000000000E+00  0.00000000000E+00  0.99999998245E-14  0.12509000000E+03  0.12509000000E+03 0.  0.
        -13    1    3    3    0    0 -0.37967573163E+02 -0.98716094733E+01 -0.14348528990E+02  0.41771721699E+02  0.10566000000E+00 0. -1.
         23    2    1    0    0    0  0.13370789550E+02 -0.24323016944E+02 -0.11076311069E+02  0.95205692524E+02  0.90393871781E+02 0.  0.
         13    1    3    3    0    0  0.51338362713E+02 -0.14451407471E+02  0.32722179207E+01  0.53433970825E+02  0.10566000000E+00 0.  1.
         22    1    1    0    0    0 -0.13370789550E+02  0.24323016944E+02  0.11076311069E+02  0.29884307476E+02  0.00000000000E+00 0.  1.
</event>
<event>
 5    1  0.1255769E-009  0.9118800E+02  0.7561462E-02  0.1125453E+00
         25   -1    0    0    0    0  0.00000000000E+00  0.00000000000E+00  0.99999998245E-14  0.12509000000E+03  0.12509000000E+03 0.  0.
        -13    1    3    3    0    0 -0.45208870080E+02  0.37375636747E+01 -0.15436455698E+02  0.47917707006E+02  0.10566000000E+00 0.  1.
         23    2    1    0    0    0 -0.10985540092E+02 -0.27044951194E+02 -0.98297493365E+01  0.94288450555E+02  0.89115523114E+02 0.  0.
         13    1    3    3    0    0  0.34223329988E+02 -0.30782514868E+02  0.56067063617E+01  0.46370743549E+02  0.10566000000E+00 0. -1.
         22    1    1    0    0    0  0.10985540092E+02  0.27044951194E+02  0.98297493365E+01  0.30801549445E+02  0.00000000000E+00 0.  1.
</event>
<event>
 5    1  0.1255769E-009  0.9118800E+02  0.7561462E-02  0.1125453E+00
         25   -1    0    0    0    0  0.00000000000E+00  0.00000000000E+00  0.99999998245E-14  0.12509000000E+03  0.12509000000E+03 0.  0.
        -13    1    3    3    0    0  0.25828591411E+02 -0.30159864839E+02 -0.16736680682E+02  0.43091312647E+02  0.10566000000E+00 0.  1.
         23    2    1    0    0    0 -0.21833562809E+02 -0.12050774506E+02  0.67894498395E+01  0.99243873399E+02  0.95819226395E+02 0.  0.
         13    1    3    3    0    0 -0.47662154220E+02  0.18109090333E+02  0.23526130521E+02  0.56152560751E+02  0.10566000000E+00 0. -1.
         22    1    1    0    0    0  0.21833562809E+02  0.12050774506E+02 -0.67894498395E+01  0.25846126601E+02  0.00000000000E+00 0. -1.
</event>
<event>
 5    1  0.1255769E-009  0.9118800E+02  0.7561462E-02  0.1125453E+00
         25   -1    0    0    0    0  0.00000000000E+00  0.00000000000E+00  0.99999998245E-14  0.12509000000E+03  0.12509000000E+03 0.  0.
        -13    1    3    3    0    0  0.14036396029E+01 -0.15769215010E+02 -0.43702112275E+02  0.46481438527E+02  0.10566000000E+00 0.  1.
         23    2    1    0    0    0  0.15719423068E+02 -0.25304290542E+02  0.19203411891E+01  0.95238784083E+02  0.90439653371E+02 0.  0.
         13    1    3    3    0    0  0.14315783465E+02 -0.95350755319E+01  0.45622453464E+02  0.48757345556E+02  0.10566000000E+00 0. -1.
         22    1    1    0    0    0 -0.15719423068E+02  0.25304290542E+02 -0.19203411891E+01  0.29851215917E+02  0.00000000000E+00 0. -1.
</event>
<event>
 5    1  0.1255769E-009  0.9118800E+02  0.7561462E-02  0.1125453E+00
         25   -1    0    0    0    0  0.00000000000E+00  0.00000000000E+00  0.99999998245E-14  0.12509000000E+03  0.12509000000E+03 0.  0.
        -13    1    3    3    0    0 -0.16383768072E+02 -0.33637441584E+02 -0.49630842638E+02  0.62154139344E+02  0.10566000000E+00 0.  1.
         23    2    1    0    0    0 -0.38764313328E+01 -0.18847797919E+02 -0.22609106540E+02  0.95400980063E+02  0.90663714308E+02 0.  0.
         13    1    3    3    0    0  0.12507336740E+02  0.14789643665E+02  0.27021736098E+02  0.33246840719E+02  0.10566000000E+00 0. -1.
         22    1    1    0    0    0  0.38764313328E+01  0.18847797919E+02  0.22609106540E+02  0.29689019937E+02  0.00000000000E+00 0.  1.
</event>
<event>
 5    1  0.1255769E-009  0.9118800E+02  0.7561462E-02  0.1125453E+00
         25   -1    0    0    0    0  0.00000000000E+00  0.00000000000E+00  0.99999998245E-14  0.12509000000E+03  0.12509000000E+03 0.  0.
        -13    1    3    3    0    0  0.49560186281E+02 -0.29962244214E+02  0.15452292539E+02  0.59939408166E+02  0.10566000000E+00 0.  1.
         23    2    1    0    0    0  0.17562834272E+02 -0.18262163289E+02  0.17855450442E+02  0.94093599142E+02  0.88841592361E+02 0.  0.
         13    1    3    3    0    0 -0.31997352009E+02  0.11700080925E+02  0.24031579030E+01  0.34154190976E+02  0.10566000000E+00 0. -1.
         22    1    1    0    0    0 -0.17562834272E+02  0.18262163289E+02 -0.17855450442E+02  0.30996400858E+02  0.00000000000E+00 0.  1.
</event>
<event>
 4    1  0.1255769E-009  0.9118800E+02  0.7561462E-02  0.1125453E+00
         25   -1    0    0    0    0  0.00000000000E+00  0.00000000000E+00  0.99999998245E-14  0.12509000000E+03  0.12509000000E+03 0.  0.
        -13    1    1    0    0    0 -0.60898376977E+02 -0.56426788784E+01  0.12240684236E+02  0.62372250705E+02  0.10566000000E+00 0. -1.
         13    1    1    0    0    0  0.99561706038E+01 -0.12277873478E+01 -0.31628122259E+01  0.10518903939E+02  0.10566000000E+00 0.  1.
         22    1    1    0    0    0  0.50942206373E+02  0.68704662262E+01 -0.90778720100E+01  0.52198845357E+02  0.00000000000E+00 0. -1.
</event>
<event>
 5    1  0.1255769E-009  0.9118800E+02  0.7561462E-02  0.1125453E+00
         25   -1    0    0    0    0  0.00000000000E+00  0.00000000000E+00  0.99999998245E-14  0.12509000000E+03  0.12509000000E+03 0.  0.
        -13    1    3    3    0    0 -0.57785276842E+01  0.25668765424E+02  0.50813814005E+02  0.57221776959E+02  0.10566000000E+00 0.  1.
         23    2    1    0    0    0 -0.13516950144E+02 -0.31356158597E+01  0.24194201534E+02  0.97199151754E+02  0.93111630239E+02 0.  0.
         13    1    3    3    0    0 -0.77384224595E+01 -0.28804381284E+02 -0.26619612471E+02  0.39977374795E+02  0.10566000000E+00 0. -1.
         22    1    1    0    0    0  0.13516950144E+02  0.31356158597E+01 -0.24194201534E+02  0.27890848246E+02  0.00000000000E+00 0.  1.
</event>
<event>
 5    1  0.1255769E-009  0.9118800E+02  0.7561462E-02  0.1125453E+00
         25   -1    0    0    0    0  0.00000000000E+00  0.00000000000E+00  0.99999998245E-14  0.12509000000E+03  0.12509000000E+03 0.  0.
        -13    1    3    3    0    0 -0.43680175736E+01 -0.23677313340E+02  0.56338918504E+02  0.61268096484E+02  0.10566000000E+00 0. -1.
         23    2    1    0    0    0 -0.10187533908E+02 -0.14015124324E+02  0.24217153238E+02  0.95312826395E+02  0.90542005762E+02 0.  0.
         13    1    3    3    0    0 -0.58195163340E+01  0.96621890158E+01 -0.32121765265E+02  0.34044729911E+02  0.10566000000E+00 0.  1.
         22    1    1    0    0    0  0.10187533908E+02  0.14015124324E+02 -0.24217153238E+02  0.29777173605E+02  0.00000000000E+00 0. -1.
</event>
<event>
 5    1  0.1255769E-009  0.9118800E+02  0.7561462E-02  0.1125453E+00
         25   -1    0    0    0    0  0.00000000000E+00  0.00000000000E+00  0.99999998245E-14  0.12509000000E+03  0.12509000000E+03 0.  0.
        -13    1    3    3    0    0  0.44593882173E+00  0.35406505541E+02 -0.64155350677E+01  0.35985966019E+02  0.10566000000E+00 0. -1.
         23    2    1    0    0    0  0.15068369790E+02 -0.21714027380E+02 -0.13567839521E+02  0.95380724976E+02  0.90635763772E+02 0.  0.
         13    1    3    3    0    0  0.14622430968E+02 -0.57120532921E+02 -0.71523044536E+01  0.59394758957E+02  0.10566000000E+00 0.  1.
         22    1    1    0    0    0 -0.15068369790E+02  0.21714027380E+02  0.13567839521E+02  0.29709275024E+02  0.00000000000E+00 0.  1.
</event>
<event>
 5    1  0.1255769E-009  0.9118800E+02  0.7561462E-02  0.1125453E+00
         25   -1    0    0    0    0  0.00000000000E+00  0.00000000000E+00  0.99999998245E-14  0.12509000000E+03  0.12509000000E+03 0.  0.
        -13    1    3    3    0    0  0.43332397869E+02 -0.19304176653E+02 -0.31691843005E+02  0.57050258706E+02  0.10566000000E+00 0.  1.
         23    2    1    0    0    0  0.30115606778E+02 -0.26828905314E+01 -0.41841761352E+00  0.94852229803E+02  0.89903407900E+02 0.  0.
         13    1    3    3    0    0 -0.13216791091E+02  0.16621286122E+02  0.31273425391E+02  0.37801971097E+02  0.10566000000E+00 0. -1.
         22    1    1    0    0    0 -0.30115606778E+02  0.26828905314E+01  0.41841761352E+00  0.30237770197E+02  0.00000000000E+00 0. -1.
</event>
<event>
 5    1  0.1255769E-009  0.9118800E+02  0.7561462E-02  0.1125453E+00
         25   -1    0    0    0    0  0.00000000000E+00  0.00000000000E+00  0.99999998245E-14  0.12509000000E+03  0.12509000000E+03 0.  0.
        -13    1    3    3    0    0  0.25124026985E+02  0.18441959787E+02 -0.11182161920E+02  0.33111546656E+02  0.10566000000E+00 0.  1.
         23    2    1    0    0    0 -0.25311548944E+02 -0.10626198070E+02  0.11149322891E+02  0.95460656500E+02  0.90746013373E+02 0.  0.
         13    1    3    3    0    0 -0.50435575928E+02 -0.29068157857E+02  0.22331484811E+02  0.62349109844E+02  0.10566000000E+00 0. -1.
         22    1    1    0    0    0  0.25311548944E+02  0.10626198070E+02 -0.11149322891E+02  0.29629343500E+02  0.00000000000E+00 0. -1.
</event>
<event>
 5    1  0.1255769E-009  0.9118800E+02  0.7561462E-02  0.1125453E+00
         25   -1    0    0    0    0  0.00000000000E+00  0.00000000000E+00  0.99999998245E-14  0.12509000000E+03  0.12509000000E+03 0.  0.
        -13    1    3    3    0    0 -0.14080487691E+02  0.40063203110E+01  0.33870851561E+02  0.36899274865E+02  0.10566000000E+00 0.  1.
         23    2    1    0    0    0 -0.16646743272E+02 -0.26667270402E+01 -0.24303572582E+02  0.95511475105E+02  0.90816037911E+02 0.  0.
         13    1    3    3    0    0 -0.25662555807E+01 -0.66730473512E+01 -0.58174424143E+02  0.58612200241E+02  0.10566000000E+00 0. -1.
         22    1    1    0    0    0  0.16646743272E+02  0.26667270402E+01  0.24303572582E+02  0.29578524895E+02  0.00000000000E+00 0. -1.
</event>
<event>
 5    1  0.1255769E-009  0.9118800E+02  0.7561462E-02  0.1125453E+00
         25   -1    0    0    0    0  0.00000000000E+00  0.00000000000E+00  0.99999998245E-14  0.12509000000E+03  0.12509000000E+03 0.  0.
        -13    1    3    3    0    0  0.28000545428E+02  0.11384298311E+02 -0.89017382274E+01  0.31510076163E+02  0.10566000000E+00 0.  1.
         23    2    1    0    0    0 -0.21849617724E+02 -0.16953080064E+02  0.14994157682E+02  0.93631495857E+02  0.88188545364E+02 0.  0.
         13    1    3    3    0    0 -0.49850163152E+02 -0.28337378375E+02  0.23895895909E+02  0.62121419694E+02  0.10566000000E+00 0. -1.
         22    1    1    0    0    0  0.21849617724E+02  0.16953080064E+02 -0.14994157682E+02  0.31458504143E+02  0.00000000000E+00 0. -1.
</event>
<event>
 5    1  0.1255769E-009  0.9118800E+02  0.7561462E-02  0.1125453E+00
         25   -1    0    0    0    0  0.00000000000E+00  0.00000000000E+00  0.99999998245E-14  0.12509000000E+03  0.12509000000E+03 0.  0.
        -13    1    3    3    0    0 -0.12981974315E+02  0.24090535548E+02 -0.53119224813E+02  0.59754069057E+02  0.10566000000E+00 0.  1.
         23    2    1    0    0    0 -0.14569497003E+02  0.16184207105E+02 -0.15169894039E+02  0.98550887586E+02  0.94910236310E+02 0.  0.
         13    1    3    3    0    0 -0.15875226884E+01 -0.79063284428E+01  0.37949330774E+02  0.38796818529E+02  0.10566000000E+00 0. -1.
         22    1    1    0    0    0  0.14569497003E+02 -0.16184207105E+02  0.15169894039E+02  0.26539112414E+02  0.00000000000E+00 0.  1.
</event>
<event>
 5    1  0.1255769E-009  0.9118800E+02  0.7561462E-02  0.1125453E+00
         25   -1    0    0    0    0  0.00000000000E+00  0.00000000000E+00  0.99999998245E-14  0.12509000000E+03  0.12509000000E+03 0.  0.
        -13    1    3    3    0    0  0.25229076219E+02 -0.17985024137E+02 -0.14960823340E+02  0.34406464205E+02  0.10566000000E+00 0. -1.
         23    2    1    0    0    0 -0.94468320524E+01  0.10410793087E+02  0.26263070627E+02  0.95301140886E+02  0.90525859990E+02 0.  0.
         13    1    3    3    0    0 -0.34675908271E+02  0.28395817224E+02  0.41223893967E+02  0.60894676681E+02  0.10566000000E+00 0.  1.
         22    1    1    0    0    0  0.94468320524E+01 -0.10410793087E+02 -0.26263070627E+02  0.29788859114E+02  0.00000000000E+00 0.  1.
</event>
<event>
 4    1  0.1255769E-009  0.9118800E+02  0.7561462E-02  0.1125453E+00
         25   -1    0    0    0    0  0.00000000000E+00  0.00000000000E+00  0.99999998245E-14  0.12509000000E+03  0.12509000000E+03 0.  0.
        -13    1    1    0    0    0 -0.31490867025E+02  0.25520173135E+01 -0.66483140943E+01  0.32286200500E+02  0.10566000000E+00 0.  1.
         13    1    1    0    0    0  0.93535423794E+01  0.84488505759E+01 -0.38948375342E+02  0.40937256099E+02  0.10566000000E+00 0. -1.
         22    1    1    0    0    0  0.22137324646E+02 -0.11000867889E+02  0.45596689436E+02  0.51866543401E+02  0.00000000000E+00 0.  1.
</event>
<event>
 4    1  0.1255769E-009  0.9118800E+02  0.7561462E-02  0.1125453E+00
         25   -1    0    0    0    0  0.00000000000E+00  0.00000000000E+00  0.99999998245E-14  0.12509000000E+03  0.12509000000E+03 0.  0.
        -13    1    1    0    0    0 -0.50239747495E+02  0.46382658854E+01 -0.12086075895E+02  0.51880922634E+02  0.10566000000E+00 0.  1.
         13    1    1    0    0    0  0.53626078413E+01  0.19963990872E+02  0.67844841098E+01  0.21756812337E+02  0.10566000000E+00 0. -1.
         22    1    1    0    0    0  0.44877139654E+02 -0.24602256757E+02  0.53015917853E+01  0.51452265028E+02  0.00000000000E+00 0.  1.
</event>
<event>
 5    1  0.1255769E-009  0.9118800E+02  0.7561462E-02  0.1125453E+00
         25   -1    0    0    0    0  0.00000000000E+00  0.00000000000E+00  0.99999998245E-14  0.12509000000E+03  0.12509000000E+03 0.  0.
        -13    1    3    3    0    0 -0.12823031220E+02  0.33921790900E+02  0.37716320276E+02  0.52322557341E+02  0.10566000000E+00 0.  1.
         23    2    1    0    0    0 -0.95764166482E+01  0.10374774377E+02  0.45590856880E+02  0.77362964368E+02  0.60886437945E+02 0.  0.
         13    1    3    3    0    0  0.32466145717E+01 -0.23547016523E+02  0.78745366042E+01  0.25040407027E+02  0.10566000000E+00 0. -1.
         22    1    1    0    0    0  0.95764166482E+01 -0.10374774377E+02 -0.45590856880E+02  0.47727035632E+02  0.00000000000E+00 0.  1.
</event>
<event>
 5    1  0.1255769E-009  0.9118800E+02  0.7561462E-02  0.1125453E+00
         25   -1    0    0    0    0  0.00000000000E+00  0.00000000000E+00  0.99999998245E-14  0.12509000000E+03  0.12509000000E+03 0.  0.
        -13    1    3    3    0    0 -0.13121634758E+02 -0.61724876609E+01  0.57406411714E+02  0.59209662831E+02  0.10566000000E+00 0. -1.
         23    2    1    0    0    0 -0.17810867683E+02  0.59897004557E+01  0.28080403320E+02  0.91302242309E+02  0.84820321155E+02 0.  0.
         13    1    3    3    0    0 -0.46892329248E+01  0.12162188117E+02 -0.29326008394E+02  0.32092579478E+02  0.10566000000E+00 0.  1.
         22    1    1    0    0    0  0.17810867683E+02 -0.59897004557E+01 -0.28080403320E+02  0.33787757691E+02  0.00000000000E+00 0. -1.
</event>
<event>
 5    1  0.1255769E-009  0.9118800E+02  0.7561462E-02  0.1125453E+00
         25   -1    0    0    0    0  0.00000000000E+00  0.00000000000E+00  0.99999998245E-14  0.12509000000E+03  0.12509000000E+03 0.  0.
        -13    1    3    3    0    0 -0.20131657158E+02  0.48000811720E+02 -0.10011257761E+02  0.53005641131E+02  0.10566000000E+00 0.  1.
         23    2    1    0    0    0 -0.13852822007E+02 -0.54318881471E+01  0.58594764475E+01  0.10909814111E+03  0.10791971481E+03 0.  0.
         13    1    3    3    0    0  0.62788351508E+01 -0.53432699867E+02  0.15870734208E+02  0.56092499983E+02  0.10566000000E+00 0. -1.
         22    1    1    0    0    0  0.13852822007E+02  0.54318881471E+01 -0.58594764475E+01  0.15991858886E+02  0.00000000000E+00 0.  1.
</event>
<event>
 5    1  0.1255769E-009  0.9118800E+02  0.7561462E-02  0.1125453E+00
         25   -1    0    0    0    0  0.00000000000E+00  0.00000000000E+00  0.99999998245E-14  0.12509000000E+03  0.12509000000E+03 0.  0.
        -13    1    3    3    0    0  0.92466361660E+01 -0.28655692838E+02  0.30143903095E+02  0.42606514411E+02  0.10566000000E+00 0. -1.
         23    2    1    0    0    0  0.22817642884E+01  0.22763670576E+02  0.84338045371E+00  0.10219671634E+03  0.99599530083E+02 0.  0.
         13    1    3    3    0    0 -0.69648718776E+01  0.51419363415E+02 -0.29300522641E+02  0.59590201924E+02  0.10566000000E+00 0.  1.
         22    1    1    0    0    0 -0.22817642884E+01 -0.22763670576E+02 -0.84338045371E+00  0.22893283665E+02  0.00000000000E+00 0.  1.
</event>
<event>
 5    1  0.1255769E-009  0.9118800E+02  0.7561462E-02  0.1125453E+00
         25   -1    0    0    0    0  0.00000000000E+00  0.00000000000E+00  0.99999998245E-14  0.12509000000E+03  0.12509000000E+03 0.  0.
        -13    1    3    3    0    0 -0.17154394912E+02  0.30230297039E+02  0.39222708437E+01  0.34979129441E+02  0.10566000000E+00 0. -1.
         23    2    1    0    0    0  0.30781090559E+01 -0.20360251732E+02 -0.21687574379E+02  0.95184055969E+02  0.90363925447E+02 0.  0.
         13    1    3    3    0    0  0.20232503968E+02 -0.50590548772E+02 -0.25609845222E+02  0.60204926527E+02  0.10566000000E+00 0.  1.
         22    1    1    0    0    0 -0.30781090559E+01  0.20360251732E+02  0.21687574379E+02  0.29905944031E+02  0.00000000000E+00 0.  1.
</event>
<event>
 5    1  0.1255769E-009  0.9118800E+02  0.7561462E-02  0.1125453E+00
         25   -1    0    0    0    0  0.00000000000E+00  0.00000000000E+00  0.99999998245E-14  0.12509000000E+03  0.12509000000E+03 0.  0.
        -13    1    3    3    0    0  0.30685826901E+02  0.32543694279E+01  0.17250973001E+02  0.35352766886E+02  0.10566000000E+00 0. -1.
         23    2    1    0    0    0 -0.16338416688E+02  0.15931550722E+02 -0.18454042484E+02  0.95741919104E+02  0.91132898677E+02 0.  0.
         13    1    3    3    0    0 -0.47024243589E+02  0.12677181294E+02 -0.35705015485E+02  0.60389152218E+02  0.10566000000E+00 0.  1.
         22    1    1    0    0    0  0.16338416688E+02 -0.15931550722E+02  0.18454042484E+02  0.29348080896E+02  0.00000000000E+00 0.  1.
</event>
<event>
 5    1  0.1255769E-009  0.9118800E+02  0.7561462E-02  0.1125453E+00
         25   -1    0    0    0    0  0.00000000000E+00  0.00000000000E+00  0.99999998245E-14  0.12509000000E+03  0.12509000000E+03 0.  0.
        -13    1    3    3    0    0 -0.27100583299E+02  0.19943646633E+02  0.81885493684E+01  0.34630249219E+02  0.10566000000E+00 0.  1.
         23    2    1    0    0    0  0.23997643931E+02 -0.13122055458E+02 -0.59154020080E+01  0.97106661482E+02  0.92987291979E+02 0.  0.
         13    1    3    3    0    0  0.51098227230E+02 -0.33065702091E+02 -0.14103951376E+02  0.62476412263E+02  0.10566000000E+00 0. -1.
         22    1    1    0    0    0 -0.23997643931E+02  0.13122055458E+02  0.59154020080E+01  0.27983338518E+02  0.00000000000E+00 0. -1.
</event>
<event>
 5    1  0.1255769E-009  0.9118800E+02  0.7561462E-02  0.1125453E+00
         25   -1    0    0    0    0  0.00000000000E+00  0.00000000000E+00  0.99999998245E-14  0.12509000000E+03  0.12509000000E+03 0.  0.
        -13    1    3    3    0    0 -0.13769304748E+02  0.80551963942E+01 -0.27178031396E+02  0.31514068236E+02  0.10566000000E+00 0. -1.
         23    2    1    0    0    0  0.77630131571E+01 -0.22498796260E+02  0.21587793111E+02  0.92957570621E+02  0.87227386284E+02 0.  0.
         13    1    3    3    0    0  0.21532317905E+02 -0.30553992654E+02  0.48765824506E+02  0.61443502385E+02  0.10566000000E+00 0.  1.
         22    1    1    0    0    0 -0.77630131571E+01  0.22498796260E+02 -0.21587793111E+02  0.32132429379E+02  0.00000000000E+00 0.  1.
</event>
<event>
 5    1  0.1255769E-009  0.9118800E+02  0.7561462E-02  0.1125453E+00
         25   -1    0    0    0    0  0.00000000000E+00  0.00000000000E+00  0.99999998245E-14  0.12509000000E+03  0.12509000000E+03 0.  0.
        -13    1    3    3    0    0 -0.31226595836E+02 -0.42017936679E+02 -0.12266505321E+02  0.53768816308E+02  0.10566000000E+00 0. -1.
         23    2    1    0    0    0 -0.25455534739E+02 -0.30716379985E+01 -0.18284878709E+02  0.93597842274E+02  0.88140796911E+02 0.  0.
         13    1    3    3    0    0  0.57710610973E+01  0.38946298681E+02 -0.60183733881E+01  0.39829025966E+02  0.10566000000E+00 0.  1.
         22    1    1    0    0    0  0.25455534739E+02  0.30716379985E+01  0.18284878709E+02  0.31492157726E+02  0.00000000000E+00 0. -1.
</event>
<event>
 5    1  0.1255769E-009  0.9118800E+02  0.7561462E-02  0.1125453E+00
         25   -1    0    0    0    0  0.00000000000E+00  0.00000000000E+00  0.99999998245E-14  0.12509000000E+03  0.12509000000E+03 0.  0.
        -13    1    3    3    0    0  0.15118547782E+02 -0.42157965235E+02 -0.46358527764E+01  0.45026290263E+02  0.10566000000E+00 0.  1.
         23    2    1    0    0    0  0.27046876334E+02  0.80788568216E+01 -0.60523152620E-01  0.96862263463E+02  0.92657935295E+02 0.  0.
         13    1    3    3    0    0  0.11928328552E+02  0.50236822057E+02  0.45753296238E+01  0.51835973200E+02  0.10566000000E+00 0. -1.
         22    1    1    0    0    0 -0.27046876334E+02 -0.80788568216E+01  0.60523152620E-01  0.28227736537E+02  0.00000000000E+00 0. -1.
</event>
<event>
 5    1  0.1255769E-009  0.9118800E+02  0.7561462E-02  0.1125453E+00
         25   -1    0    0    0    0  0.00000000000E+00  0.00000000000E+00  0.99999998245E-14  0.12509000000E+03  0.12509000000E+03 0.  0.
        -13    1    3    3    0    0 -0.96725284165E+01  0.41791221242E+02 -0.42168029858E+02  0.60151624126E+02  0.10566000000E+00 0.  1.
         23    2    1    0    0    0 -0.82900030683E+01  0.26178065050E+02 -0.10124230731E+02  0.95823717549E+02  0.91245107027E+02 0.  0.
         13    1    3    3    0    0  0.13825253483E+01 -0.15613156192E+02  0.32043799127E+02  0.35672093423E+02  0.10566000000E+00 0. -1.
         22    1    1    0    0    0  0.82900030683E+01 -0.26178065050E+02  0.10124230731E+02  0.29266282451E+02  0.00000000000E+00 0.  1.
</event>
<event>
 5    1  0.1255769E-009  0.9118800E+02  0.7561462E-02  0.1125453E+00
         25   -1    0    0    0    0  0.00000000000E+00  0.00000000000E+00  0.99999998245E-14  0.12509000000E+03  0.12509000000E+03 0.  0.
        -13    1    3    3    0    0  0.54696221006E+02  0.10730652458E+02  0.11573243469E+02  0.56927801846E+02  0.10566000000E+00 0. -1.
         23    2    1    0    0    0  0.19586029190E+02  0.32776608023E+01  0.23101435992E+02  0.94626383264E+02  0.89588617943E+02 0.  0.
         13    1    3    3    0    0 -0.35110191817E+02 -0.74529916560E+01  0.11528192524E+02  0.37698581418E+02  0.10566000000E+00 0.  1.
         22    1    1    0    0    0 -0.19586029190E+02 -0.32776608023E+01 -0.23101435992E+02  0.30463616736E+02  0.00000000000E+00 0. -1.
</event>
<event>
 5    1  0.1255769E-009  0.9118800E+02  0.7561462E-02  0.1125453E+00
         25   -1    0    0    0    0  0.00000000000E+00  0.00000000000E+00  0.99999998245E-14  0.12509000000E+03  0.12509000000E+03 0.  0.
        -13    1    3    3    0    0  0.47412785482E+02  0.29954824031E+02 -0.23375994484E+02  0.60759460103E+02  0.10566000000E+00 0.  1.
         23    2    1    0    0    0  0.15041475103E+02  0.14637479972E+02 -0.18891989480E+02  0.96851567683E+02  0.92643494660E+02 0.  0.
         13    1    3    3    0    0 -0.32371310378E+02 -0.15317344059E+02  0.44840050032E+01  0.36092107580E+02  0.10566000000E+00 0. -1.
         22    1    1    0    0    0 -0.15041475103E+02 -0.14637479972E+02  0.18891989480E+02  0.28238432317E+02  0.00000000000E+00 0.  1.
</event>
<event>
 5    1  0.1255769E-009  0.9118800E+02  0.7561462E-02  0.1125453E+00
         25   -1    0    0    0    0  0.00000000000E+00  0.00000000000E+00  0.99999998245E-14  0.12509000000E+03  0.12509000000E+03 0.  0.
        -13    1    3    3    0    0 -0.17895455213E+02  0.23676220732E+02 -0.25606371236E+02  0.39198318297E+02  0.10566000000E+00 0.  1.
         23    2    1    0    0    0 -0.17980092884E+02 -0.22695588897E+02  0.62629918645E+01  0.95465709922E+02  0.90752979060E+02 0.  0.
         13    1    3    3    0    0 -0.84637671690E-01 -0.46371809629E+02  0.31869363100E+02  0.56267391625E+02  0.10566000000E+00 0. -1.
         22    1    1    0    0    0  0.17980092884E+02  0.22695588897E+02 -0.62629918645E+01  0.29624290078E+02  0.00000000000E+00 0. -1.
</event>
<event>
 5    1  0.1255769E-009  0.9118800E+02  0.7561462E-02  0.1125453E+00
         25   -1    0    0    0    0  0.00000000000E+00  0.00000000000E+00  0.99999998245E-14  0.12509000000E+03  0.12509000000E+03 0.  0.
        -13    1    3    3    0    0  0.29306558893E+02 -0.34465347566E+02  0.92188969212E+01  0.46170702848E+02  0.10566000000E+00 0. -1.
         23    2    1    0    0    0  0.18880555436E+02  0.39048418948E+01 -0.21348539068E+02  0.96323990820E+02  0.91928384753E+02 0.  0.
         13    1    3    3    0    0 -0.10426003457E+02  0.38370189461E+02 -0.30567435990E+02  0.50153287972E+02  0.10566000000E+00 0.  1.
         22    1    1    0    0    0 -0.18880555436E+02 -0.39048418948E+01  0.21348539068E+02  0.28766009180E+02  0.00000000000E+00 0. -1.
</event>
<event>
 5    1  0.1255769E-009  0.9118800E+02  0.7561462E-02  0.1125453E+00
         25   -1    0    0    0    0  0.00000000000E+00  0.00000000000E+00  0.99999998245E-14  0.12509000000E+03  0.12509000000E+03 0.  0.
        -13    1    3    3    0    0 -0.12995143069E+02  0.10912623788E+02  0.26016634965E+02  0.31061802270E+02  0.10566000000E+00 0.  1.
         23    2    1    0    0    0  0.29278243651E+02 -0.32135938648E+01 -0.15354145917E+02  0.91874152372E+02  0.85659601565E+02 0.  0.
         13    1    3    3    0    0  0.42273386720E+02 -0.14126217653E+02 -0.41370780883E+02  0.60812350101E+02  0.10566000000E+00 0. -1.
         22    1    1    0    0    0 -0.29278243651E+02  0.32135938648E+01  0.15354145917E+02  0.33215847628E+02  0.00000000000E+00 0. -1.
</event>
<event>
 5    1  0.1255769E-009  0.9118800E+02  0.7561462E-02  0.1125453E+00
         25   -1    0    0    0    0  0.00000000000E+00  0.00000000000E+00  0.99999998245E-14  0.12509000000E+03  0.12509000000E+03 0.  0.
        -13    1    3    3    0    0  0.12681079062E+02  0.21441120609E+02 -0.31939606635E+02  0.40505321319E+02  0.10566000000E+00 0.  1.
         23    2    1    0    0    0  0.14655860461E+02  0.97190652692E+01  0.22672821554E+02  0.96396598096E+02  0.92027130846E+02 0.  0.
         13    1    3    3    0    0  0.19747813994E+01 -0.11722055340E+02  0.54612428190E+02  0.55891276777E+02  0.10566000000E+00 0. -1.
         22    1    1    0    0    0 -0.14655860461E+02 -0.97190652692E+01 -0.22672821554E+02  0.28693401904E+02  0.00000000000E+00 0.  1.
</event>
<event>
 5    1  0.1255769E-009  0.9118800E+02  0.7561462E-02  0.1125453E+00
         25   -1    0    0    0    0  0.00000000000E+00  0.00000000000E+00  0.99999998245E-14  0.12509000000E+03  0.12509000000E+03 0.  0.
        -13    1    3    3    0    0 -0.38756730231E-01 -0.25226719166E+02 -0.24441783284E+02  0.35125500653E+02  0.10566000000E+00 0.  1.
         23    2    1    0    0    0  0.90648107656E+01  0.27333699021E+02  0.47025151657E+01  0.95910974224E+02  0.91364650885E+02 0.  0.
         13    1    3    3    0    0  0.91035674958E+01  0.52560418186E+02  0.29144298450E+02  0.60785473571E+02  0.10566000000E+00 0. -1.
         22    1    1    0    0    0 -0.90648107656E+01 -0.27333699021E+02 -0.47025151657E+01  0.29179025776E+02  0.00000000000E+00 0. -1.
</event>
<event>
 5    1  0.1255769E-009  0.9118800E+02  0.7561462E-02  0.1125453E+00
         25   -1    0    0    0    0  0.00000000000E+00  0.00000000000E+00  0.99999998245E-14  0.12509000000E+03  0.12509000000E+03 0.  0.
        -13    1    3    3    0    0  0.24040936095E+02 -0.25068946434E+02  0.50719967223E+02  0.61473123580E+02  0.10566000000E+00 0.  1.
         23    2    1    0    0    0  0.12102915226E+02 -0.57144939093E+01  0.30010073498E+02  0.92230594818E+02  0.86178547861E+02 0.  0.
         13    1    3    3    0    0 -0.11938020869E+02  0.19354452524E+02 -0.20709893725E+02  0.30757471237E+02  0.10566000000E+00 0. -1.
         22    1    1    0    0    0 -0.12102915226E+02  0.57144939093E+01 -0.30010073498E+02  0.32859405182E+02  0.00000000000E+00 0.  1.
</event>
<event>
 5    1  0.1255769E-009  0.9118800E+02  0.7561462E-02  0.1125453E+00
         25   -1    0    0    0    0  0.00000000000E+00  0.00000000000E+00  0.99999998245E-14  0.12509000000E+03  0.12509000000E+03 0.  0.
        -13    1    3    3    0    0 -0.19111441087E+02 -0.34242127201E+02 -0.38431715875E+01  0.39402431239E+02  0.10566000000E+00 0. -1.
         23    2    1    0    0    0 -0.95475032369E+01  0.15811319313E+02  0.21855746835E+02  0.96474858795E+02  0.92133447094E+02 0.  0.
         13    1    3    3    0    0  0.95639378505E+01  0.50053446513E+02  0.25698918422E+02  0.57072427556E+02  0.10566000000E+00 0.  1.
         22    1    1    0    0    0  0.95475032369E+01 -0.15811319313E+02 -0.21855746835E+02  0.28615141205E+02  0.00000000000E+00 0.  1.
</event>
<event>
 5    1  0.1255769E-009  0.9118800E+02  0.7561462E-02  0.1125453E+00
         25   -1    0    0    0    0  0.00000000000E+00  0.00000000000E+00  0.99999998245E-14  0.12509000000E+03  0.12509000000E+03 0.  0.
        -13    1    3    3    0    0  0.31808055525E+02  0.19381945182E+02 -0.71415807750E+01  0.37926580854E+02  0.10566000000E+00 0.  1.
         23    2    1    0    0    0 -0.68260134611E+01 -0.17078041738E+02  0.20283272325E+02  0.97709987115E+02  0.93795396883E+02 0.  0.
         13    1    3    3    0    0 -0.38634068986E+02 -0.36459986920E+02  0.27424853100E+02  0.59783406261E+02  0.10566000000E+00 0. -1.
         22    1    1    0    0    0  0.68260134611E+01  0.17078041738E+02 -0.20283272325E+02  0.27380012885E+02  0.00000000000E+00 0. -1.
</event>
<event>
 5    1  0.1255769E-009  0.9118800E+02  0.7561462E-02  0.1125453E+00
         25   -1    0    0    0    0  0.00000000000E+00  0.00000000000E+00  0.99999998245E-14  0.12509000000E+03  0.12509000000E+03 0.  0.
        -13    1    3    3    0    0  0.19307003401E+02 -0.49469541027E+02 -0.17674993639E+02  0.55967958994E+02  0.10566000000E+00 0.  1.
         23    2    1    0    0    0  0.97525265950E+01 -0.18141416806E+02 -0.28018783255E+02  0.90315368531E+02  0.83352209323E+02 0.  0.
         13    1    3    3    0    0 -0.95544768061E+01  0.31328124221E+02 -0.10343789616E+02  0.34347409537E+02  0.10566000000E+00 0. -1.
         22    1    1    0    0    0 -0.97525265950E+01  0.18141416806E+02  0.28018783255E+02  0.34774631469E+02  0.00000000000E+00 0.  1.
</event>
<event>
 5    1  0.1255769E-009  0.9118800E+02  0.7561462E-02  0.1125453E+00
         25   -1    0    0    0    0  0.00000000000E+00  0.00000000000E+00  0.99999998245E-14  0.12509000000E+03  0.12509000000E+03 0.  0.
        -13    1    3    3    0    0  0.29583902351E+02 -0.50109462668E+02  0.14560294910E+02  0.59984822072E+02  0.10566000000E+00 0. -1.
         23    2    1    0    0    0  0.44750483300E+01 -0.29123932130E+02  0.45123730242E+00  0.95620811084E+02  0.90966512613E+02 0.  0.
         13    1    3    3    0    0 -0.25108854021E+02  0.20985530537E+02 -0.14109057607E+02  0.35635989011E+02  0.10566000000E+00 0.  1.
         22    1    1    0    0    0 -0.44750483300E+01  0.29123932130E+02 -0.45123730242E+00  0.29469188916E+02  0.00000000000E+00 0. -1.
</event>
<event>
 5    1  0.1255769E-009  0.9118800E+02  0.7561462E-02  0.1125453E+00
         25   -1    0    0    0    0  0.00000000000E+00  0.00000000000E+00  0.99999998245E-14  0.12509000000E+03  0.12509000000E+03 0.  0.
        -13    1    3    3    0    0  0.11735408687E+02 -0.77394105177E+01  0.40845967128E+02  0.43197482414E+02  0.10566000000E+00 0. -1.
         23    2    1    0    0    0 -0.44501027096E+01  0.28809309172E+02  0.81983639291E+01  0.94808109699E+02  0.89841999001E+02 0.  0.
         13    1    3    3    0    0 -0.16185511396E+02  0.36548719689E+02 -0.32647603199E+02  0.51610627285E+02  0.10566000000E+00 0.  1.
         22    1    1    0    0    0  0.44501027096E+01 -0.28809309172E+02 -0.81983639291E+01  0.30281890301E+02  0.00000000000E+00 0.  1.
</event>
<event>
 5    1  0.1255769E-009  0.9118800E+02  0.7561462E-02  0.1125453E+00
         25   -1    0    0    0    0  0.00000000000E+00  0.00000000000E+00  0.99999998245E-14  0.12509000000E+03  0.12509000000E+03 0.  0.
        -13    1    3    3    0    0  0.40699381935E+02  0.28084076379E+02 -0.36659712836E+02  0.61555671917E+02  0.10566000000E+00 0.  1.
         23    2    1    0    0    0  0.24225634674E+02  0.16140040325E+02 -0.11804822310E+02  0.93677644042E+02  0.88253979437E+02 0.  0.
         13    1    3    3    0    0 -0.16473747261E+02 -0.11944036054E+02  0.24854890526E+02  0.32121972125E+02  0.10566000000E+00 0. -1.
         22    1    1    0    0    0 -0.24225634674E+02 -0.16140040325E+02  0.11804822310E+02  0.31412355958E+02  0.00000000000E+00 0.  1.
</event>
<event>
 5    1  0.1255769E-009  0.9118800E+02  0.7561462E-02  0.1125453E+00
         25   -1    0    0    0    0  0.00000000000E+00  0.00000000000E+00  0.99999998245E-14  0.12509000000E+03  0.12509000000E+03 0.  0.
        -13    1    3    3    0    0 -0.16497085545E+02  0.14309977637E+02  0.34193454109E+02  0.40572561657E+02  0.10566000000E+00 0. -1.
         23    2    1    0    0    0  0.24994255192E+02 -0.11597882158E+02  0.18328475899E+02  0.91996848263E+02  0.85838589215E+02 0.  0.
         13    1    3    3    0    0  0.41491340737E+02 -0.25907859795E+02 -0.15864978210E+02  0.51424286606E+02  0.10566000000E+00 0.  1.
         22    1    1    0    0    0 -0.24994255192E+02  0.11597882158E+02 -0.18328475899E+02  0.33093151737E+02  0.00000000000E+00 0.  1.
</event>
<event>
 5    1  0.1255769E-009  0.9118800E+02  0.7561462E-02  0.1125453E+00
         25   -1    0    0    0    0  0.00000000000E+00  0.00000000000E+00  0.99999998245E-14  0.12509000000E+03  0.12509000000E+03 0.  0.
        -13    1    3    3    0    0  0.51696942719E+02 -0.52825395178E+00 -0.15553070419E+01  0.51723138756E+02  0.10566000000E+00 0.  1.
         23    2    1    0    0    0  0.15502225185E+02 -0.22312188296E+02 -0.12229535328E+02  0.95295465828E+02  0.90518017769E+02 0.  0.
         13    1    3    3    0    0 -0.36194717535E+02 -0.21783934344E+02 -0.10674228286E+02  0.43572327072E+02  0.10566000000E+00 0. -1.
         22    1    1    0    0    0 -0.15502225185E+02  0.22312188296E+02  0.12229535328E+02  0.29794534172E+02  0.00000000000E+00 0.  1.
</event>
<event>
 5    1  0.1255769E-009  0.9118800E+02  0.7561462E-02  0.1125453E+00
         25   -1    0    0    0    0  0.00000000000E+00  0.00000000000E+00  0.99999998245E-14  0.12509000000E+03  0.12509000000E+03 0.  0.
        -13    1    3    3    0    0  0.14367293346E+01  0.30616651087E+02  0.48069687309E+02  0.57010082591E+02  0.10566000000E+00 0. -1.
         23    2    1    0    0    0  0.86428889560E+01 -0.20027481302E+01  0.27390094735E+02  0.96298893401E+02  0.91894227518E+02 0.  0.
         13    1    3    3    0    0  0.72061596214E+01 -0.32619399217E+02 -0.20679592574E+02  0.39288810810E+02  0.10566000000E+00 0.  1.
         22    1    1    0    0    0 -0.86428889560E+01  0.20027481302E+01 -0.27390094735E+02  0.28791106599E+02  0.00000000000E+00 0.  1.
</event>
<event>
 5    1  0.1255769E-009  0.9118800E+02  0.7561462E-02  0.1125453E+00
         25   -1    0    0    0    0  0.00000000000E+00  0.00000000000E+00  0.99999998245E-14  0.12509000000E+03  0.12509000000E+03 0.  0.
        -13    1    3    3    0    0  0.48128706476E+01 -0.97331522946E+01  0.57114688876E+02  0.58137740126E+02  0.10566000000E+00 0. -1.
         23    2    1    0    0    0 -0.82382314556E+01 -0.16129917221E+02  0.19434048937E+02  0.98524515906E+02  0.94875472538E+02 0.  0.
         13    1    3    3    0    0 -0.13051102103E+02 -0.63967649266E+01 -0.37680639939E+02  0.40386775780E+02  0.10566000000E+00 0.  1.
         22    1    1    0    0    0  0.82382314556E+01  0.16129917221E+02 -0.19434048937E+02  0.26565484094E+02  0.00000000000E+00 0. -1.
</event>
<event>
 5    1  0.1255769E-009  0.9118800E+02  0.7561462E-02  0.1125453E+00
         25   -1    0    0    0    0  0.00000000000E+00  0.00000000000E+00  0.99999998245E-14  0.12509000000E+03  0.12509000000E+03 0.  0.
        -13    1    3    3    0    0 -0.24805795976E+02 -0.53677717700E+02  0.14017719198E+02  0.60771148640E+02  0.10566000000E+00 0.  1.
         23    2    1    0    0    0 -0.15213288058E+01 -0.28062741789E+02  0.49773174212E+01  0.96548703484E+02  0.92233651873E+02 0.  0.
         13    1    3    3    0    0  0.23284467170E+02  0.25614975911E+02 -0.90404017770E+01  0.35777554844E+02  0.10566000000E+00 0. -1.
         22    1    1    0    0    0  0.15213288058E+01  0.28062741789E+02 -0.49773174212E+01  0.28541296516E+02  0.00000000000E+00 0.  1.
</event>
<event>
 5    1  0.1255769E-009  0.9118800E+02  0.7561462E-02  0.1125453E+00
         25   -1    0    0    0    0  0.00000000000E+00  0.00000000000E+00  0.99999998245E-14  0.12509000000E+03  0.12509000000E+03 0.  0.
        -13    1    3    3    0    0 -0.26374698359E+02 -0.46726850478E+02 -0.23642811892E+02  0.58634605715E+02  0.10566000000E+00 0. -1.
         23    2    1    0    0    0  0.40497295756E+01 -0.23005482044E+02 -0.11307098124E+02  0.99138064008E+02  0.95680994736E+02 0.  0.
         13    1    3    3    0    0  0.30424427935E+02  0.23721368434E+02  0.12335713768E+02  0.40503458293E+02  0.10566000000E+00 0.  1.
         22    1    1    0    0    0 -0.40497295756E+01  0.23005482044E+02  0.11307098124E+02  0.25951935992E+02  0.00000000000E+00 0. -1.
</event>
<event>
 5    1  0.1255769E-009  0.9118800E+02  0.7561462E-02  0.1125453E+00
         25   -1    0    0    0    0  0.00000000000E+00  0.00000000000E+00  0.99999998245E-14  0.12509000000E+03  0.12509000000E+03 0.  0.
        -13    1    3    3    0    0 -0.20352309743E+02  0.54358540290E+02 -0.16487001978E+02  0.60339869179E+02  0.10566000000E+00 0. -1.
         23    2    1    0    0    0 -0.31008874281E+01  0.23678962698E+02 -0.17388808117E+02  0.95548852002E+02  0.90867506260E+02 0.  0.
         13    1    3    3    0    0  0.17251422315E+02 -0.30679577592E+02 -0.90180613919E+00  0.35208982823E+02  0.10566000000E+00 0.  1.
         22    1    1    0    0    0  0.31008874281E+01 -0.23678962698E+02  0.17388808117E+02  0.29541147998E+02  0.00000000000E+00 0. -1.
</event>
<event>
 5    1  0.1255769E-009  0.9118800E+02  0.7561462E-02  0.1125453E+00
         25   -1    0    0    0    0  0.00000000000E+00  0.00000000000E+00  0.99999998245E-14  0.12509000000E+03  0.12509000000E+03 0.  0.
        -13    1    3    3    0    0 -0.28272457723E+02 -0.27631790368E+02  0.12256324588E+02  0.41389326657E+02  0.10566000000E+00 0.  1.
         23    2    1    0    0    0  0.11331024607E+02  0.96080579703E+01 -0.16498855221E+02  0.10288821808E+03  0.10046425384E+03 0.  0.
         13    1    3    3    0    0  0.39603482330E+02  0.37239848338E+02 -0.28755179809E+02  0.61498891428E+02  0.10566000000E+00 0. -1.
         22    1    1    0    0    0 -0.11331024607E+02 -0.96080579703E+01  0.16498855221E+02  0.22201781915E+02  0.00000000000E+00 0. -1.
</event>
<event>
 5    1  0.1255769E-009  0.9118800E+02  0.7561462E-02  0.1125453E+00
         25   -1    0    0    0    0  0.00000000000E+00  0.00000000000E+00  0.99999998245E-14  0.12509000000E+03  0.12509000000E+03 0.  0.
        -13    1    3    3    0    0 -0.20929570451E+02 -0.19768400550E+02  0.48367000986E+02  0.56286894816E+02  0.10566000000E+00 0.  1.
         23    2    1    0    0    0 -0.25692563503E+02 -0.52704177185E+01  0.11001709900E+02  0.96648432831E+02  0.92368808728E+02 0.  0.
         13    1    3    3    0    0 -0.47629930523E+01  0.14497982832E+02 -0.37365291086E+02  0.40361538016E+02  0.10566000000E+00 0. -1.
         22    1    1    0    0    0  0.25692563503E+02  0.52704177185E+01 -0.11001709900E+02  0.28441567169E+02  0.00000000000E+00 0.  1.
</event>
<event>
 5    1  0.1255769E-009  0.9118800E+02  0.7561462E-02  0.1125453E+00
         25   -1    0    0    0    0  0.00000000000E+00  0.00000000000E+00  0.99999998245E-14  0.12509000000E+03  0.12509000000E+03 0.  0.
        -13    1    3    3    0    0  0.37923933989E+02 -0.22700693608E+02  0.10794530619E+02  0.45498124300E+02  0.10566000000E+00 0.  1.
         23    2    1    0    0    0  0.17719633521E+02  0.21634743343E+02  0.12958552050E+02  0.94268390651E+02  0.89087360905E+02 0.  0.
         13    1    3    3    0    0 -0.20204300468E+02  0.44335436952E+02  0.21640214307E+01  0.48770266350E+02  0.10566000000E+00 0. -1.
         22    1    1    0    0    0 -0.17719633521E+02 -0.21634743343E+02 -0.12958552050E+02  0.30821609349E+02  0.00000000000E+00 0. -1.
</event>
<event>
 5    1  0.1255769E-009  0.9118800E+02  0.7561462E-02  0.1125453E+00
         25   -1    0    0    0    0  0.00000000000E+00  0.00000000000E+00  0.99999998245E-14  0.12509000000E+03  0.12509000000E+03 0.  0.
        -13    1    3    3    0    0 -0.25188052405E+02 -0.10927158932E+02  0.51631988365E+02  0.58478322247E+02  0.10566000000E+00 0.  1.
         23    2    1    0    0    0 -0.42504141158E+01 -0.19022328471E+02  0.21238628664E+02  0.96263027419E+02  0.91845392371E+02 0.  0.
         13    1    3    3    0    0  0.20937638289E+02 -0.80951695400E+01 -0.30393359701E+02  0.37784705172E+02  0.10566000000E+00 0. -1.
         22    1    1    0    0    0  0.42504141158E+01  0.19022328471E+02 -0.21238628664E+02  0.28826972581E+02  0.00000000000E+00 0.  1.
</event>
<event>
 4    1  0.1255769E-009  0.9118800E+02  0.7561462E-02  0.1125453E+00
         25   -1    0    0    0    0  0.00000000000E+00  0.00000000000E+00  0.99999998245E-14  0.12509000000E+03  0.12509000000E+03 0.  0.
        -13    1    1    0    0    0 -0.23966985058E+02  0.52785135664E+02 -0.95015553068E+01  0.58745022233E+02  0.10566000000E+00 0.  1.
         13    1    1    0    0    0  0.79877745290E+01  0.12592875451E+01 -0.29861549073E+01  0.86208254949E+01  0.10566000000E+00 0. -1.
         22    1    1    0    0    0  0.15979210529E+02 -0.54044423209E+02  0.12487710214E+02  0.57724152272E+02  0.00000000000E+00 0.  1.
</event>
<event>
 5    1  0.1255769E-009  0.9118800E+02  0.7561462E-02  0.1125453E+00
         25   -1    0    0    0    0  0.00000000000E+00  0.00000000000E+00  0.99999998245E-14  0.12509000000E+03  0.12509000000E+03 0.  0.
        -13    1    3    3    0    0  0.33808044081E+02  0.22313174390E+01 -0.43791150865E+02  0.55368210015E+02  0.10566000000E+00 0. -1.
         23    2    1    0    0    0  0.14942393922E+02 -0.19719086929E+02 -0.15197270871E+02  0.96054253629E+02  0.91560608740E+02 0.  0.
         13    1    3    3    0    0 -0.18865650159E+02 -0.21950404368E+02  0.28593879994E+02  0.40686043614E+02  0.10566000000E+00 0.  1.
         22    1    1    0    0    0 -0.14942393922E+02  0.19719086929E+02  0.15197270871E+02  0.29035746371E+02  0.00000000000E+00 0. -1.
</event>
<event>
 5    1  0.1255769E-009  0.9118800E+02  0.7561462E-02  0.1125453E+00
         25   -1    0    0    0    0  0.00000000000E+00  0.00000000000E+00  0.99999998245E-14  0.12509000000E+03  0.12509000000E+03 0.  0.
        -13    1    3    3    0    0 -0.17974771926E+02 -0.49281783225E+02  0.12241402475E+02  0.53866962809E+02  0.10566000000E+00 0. -1.
         23    2    1    0    0    0 -0.68036933991E+00 -0.14648369055E+02  0.26238927140E+02  0.95031408618E+02  0.90152369397E+02 0.  0.
         13    1    3    3    0    0  0.17294402587E+02  0.34633414171E+02  0.13997524666E+02  0.41164445809E+02  0.10566000000E+00 0.  1.
         22    1    1    0    0    0  0.68036933991E+00  0.14648369055E+02 -0.26238927140E+02  0.30058591382E+02  0.00000000000E+00 0. -1.
</event>
<event>
 5    1  0.1255769E-009  0.9118800E+02  0.7561462E-02  0.1125453E+00
         25   -1    0    0    0    0  0.00000000000E+00  0.00000000000E+00  0.99999998245E-14  0.12509000000E+03  0.12509000000E+03 0.  0.
        -13    1    3    3    0    0 -0.88029726786E+01 -0.38650026553E+02 -0.47299546201E+02  0.61713654205E+02  0.10566000000E+00 0. -1.
         23    2    1    0    0    0 -0.11245503534E+02 -0.17102887335E+02 -0.21819064074E+02  0.95172753102E+02  0.90348277632E+02 0.  0.
         13    1    3    3    0    0 -0.24425308554E+01  0.21547139218E+02  0.25480482128E+02  0.33459098896E+02  0.10566000000E+00 0.  1.
         22    1    1    0    0    0  0.11245503534E+02  0.17102887335E+02  0.21819064074E+02  0.29917246898E+02  0.00000000000E+00 0. -1.
</event>
<event>
 5    1  0.1255769E-009  0.9118800E+02  0.7561462E-02  0.1125453E+00
         25   -1    0    0    0    0  0.00000000000E+00  0.00000000000E+00  0.99999998245E-14  0.12509000000E+03  0.12509000000E+03 0.  0.
        -13    1    3    3    0    0  0.24730470471E+02 -0.19759388318E+02  0.14883892316E+02  0.34979579914E+02  0.10566000000E+00 0. -1.
         23    2    1    0    0    0 -0.11782328405E+02  0.22085706941E+02 -0.12735981132E+02  0.97004293152E+02  0.92849480133E+02 0.  0.
         13    1    3    3    0    0 -0.36512798876E+02  0.41845095259E+02 -0.27619873449E+02  0.62024713239E+02  0.10566000000E+00 0.  1.
         22    1    1    0    0    0  0.11782328405E+02 -0.22085706941E+02  0.12735981132E+02  0.28085706848E+02  0.00000000000E+00 0.  1.
</event>
<event>
 5    1  0.1255769E-009  0.9118800E+02  0.7561462E-02  0.1125453E+00
         25   -1    0    0    0    0  0.00000000000E+00  0.00000000000E+00  0.99999998245E-14  0.12509000000E+03  0.12509000000E+03 0.  0.
        -13    1    3    3    0    0  0.42541853046E+02 -0.39765431018E+02 -0.74523830893E+01  0.58708159078E+02  0.10566000000E+00 0. -1.
         23    2    1    0    0    0  0.20953702886E+02 -0.13687346917E+02 -0.18106058632E+02  0.94199378616E+02  0.88990406462E+02 0.  0.
         13    1    3    3    0    0 -0.21588150159E+02  0.26078084101E+02 -0.10653675543E+02  0.35491219538E+02  0.10566000000E+00 0.  1.
         22    1    1    0    0    0 -0.20953702886E+02  0.13687346917E+02  0.18106058632E+02  0.30890621384E+02  0.00000000000E+00 0. -1.
</event>
<event>
 5    1  0.1255769E-009  0.9118800E+02  0.7561462E-02  0.1125453E+00
         25   -1    0    0    0    0  0.00000000000E+00  0.00000000000E+00  0.99999998245E-14  0.12509000000E+03  0.12509000000E+03 0.  0.
        -13    1    3    3    0    0  0.23633800970E+02 -0.14619004576E+02 -0.23758917298E+02  0.36561853869E+02  0.10566000000E+00 0. -1.
         23    2    1    0    0    0  0.54736938573E+00  0.30981281365E+02  0.24610104542E+01  0.94006306836E+02  0.88718598637E+02 0.  0.
         13    1    3    3    0    0 -0.23086431585E+02  0.45600285941E+02  0.26219927753E+02  0.57444452967E+02  0.10566000000E+00 0.  1.
         22    1    1    0    0    0 -0.54736938573E+00 -0.30981281365E+02 -0.24610104542E+01  0.31083693164E+02  0.00000000000E+00 0.  1.
</event>
<event>
 5    1  0.1255769E-009  0.9118800E+02  0.7561462E-02  0.1125453E+00
         25   -1    0    0    0    0  0.00000000000E+00  0.00000000000E+00  0.99999998245E-14  0.12509000000E+03  0.12509000000E+03 0.  0.
        -13    1    3    3    0    0  0.10255950590E+02  0.45655055917E+02 -0.31120113185E+01  0.46896315759E+02  0.10566000000E+00 0.  1.
         23    2    1    0    0    0  0.24321893363E+02  0.38554718387E+01  0.16793514742E+02  0.95283267585E+02  0.90501159023E+02 0.  0.
         13    1    3    3    0    0  0.14065942773E+02 -0.41799584079E+02  0.19905526060E+02  0.48386951826E+02  0.10566000000E+00 0. -1.
         22    1    1    0    0    0 -0.24321893363E+02 -0.38554718387E+01 -0.16793514742E+02  0.29806732415E+02  0.00000000000E+00 0. -1.
</event>
<event>
 4    1  0.1255769E-009  0.9118800E+02  0.7561462E-02  0.1125453E+00
         25   -1    0    0    0    0  0.00000000000E+00  0.00000000000E+00  0.99999998245E-14  0.12509000000E+03  0.12509000000E+03 0.  0.
        -13    1    1    0    0    0 -0.22808101668E+01  0.88053234176E+01 -0.59616920061E+01  0.10876063218E+02  0.10566000000E+00 0. -1.
         13    1    1    0    0    0 -0.31793209886E+02 -0.40909197468E+02  0.31750023118E+02  0.60765498141E+02  0.10566000000E+00 0.  1.
         22    1    1    0    0    0  0.34074020053E+02  0.32103874051E+02 -0.25788331112E+02  0.53448438641E+02  0.00000000000E+00 0.  1.
</event>
<event>
 5    1  0.1255769E-009  0.9118800E+02  0.7561462E-02  0.1125453E+00
         25   -1    0    0    0    0  0.00000000000E+00  0.00000000000E+00  0.99999998245E-14  0.12509000000E+03  0.12509000000E+03 0.  0.
        -13    1    3    3    0    0  0.54908291826E+01 -0.34067167376E+02 -0.33236011621E+02  0.47909964837E+02  0.10566000000E+00 0.  1.
         23    2    1    0    0    0  0.30518773500E+02 -0.21725709300E+02 -0.55506219462E+01  0.87219016589E+02  0.78568094480E+02 0.  0.
         13    1    3    3    0    0  0.25027944317E+02  0.12341458076E+02  0.27685389675E+02  0.39309051752E+02  0.10566000000E+00 0. -1.
         22    1    1    0    0    0 -0.30518773500E+02  0.21725709300E+02  0.55506219462E+01  0.37870983411E+02  0.00000000000E+00 0. -1.
</event>
<event>
 5    1  0.1255769E-009  0.9118800E+02  0.7561462E-02  0.1125453E+00
         25   -1    0    0    0    0  0.00000000000E+00  0.00000000000E+00  0.99999998245E-14  0.12509000000E+03  0.12509000000E+03 0.  0.
        -13    1    3    3    0    0  0.23605663724E+02 -0.25516509283E+02  0.26171283921E+02  0.43511686614E+02  0.10566000000E+00 0. -1.
         23    2    1    0    0    0  0.22321264993E+02  0.18888118659E+02 -0.14356298486E+01  0.95814397010E+02  0.91232328393E+02 0.  0.
         13    1    3    3    0    0 -0.12843987312E+01  0.44404627942E+02 -0.27606913770E+02  0.52302710396E+02  0.10566000000E+00 0.  1.
         22    1    1    0    0    0 -0.22321264993E+02 -0.18888118659E+02  0.14356298486E+01  0.29275602990E+02  0.00000000000E+00 0.  1.
</event>
<event>
 5    1  0.1255769E-009  0.9118800E+02  0.7561462E-02  0.1125453E+00
         25   -1    0    0    0    0  0.00000000000E+00  0.00000000000E+00  0.99999998245E-14  0.12509000000E+03  0.12509000000E+03 0.  0.
        -13    1    3    3    0    0  0.29755401518E+02  0.48429331375E+00  0.42716896510E+02  0.52061145502E+02  0.10566000000E+00 0. -1.
         23    2    1    0    0    0 -0.45139203111E+01 -0.14206970515E+02  0.30233647756E+02  0.91381144422E+02  0.84936603484E+02 0.  0.
         13    1    3    3    0    0 -0.34269321829E+02 -0.14691263828E+02 -0.12483248755E+02  0.39319998920E+02  0.10566000000E+00 0.  1.
         22    1    1    0    0    0  0.45139203111E+01  0.14206970515E+02 -0.30233647756E+02  0.33708855578E+02  0.00000000000E+00 0. -1.
</event>
<event>
 5    1  0.1255769E-009  0.9118800E+02  0.7561462E-02  0.1125453E+00
         25   -1    0    0    0    0  0.00000000000E+00  0.00000000000E+00  0.99999998245E-14  0.12509000000E+03  0.12509000000E+03 0.  0.
        -13    1    3    3    0    0  0.50195025744E+01  0.27584305567E+02 -0.27512138739E+02  0.39281271132E+02  0.10566000000E+00 0. -1.
         23    2    1    0    0    0 -0.14573933745E+02  0.15060072648E+02  0.22442786385E+02  0.94383583835E+02  0.89248960239E+02 0.  0.
         13    1    3    3    0    0 -0.19593436319E+02 -0.12524232919E+02  0.49954925124E+02  0.55102312703E+02  0.10566000000E+00 0.  1.
         22    1    1    0    0    0  0.14573933745E+02 -0.15060072648E+02 -0.22442786385E+02  0.30706416165E+02  0.00000000000E+00 0.  1.
</event>
<event>
 5    1  0.1255769E-009  0.9118800E+02  0.7561462E-02  0.1125453E+00
         25   -1    0    0    0    0  0.00000000000E+00  0.00000000000E+00  0.99999998245E-14  0.12509000000E+03  0.12509000000E+03 0.  0.
        -13    1    3    3    0    0  0.27382856725E+02 -0.24223882817E+02  0.34827245794E+02  0.50493222860E+02  0.10566000000E+00 0.  1.
         23    2    1    0    0    0  0.26389020726E+02 -0.62731061786E+01 -0.78914334313E+01  0.96840982361E+02  0.92629200941E+02 0.  0.
         13    1    3    3    0    0 -0.99383599929E+00  0.17950776638E+02 -0.42718679226E+02  0.46347759501E+02  0.10566000000E+00 0. -1.
         22    1    1    0    0    0 -0.26389020726E+02  0.62731061786E+01  0.78914334313E+01  0.28249017639E+02  0.00000000000E+00 0.  1.
</event>
<event>
 5    1  0.1255769E-009  0.9118800E+02  0.7561462E-02  0.1125453E+00
         25   -1    0    0    0    0  0.00000000000E+00  0.00000000000E+00  0.99999998245E-14  0.12509000000E+03  0.12509000000E+03 0.  0.
        -13    1    3    3    0    0  0.22531366064E+02 -0.45756051565E+02 -0.23629786093E+02  0.56210823392E+02  0.10566000000E+00 0.  1.
         23    2    1    0    0    0  0.13866242079E+02 -0.64732719520E+01 -0.24217971067E+02  0.96442381569E+02  0.92089342060E+02 0.  0.
         13    1    3    3    0    0 -0.86651239853E+01  0.39282779613E+02 -0.58818497376E+00  0.40231558177E+02  0.10566000000E+00 0. -1.
         22    1    1    0    0    0 -0.13866242079E+02  0.64732719520E+01  0.24217971067E+02  0.28647618431E+02  0.00000000000E+00 0.  1.
</event>
<event>
 5    1  0.1255769E-009  0.9118800E+02  0.7561462E-02  0.1125453E+00
         25   -1    0    0    0    0  0.00000000000E+00  0.00000000000E+00  0.99999998245E-14  0.12509000000E+03  0.12509000000E+03 0.  0.
        -13    1    3    3    0    0 -0.25851802358E+02 -0.11278106158E+02  0.53234086360E+02  0.60244422798E+02  0.10566000000E+00 0.  1.
         23    2    1    0    0    0 -0.56577438088E+01 -0.15370320726E+02  0.25166274287E+02  0.95063375386E+02  0.90196713655E+02 0.  0.
         13    1    3    3    0    0  0.20194058549E+02 -0.40922145674E+01 -0.28067812073E+02  0.34818952588E+02  0.10566000000E+00 0. -1.
         22    1    1    0    0    0  0.56577438088E+01  0.15370320726E+02 -0.25166274287E+02  0.30026624614E+02  0.00000000000E+00 0.  1.
</event>
<event>
 5    1  0.1255769E-009  0.9118800E+02  0.7561462E-02  0.1125453E+00
         25   -1    0    0    0    0  0.00000000000E+00  0.00000000000E+00  0.99999998245E-14  0.12509000000E+03  0.12509000000E+03 0.  0.
        -13    1    3    3    0    0  0.45455999592E+01 -0.23405288139E+02  0.20655010514E+01  0.23932142622E+02  0.10566000000E+00 0.  1.
         23    2    1    0    0    0 -0.29903004393E+01  0.30152669941E+02 -0.26266764844E+02  0.84989272617E+02  0.74934025138E+02 0.  0.
         13    1    3    3    0    0 -0.75359003984E+01  0.53557958079E+02 -0.28332265895E+02  0.61057129995E+02  0.10566000000E+00 0. -1.
         22    1    1    0    0    0  0.29903004393E+01 -0.30152669941E+02  0.26266764844E+02  0.40100727383E+02  0.00000000000E+00 0. -1.
</event>
<event>
 5    1  0.1255769E-009  0.9118800E+02  0.7561462E-02  0.1125453E+00
         25   -1    0    0    0    0  0.00000000000E+00  0.00000000000E+00  0.99999998245E-14  0.12509000000E+03  0.12509000000E+03 0.  0.
        -13    1    3    3    0    0 -0.24164489632E+02 -0.24754835126E+02 -0.42726877051E+02  0.54975645588E+02  0.10566000000E+00 0.  1.
         23    2    1    0    0    0 -0.30236886256E+02 -0.10614969668E+01 -0.17387583276E+02  0.90194095964E+02  0.83170011593E+02 0.  0.
         13    1    3    3    0    0 -0.60723966245E+01  0.23693338159E+02  0.25339293775E+02  0.35218450376E+02  0.10566000000E+00 0. -1.
         22    1    1    0    0    0  0.30236886256E+02  0.10614969668E+01  0.17387583276E+02  0.34895904036E+02  0.00000000000E+00 0.  1.
</event>
<event>
 5    1  0.1255769E-009  0.9118800E+02  0.7561462E-02  0.1125453E+00
         25   -1    0    0    0    0  0.00000000000E+00  0.00000000000E+00  0.99999998245E-14  0.12509000000E+03  0.12509000000E+03 0.  0.
        -13    1    3    3    0    0  0.26425843701E+02  0.18876531585E+02  0.41272316419E+02  0.52517272650E+02  0.10566000000E+00 0.  1.
         23    2    1    0    0    0  0.21237552685E+02  0.20031501887E+02 -0.17278403407E+01  0.95844826995E+02  0.91274041860E+02 0.  0.
         13    1    3    3    0    0 -0.51882910161E+01  0.11549703019E+01 -0.43000156760E+02  0.43327554345E+02  0.10566000000E+00 0. -1.
         22    1    1    0    0    0 -0.21237552685E+02 -0.20031501887E+02  0.17278403407E+01  0.29245173005E+02  0.00000000000E+00 0.  1.
</event>
<event>
 5    1  0.1255769E-009  0.9118800E+02  0.7561462E-02  0.1125453E+00
         25   -1    0    0    0    0  0.00000000000E+00  0.00000000000E+00  0.99999998245E-14  0.12509000000E+03  0.12509000000E+03 0.  0.
        -13    1    3    3    0    0  0.52617373830E+02  0.62660760872E+01  0.16498788074E+02  0.55498404574E+02  0.10566000000E+00 0. -1.
         23    2    1    0    0    0  0.33032431698E+02  0.48221768487E+01 -0.11573622880E+02  0.89758092608E+02  0.82511644685E+02 0.  0.
         13    1    3    3    0    0 -0.19584942133E+02 -0.14438992385E+01 -0.28072410954E+02  0.34259688033E+02  0.10566000000E+00 0.  1.
         22    1    1    0    0    0 -0.33032431698E+02 -0.48221768487E+01  0.11573622880E+02  0.35331907392E+02  0.00000000000E+00 0. -1.
</event>
<event>
 5    1  0.1255769E-009  0.9118800E+02  0.7561462E-02  0.1125453E+00
         25   -1    0    0    0    0  0.00000000000E+00  0.00000000000E+00  0.99999998245E-14  0.12509000000E+03  0.12509000000E+03 0.  0.
        -13    1    3    3    0    0  0.29542036981E+02  0.53217344906E+02 -0.28044590741E+01  0.60931879198E+02  0.10566000000E+00 0.  1.
         23    2    1    0    0    0  0.11755660629E+02  0.25435381714E+02 -0.11106606812E+02  0.94948485197E+02  0.90037236334E+02 0.  0.
         13    1    3    3    0    0 -0.17786376353E+02 -0.27781963193E+02 -0.83021477378E+01  0.34016605999E+02  0.10566000000E+00 0. -1.
         22    1    1    0    0    0 -0.11755660629E+02 -0.25435381714E+02  0.11106606812E+02  0.30141514803E+02  0.00000000000E+00 0.  1.
</event>
<event>
 5    1  0.1255769E-009  0.9118800E+02  0.7561462E-02  0.1125453E+00
         25   -1    0    0    0    0  0.00000000000E+00  0.00000000000E+00  0.99999998245E-14  0.12509000000E+03  0.12509000000E+03 0.  0.
        -13    1    3    3    0    0 -0.59166832482E+02  0.60877808515E+01 -0.94024699391E+01  0.60217877301E+02  0.10566000000E+00 0. -1.
         23    2    1    0    0    0 -0.24704257527E+02  0.12384302653E+02 -0.11140845577E+02  0.95294199418E+02  0.90516267656E+02 0.  0.
         13    1    3    3    0    0  0.34462574955E+02  0.62965218016E+01 -0.17383756381E+01  0.35076322117E+02  0.10566000000E+00 0.  1.
         22    1    1    0    0    0  0.24704257527E+02 -0.12384302653E+02  0.11140845577E+02  0.29795800582E+02  0.00000000000E+00 0. -1.
</event>
<event>
 5    1  0.1255769E-009  0.9118800E+02  0.7561462E-02  0.1125453E+00
         25   -1    0    0    0    0  0.00000000000E+00  0.00000000000E+00  0.99999998245E-14  0.12509000000E+03  0.12509000000E+03 0.  0.
        -13    1    3    3    0    0  0.36042801757E+02  0.96187458773E+01 -0.24827411119E+02  0.44810884143E+02  0.10566000000E+00 0.  1.
         23    2    1    0    0    0  0.16234659977E+02 -0.91108369313E+01  0.20308084659E+02  0.97540229826E+02  0.93568726601E+02 0.  0.
         13    1    3    3    0    0 -0.19808141780E+02 -0.18729582809E+02  0.45135495778E+02  0.52729345683E+02  0.10566000000E+00 0. -1.
         22    1    1    0    0    0 -0.16234659977E+02  0.91108369313E+01 -0.20308084659E+02  0.27549770174E+02  0.00000000000E+00 0.  1.
</event>
<event>
 5    1  0.1255769E-009  0.9118800E+02  0.7561462E-02  0.1125453E+00
         25   -1    0    0    0    0  0.00000000000E+00  0.00000000000E+00  0.99999998245E-14  0.12509000000E+03  0.12509000000E+03 0.  0.
        -13    1    3    3    0    0 -0.16779537828E+01  0.54969896761E+02  0.11156138925E+02  0.56115734679E+02  0.10566000000E+00 0.  1.
         23    2    1    0    0    0  0.14440589053E+02  0.20388697751E+02  0.17217310853E+02  0.94747531392E+02  0.89757614182E+02 0.  0.
         13    1    3    3    0    0  0.16118542836E+02 -0.34581199010E+02  0.60611719284E+01  0.38631796713E+02  0.10566000000E+00 0. -1.
         22    1    1    0    0    0 -0.14440589053E+02 -0.20388697751E+02 -0.17217310853E+02  0.30342468608E+02  0.00000000000E+00 0.  1.
</event>
<event>
 5    1  0.1255769E-009  0.9118800E+02  0.7561462E-02  0.1125453E+00
         25   -1    0    0    0    0  0.00000000000E+00  0.00000000000E+00  0.99999998245E-14  0.12509000000E+03  0.12509000000E+03 0.  0.
        -13    1    3    3    0    0 -0.24643999520E+02  0.18712230737E+02  0.14506349047E+02  0.34174838964E+02  0.10566000000E+00 0.  1.
         23    2    1    0    0    0  0.14302792509E+02 -0.12638349299E+02 -0.21912895840E+02  0.96030186672E+02  0.91527722585E+02 0.  0.
         13    1    3    3    0    0  0.38946792029E+02 -0.31350580036E+02 -0.36419244887E+02  0.61855347708E+02  0.10566000000E+00 0. -1.
         22    1    1    0    0    0 -0.14302792509E+02  0.12638349299E+02  0.21912895840E+02  0.29059813328E+02  0.00000000000E+00 0. -1.
</event>
<event>
 5    1  0.1255769E-009  0.9118800E+02  0.7561462E-02  0.1125453E+00
         25   -1    0    0    0    0  0.00000000000E+00  0.00000000000E+00  0.99999998245E-14  0.12509000000E+03  0.12509000000E+03 0.  0.
        -13    1    3    3    0    0 -0.19012259951E+02 -0.20175602956E+00 -0.31155804070E+02  0.36499342805E+02  0.10566000000E+00 0.  1.
         23    2    1    0    0    0  0.16255547738E+02  0.15589920620E+02  0.15997627886E+02  0.97463698127E+02  0.93466357035E+02 0.  0.
         13    1    3    3    0    0  0.35267807689E+02  0.15791676649E+02  0.47153431956E+02  0.60964355322E+02  0.10566000000E+00 0. -1.
         22    1    1    0    0    0 -0.16255547738E+02 -0.15589920620E+02 -0.15997627886E+02  0.27626301873E+02  0.00000000000E+00 0. -1.
</event>
<event>
 5    1  0.1255769E-009  0.9118800E+02  0.7561462E-02  0.1125453E+00
         25   -1    0    0    0    0  0.00000000000E+00  0.00000000000E+00  0.99999998245E-14  0.12509000000E+03  0.12509000000E+03 0.  0.
        -13    1    3    3    0    0  0.32495773936E+02  0.14825089429E+02  0.43939395197E+02  0.56625437876E+02  0.10566000000E+00 0.  1.
         23    2    1    0    0    0  0.13730296429E+02  0.26879412681E+02  0.24391197250E+02  0.86283372095E+02  0.77064037856E+02 0.  0.
         13    1    3    3    0    0 -0.18765477507E+02  0.12054323252E+02 -0.19548197947E+02  0.29657934219E+02  0.10566000000E+00 0. -1.
         22    1    1    0    0    0 -0.13730296429E+02 -0.26879412681E+02 -0.24391197250E+02  0.38806627905E+02  0.00000000000E+00 0.  1.
</event>
<event>
 5    1  0.1255769E-009  0.9118800E+02  0.7561462E-02  0.1125453E+00
         25   -1    0    0    0    0  0.00000000000E+00  0.00000000000E+00  0.99999998245E-14  0.12509000000E+03  0.12509000000E+03 0.  0.
        -13    1    3    3    0    0  0.13357132864E+02  0.13765759685E+02 -0.38417550102E+02  0.42939823683E+02  0.10566000000E+00 0. -1.
         23    2    1    0    0    0 -0.28115217220E+01 -0.27749239954E+02 -0.12079315111E+02  0.94695348728E+02  0.89684860733E+02 0.  0.
         13    1    3    3    0    0 -0.16168654586E+02 -0.41514999639E+02  0.26338234991E+02  0.51755525044E+02  0.10566000000E+00 0.  1.
         22    1    1    0    0    0  0.28115217220E+01  0.27749239954E+02  0.12079315111E+02  0.30394651272E+02  0.00000000000E+00 0.  1.
</event>
<event>
 5    1  0.1255769E-009  0.9118800E+02  0.7561462E-02  0.1125453E+00
         25   -1    0    0    0    0  0.00000000000E+00  0.00000000000E+00  0.99999998245E-14  0.12509000000E+03  0.12509000000E+03 0.  0.
        -13    1    3    3    0    0  0.19790456187E+01 -0.43666571298E+01  0.51646852343E+02  0.51868996877E+02  0.10566000000E+00 0.  1.
         23    2    1    0    0    0  0.20227146020E+02 -0.16133418315E+02  0.13150658868E+02  0.96066484511E+02  0.91577317033E+02 0.  0.
         13    1    3    3    0    0  0.18248100402E+02 -0.11766761185E+02 -0.38496193475E+02  0.44197487634E+02  0.10566000000E+00 0. -1.
         22    1    1    0    0    0 -0.20227146020E+02  0.16133418315E+02 -0.13150658868E+02  0.29023515489E+02  0.00000000000E+00 0.  1.
</event>
<event>
 5    1  0.1255769E-009  0.9118800E+02  0.7561462E-02  0.1125453E+00
         25   -1    0    0    0    0  0.00000000000E+00  0.00000000000E+00  0.99999998245E-14  0.12509000000E+03  0.12509000000E+03 0.  0.
        -13    1    3    3    0    0 -0.26659750954E+02 -0.65711376318E+01 -0.45617268669E+01  0.27834199948E+02  0.10566000000E+00 0.  1.
         23    2    1    0    0    0  0.27976797866E+02 -0.16209228796E+02 -0.21990127054E+02  0.85987493624E+02  0.76582263318E+02 0.  0.
         13    1    3    3    0    0  0.54636548820E+02 -0.96380911647E+01 -0.17428400187E+02  0.58153293676E+02  0.10566000000E+00 0. -1.
         22    1    1    0    0    0 -0.27976797866E+02  0.16209228796E+02  0.21990127054E+02  0.39102506376E+02  0.00000000000E+00 0. -1.
</event>
<event>
 5    1  0.1255769E-009  0.9118800E+02  0.7561462E-02  0.1125453E+00
         25   -1    0    0    0    0  0.00000000000E+00  0.00000000000E+00  0.99999998245E-14  0.12509000000E+03  0.12509000000E+03 0.  0.
        -13    1    3    3    0    0  0.37598015473E+02 -0.61574328294E+01  0.40370259619E+02  0.55509402557E+02  0.10566000000E+00 0.  1.
         23    2    1    0    0    0  0.13901130860E+02 -0.22627563758E+02  0.12103259378E+02  0.95905466967E+02  0.91357110428E+02 0.  0.
         13    1    3    3    0    0 -0.23696884613E+02 -0.16470130928E+02 -0.28267000241E+02  0.40396064410E+02  0.10566000000E+00 0. -1.
         22    1    1    0    0    0 -0.13901130860E+02  0.22627563758E+02 -0.12103259378E+02  0.29184533033E+02  0.00000000000E+00 0. -1.
</event>
<event>
 5    1  0.1255769E-009  0.9118800E+02  0.7561462E-02  0.1125453E+00
         25   -1    0    0    0    0  0.00000000000E+00  0.00000000000E+00  0.99999998245E-14  0.12509000000E+03  0.12509000000E+03 0.  0.
        -13    1    3    3    0    0 -0.33339197715E+02 -0.12200606489E+02 -0.38265179050E+02  0.52197624417E+02  0.10566000000E+00 0.  1.
         23    2    1    0    0    0 -0.26022040162E+02  0.11778168055E+02 -0.17734698729E+01  0.96471526730E+02  0.92128923023E+02 0.  0.
         13    1    3    3    0    0  0.73171575531E+01  0.23978774544E+02  0.36491709178E+02  0.44273902313E+02  0.10566000000E+00 0. -1.
         22    1    1    0    0    0  0.26022040162E+02 -0.11778168055E+02  0.17734698729E+01  0.28618473270E+02  0.00000000000E+00 0. -1.
</event>
<event>
 5    1  0.1255769E-009  0.9118800E+02  0.7561462E-02  0.1125453E+00
         25   -1    0    0    0    0  0.00000000000E+00  0.00000000000E+00  0.99999998245E-14  0.12509000000E+03  0.12509000000E+03 0.  0.
        -13    1    3    3    0    0  0.38626741854E+02 -0.16122626928E+02  0.34877112487E+02  0.54482918652E+02  0.10566000000E+00 0.  1.
         23    2    1    0    0    0  0.34269539396E+02 -0.10486399423E+02  0.85637266627E+00  0.89241718627E+02  0.81725057761E+02 0.  0.
         13    1    3    3    0    0 -0.43572024585E+01  0.56362275051E+01 -0.34020739820E+02  0.34758799975E+02  0.10566000000E+00 0. -1.
         22    1    1    0    0    0 -0.34269539396E+02  0.10486399423E+02 -0.85637266627E+00  0.35848281373E+02  0.00000000000E+00 0.  1.
</event>
<event>
 5    1  0.1255769E-009  0.9118800E+02  0.7561462E-02  0.1125453E+00
         25   -1    0    0    0    0  0.00000000000E+00  0.00000000000E+00  0.99999998245E-14  0.12509000000E+03  0.12509000000E+03 0.  0.
        -13    1    3    3    0    0 -0.43076876721E+02 -0.13052935825E+02 -0.22282365871E+02  0.50224609850E+02  0.10566000000E+00 0. -1.
         23    2    1    0    0    0 -0.20539239864E+01 -0.27795201918E+02 -0.80820372317E+01  0.96070848061E+02  0.91583277229E+02 0.  0.
         13    1    3    3    0    0  0.41022952735E+02 -0.14742266094E+02  0.14200328640E+02  0.45846238212E+02  0.10566000000E+00 0.  1.
         22    1    1    0    0    0  0.20539239864E+01  0.27795201918E+02  0.80820372317E+01  0.29019151939E+02  0.00000000000E+00 0.  1.
</event>
<event>
 5    1  0.1255769E-009  0.9118800E+02  0.7561462E-02  0.1125453E+00
         25   -1    0    0    0    0  0.00000000000E+00  0.00000000000E+00  0.99999998245E-14  0.12509000000E+03  0.12509000000E+03 0.  0.
        -13    1    3    3    0    0 -0.19959540599E+02  0.22235805862E+02  0.35885989353E+02  0.46697213184E+02  0.10566000000E+00 0. -1.
         23    2    1    0    0    0 -0.26543276123E+02  0.11521758633E+02 -0.10154188563E+02  0.94423993173E+02  0.89305579400E+02 0.  0.
         13    1    3    3    0    0 -0.65837355244E+01 -0.10714047229E+02 -0.46040177916E+02  0.47726779989E+02  0.10566000000E+00 0.  1.
         22    1    1    0    0    0  0.26543276123E+02 -0.11521758633E+02  0.10154188563E+02  0.30666006827E+02  0.00000000000E+00 0. -1.
</event>
<event>
 5    1  0.1255769E-009  0.9118800E+02  0.7561462E-02  0.1125453E+00
         25   -1    0    0    0    0  0.00000000000E+00  0.00000000000E+00  0.99999998245E-14  0.12509000000E+03  0.12509000000E+03 0.  0.
        -13    1    3    3    0    0 -0.64257786326E+01 -0.11568751509E+02  0.54891650251E+02  0.56464423080E+02  0.10566000000E+00 0.  1.
         23    2    1    0    0    0  0.15549936914E+02  0.65926618216E+00  0.26181873341E+02  0.94631410709E+02  0.89595637345E+02 0.  0.
         13    1    3    3    0    0  0.21975715546E+02  0.12228017691E+02 -0.28709776909E+02  0.38166987629E+02  0.10566000000E+00 0. -1.
         22    1    1    0    0    0 -0.15549936914E+02 -0.65926618216E+00 -0.26181873341E+02  0.30458589291E+02  0.00000000000E+00 0.  1.
</event>
<event>
 5    1  0.1255769E-009  0.9118800E+02  0.7561462E-02  0.1125453E+00
         25   -1    0    0    0    0  0.00000000000E+00  0.00000000000E+00  0.99999998245E-14  0.12509000000E+03  0.12509000000E+03 0.  0.
        -13    1    3    3    0    0 -0.22089094403E+02 -0.11685903849E+00 -0.42281646979E+02  0.47704198797E+02  0.10566000000E+00 0. -1.
         23    2    1    0    0    0 -0.67856186455E+01 -0.30223863063E+02 -0.18509312453E+02  0.89005083950E+02  0.81362053825E+02 0.  0.
         13    1    3    3    0    0  0.15303475757E+02 -0.30107004025E+02  0.23772334526E+02  0.41300885153E+02  0.10566000000E+00 0.  1.
         22    1    1    0    0    0  0.67856186455E+01  0.30223863063E+02  0.18509312453E+02  0.36084916050E+02  0.00000000000E+00 0. -1.
</event>
<event>
 5    1  0.1255769E-009  0.9118800E+02  0.7561462E-02  0.1125453E+00
         25   -1    0    0    0    0  0.00000000000E+00  0.00000000000E+00  0.99999998245E-14  0.12509000000E+03  0.12509000000E+03 0.  0.
        -13    1    3    3    0    0 -0.86793513732E+01  0.13186383348E+01  0.45003384516E+02  0.45851780001E+02  0.10566000000E+00 0. -1.
         23    2    1    0    0    0  0.26832317949E+02 -0.66296437047E+01  0.12076637343E+02  0.94927595724E+02  0.90008209616E+02 0.  0.
         13    1    3    3    0    0  0.35511669322E+02 -0.79482820395E+01 -0.32926747174E+02  0.49075815723E+02  0.10566000000E+00 0.  1.
         22    1    1    0    0    0 -0.26832317949E+02  0.66296437047E+01 -0.12076637343E+02  0.30162404276E+02  0.00000000000E+00 0.  1.
</event>
<event>
 5    1  0.1255769E-009  0.9118800E+02  0.7561462E-02  0.1125453E+00
         25   -1    0    0    0    0  0.00000000000E+00  0.00000000000E+00  0.99999998245E-14  0.12509000000E+03  0.12509000000E+03 0.  0.
        -13    1    3    3    0    0 -0.11444475853E+02  0.63586770215E+01 -0.36044189407E+02  0.38348449188E+02  0.10566000000E+00 0. -1.
         23    2    1    0    0    0 -0.15878263344E+02  0.18568325934E+02  0.18516644136E+02  0.94434362919E+02  0.89320103085E+02 0.  0.
         13    1    3    3    0    0 -0.44337874905E+01  0.12209648912E+02  0.54560833544E+02  0.56085913731E+02  0.10566000000E+00 0.  1.
         22    1    1    0    0    0  0.15878263344E+02 -0.18568325934E+02 -0.18516644136E+02  0.30655637081E+02  0.00000000000E+00 0.  1.
</event>
<event>
 5    1  0.1255769E-009  0.9118800E+02  0.7561462E-02  0.1125453E+00
         25   -1    0    0    0    0  0.00000000000E+00  0.00000000000E+00  0.99999998245E-14  0.12509000000E+03  0.12509000000E+03 0.  0.
        -13    1    3    3    0    0 -0.18864095936E+02 -0.36457415930E+02 -0.16563792044E+02  0.44264745144E+02  0.10566000000E+00 0. -1.
         23    2    1    0    0    0  0.19798109490E+02 -0.68868915901E-01 -0.19316776317E+02  0.97429419211E+02  0.93420468840E+02 0.  0.
         13    1    3    3    0    0  0.38662205426E+02  0.36388547014E+02 -0.27529842729E+01  0.53164674067E+02  0.10566000000E+00 0.  1.
         22    1    1    0    0    0 -0.19798109490E+02  0.68868915901E-01  0.19316776317E+02  0.27660580789E+02  0.00000000000E+00 0.  1.
</event>
<event>
 5    1  0.1255769E-009  0.9118800E+02  0.7561462E-02  0.1125453E+00
         25   -1    0    0    0    0  0.00000000000E+00  0.00000000000E+00  0.99999998245E-14  0.12509000000E+03  0.12509000000E+03 0.  0.
        -13    1    3    3    0    0 -0.72342975986E+01 -0.74937527396E+01  0.59576853762E+02  0.60480608959E+02  0.10566000000E+00 0.  1.
         23    2    1    0    0    0  0.57984476240E+01 -0.10050990831E+02  0.30874268985E+02  0.92107203016E+02  0.85999255523E+02 0.  0.
         13    1    3    3    0    0  0.13032745223E+02 -0.25572380916E+01 -0.28702584777E+02  0.31626594057E+02  0.10566000000E+00 0. -1.
         22    1    1    0    0    0 -0.57984476240E+01  0.10050990831E+02 -0.30874268985E+02  0.32982796984E+02  0.00000000000E+00 0.  1.
</event>
<event>
 5    1  0.1255769E-009  0.9118800E+02  0.7561462E-02  0.1125453E+00
         25   -1    0    0    0    0  0.00000000000E+00  0.00000000000E+00  0.99999998245E-14  0.12509000000E+03  0.12509000000E+03 0.  0.
        -13    1    3    3    0    0  0.93007189499E+01 -0.34733984409E+02 -0.49543309029E+02  0.61216857805E+02  0.10566000000E+00 0.  1.
         23    2    1    0    0    0  0.13218254090E+02 -0.14627032289E+02 -0.21898132558E+02  0.95624757352E+02  0.90971939050E+02 0.  0.
         13    1    3    3    0    0  0.39175351396E+01  0.20106952120E+02  0.27645176471E+02  0.34407899548E+02  0.10566000000E+00 0. -1.
         22    1    1    0    0    0 -0.13218254090E+02  0.14627032289E+02  0.21898132558E+02  0.29465242648E+02  0.00000000000E+00 0.  1.
</event>
<event>
 5    1  0.1255769E-009  0.9118800E+02  0.7561462E-02  0.1125453E+00
         25   -1    0    0    0    0  0.00000000000E+00  0.00000000000E+00  0.99999998245E-14  0.12509000000E+03  0.12509000000E+03 0.  0.
        -13    1    3    3    0    0 -0.37981200092E+02 -0.16958573644E+02  0.26649734439E+02  0.49400245851E+02  0.10566000000E+00 0.  1.
         23    2    1    0    0    0 -0.11349246542E+02 -0.27822049289E+02 -0.75709298908E+01  0.94103054311E+02  0.88854904352E+02 0.  0.
         13    1    3    3    0    0  0.26631953550E+02 -0.10863475645E+02 -0.34220664329E+02  0.44702808460E+02  0.10566000000E+00 0. -1.
         22    1    1    0    0    0  0.11349246542E+02  0.27822049289E+02  0.75709298908E+01  0.30986945689E+02  0.00000000000E+00 0. -1.
</event>
<event>
 5    1  0.1255769E-009  0.9118800E+02  0.7561462E-02  0.1125453E+00
         25   -1    0    0    0    0  0.00000000000E+00  0.00000000000E+00  0.99999998245E-14  0.12509000000E+03  0.12509000000E+03 0.  0.
        -13    1    3    3    0    0 -0.25560869424E+00  0.10266371165E+02 -0.53247344150E+02  0.54228724268E+02  0.10566000000E+00 0. -1.
         23    2    1    0    0    0  0.19299309251E+02 -0.69973353608E+01 -0.20737371452E+02  0.95910133406E+02  0.91363499689E+02 0.  0.
         13    1    3    3    0    0  0.19554917945E+02 -0.17263706526E+02  0.32509972698E+02  0.41681409137E+02  0.10566000000E+00 0.  1.
         22    1    1    0    0    0 -0.19299309251E+02  0.69973353608E+01  0.20737371452E+02  0.29179866594E+02  0.00000000000E+00 0. -1.
</event>
<event>
 5    1  0.1255769E-009  0.9118800E+02  0.7561462E-02  0.1125453E+00
         25   -1    0    0    0    0  0.00000000000E+00  0.00000000000E+00  0.99999998245E-14  0.12509000000E+03  0.12509000000E+03 0.  0.
        -13    1    3    3    0    0 -0.25945173325E+02 -0.20586184365E+02 -0.14492506491E+02  0.36152273981E+02  0.10566000000E+00 0. -1.
         23    2    1    0    0    0 -0.91462204421E+01 -0.26410857426E+01  0.33602503654E+02  0.90164981258E+02  0.83126210735E+02 0.  0.
         13    1    3    3    0    0  0.16798952883E+02  0.17945098622E+02  0.48095010145E+02  0.54012707277E+02  0.10566000000E+00 0.  1.
         22    1    1    0    0    0  0.91462204421E+01  0.26410857426E+01 -0.33602503654E+02  0.34925018742E+02  0.00000000000E+00 0.  1.
</event>
<event>
 5    1  0.1255769E-009  0.9118800E+02  0.7561462E-02  0.1125453E+00
         25   -1    0    0    0    0  0.00000000000E+00  0.00000000000E+00  0.99999998245E-14  0.12509000000E+03  0.12509000000E+03 0.  0.
        -13    1    3    3    0    0 -0.36054395200E+02  0.33523469597E+01 -0.21040217553E+02  0.41879106511E+02  0.10566000000E+00 0.  1.
         23    2    1    0    0    0 -0.93213232660E+01  0.21382483895E+02  0.20202972406E+02  0.94231325709E+02  0.89035301796E+02 0.  0.
         13    1    3    3    0    0  0.26733071934E+02  0.18030136935E+02  0.41243189960E+02  0.52352219199E+02  0.10566000000E+00 0. -1.
         22    1    1    0    0    0  0.93213232660E+01 -0.21382483895E+02 -0.20202972406E+02  0.30858674291E+02  0.00000000000E+00 0. -1.
</event>
<event>
 5    1  0.1255769E-009  0.9118800E+02  0.7561462E-02  0.1125453E+00
         25   -1    0    0    0    0  0.00000000000E+00  0.00000000000E+00  0.99999998245E-14  0.12509000000E+03  0.12509000000E+03 0.  0.
        -13    1    3    3    0    0 -0.13895827678E+02  0.23244596882E+02 -0.48946672368E+02  0.55939192084E+02  0.10566000000E+00 0. -1.
         23    2    1    0    0    0  0.12237663748E+02  0.45830156022E+01 -0.27750923039E+02  0.94416262446E+02  0.89294750343E+02 0.  0.
         13    1    3    3    0    0  0.26133491426E+02 -0.18661581280E+02  0.21195749329E+02  0.38477070362E+02  0.10566000000E+00 0.  1.
         22    1    1    0    0    0 -0.12237663748E+02 -0.45830156022E+01  0.27750923039E+02  0.30673737554E+02  0.00000000000E+00 0. -1.
</event>
<event>
 5    1  0.1255769E-009  0.9118800E+02  0.7561462E-02  0.1125453E+00
         25   -1    0    0    0    0  0.00000000000E+00  0.00000000000E+00  0.99999998245E-14  0.12509000000E+03  0.12509000000E+03 0.  0.
        -13    1    3    3    0    0  0.37594081114E+02  0.66771051736E+00 -0.19395373900E+02  0.42307829830E+02  0.10566000000E+00 0. -1.
         23    2    1    0    0    0 -0.16653178123E+02 -0.40073585284E+01 -0.22461774929E+02  0.96842547072E+02  0.92631313962E+02 0.  0.
         13    1    3    3    0    0 -0.54247259237E+02 -0.46750690457E+01 -0.30664010295E+01  0.54534717242E+02  0.10566000000E+00 0.  1.
         22    1    1    0    0    0  0.16653178123E+02  0.40073585284E+01  0.22461774929E+02  0.28247452928E+02  0.00000000000E+00 0.  1.
</event>
<event>
 5    1  0.1255769E-009  0.9118800E+02  0.7561462E-02  0.1125453E+00
         25   -1    0    0    0    0  0.00000000000E+00  0.00000000000E+00  0.99999998245E-14  0.12509000000E+03  0.12509000000E+03 0.  0.
        -13    1    3    3    0    0  0.35308899212E+02  0.12234869659E+02  0.24260472400E+02  0.44553249985E+02  0.10566000000E+00 0. -1.
         23    2    1    0    0    0  0.19791773790E+02 -0.20525838878E+02 -0.10430860102E+02  0.94728392436E+02  0.89730937361E+02 0.  0.
         13    1    3    3    0    0 -0.15517125422E+02 -0.32760708536E+02 -0.34691332502E+02  0.50175142451E+02  0.10566000000E+00 0.  1.
         22    1    1    0    0    0 -0.19791773790E+02  0.20525838878E+02  0.10430860102E+02  0.30361607564E+02  0.00000000000E+00 0. -1.
</event>
<event>
 5    1  0.1255769E-009  0.9118800E+02  0.7561462E-02  0.1125453E+00
         25   -1    0    0    0    0  0.00000000000E+00  0.00000000000E+00  0.99999998245E-14  0.12509000000E+03  0.12509000000E+03 0.  0.
        -13    1    3    3    0    0 -0.35072909742E+01  0.16801514535E+02  0.37286842424E+02  0.41047676702E+02  0.10566000000E+00 0. -1.
         23    2    1    0    0    0  0.10356184576E+02  0.20032051815E+02 -0.16795417591E+02  0.96972039353E+02  0.92806016536E+02 0.  0.
         13    1    3    3    0    0  0.13863475550E+02  0.32305372803E+01 -0.54082260016E+02  0.55924362651E+02  0.10566000000E+00 0.  1.
         22    1    1    0    0    0 -0.10356184576E+02 -0.20032051815E+02  0.16795417591E+02  0.28117960647E+02  0.00000000000E+00 0.  1.
</event>
<event>
 5    1  0.1255769E-009  0.9118800E+02  0.7561462E-02  0.1125453E+00
         25   -1    0    0    0    0  0.00000000000E+00  0.00000000000E+00  0.99999998245E-14  0.12509000000E+03  0.12509000000E+03 0.  0.
        -13    1    3    3    0    0 -0.26833052261E+02 -0.63639336943E+01 -0.52988197459E+02  0.59735019709E+02  0.10566000000E+00 0. -1.
         23    2    1    0    0    0 -0.97073344491E+00  0.31653448618E+01 -0.27864485905E+02  0.97029506308E+02  0.92883441948E+02 0.  0.
         13    1    3    3    0    0  0.25862318816E+02  0.95292785562E+01  0.25123711554E+02  0.37294486598E+02  0.10566000000E+00 0.  1.
         22    1    1    0    0    0  0.97073344491E+00 -0.31653448618E+01  0.27864485905E+02  0.28060493692E+02  0.00000000000E+00 0. -1.
</event>
<event>
 5    1  0.1255769E-009  0.9118800E+02  0.7561462E-02  0.1125453E+00
         25   -1    0    0    0    0  0.00000000000E+00  0.00000000000E+00  0.99999998245E-14  0.12509000000E+03  0.12509000000E+03 0.  0.
        -13    1    3    3    0    0  0.15717321136E+02 -0.35797611774E+02  0.43674331104E+02  0.58617075617E+02  0.10566000000E+00 0.  1.
         23    2    1    0    0    0  0.11656233832E+02 -0.29932578626E+01  0.26760505373E+02  0.95748015957E+02  0.91141266899E+02 0.  0.
         13    1    3    3    0    0 -0.40610873038E+01  0.32804353912E+02 -0.16913825731E+02  0.37130940340E+02  0.10566000000E+00 0. -1.
         22    1    1    0    0    0 -0.11656233832E+02  0.29932578626E+01 -0.26760505373E+02  0.29341984043E+02  0.00000000000E+00 0.  1.
</event>
<event>
 5    1  0.1255769E-009  0.9118800E+02  0.7561462E-02  0.1125453E+00
         25   -1    0    0    0    0  0.00000000000E+00  0.00000000000E+00  0.99999998245E-14  0.12509000000E+03  0.12509000000E+03 0.  0.
        -13    1    3    3    0    0  0.17772064586E+02  0.33501826621E+02 -0.39114225670E+02  0.54480753303E+02  0.10566000000E+00 0.  1.
         23    2    1    0    0    0 -0.14081204326E+02  0.18920381684E+02 -0.18376656835E+02  0.95190791403E+02  0.90373248770E+02 0.  0.
         13    1    3    3    0    0 -0.31853268912E+02 -0.14581444938E+02  0.20737568836E+02  0.40710038100E+02  0.10566000000E+00 0. -1.
         22    1    1    0    0    0  0.14081204326E+02 -0.18920381684E+02  0.18376656835E+02  0.29899208597E+02  0.00000000000E+00 0.  1.
</event>
<event>
 5    1  0.1255769E-009  0.9118800E+02  0.7561462E-02  0.1125453E+00
         25   -1    0    0    0    0  0.00000000000E+00  0.00000000000E+00  0.99999998245E-14  0.12509000000E+03  0.12509000000E+03 0.  0.
        -13    1    3    3    0    0  0.14812142426E+02 -0.42526378734E+02  0.72807383921E+01  0.45617022777E+02  0.10566000000E+00 0.  1.
         23    2    1    0    0    0 -0.27631415869E+01 -0.10418909030E+02 -0.27155853763E+02  0.95873069798E+02  0.91312740087E+02 0.  0.
         13    1    3    3    0    0 -0.17575284013E+02  0.32107469704E+02 -0.34436592155E+02  0.50256047021E+02  0.10566000000E+00 0. -1.
         22    1    1    0    0    0  0.27631415869E+01  0.10418909030E+02  0.27155853763E+02  0.29216930202E+02  0.00000000000E+00 0. -1.
</event>
<event>
 5    1  0.1255769E-009  0.9118800E+02  0.7561462E-02  0.1125453E+00
         25   -1    0    0    0    0  0.00000000000E+00  0.00000000000E+00  0.99999998245E-14  0.12509000000E+03  0.12509000000E+03 0.  0.
        -13    1    3    3    0    0 -0.47365688622E+02  0.11668938954E+02  0.13590504147E+01  0.48800930084E+02  0.10566000000E+00 0. -1.
         23    2    1    0    0    0 -0.11848476665E+02  0.15371537112E+02  0.26333334311E+02  0.92377387013E+02  0.86391357108E+02 0.  0.
         13    1    3    3    0    0  0.35517211957E+02  0.37025981586E+01  0.24974283896E+02  0.43576456929E+02  0.10566000000E+00 0.  1.
         22    1    1    0    0    0  0.11848476665E+02 -0.15371537112E+02 -0.26333334311E+02  0.32712612987E+02  0.00000000000E+00 0. -1.
</event>
<event>
 5    1  0.1255769E-009  0.9118800E+02  0.7561462E-02  0.1125453E+00
         25   -1    0    0    0    0  0.00000000000E+00  0.00000000000E+00  0.99999998245E-14  0.12509000000E+03  0.12509000000E+03 0.  0.
        -13    1    3    3    0    0 -0.36487750282E+02  0.40220905364E+01  0.29919992601E+02  0.47357684215E+02  0.10566000000E+00 0. -1.
         23    2    1    0    0    0 -0.17581348640E+02 -0.22697262937E+02 -0.57927600332E+01  0.95801339504E+02  0.91214423296E+02 0.  0.
         13    1    3    3    0    0  0.18906401641E+02 -0.26719353473E+02 -0.35712752634E+02  0.48443655289E+02  0.10566000000E+00 0.  1.
         22    1    1    0    0    0  0.17581348640E+02  0.22697262937E+02  0.57927600332E+01  0.29288660496E+02  0.00000000000E+00 0.  1.
</event>
<event>
 5    1  0.1255769E-009  0.9118800E+02  0.7561462E-02  0.1125453E+00
         25   -1    0    0    0    0  0.00000000000E+00  0.00000000000E+00  0.99999998245E-14  0.12509000000E+03  0.12509000000E+03 0.  0.
        -13    1    3    3    0    0  0.80228293434E+00 -0.25698568050E+02  0.33607232676E+02  0.42314504723E+02  0.10566000000E+00 0.  1.
         23    2    1    0    0    0 -0.72717652090E+01 -0.18858362289E+02 -0.19821297465E+02  0.96780986759E+02  0.92548145132E+02 0.  0.
         13    1    3    3    0    0 -0.80740481434E+01  0.68402057603E+01 -0.53428530142E+02  0.54466482036E+02  0.10566000000E+00 0. -1.
         22    1    1    0    0    0  0.72717652090E+01  0.18858362289E+02  0.19821297465E+02  0.28309013241E+02  0.00000000000E+00 0. -1.
</event>
<event>
 5    1  0.1255769E-009  0.9118800E+02  0.7561462E-02  0.1125453E+00
         25   -1    0    0    0    0  0.00000000000E+00  0.00000000000E+00  0.99999998245E-14  0.12509000000E+03  0.12509000000E+03 0.  0.
        -13    1    3    3    0    0 -0.40784677059E+02 -0.44101128611E+02 -0.12857208661E+02  0.61429784357E+02  0.10566000000E+00 0. -1.
         23    2    1    0    0    0 -0.17995403174E+02 -0.22703989646E+02  0.20185940625E+01  0.96048987566E+02  0.91553413968E+02 0.  0.
         13    1    3    3    0    0  0.22789273885E+02  0.21397138965E+02  0.14875802723E+02  0.34619203209E+02  0.10566000000E+00 0.  1.
         22    1    1    0    0    0  0.17995403174E+02  0.22703989646E+02 -0.20185940625E+01  0.29041012434E+02  0.00000000000E+00 0. -1.
</event>
<event>
 5    1  0.1255769E-009  0.9118800E+02  0.7561462E-02  0.1125453E+00
         25   -1    0    0    0    0  0.00000000000E+00  0.00000000000E+00  0.99999998245E-14  0.12509000000E+03  0.12509000000E+03 0.  0.
        -13    1    3    3    0    0 -0.36469677289E+02  0.23006916857E+02 -0.19650826553E+02  0.47386936313E+02  0.10566000000E+00 0.  1.
         23    2    1    0    0    0 -0.22816935249E+02 -0.43326377801E+01  0.17875985211E+02  0.95782404883E+02  0.91188452962E+02 0.  0.
         13    1    3    3    0    0  0.13652742040E+02 -0.27339554637E+02  0.37526811764E+02  0.48395468570E+02  0.10566000000E+00 0. -1.
         22    1    1    0    0    0  0.22816935249E+02  0.43326377801E+01 -0.17875985211E+02  0.29307595117E+02  0.00000000000E+00 0. -1.
</event>
<event>
 5    1  0.1255769E-009  0.9118800E+02  0.7561462E-02  0.1125453E+00
         25   -1    0    0    0    0  0.00000000000E+00  0.00000000000E+00  0.99999998245E-14  0.12509000000E+03  0.12509000000E+03 0.  0.
        -13    1    3    3    0    0 -0.15200123863E+02  0.24753819967E+01  0.37495984561E+02  0.40535556043E+02  0.10566000000E+00 0.  1.
         23    2    1    0    0    0  0.18880854642E+02  0.22005183202E+02 -0.17241249362E+01  0.96043703049E+02  0.91546193415E+02 0.  0.
         13    1    3    3    0    0  0.34080978506E+02  0.19529801206E+02 -0.39220109497E+02  0.55508147006E+02  0.10566000000E+00 0. -1.
         22    1    1    0    0    0 -0.18880854642E+02 -0.22005183202E+02  0.17241249362E+01  0.29046296951E+02  0.00000000000E+00 0. -1.
</event>
<event>
 5    1  0.1255769E-009  0.9118800E+02  0.7561462E-02  0.1125453E+00
         25   -1    0    0    0    0  0.00000000000E+00  0.00000000000E+00  0.99999998245E-14  0.12509000000E+03  0.12509000000E+03 0.  0.
        -13    1    3    3    0    0 -0.42239404811E+01 -0.35184408521E+02 -0.74803865761E+01  0.36218111816E+02  0.10566000000E+00 0. -1.
         23    2    1    0    0    0 -0.29545005725E+01  0.16978202338E+02  0.22772078388E+02  0.96532059206E+02  0.92211075648E+02 0.  0.
         13    1    3    3    0    0  0.12694399086E+01  0.52162610859E+02  0.30252464964E+02  0.60313947390E+02  0.10566000000E+00 0.  1.
         22    1    1    0    0    0  0.29545005725E+01 -0.16978202338E+02 -0.22772078388E+02  0.28557940794E+02  0.00000000000E+00 0.  1.
</event>
<event>
 5    1  0.1255769E-009  0.9118800E+02  0.7561462E-02  0.1125453E+00
         25   -1    0    0    0    0  0.00000000000E+00  0.00000000000E+00  0.99999998245E-14  0.12509000000E+03  0.12509000000E+03 0.  0.
        -13    1    3    3    0    0  0.14857921734E+02 -0.35656331059E+02  0.11638375983E+02  0.40343459723E+02  0.10566000000E+00 0. -1.
         23    2    1    0    0    0  0.14122613878E+02  0.95178285672E+00 -0.27636779821E+02  0.94039304158E+02  0.88765111470E+02 0.  0.
         13    1    3    3    0    0 -0.73530785559E+00  0.36608113916E+02 -0.39275155804E+02  0.53695844435E+02  0.10566000000E+00 0.  1.
         22    1    1    0    0    0 -0.14122613878E+02 -0.95178285672E+00  0.27636779821E+02  0.31050695842E+02  0.00000000000E+00 0.  1.
</event>
<event>
 5    1  0.1255769E-009  0.9118800E+02  0.7561462E-02  0.1125453E+00
         25   -1    0    0    0    0  0.00000000000E+00  0.00000000000E+00  0.99999998245E-14  0.12509000000E+03  0.12509000000E+03 0.  0.
        -13    1    3    3    0    0 -0.26294086820E+02  0.21830902352E+02 -0.39271917281E+02  0.52060176240E+02  0.10566000000E+00 0.  1.
         23    2    1    0    0    0  0.23065263737E+01  0.31133656155E+02 -0.16539732163E+02  0.89760304990E+02  0.82514998651E+02 0.  0.
         13    1    3    3    0    0  0.28600613194E+02  0.93027538038E+01  0.22732185119E+02  0.37700128749E+02  0.10566000000E+00 0. -1.
         22    1    1    0    0    0 -0.23065263737E+01 -0.31133656155E+02  0.16539732163E+02  0.35329695010E+02  0.00000000000E+00 0.  1.
</event>
<event>
 5    1  0.1255769E-009  0.9118800E+02  0.7561462E-02  0.1125453E+00
         25   -1    0    0    0    0  0.00000000000E+00  0.00000000000E+00  0.99999998245E-14  0.12509000000E+03  0.12509000000E+03 0.  0.
        -13    1    3    3    0    0 -0.14316734642E+02  0.83782716185E+01  0.41255470682E+02  0.44465597391E+02  0.10566000000E+00 0.  1.
         23    2    1    0    0    0  0.25941347365E+02 -0.57651965340E+01  0.16889078464E+02  0.93602987351E+02  0.88148098536E+02 0.  0.
         13    1    3    3    0    0  0.40258082007E+02 -0.14143468152E+02 -0.24366392218E+02  0.49137389960E+02  0.10566000000E+00 0. -1.
         22    1    1    0    0    0 -0.25941347365E+02  0.57651965340E+01 -0.16889078464E+02  0.31487012649E+02  0.00000000000E+00 0.  1.
</event>
<event>
 5    1  0.1255769E-009  0.9118800E+02  0.7561462E-02  0.1125453E+00
         25   -1    0    0    0    0  0.00000000000E+00  0.00000000000E+00  0.99999998245E-14  0.12509000000E+03  0.12509000000E+03 0.  0.
        -13    1    3    3    0    0 -0.17861157738E+02 -0.27508964190E+02 -0.14127626641E+02  0.35712253711E+02  0.10566000000E+00 0.  1.
         23    2    1    0    0    0  0.95245374054E+01  0.26133974110E+02 -0.73377528747E+01  0.96322934929E+02  0.91926947956E+02 0.  0.
         13    1    3    3    0    0  0.27385695143E+02  0.53642938300E+02  0.67898737664E+01  0.60610681218E+02  0.10566000000E+00 0. -1.
         22    1    1    0    0    0 -0.95245374054E+01 -0.26133974110E+02  0.73377528747E+01  0.28767065071E+02  0.00000000000E+00 0. -1.
</event>
<event>
 5    1  0.1255769E-009  0.9118800E+02  0.7561462E-02  0.1125453E+00
         25   -1    0    0    0    0  0.00000000000E+00  0.00000000000E+00  0.99999998245E-14  0.12509000000E+03  0.12509000000E+03 0.  0.
        -13    1    3    3    0    0 -0.20788706216E+02  0.18120414480E+02 -0.11117717157E+02  0.29734399706E+02  0.10566000000E+00 0.  1.
         23    2    1    0    0    0  0.33849920793E+02 -0.69019958618E+01 -0.57344307727E+01  0.90070885493E+02  0.82984492724E+02 0.  0.
         13    1    3    3    0    0  0.54638627009E+02 -0.25022410342E+02  0.53832863846E+01  0.60336485787E+02  0.10566000000E+00 0. -1.
         22    1    1    0    0    0 -0.33849920793E+02  0.69019958618E+01  0.57344307727E+01  0.35019114507E+02  0.00000000000E+00 0. -1.
</event>
<event>
 5    1  0.1255769E-009  0.9118800E+02  0.7561462E-02  0.1125453E+00
         25   -1    0    0    0    0  0.00000000000E+00  0.00000000000E+00  0.99999998245E-14  0.12509000000E+03  0.12509000000E+03 0.  0.
        -13    1    3    3    0    0  0.23995329705E+02  0.94529729869E+01  0.68545632367E-01  0.25790510047E+02  0.10566000000E+00 0. -1.
         23    2    1    0    0    0 -0.26353088264E+02 -0.24009272975E+02  0.12123617182E+02  0.87434820497E+02  0.78910932651E+02 0.  0.
         13    1    3    3    0    0 -0.50348417969E+02 -0.33462245962E+02  0.12055071550E+02  0.61644310450E+02  0.10566000000E+00 0.  1.
         22    1    1    0    0    0  0.26353088264E+02  0.24009272975E+02 -0.12123617182E+02  0.37655179503E+02  0.00000000000E+00 0.  1.
</event>
<event>
 5    1  0.1255769E-009  0.9118800E+02  0.7561462E-02  0.1125453E+00
         25   -1    0    0    0    0  0.00000000000E+00  0.00000000000E+00  0.99999998245E-14  0.12509000000E+03  0.12509000000E+03 0.  0.
        -13    1    3    3    0    0  0.34595454608E+02  0.21838678293E+02  0.26366725556E+02  0.48672258317E+02  0.10566000000E+00 0. -1.
         23    2    1    0    0    0  0.22813735580E+02 -0.18644464336E+02  0.12826078692E+02  0.92956047923E+02  0.87225202605E+02 0.  0.
         13    1    3    3    0    0 -0.11781719028E+02 -0.40483142628E+02 -0.13540646864E+02  0.44283789606E+02  0.10566000000E+00 0.  1.
         22    1    1    0    0    0 -0.22813735580E+02  0.18644464336E+02 -0.12826078692E+02  0.32133952077E+02  0.00000000000E+00 0. -1.
</event>
<event>
 5    1  0.1255769E-009  0.9118800E+02  0.7561462E-02  0.1125453E+00
         25   -1    0    0    0    0  0.00000000000E+00  0.00000000000E+00  0.99999998245E-14  0.12509000000E+03  0.12509000000E+03 0.  0.
        -13    1    3    3    0    0 -0.12186052043E+02 -0.78811360258E+01  0.60159417524E+02  0.61885207039E+02  0.10566000000E+00 0.  1.
         23    2    1    0    0    0 -0.11000674623E+02 -0.68379472949E+01  0.26380534132E+02  0.95701142478E+02  0.91076911043E+02 0.  0.
         13    1    3    3    0    0  0.11853774198E+01  0.10431887309E+01 -0.33778883392E+02  0.33815935439E+02  0.10566000000E+00 0. -1.
         22    1    1    0    0    0  0.11000674623E+02  0.68379472949E+01 -0.26380534132E+02  0.29388857522E+02  0.00000000000E+00 0.  1.
</event>
<event>
 5    1  0.1255769E-009  0.9118800E+02  0.7561462E-02  0.1125453E+00
         25   -1    0    0    0    0  0.00000000000E+00  0.00000000000E+00  0.99999998245E-14  0.12509000000E+03  0.12509000000E+03 0.  0.
        -13    1    3    3    0    0 -0.16923139995E+02 -0.24674982512E+02 -0.25861385463E+02  0.39548322991E+02  0.10566000000E+00 0.  1.
         23    2    1    0    0    0 -0.17913944693E+02  0.20979101991E+01  0.23353156451E+02  0.95582703311E+02  0.90914094696E+02 0.  0.
         13    1    3    3    0    0 -0.99080469809E+00  0.26772892711E+02  0.49214541913E+02  0.56034380320E+02  0.10566000000E+00 0. -1.
         22    1    1    0    0    0  0.17913944693E+02 -0.20979101991E+01 -0.23353156451E+02  0.29507296689E+02  0.00000000000E+00 0. -1.
</event>
<event>
 5    1  0.1255769E-009  0.9118800E+02  0.7561462E-02  0.1125453E+00
         25   -1    0    0    0    0  0.00000000000E+00  0.00000000000E+00  0.99999998245E-14  0.12509000000E+03  0.12509000000E+03 0.  0.
        -13    1    3    3    0    0  0.21670232875E+02 -0.27091010312E+02  0.90669597114E+01  0.35857255263E+02  0.10566000000E+00 0.  1.
         23    2    1    0    0    0 -0.26513095792E+02  0.78772987543E+01  0.10749135396E+02  0.95416105818E+02  0.90684581124E+02 0.  0.
         13    1    3    3    0    0 -0.48183328667E+02  0.34968309066E+02  0.16821756847E+01  0.59558850555E+02  0.10566000000E+00 0. -1.
         22    1    1    0    0    0  0.26513095792E+02 -0.78772987543E+01 -0.10749135396E+02  0.29673894182E+02  0.00000000000E+00 0. -1.
</event>
<event>
 5    1  0.1255769E-009  0.9118800E+02  0.7561462E-02  0.1125453E+00
         25   -1    0    0    0    0  0.00000000000E+00  0.00000000000E+00  0.99999998245E-14  0.12509000000E+03  0.12509000000E+03 0.  0.
        -13    1    3    3    0    0 -0.73907968101E+01 -0.29251934582E+02  0.32541559072E+02  0.44376387698E+02  0.10566000000E+00 0.  1.
         23    2    1    0    0    0  0.16542907794E+02  0.13266385818E+02  0.22464506245E+02  0.94197948728E+02  0.88988396506E+02 0.  0.
         13    1    3    3    0    0  0.23933704604E+02  0.42518320401E+02 -0.10077052827E+02  0.49821561030E+02  0.10566000000E+00 0. -1.
         22    1    1    0    0    0 -0.16542907794E+02 -0.13266385818E+02 -0.22464506245E+02  0.30892051272E+02  0.00000000000E+00 0.  1.
</event>
<event>
 5    1  0.1255769E-009  0.9118800E+02  0.7561462E-02  0.1125453E+00
         25   -1    0    0    0    0  0.00000000000E+00  0.00000000000E+00  0.99999998245E-14  0.12509000000E+03  0.12509000000E+03 0.  0.
        -13    1    3    3    0    0 -0.26851034696E+02 -0.45192518811E+02 -0.14570598423E+02  0.54549567580E+02  0.10566000000E+00 0.  1.
         23    2    1    0    0    0  0.65304989930E+01 -0.21651865719E+02 -0.18888352047E+02  0.95624417547E+02  0.90971471803E+02 0.  0.
         13    1    3    3    0    0  0.33381533689E+02  0.23540653092E+02 -0.43177536247E+01  0.41074849967E+02  0.10566000000E+00 0. -1.
         22    1    1    0    0    0 -0.65304989930E+01  0.21651865719E+02  0.18888352047E+02  0.29465582453E+02  0.00000000000E+00 0.  1.
</event>
<event>
 5    1  0.1255769E-009  0.9118800E+02  0.7561462E-02  0.1125453E+00
         25   -1    0    0    0    0  0.00000000000E+00  0.00000000000E+00  0.99999998245E-14  0.12509000000E+03  0.12509000000E+03 0.  0.
        -13    1    3    3    0    0  0.16626604372E+01 -0.12634651689E+02 -0.32001467823E+02  0.34445666925E+02  0.10566000000E+00 0. -1.
         23    2    1    0    0    0 -0.25728776596E+02  0.23722476768E+02  0.76688197058E-02  0.90093915820E+02  0.83019201151E+02 0.  0.
         13    1    3    3    0    0 -0.27391437034E+02  0.36357128457E+02  0.32009136643E+02  0.55648248895E+02  0.10566000000E+00 0.  1.
         22    1    1    0    0    0  0.25728776596E+02 -0.23722476768E+02 -0.76688197058E-02  0.34996084180E+02  0.00000000000E+00 0.  1.
</event>
<event>
 5    1  0.1255769E-009  0.9118800E+02  0.7561462E-02  0.1125453E+00
         25   -1    0    0    0    0  0.00000000000E+00  0.00000000000E+00  0.99999998245E-14  0.12509000000E+03  0.12509000000E+03 0.  0.
        -13    1    3    3    0    0  0.85832145979E+01 -0.43563184674E+02 -0.39876197101E+02  0.59678680373E+02  0.10566000000E+00 0. -1.
         23    2    1    0    0    0  0.16696017462E+02 -0.16268874609E+02 -0.16330213040E+02  0.96627583762E+02  0.92340569662E+02 0.  0.
         13    1    3    3    0    0  0.81128028645E+01  0.27294310065E+02  0.23545984061E+02  0.36948903389E+02  0.10566000000E+00 0.  1.
         22    1    1    0    0    0 -0.16696017462E+02  0.16268874609E+02  0.16330213040E+02  0.28462416238E+02  0.00000000000E+00 0.  1.
</event>
<event>
 5    1  0.1255769E-009  0.9118800E+02  0.7561462E-02  0.1125453E+00
         25   -1    0    0    0    0  0.00000000000E+00  0.00000000000E+00  0.99999998245E-14  0.12509000000E+03  0.12509000000E+03 0.  0.
        -13    1    3    3    0    0 -0.20120982513E+02  0.11373015855E+02 -0.24734126214E+02  0.33852438472E+02  0.10566000000E+00 0.  1.
         23    2    1    0    0    0  0.99168043486E+01  0.30384574209E+02  0.17173333814E+02  0.88806549879E+02  0.81056243121E+02 0.  0.
         13    1    3    3    0    0  0.30037786861E+02  0.19011558354E+02  0.41907460028E+02  0.54954111407E+02  0.10566000000E+00 0. -1.
         22    1    1    0    0    0 -0.99168043486E+01 -0.30384574209E+02 -0.17173333814E+02  0.36283450121E+02  0.00000000000E+00 0. -1.
</event>
<event>
 5    1  0.1255769E-009  0.9118800E+02  0.7561462E-02  0.1125453E+00
         25   -1    0    0    0    0  0.00000000000E+00  0.00000000000E+00  0.99999998245E-14  0.12509000000E+03  0.12509000000E+03 0.  0.
        -13    1    3    3    0    0 -0.64230226003E-01 -0.19774819337E+02  0.39438286039E+02  0.44118444840E+02  0.10566000000E+00 0.  1.
         23    2    1    0    0    0  0.47843704041E+01 -0.31004385014E+02 -0.76747469707E+01  0.92793501252E+02  0.86991781470E+02 0.  0.
         13    1    3    3    0    0  0.48486006301E+01 -0.11229565677E+02 -0.47113033010E+02  0.48675056413E+02  0.10566000000E+00 0. -1.
         22    1    1    0    0    0 -0.47843704041E+01  0.31004385014E+02  0.76747469707E+01  0.32296498748E+02  0.00000000000E+00 0. -1.
</event>
<event>
 5    1  0.1255769E-009  0.9118800E+02  0.7561462E-02  0.1125453E+00
         25   -1    0    0    0    0  0.00000000000E+00  0.00000000000E+00  0.99999998245E-14  0.12509000000E+03  0.12509000000E+03 0.  0.
        -13    1    3    3    0    0 -0.83542508559E+01  0.33075676898E+02 -0.12720582959E+02  0.36409041521E+02  0.10566000000E+00 0. -1.
         23    2    1    0    0    0 -0.93695853052E+01 -0.26498751422E+02 -0.23788505192E+01  0.96883052531E+02  0.92685996689E+02 0.  0.
         13    1    3    3    0    0 -0.10153344494E+01 -0.59574428320E+02  0.10341732440E+02  0.60474011010E+02  0.10566000000E+00 0.  1.
         22    1    1    0    0    0  0.93695853052E+01  0.26498751422E+02  0.23788505192E+01  0.28206947469E+02  0.00000000000E+00 0.  1.
</event>
<event>
 5    1  0.1255769E-009  0.9118800E+02  0.7561462E-02  0.1125453E+00
         25   -1    0    0    0    0  0.00000000000E+00  0.00000000000E+00  0.99999998245E-14  0.12509000000E+03  0.12509000000E+03 0.  0.
        -13    1    3    3    0    0  0.36038716744E+02  0.27706228046E+02 -0.56490726076E+01  0.45807721647E+02  0.10566000000E+00 0. -1.
         23    2    1    0    0    0 -0.13951091551E+02  0.21925085726E+02 -0.11881565825E+02  0.96515291848E+02  0.92188326888E+02 0.  0.
         13    1    3    3    0    0 -0.49989808295E+02 -0.57811423200E+01 -0.62324932171E+01  0.50707570201E+02  0.10566000000E+00 0.  1.
         22    1    1    0    0    0  0.13951091551E+02 -0.21925085726E+02  0.11881565825E+02  0.28574708152E+02  0.00000000000E+00 0.  1.
</event>
<event>
 5    1  0.1255769E-009  0.9118800E+02  0.7561462E-02  0.1125453E+00
         25   -1    0    0    0    0  0.00000000000E+00  0.00000000000E+00  0.99999998245E-14  0.12509000000E+03  0.12509000000E+03 0.  0.
        -13    1    3    3    0    0  0.36499396461E+02 -0.27406823759E+02  0.24515193737E+02  0.51810672825E+02  0.10566000000E+00 0.  1.
         23    2    1    0    0    0  0.28145649986E+02  0.54804021333E+01 -0.40063323373E+01  0.96137226049E+02  0.91673895482E+02 0.  0.
         13    1    3    3    0    0 -0.83537464749E+01  0.32887225892E+02 -0.28521526074E+02  0.44326553224E+02  0.10566000000E+00 0. -1.
         22    1    1    0    0    0 -0.28145649986E+02 -0.54804021333E+01  0.40063323373E+01  0.28952773951E+02  0.00000000000E+00 0.  1.
</event>
<event>
 5    1  0.1255769E-009  0.9118800E+02  0.7561462E-02  0.1125453E+00
         25   -1    0    0    0    0  0.00000000000E+00  0.00000000000E+00  0.99999998245E-14  0.12509000000E+03  0.12509000000E+03 0.  0.
        -13    1    3    3    0    0 -0.16772936364E+02  0.50286212640E+02  0.29869339419E+02  0.60845896964E+02  0.10566000000E+00 0. -1.
         23    2    1    0    0    0  0.20214209125E+01  0.26154197344E+02  0.15244677710E+02  0.94749789392E+02  0.89760760972E+02 0.  0.
         13    1    3    3    0    0  0.18794357276E+02 -0.24132015296E+02 -0.14624661709E+02  0.33903892429E+02  0.10566000000E+00 0.  1.
         22    1    1    0    0    0 -0.20214209125E+01 -0.26154197344E+02 -0.15244677710E+02  0.30340210608E+02  0.00000000000E+00 0. -1.
</event>
<event>
 5    1  0.1255769E-009  0.9118800E+02  0.7561462E-02  0.1125453E+00
         25   -1    0    0    0    0  0.00000000000E+00  0.00000000000E+00  0.99999998245E-14  0.12509000000E+03  0.12509000000E+03 0.  0.
        -13    1    3    3    0    0  0.27023373042E+02 -0.31846675449E+02  0.23810359004E+02  0.48077206529E+02  0.10566000000E+00 0.  1.
         23    2    1    0    0    0  0.17433609423E+02 -0.11219498066E+02 -0.19264308140E+02  0.96789444484E+02  0.92559576064E+02 0.  0.
         13    1    3    3    0    0 -0.95897636188E+01  0.20627177382E+02 -0.43074667144E+02  0.48712237955E+02  0.10566000000E+00 0. -1.
         22    1    1    0    0    0 -0.17433609423E+02  0.11219498066E+02  0.19264308140E+02  0.28300555516E+02  0.00000000000E+00 0.  1.
</event>
<event>
 5    1  0.1255769E-009  0.9118800E+02  0.7561462E-02  0.1125453E+00
         25   -1    0    0    0    0  0.00000000000E+00  0.00000000000E+00  0.99999998245E-14  0.12509000000E+03  0.12509000000E+03 0.  0.
        -13    1    3    3    0    0  0.80865284331E+00  0.41538725956E+02  0.10848170919E+01  0.41560891059E+02  0.10566000000E+00 0.  1.
         23    2    1    0    0    0  0.27798372424E+02 -0.61426587195E+01  0.35141845174E+01  0.96404964556E+02  0.92038502447E+02 0.  0.
         13    1    3    3    0    0  0.26989719581E+02 -0.47681384676E+02  0.24293674256E+01  0.54844073497E+02  0.10566000000E+00 0. -1.
         22    1    1    0    0    0 -0.27798372424E+02  0.61426587195E+01 -0.35141845174E+01  0.28685035444E+02  0.00000000000E+00 0. -1.
</event>
<event>
 5    1  0.1255769E-009  0.9118800E+02  0.7561462E-02  0.1125453E+00
         25   -1    0    0    0    0  0.00000000000E+00  0.00000000000E+00  0.99999998245E-14  0.12509000000E+03  0.12509000000E+03 0.  0.
        -13    1    3    3    0    0  0.22111349141E+02 -0.32092699655E+02 -0.48573714813E+02  0.62275758259E+02  0.10566000000E+00 0.  1.
         23    2    1    0    0    0  0.13650818461E+02 -0.16964940708E+02 -0.21042383193E+02  0.94809049745E+02  0.89843307849E+02 0.  0.
         13    1    3    3    0    0 -0.84605306802E+01  0.15127758947E+02  0.27531331619E+02  0.32533291486E+02  0.10566000000E+00 0. -1.
         22    1    1    0    0    0 -0.13650818461E+02  0.16964940708E+02  0.21042383193E+02  0.30280950255E+02  0.00000000000E+00 0.  1.
</event>
<event>
 5    1  0.1255769E-009  0.9118800E+02  0.7561462E-02  0.1125453E+00
         25   -1    0    0    0    0  0.00000000000E+00  0.00000000000E+00  0.99999998245E-14  0.12509000000E+03  0.12509000000E+03 0.  0.
        -13    1    3    3    0    0 -0.14401350693E+02 -0.20932444348E+02 -0.48592500520E+02  0.54834372423E+02  0.10566000000E+00 0.  1.
         23    2    1    0    0    0 -0.25486075820E+02 -0.76814023233E+01 -0.10846019713E+02  0.96346650404E+02  0.91959213232E+02 0.  0.
         13    1    3    3    0    0 -0.11084725127E+02  0.13251042025E+02  0.37746480807E+02  0.41512277982E+02  0.10566000000E+00 0. -1.
         22    1    1    0    0    0  0.25486075820E+02  0.76814023233E+01  0.10846019713E+02  0.28743349596E+02  0.00000000000E+00 0.  1.
</event>
<event>
 5    1  0.1255769E-009  0.9118800E+02  0.7561462E-02  0.1125453E+00
         25   -1    0    0    0    0  0.00000000000E+00  0.00000000000E+00  0.99999998245E-14  0.12509000000E+03  0.12509000000E+03 0.  0.
        -13    1    3    3    0    0 -0.37434023372E+02  0.72159926122E+01 -0.12250666833E+02  0.40043309767E+02  0.10566000000E+00 0. -1.
         23    2    1    0    0    0  0.11738830031E+02 -0.11952808075E+02 -0.25611893673E+02  0.94485443985E+02  0.89391611889E+02 0.  0.
         13    1    3    3    0    0  0.49172853402E+02 -0.19168800687E+02 -0.13361226840E+02  0.54442134218E+02  0.10566000000E+00 0.  1.
         22    1    1    0    0    0 -0.11738830031E+02  0.11952808075E+02  0.25611893673E+02  0.30604556015E+02  0.00000000000E+00 0.  1.
</event>
<event>
 5    1  0.1255769E-009  0.9118800E+02  0.7561462E-02  0.1125453E+00
         25   -1    0    0    0    0  0.00000000000E+00  0.00000000000E+00  0.99999998245E-14  0.12509000000E+03  0.12509000000E+03 0.  0.
        -13    1    3    3    0    0  0.44735475458E+02  0.27776192780E+02 -0.30294400675E+02  0.60749827375E+02  0.10566000000E+00 0. -1.
         23    2    1    0    0    0  0.14977030496E+02  0.16683990393E+02 -0.22231828299E+02  0.93515941543E+02  0.88024486112E+02 0.  0.
         13    1    3    3    0    0 -0.29758444962E+02 -0.11092202386E+02  0.80625723753E+01  0.32766114168E+02  0.10566000000E+00 0.  1.
         22    1    1    0    0    0 -0.14977030496E+02 -0.16683990393E+02  0.22231828299E+02  0.31574058457E+02  0.00000000000E+00 0. -1.
</event>
<event>
 5    1  0.1255769E-009  0.9118800E+02  0.7561462E-02  0.1125453E+00
         25   -1    0    0    0    0  0.00000000000E+00  0.00000000000E+00  0.99999998245E-14  0.12509000000E+03  0.12509000000E+03 0.  0.
        -13    1    3    3    0    0 -0.25146608048E+02 -0.26626406746E+02  0.38900040406E+02  0.53427911621E+02  0.10566000000E+00 0. -1.
         23    2    1    0    0    0 -0.27355806145E+02  0.23016460779E+01  0.65792009169E+01  0.96860164910E+02  0.92655102164E+02 0.  0.
         13    1    3    3    0    0 -0.22091980971E+01  0.28928052824E+02 -0.32320839489E+02  0.43432253289E+02  0.10566000000E+00 0.  1.
         22    1    1    0    0    0  0.27355806145E+02 -0.23016460779E+01 -0.65792009169E+01  0.28229835090E+02  0.00000000000E+00 0. -1.
</event>
<event>
 5    1  0.1255769E-009  0.9118800E+02  0.7561462E-02  0.1125453E+00
         25   -1    0    0    0    0  0.00000000000E+00  0.00000000000E+00  0.99999998245E-14  0.12509000000E+03  0.12509000000E+03 0.  0.
        -13    1    3    3    0    0  0.11229395757E+02  0.31273130631E+02  0.24039338205E+02  0.41012302715E+02  0.10566000000E+00 0.  1.
         23    2    1    0    0    0 -0.29424054904E+02  0.51033300930E+01 -0.48015458889E+00  0.95222801714E+02  0.90417544939E+02 0.  0.
         13    1    3    3    0    0 -0.40653450661E+02 -0.26169800538E+02 -0.24519492794E+02  0.54210499000E+02  0.10566000000E+00 0. -1.
         22    1    1    0    0    0  0.29424054904E+02 -0.51033300930E+01  0.48015458889E+00  0.29867198286E+02  0.00000000000E+00 0.  1.
</event>
<event>
 5    1  0.1255769E-009  0.9118800E+02  0.7561462E-02  0.1125453E+00
         25   -1    0    0    0    0  0.00000000000E+00  0.00000000000E+00  0.99999998245E-14  0.12509000000E+03  0.12509000000E+03 0.  0.
        -13    1    3    3    0    0 -0.40841171935E+02 -0.12509929239E+02  0.68311787911E+00  0.42719755017E+02  0.10566000000E+00 0. -1.
         23    2    1    0    0    0 -0.57666952751E+01  0.25512025593E+02 -0.12497960606E+02  0.96101774052E+02  0.91625508088E+02 0.  0.
         13    1    3    3    0    0  0.35074476660E+02  0.38021954832E+02 -0.13181078485E+02  0.53382019036E+02  0.10566000000E+00 0.  1.
         22    1    1    0    0    0  0.57666952751E+01 -0.25512025593E+02  0.12497960606E+02  0.28988225948E+02  0.00000000000E+00 0. -1.
</event>
<event>
 5    1  0.1255769E-009  0.9118800E+02  0.7561462E-02  0.1125453E+00
         25   -1    0    0    0    0  0.00000000000E+00  0.00000000000E+00  0.99999998245E-14  0.12509000000E+03  0.12509000000E+03 0.  0.
        -13    1    3    3    0    0 -0.35305184845E+01  0.42439557566E+02  0.85039901551E+01  0.43427060915E+02  0.10566000000E+00 0.  1.
         23    2    1    0    0    0  0.22471162333E+02  0.66059094112E+01 -0.18462184471E+02  0.95266461793E+02  0.90477927205E+02 0.  0.
         13    1    3    3    0    0  0.26001680818E+02 -0.35833648154E+02 -0.26966174626E+02  0.51839400878E+02  0.10566000000E+00 0. -1.
         22    1    1    0    0    0 -0.22471162333E+02 -0.66059094112E+01  0.18462184471E+02  0.29823538207E+02  0.00000000000E+00 0. -1.
</event>
<event>
 5    1  0.1255769E-009  0.9118800E+02  0.7561462E-02  0.1125453E+00
         25   -1    0    0    0    0  0.00000000000E+00  0.00000000000E+00  0.99999998245E-14  0.12509000000E+03  0.12509000000E+03 0.  0.
        -13    1    3    3    0    0 -0.29117659676E+02 -0.17827620982E+02 -0.13155030493E+01  0.34167292652E+02  0.10566000000E+00 0. -1.
         23    2    1    0    0    0  0.17339465111E+02  0.20153903163E+02  0.12449536800E+02  0.95733095709E+02  0.91120786785E+02 0.  0.
         13    1    3    3    0    0  0.46457124787E+02  0.37981524145E+02  0.13765039849E+02  0.61565803056E+02  0.10566000000E+00 0.  1.
         22    1    1    0    0    0 -0.17339465111E+02 -0.20153903163E+02 -0.12449536800E+02  0.29356904291E+02  0.00000000000E+00 0.  1.
</event>
<event>
 5    1  0.1255769E-009  0.9118800E+02  0.7561462E-02  0.1125453E+00
         25   -1    0    0    0    0  0.00000000000E+00  0.00000000000E+00  0.99999998245E-14  0.12509000000E+03  0.12509000000E+03 0.  0.
        -13    1    3    3    0    0  0.27865008248E+00  0.50526126846E+02  0.17413939700E+02  0.53443648825E+02  0.10566000000E+00 0.  1.
         23    2    1    0    0    0  0.21072020255E+02  0.14232498952E+02  0.15488207778E+02  0.95316208770E+02  0.90546678625E+02 0.  0.
         13    1    3    3    0    0  0.20793370173E+02 -0.36293627894E+02 -0.19257319217E+01  0.41872559945E+02  0.10566000000E+00 0. -1.
         22    1    1    0    0    0 -0.21072020255E+02 -0.14232498952E+02 -0.15488207778E+02  0.29773791230E+02  0.00000000000E+00 0.  1.
</event>
<event>
 5    1  0.1255769E-009  0.9118800E+02  0.7561462E-02  0.1125453E+00
         25   -1    0    0    0    0  0.00000000000E+00  0.00000000000E+00  0.99999998245E-14  0.12509000000E+03  0.12509000000E+03 0.  0.
        -13    1    3    3    0    0 -0.13947503311E+02 -0.15890353711E+02 -0.20255901156E+02  0.29280520579E+02  0.10566000000E+00 0. -1.
         23    2    1    0    0    0  0.16769887683E+02 -0.26260665649E+00  0.30295036030E+02  0.90462159998E+02  0.83572214810E+02 0.  0.
         13    1    3    3    0    0  0.30717390994E+02  0.15627747055E+02  0.50550937187E+02  0.61181639419E+02  0.10566000000E+00 0.  1.
         22    1    1    0    0    0 -0.16769887683E+02  0.26260665649E+00 -0.30295036030E+02  0.34627840002E+02  0.00000000000E+00 0.  1.
</event>
<event>
 5    1  0.1255769E-009  0.9118800E+02  0.7561462E-02  0.1125453E+00
         25   -1    0    0    0    0  0.00000000000E+00  0.00000000000E+00  0.99999998245E-14  0.12509000000E+03  0.12509000000E+03 0.  0.
        -13    1    3    3    0    0 -0.19713649041E+02 -0.46529638519E+02  0.27311312375E+02  0.57441745855E+02  0.10566000000E+00 0.  1.
         23    2    1    0    0    0  0.66942514679E+01 -0.27541492330E+02  0.66443296849E+01  0.95978251179E+02  0.91456715336E+02 0.  0.
         13    1    3    3    0    0  0.26407900509E+02  0.18988146190E+02 -0.20666982690E+02  0.38536505324E+02  0.10566000000E+00 0. -1.
         22    1    1    0    0    0 -0.66942514679E+01  0.27541492330E+02 -0.66443296849E+01  0.29111748821E+02  0.00000000000E+00 0.  1.
</event>
<event>
 5    1  0.1255769E-009  0.9118800E+02  0.7561462E-02  0.1125453E+00
         25   -1    0    0    0    0  0.00000000000E+00  0.00000000000E+00  0.99999998245E-14  0.12509000000E+03  0.12509000000E+03 0.  0.
        -13    1    3    3    0    0 -0.30361398901E+02  0.67226927867E+01 -0.25284165193E+02  0.40078788842E+02  0.10566000000E+00 0. -1.
         23    2    1    0    0    0  0.23769437630E+02 -0.79580719593E+01 -0.84719718558E+01  0.98630759995E+02  0.95015448404E+02 0.  0.
         13    1    3    3    0    0  0.54130836530E+02 -0.14680764746E+02  0.16812193337E+02  0.58551971153E+02  0.10566000000E+00 0.  1.
         22    1    1    0    0    0 -0.23769437630E+02  0.79580719593E+01  0.84719718558E+01  0.26459240005E+02  0.00000000000E+00 0.  1.
</event>
<event>
 5    1  0.1255769E-009  0.9118800E+02  0.7561462E-02  0.1125453E+00
         25   -1    0    0    0    0  0.00000000000E+00  0.00000000000E+00  0.99999998245E-14  0.12509000000E+03  0.12509000000E+03 0.  0.
        -13    1    3    3    0    0  0.29169118149E+01 -0.46227908041E+01  0.57782563546E+02  0.58040627007E+02  0.10566000000E+00 0.  1.
         23    2    1    0    0    0  0.14946641240E+02 -0.11563022218E+02  0.24170354303E+02  0.94409198278E+02  0.89284853840E+02 0.  0.
         13    1    3    3    0    0  0.12029729425E+02 -0.69402314140E+01 -0.33612209243E+02  0.36368571271E+02  0.10566000000E+00 0. -1.
         22    1    1    0    0    0 -0.14946641240E+02  0.11563022218E+02 -0.24170354303E+02  0.30680801722E+02  0.00000000000E+00 0.  1.
</event>
<event>
 5    1  0.1255769E-009  0.9118800E+02  0.7561462E-02  0.1125453E+00
         25   -1    0    0    0    0  0.00000000000E+00  0.00000000000E+00  0.99999998245E-14  0.12509000000E+03  0.12509000000E+03 0.  0.
        -13    1    3    3    0    0 -0.37147801846E+02  0.20188280261E+01 -0.27572608389E+02  0.46306530274E+02  0.10566000000E+00 0.  1.
         23    2    1    0    0    0  0.11933945161E+01  0.27601217315E+02 -0.12132600036E+02  0.94916313262E+02  0.89992528312E+02 0.  0.
         13    1    3    3    0    0  0.38341196362E+02  0.25582389289E+02  0.15440008354E+02  0.48609782988E+02  0.10566000000E+00 0. -1.
         22    1    1    0    0    0 -0.11933945161E+01 -0.27601217315E+02  0.12132600036E+02  0.30173686738E+02  0.00000000000E+00 0.  1.
</event>
<event>
 5    1  0.1255769E-009  0.9118800E+02  0.7561462E-02  0.1125453E+00
         25   -1    0    0    0    0  0.00000000000E+00  0.00000000000E+00  0.99999998245E-14  0.12509000000E+03  0.12509000000E+03 0.  0.
        -13    1    3    3    0    0  0.19589417901E+02  0.28958595861E+02 -0.17609410647E+02  0.39146495058E+02  0.10566000000E+00 0.  1.
         23    2    1    0    0    0  0.16683759066E+02 -0.12405451874E+02  0.20809189474E+02  0.95674605742E+02  0.91040456747E+02 0.  0.
         13    1    3    3    0    0 -0.29056588347E+01 -0.41364047735E+02  0.38418600121E+02  0.56528110684E+02  0.10566000000E+00 0. -1.
         22    1    1    0    0    0 -0.16683759066E+02  0.12405451874E+02 -0.20809189474E+02  0.29415394258E+02  0.00000000000E+00 0. -1.
</event>
<event>
 5    1  0.1255769E-009  0.9118800E+02  0.7561462E-02  0.1125453E+00
         25   -1    0    0    0    0  0.00000000000E+00  0.00000000000E+00  0.99999998245E-14  0.12509000000E+03  0.12509000000E+03 0.  0.
        -13    1    3    3    0    0  0.33919337718E+02  0.25629826864E+02  0.98310853286E+01  0.43635660865E+02  0.10566000000E+00 0. -1.
         23    2    1    0    0    0  0.21365046370E+02 -0.13854370101E+02 -0.18314836106E+02  0.93723744264E+02  0.88319297099E+02 0.  0.
         13    1    3    3    0    0 -0.12554291348E+02 -0.39484196965E+02 -0.28145921435E+02  0.50088083400E+02  0.10566000000E+00 0.  1.
         22    1    1    0    0    0 -0.21365046370E+02  0.13854370101E+02  0.18314836106E+02  0.31366255736E+02  0.00000000000E+00 0.  1.
</event>
<event>
 5    1  0.1255769E-009  0.9118800E+02  0.7561462E-02  0.1125453E+00
         25   -1    0    0    0    0  0.00000000000E+00  0.00000000000E+00  0.99999998245E-14  0.12509000000E+03  0.12509000000E+03 0.  0.
        -13    1    3    3    0    0  0.53651073892E+02 -0.20839052740E+02  0.12631113963E+02  0.58925886101E+02  0.10566000000E+00 0.  1.
         23    2    1    0    0    0  0.21866000645E+02 -0.24399755175E+02  0.89808211029E+01  0.91117582004E+02  0.84547552098E+02 0.  0.
         13    1    3    3    0    0 -0.31785073246E+02 -0.35607024346E+01 -0.36502928596E+01  0.32191695903E+02  0.10566000000E+00 0. -1.
         22    1    1    0    0    0 -0.21866000645E+02  0.24399755175E+02 -0.89808211029E+01  0.33972417996E+02  0.00000000000E+00 0.  1.
</event>
<event>
 5    1  0.1255769E-009  0.9118800E+02  0.7561462E-02  0.1125453E+00
         25   -1    0    0    0    0  0.00000000000E+00  0.00000000000E+00  0.99999998245E-14  0.12509000000E+03  0.12509000000E+03 0.  0.
        -13    1    3    3    0    0 -0.61554526117E+01 -0.42037048689E+02  0.23818575885E+02  0.48706660536E+02  0.10566000000E+00 0.  1.
         23    2    1    0    0    0  0.61734254577E+01  0.24149144471E+01  0.29197595928E+02  0.95149348677E+02  0.90315867665E+02 0.  0.
         13    1    3    3    0    0  0.12328878069E+02  0.44451963136E+02  0.53790200425E+01  0.46442688141E+02  0.10566000000E+00 0. -1.
         22    1    1    0    0    0 -0.61734254577E+01 -0.24149144471E+01 -0.29197595928E+02  0.29940651323E+02  0.00000000000E+00 0.  1.
</event>
<event>
 5    1  0.1255769E-009  0.9118800E+02  0.7561462E-02  0.1125453E+00
         25   -1    0    0    0    0  0.00000000000E+00  0.00000000000E+00  0.99999998245E-14  0.12509000000E+03  0.12509000000E+03 0.  0.
        -13    1    3    3    0    0 -0.34151845573E+02 -0.43825124906E+02 -0.16999819363E+02  0.58103314462E+02  0.10566000000E+00 0.  1.
         23    2    1    0    0    0 -0.11854298543E+02 -0.27472620206E+02  0.65922118888E+01  0.94451355896E+02  0.89343898047E+02 0.  0.
         13    1    3    3    0    0  0.22297547030E+02  0.16352504700E+02  0.23592031251E+02  0.36348041434E+02  0.10566000000E+00 0. -1.
         22    1    1    0    0    0  0.11854298543E+02  0.27472620206E+02 -0.65922118888E+01  0.30638644104E+02  0.00000000000E+00 0.  1.
</event>
<event>
 5    1  0.1255769E-009  0.9118800E+02  0.7561462E-02  0.1125453E+00
         25   -1    0    0    0    0  0.00000000000E+00  0.00000000000E+00  0.99999998245E-14  0.12509000000E+03  0.12509000000E+03 0.  0.
        -13    1    3    3    0    0  0.22514544422E+02 -0.35300036097E+02 -0.58704496888E+01  0.42278488651E+02  0.10566000000E+00 0.  1.
         23    2    1    0    0    0 -0.10438414691E+02  0.16749094200E+02  0.47496386233E+01  0.10479094276E+03  0.10280607939E+03 0.  0.
         13    1    3    3    0    0 -0.32952959113E+02  0.52049130297E+02  0.10620088312E+02  0.62512454109E+02  0.10566000000E+00 0. -1.
         22    1    1    0    0    0  0.10438414691E+02 -0.16749094200E+02 -0.47496386233E+01  0.20299057240E+02  0.00000000000E+00 0. -1.
</event>
<event>
 5    1  0.1255769E-009  0.9118800E+02  0.7561462E-02  0.1125453E+00
         25   -1    0    0    0    0  0.00000000000E+00  0.00000000000E+00  0.99999998245E-14  0.12509000000E+03  0.12509000000E+03 0.  0.
        -13    1    3    3    0    0  0.76850769417E+01  0.37021636477E+02 -0.21881693861E+01  0.37874281833E+02  0.10566000000E+00 0.  1.
         23    2    1    0    0    0 -0.26711611836E+02 -0.85704605503E+01 -0.95440463152E+01  0.95458060796E+02  0.90742435222E+02 0.  0.
         13    1    3    3    0    0 -0.34396688778E+02 -0.45592097028E+02 -0.73558769292E+01  0.57583778963E+02  0.10566000000E+00 0. -1.
         22    1    1    0    0    0  0.26711611836E+02  0.85704605503E+01  0.95440463152E+01  0.29631939204E+02  0.00000000000E+00 0.  1.
</event>
<event>
 5    1  0.1255769E-009  0.9118800E+02  0.7561462E-02  0.1125453E+00
         25   -1    0    0    0    0  0.00000000000E+00  0.00000000000E+00  0.99999998245E-14  0.12509000000E+03  0.12509000000E+03 0.  0.
        -13    1    3    3    0    0 -0.26625808244E+02  0.27569186635E+02  0.39045621076E+01  0.38525971573E+02  0.10566000000E+00 0. -1.
         23    2    1    0    0    0  0.15207414170E+02 -0.52056110592E+01  0.24722671807E+02  0.95601454198E+02  0.90939890649E+02 0.  0.
         13    1    3    3    0    0  0.41833222414E+02 -0.32774797694E+02  0.20818109699E+02  0.57075482625E+02  0.10566000000E+00 0.  1.
         22    1    1    0    0    0 -0.15207414170E+02  0.52056110592E+01 -0.24722671807E+02  0.29488545802E+02  0.00000000000E+00 0.  1.
</event>
<event>
 5    1  0.1255769E-009  0.9118800E+02  0.7561462E-02  0.1125453E+00
         25   -1    0    0    0    0  0.00000000000E+00  0.00000000000E+00  0.99999998245E-14  0.12509000000E+03  0.12509000000E+03 0.  0.
        -13    1    3    3    0    0  0.12887605599E+02 -0.20561778050E+02 -0.30772067248E+02  0.39189391185E+02  0.10566000000E+00 0.  1.
         23    2    1    0    0    0 -0.86108017290E+01 -0.21442404766E+02  0.20125133198E+02  0.94447813153E+02  0.89338937729E+02 0.  0.
         13    1    3    3    0    0 -0.21498407328E+02 -0.88062671544E+00  0.50897200447E+02  0.55258421968E+02  0.10566000000E+00 0. -1.
         22    1    1    0    0    0  0.86108017290E+01  0.21442404766E+02 -0.20125133198E+02  0.30642186847E+02  0.00000000000E+00 0. -1.
</event>
<event>
 5    1  0.1255769E-009  0.9118800E+02  0.7561462E-02  0.1125453E+00
         25   -1    0    0    0    0  0.00000000000E+00  0.00000000000E+00  0.99999998245E-14  0.12509000000E+03  0.12509000000E+03 0.  0.
        -13    1    3    3    0    0 -0.14383604406E+02 -0.32440665402E+02 -0.28037841675E+02  0.45226281930E+02  0.10566000000E+00 0. -1.
         23    2    1    0    0    0 -0.41032407326E+01  0.16498692588E+02 -0.24380036466E+02  0.95367456036E+02  0.90617448933E+02 0.  0.
         13    1    3    3    0    0  0.10280363673E+02  0.48939357990E+02  0.36578052087E+01  0.50141174105E+02  0.10566000000E+00 0.  1.
         22    1    1    0    0    0  0.41032407326E+01 -0.16498692588E+02  0.24380036466E+02  0.29722543964E+02  0.00000000000E+00 0.  1.
</event>
<event>
 5    1  0.1255769E-009  0.9118800E+02  0.7561462E-02  0.1125453E+00
         25   -1    0    0    0    0  0.00000000000E+00  0.00000000000E+00  0.99999998245E-14  0.12509000000E+03  0.12509000000E+03 0.  0.
        -13    1    3    3    0    0  0.20832927871E+02  0.41440341942E+02  0.12440175413E+02  0.48021682106E+02  0.10566000000E+00 0.  1.
         23    2    1    0    0    0 -0.17987989419E+02  0.19307463184E+02 -0.84927186452E+01  0.97368669441E+02  0.93339089458E+02 0.  0.
         13    1    3    3    0    0 -0.38820917290E+02 -0.22132878758E+02 -0.20932894059E+02  0.49346987335E+02  0.10566000000E+00 0. -1.
         22    1    1    0    0    0  0.17987989419E+02 -0.19307463184E+02  0.84927186452E+01  0.27721330559E+02  0.00000000000E+00 0.  1.
</event>
<event>
 5    1  0.1255769E-009  0.9118800E+02  0.7561462E-02  0.1125453E+00
         25   -1    0    0    0    0  0.00000000000E+00  0.00000000000E+00  0.99999998245E-14  0.12509000000E+03  0.12509000000E+03 0.  0.
        -13    1    3    3    0    0  0.18002873819E+02  0.27299037974E+02  0.13679828440E+02  0.35447000018E+02  0.10566000000E+00 0.  1.
         23    2    1    0    0    0 -0.26484500329E+02 -0.26292070919E+01 -0.13151440215E+02  0.95403271192E+02  0.90666875355E+02 0.  0.
         13    1    3    3    0    0 -0.44487374148E+02 -0.29928245066E+02 -0.26831268656E+02  0.59956271174E+02  0.10566000000E+00 0. -1.
         22    1    1    0    0    0  0.26484500329E+02  0.26292070919E+01  0.13151440215E+02  0.29686728808E+02  0.00000000000E+00 0. -1.
</event>
<event>
 5    1  0.1255769E-009  0.9118800E+02  0.7561462E-02  0.1125453E+00
         25   -1    0    0    0    0  0.00000000000E+00  0.00000000000E+00  0.99999998245E-14  0.12509000000E+03  0.12509000000E+03 0.  0.
        -13    1    3    3    0    0  0.34769535114E+02 -0.19789707845E+02  0.37645291567E+02  0.54933889812E+02  0.10566000000E+00 0. -1.
         23    2    1    0    0    0  0.28184618054E+02 -0.12549931609E+02 -0.41741134134E+00  0.94234729616E+02  0.89040083981E+02 0.  0.
         13    1    3    3    0    0 -0.65849170603E+01  0.72397762357E+01 -0.38062702908E+02  0.39300839805E+02  0.10566000000E+00 0.  1.
         22    1    1    0    0    0 -0.28184618054E+02  0.12549931609E+02  0.41741134134E+00  0.30855270384E+02  0.00000000000E+00 0. -1.
</event>
<event>
 5    1  0.1255769E-009  0.9118800E+02  0.7561462E-02  0.1125453E+00
         25   -1    0    0    0    0  0.00000000000E+00  0.00000000000E+00  0.99999998245E-14  0.12509000000E+03  0.12509000000E+03 0.  0.
        -13    1    3    3    0    0  0.11150130229E+02  0.14583006183E+02 -0.48181200243E+02  0.51559952428E+02  0.10566000000E+00 0. -1.
         23    2    1    0    0    0  0.13820579224E+01  0.32902172008E+02 -0.38380540668E+02  0.74517982946E+02  0.54730255557E+02 0.  0.
         13    1    3    3    0    0 -0.97680723068E+01  0.18319165825E+02  0.98006595749E+01  0.22958030518E+02  0.10566000000E+00 0.  1.
         22    1    1    0    0    0 -0.13820579224E+01 -0.32902172008E+02  0.38380540668E+02  0.50572017054E+02  0.00000000000E+00 0. -1.
</event>
<event>
 5    1  0.1255769E-009  0.9118800E+02  0.7561462E-02  0.1125453E+00
         25   -1    0    0    0    0  0.00000000000E+00  0.00000000000E+00  0.99999998245E-14  0.12509000000E+03  0.12509000000E+03 0.  0.
        -13    1    3    3    0    0 -0.14681558546E+02  0.32974740651E+02  0.18033711796E+02  0.40349815458E+02  0.10566000000E+00 0. -1.
         23    2    1    0    0    0 -0.13006269651E+02 -0.18191974182E+02 -0.12007187867E+02  0.99707259105E+02  0.96422269123E+02 0.  0.
         13    1    3    3    0    0  0.16752888955E+01 -0.51166714833E+02 -0.30040899662E+02  0.59357443647E+02  0.10566000000E+00 0.  1.
         22    1    1    0    0    0  0.13006269651E+02  0.18191974182E+02  0.12007187867E+02  0.25382740895E+02  0.00000000000E+00 0.  1.
</event>
<event>
 5    1  0.1255769E-009  0.9118800E+02  0.7561462E-02  0.1125453E+00
         25   -1    0    0    0    0  0.00000000000E+00  0.00000000000E+00  0.99999998245E-14  0.12509000000E+03  0.12509000000E+03 0.  0.
        -13    1    3    3    0    0  0.16361652443E+02 -0.32081209293E+02  0.21871047653E+02  0.42133852777E+02  0.10566000000E+00 0.  1.
         23    2    1    0    0    0  0.25718801994E+02  0.12071309850E+02 -0.71512374282E+01  0.95793012198E+02  0.91203002647E+02 0.  0.
         13    1    3    3    0    0  0.93571495510E+01  0.44152519143E+02 -0.29022285081E+02  0.53659159421E+02  0.10566000000E+00 0. -1.
         22    1    1    0    0    0 -0.25718801994E+02 -0.12071309850E+02  0.71512374282E+01  0.29296987802E+02  0.00000000000E+00 0. -1.
</event>
<event>
 5    1  0.1255769E-009  0.9118800E+02  0.7561462E-02  0.1125453E+00
         25   -1    0    0    0    0  0.00000000000E+00  0.00000000000E+00  0.99999998245E-14  0.12509000000E+03  0.12509000000E+03 0.  0.
        -13    1    3    3    0    0 -0.65430626215E+01  0.12571901070E+02 -0.32813959378E+02  0.35743970947E+02  0.10566000000E+00 0. -1.
         23    2    1    0    0    0  0.21055301808E+02  0.11210515292E+01  0.19745376510E+02  0.96202937424E+02  0.91763515542E+02 0.  0.
         13    1    3    3    0    0  0.27598364430E+02 -0.11450849540E+02  0.52559335888E+02  0.60458966477E+02  0.10566000000E+00 0.  1.
         22    1    1    0    0    0 -0.21055301808E+02 -0.11210515292E+01 -0.19745376510E+02  0.28887062576E+02  0.00000000000E+00 0.  1.
</event>
<event>
 5    1  0.1255769E-009  0.9118800E+02  0.7561462E-02  0.1125453E+00
         25   -1    0    0    0    0  0.00000000000E+00  0.00000000000E+00  0.99999998245E-14  0.12509000000E+03  0.12509000000E+03 0.  0.
        -13    1    3    3    0    0 -0.63973888291E+01  0.39269405333E+02  0.23492981096E+02  0.46205455347E+02  0.10566000000E+00 0.  1.
         23    2    1    0    0    0  0.13897331402E+02  0.12447009262E+02 -0.17691125518E+02  0.99379306082E+02  0.95995868117E+02 0.  0.
         13    1    3    3    0    0  0.20294720231E+02 -0.26822396071E+02 -0.41184106614E+02  0.53173850734E+02  0.10566000000E+00 0. -1.
         22    1    1    0    0    0 -0.13897331402E+02 -0.12447009262E+02  0.17691125518E+02  0.25710693918E+02  0.00000000000E+00 0. -1.
</event>
<event>
 5    1  0.1255769E-009  0.9118800E+02  0.7561462E-02  0.1125453E+00
         25   -1    0    0    0    0  0.00000000000E+00  0.00000000000E+00  0.99999998245E-14  0.12509000000E+03  0.12509000000E+03 0.  0.
        -13    1    3    3    0    0 -0.13613186707E+02  0.15926498921E+02  0.26120735867E+02  0.33485462912E+02  0.10566000000E+00 0. -1.
         23    2    1    0    0    0  0.32445333841E+01 -0.11179725438E+02 -0.27128439436E+02  0.95569405765E+02  0.90895796571E+02 0.  0.
         13    1    3    3    0    0  0.16857720091E+02 -0.27106224359E+02 -0.53249175303E+02  0.62083942853E+02  0.10566000000E+00 0.  1.
         22    1    1    0    0    0 -0.32445333841E+01  0.11179725438E+02  0.27128439436E+02  0.29520594235E+02  0.00000000000E+00 0.  1.
</event>
<event>
 5    1  0.1255769E-009  0.9118800E+02  0.7561462E-02  0.1125453E+00
         25   -1    0    0    0    0  0.00000000000E+00  0.00000000000E+00  0.99999998245E-14  0.12509000000E+03  0.12509000000E+03 0.  0.
        -13    1    3    3    0    0 -0.10679156335E+02 -0.31195896766E+02  0.26787520493E+02  0.42483064547E+02  0.10566000000E+00 0.  1.
         23    2    1    0    0    0 -0.28899601575E+01  0.22328024609E+02  0.15554855532E+02  0.97724947775E+02  0.93815347009E+02 0.  0.
         13    1    3    3    0    0  0.77891961773E+01  0.53523921375E+02 -0.11232664961E+02  0.55241883228E+02  0.10566000000E+00 0. -1.
         22    1    1    0    0    0  0.28899601575E+01 -0.22328024609E+02 -0.15554855532E+02  0.27365052225E+02  0.00000000000E+00 0. -1.
</event>
<event>
 5    1  0.1255769E-009  0.9118800E+02  0.7561462E-02  0.1125453E+00
         25   -1    0    0    0    0  0.00000000000E+00  0.00000000000E+00  0.99999998245E-14  0.12509000000E+03  0.12509000000E+03 0.  0.
        -13    1    3    3    0    0 -0.19180248318E+02 -0.45717883601E+02  0.25582616398E+02  0.55789678546E+02  0.10566000000E+00 0.  1.
         23    2    1    0    0    0  0.12971641883E+02 -0.15210490895E+02  0.62449798570E+01  0.10414668842E+03  0.10201916687E+03 0.  0.
         13    1    3    3    0    0  0.32151890201E+02  0.30507392706E+02 -0.19337636541E+02  0.48357009876E+02  0.10566000000E+00 0. -1.
         22    1    1    0    0    0 -0.12971641883E+02  0.15210490895E+02 -0.62449798570E+01  0.20943311578E+02  0.00000000000E+00 0.  1.
</event>
<event>
 5    1  0.1255769E-009  0.9118800E+02  0.7561462E-02  0.1125453E+00
         25   -1    0    0    0    0  0.00000000000E+00  0.00000000000E+00  0.99999998245E-14  0.12509000000E+03  0.12509000000E+03 0.  0.
        -13    1    3    3    0    0  0.47255035708E+01 -0.98924788691E+01 -0.61271291709E+02  0.62244468620E+02  0.10566000000E+00 0.  1.
         23    2    1    0    0    0 -0.52580683618E-02 -0.11469549121E+01 -0.30202948327E+02  0.94865281294E+02  0.89921565679E+02 0.  0.
         13    1    3    3    0    0 -0.47307616392E+01  0.87455239570E+01  0.31068343382E+02  0.32620812674E+02  0.10566000000E+00 0. -1.
         22    1    1    0    0    0  0.52580683618E-02  0.11469549121E+01  0.30202948327E+02  0.30224718706E+02  0.00000000000E+00 0.  1.
</event>
<event>
 5    1  0.1255769E-009  0.9118800E+02  0.7561462E-02  0.1125453E+00
         25   -1    0    0    0    0  0.00000000000E+00  0.00000000000E+00  0.99999998245E-14  0.12509000000E+03  0.12509000000E+03 0.  0.
        -13    1    3    3    0    0 -0.38271271768E+02 -0.88918653609E+01  0.30969040666E+01  0.39412656485E+02  0.10566000000E+00 0.  1.
         23    2    1    0    0    0  0.20833172782E+02 -0.13959257941E+02  0.75490931430E+01  0.98900865273E+02  0.95370385205E+02 0.  0.
         13    1    3    3    0    0  0.59104444551E+02 -0.50673925802E+01  0.44521890764E+01  0.59488208788E+02  0.10566000000E+00 0. -1.
         22    1    1    0    0    0 -0.20833172782E+02  0.13959257941E+02 -0.75490931430E+01  0.26189134727E+02  0.00000000000E+00 0. -1.
</event>
<event>
 5    1  0.1255769E-009  0.9118800E+02  0.7561462E-02  0.1125453E+00
         25   -1    0    0    0    0  0.00000000000E+00  0.00000000000E+00  0.99999998245E-14  0.12509000000E+03  0.12509000000E+03 0.  0.
        -13    1    3    3    0    0  0.46553312608E+02 -0.36911165667E+01  0.16210604379E+02  0.49433087246E+02  0.10566000000E+00 0.  1.
         23    2    1    0    0    0  0.50741772093E+01  0.19416004092E+02  0.19604301481E+02  0.97035461583E+02  0.92891461819E+02 0.  0.
         13    1    3    3    0    0 -0.41479135398E+02  0.23107120658E+02  0.33936971010E+01  0.47602374338E+02  0.10566000000E+00 0. -1.
         22    1    1    0    0    0 -0.50741772093E+01 -0.19416004092E+02 -0.19604301481E+02  0.28054538417E+02  0.00000000000E+00 0.  1.
</event>
<event>
 5    1  0.1255769E-009  0.9118800E+02  0.7561462E-02  0.1125453E+00
         25   -1    0    0    0    0  0.00000000000E+00  0.00000000000E+00  0.99999998245E-14  0.12509000000E+03  0.12509000000E+03 0.  0.
        -13    1    3    3    0    0  0.49834457795E+01  0.25957219968E+02 -0.17555604553E+02  0.31730465101E+02  0.10566000000E+00 0.  1.
         23    2    1    0    0    0 -0.13603033469E+02 -0.88182032220E+01  0.28464501990E+02  0.92332846565E+02  0.86326840865E+02 0.  0.
         13    1    3    3    0    0 -0.18586479249E+02 -0.34775423190E+02  0.46020106542E+02  0.60602381464E+02  0.10566000000E+00 0. -1.
         22    1    1    0    0    0  0.13603033469E+02  0.88182032220E+01 -0.28464501990E+02  0.32757153435E+02  0.00000000000E+00 0. -1.
</event>
<event>
 5    1  0.1255769E-009  0.9118800E+02  0.7561462E-02  0.1125453E+00
         25   -1    0    0    0    0  0.00000000000E+00  0.00000000000E+00  0.99999998245E-14  0.12509000000E+03  0.12509000000E+03 0.  0.
        -13    1    3    3    0    0 -0.27487808921E+01  0.14139203787E+00 -0.53702963866E+02  0.53773555584E+02  0.10566000000E+00 0.  1.
         23    2    1    0    0    0  0.10963585887E+02 -0.10716404289E+02 -0.52959612256E+00  0.10974979112E+03  0.10867241896E+03 0.  0.
         13    1    3    3    0    0  0.13712366779E+02 -0.10857796327E+02  0.53173367743E+02  0.55976235538E+02  0.10566000000E+00 0. -1.
         22    1    1    0    0    0 -0.10963585887E+02  0.10716404289E+02  0.52959612256E+00  0.15340208879E+02  0.00000000000E+00 0. -1.
</event>
<event>
 5    1  0.1255769E-009  0.9118800E+02  0.7561462E-02  0.1125453E+00
         25   -1    0    0    0    0  0.00000000000E+00  0.00000000000E+00  0.99999998245E-14  0.12509000000E+03  0.12509000000E+03 0.  0.
        -13    1    3    3    0    0  0.39001146390E+01 -0.94330116339E+01 -0.61445819897E+02  0.62287980779E+02  0.10566000000E+00 0.  1.
         23    2    1    0    0    0  0.55182531332E+01 -0.53376737130E+01 -0.26821387804E+02  0.97191456632E+02  0.93101291722E+02 0.  0.
         13    1    3    3    0    0  0.16181384943E+01  0.40953379209E+01  0.34624432093E+02  0.34903475854E+02  0.10566000000E+00 0. -1.
         22    1    1    0    0    0 -0.55182531332E+01  0.53376737130E+01  0.26821387804E+02  0.27898543368E+02  0.00000000000E+00 0.  1.
</event>
<event>
 5    1  0.1255769E-009  0.9118800E+02  0.7561462E-02  0.1125453E+00
         25   -1    0    0    0    0  0.00000000000E+00  0.00000000000E+00  0.99999998245E-14  0.12509000000E+03  0.12509000000E+03 0.  0.
        -13    1    3    3    0    0  0.41916113433E+02  0.19765604519E+02 -0.26691605356E+02  0.53479834029E+02  0.10566000000E+00 0.  1.
         23    2    1    0    0    0  0.18416863806E+02 -0.15127193929E+02 -0.14128655564E+02  0.97383831434E+02  0.93359406854E+02 0.  0.
         13    1    3    3    0    0 -0.23499249627E+02 -0.34892798448E+02  0.12562949792E+02  0.43903997404E+02  0.10566000000E+00 0. -1.
         22    1    1    0    0    0 -0.18416863806E+02  0.15127193929E+02  0.14128655564E+02  0.27706168566E+02  0.00000000000E+00 0.  1.
</event>
<event>
 5    1  0.1255769E-009  0.9118800E+02  0.7561462E-02  0.1125453E+00
         25   -1    0    0    0    0  0.00000000000E+00  0.00000000000E+00  0.99999998245E-14  0.12509000000E+03  0.12509000000E+03 0.  0.
        -13    1    3    3    0    0 -0.10469039851E+01 -0.10146421823E+02 -0.34065302158E+02  0.35559834912E+02  0.10566000000E+00 0.  1.
         23    2    1    0    0    0  0.14780395731E+02  0.19809855315E+02  0.15733348686E+02  0.95791045643E+02  0.91200305366E+02 0.  0.
         13    1    3    3    0    0  0.15827299716E+02  0.29956277137E+02  0.49798650844E+02  0.60231210731E+02  0.10566000000E+00 0. -1.
         22    1    1    0    0    0 -0.14780395731E+02 -0.19809855315E+02 -0.15733348686E+02  0.29298954357E+02  0.00000000000E+00 0. -1.
</event>
<event>
 5    1  0.1255769E-009  0.9118800E+02  0.7561462E-02  0.1125453E+00
         25   -1    0    0    0    0  0.00000000000E+00  0.00000000000E+00  0.99999998245E-14  0.12509000000E+03  0.12509000000E+03 0.  0.
        -13    1    3    3    0    0 -0.17106249972E+02  0.25144727595E+02 -0.12906600276E+02  0.33037442526E+02  0.10566000000E+00 0.  1.
         23    2    1    0    0    0  0.15227892354E+02 -0.20817378681E+02  0.14435847012E+02  0.95532502818E+02  0.90844996863E+02 0.  0.
         13    1    3    3    0    0  0.32334142326E+02 -0.45962106276E+02  0.27342447288E+02  0.62495060293E+02  0.10566000000E+00 0. -1.
         22    1    1    0    0    0 -0.15227892354E+02  0.20817378681E+02 -0.14435847012E+02  0.29557497182E+02  0.00000000000E+00 0. -1.
</event>
<event>
 5    1  0.1255769E-009  0.9118800E+02  0.7561462E-02  0.1125453E+00
         25   -1    0    0    0    0  0.00000000000E+00  0.00000000000E+00  0.99999998245E-14  0.12509000000E+03  0.12509000000E+03 0.  0.
        -13    1    3    3    0    0 -0.52892774340E+01  0.55517489512E+02  0.27731981495E+02  0.62283561709E+02  0.10566000000E+00 0.  1.
         23    2    1    0    0    0 -0.70390139926E+00  0.27700731265E+02  0.97862745512E+01  0.95702976344E+02  0.91079429740E+02 0.  0.
         13    1    3    3    0    0  0.45853760347E+01 -0.27816758247E+02 -0.17945706944E+02  0.33419414635E+02  0.10566000000E+00 0. -1.
         22    1    1    0    0    0  0.70390139926E+00 -0.27700731265E+02 -0.97862745512E+01  0.29387023656E+02  0.00000000000E+00 0.  1.
</event>
<event>
 5    1  0.1255769E-009  0.9118800E+02  0.7561462E-02  0.1125453E+00
         25   -1    0    0    0    0  0.00000000000E+00  0.00000000000E+00  0.99999998245E-14  0.12509000000E+03  0.12509000000E+03 0.  0.
        -13    1    3    3    0    0 -0.26195809622E+02  0.30257672413E+02 -0.30789703731E+02  0.50495189884E+02  0.10566000000E+00 0.  1.
         23    2    1    0    0    0  0.92734325674E+01  0.27843270503E+02 -0.30567291447E+01  0.95584274167E+02  0.90916256033E+02 0.  0.
         13    1    3    3    0    0  0.35469242189E+02 -0.24144019095E+01  0.27732974586E+02  0.45089084283E+02  0.10566000000E+00 0. -1.
         22    1    1    0    0    0 -0.92734325674E+01 -0.27843270503E+02  0.30567291447E+01  0.29505725833E+02  0.00000000000E+00 0.  1.
</event>
<event>
 5    1  0.1255769E-009  0.9118800E+02  0.7561462E-02  0.1125453E+00
         25   -1    0    0    0    0  0.00000000000E+00  0.00000000000E+00  0.99999998245E-14  0.12509000000E+03  0.12509000000E+03 0.  0.
        -13    1    3    3    0    0 -0.62631783677E+01 -0.21560257837E+02 -0.38960245068E+02  0.44966476191E+02  0.10566000000E+00 0.  1.
         23    2    1    0    0    0 -0.14347283014E+02 -0.22913808942E+02  0.11225408652E+02  0.95817197443E+02  0.91236168027E+02 0.  0.
         13    1    3    3    0    0 -0.80841046464E+01 -0.13535511047E+01  0.50185653720E+02  0.50850721252E+02  0.10566000000E+00 0. -1.
         22    1    1    0    0    0  0.14347283014E+02  0.22913808942E+02 -0.11225408652E+02  0.29272802557E+02  0.00000000000E+00 0. -1.
</event>
<event>
 5    1  0.1255769E-009  0.9118800E+02  0.7561462E-02  0.1125453E+00
         25   -1    0    0    0    0  0.00000000000E+00  0.00000000000E+00  0.99999998245E-14  0.12509000000E+03  0.12509000000E+03 0.  0.
        -13    1    3    3    0    0  0.20392826337E+02  0.28047622981E+02  0.16449932440E+02  0.38381609687E+02  0.10566000000E+00 0. -1.
         23    2    1    0    0    0 -0.22159418162E+02 -0.12074273499E+02  0.12308456728E+02  0.97012856256E+02  0.92861015922E+02 0.  0.
         13    1    3    3    0    0 -0.42552244499E+02 -0.40121896480E+02 -0.41414757117E+01  0.58631246568E+02  0.10566000000E+00 0.  1.
         22    1    1    0    0    0  0.22159418162E+02  0.12074273499E+02 -0.12308456728E+02  0.28077143744E+02  0.00000000000E+00 0.  1.
</event>
<event>
 5    1  0.1255769E-009  0.9118800E+02  0.7561462E-02  0.1125453E+00
         25   -1    0    0    0    0  0.00000000000E+00  0.00000000000E+00  0.99999998245E-14  0.12509000000E+03  0.12509000000E+03 0.  0.
        -13    1    3    3    0    0  0.55388828723E+02  0.19436180966E+02  0.11061938625E+02  0.59733283252E+02  0.10566000000E+00 0.  1.
         23    2    1    0    0    0  0.22132986177E+02  0.76664743543E+01  0.17828454776E+02  0.95653666909E+02  0.91011682147E+02 0.  0.
         13    1    3    3    0    0 -0.33255842546E+02 -0.11769706612E+02  0.67665161513E+01  0.35920383657E+02  0.10566000000E+00 0. -1.
         22    1    1    0    0    0 -0.22132986177E+02 -0.76664743543E+01 -0.17828454776E+02  0.29436333091E+02  0.00000000000E+00 0.  1.
</event>
<event>
 5    1  0.1255769E-009  0.9118800E+02  0.7561462E-02  0.1125453E+00
         25   -1    0    0    0    0  0.00000000000E+00  0.00000000000E+00  0.99999998245E-14  0.12509000000E+03  0.12509000000E+03 0.  0.
        -13    1    3    3    0    0 -0.29236129863E+02  0.26647074389E+02  0.57362070711E+00  0.39562078656E+02  0.10566000000E+00 0.  1.
         23    2    1    0    0    0 -0.27729667403E+01 -0.16302654206E+02 -0.24211770056E+02  0.95769773398E+02  0.91171123766E+02 0.  0.
         13    1    3    3    0    0  0.26463163122E+02 -0.42949728596E+02 -0.24785390763E+02  0.56207694742E+02  0.10566000000E+00 0. -1.
         22    1    1    0    0    0  0.27729667403E+01  0.16302654206E+02  0.24211770056E+02  0.29320226602E+02  0.00000000000E+00 0. -1.
</event>
<event>
 5    1  0.1255769E-009  0.9118800E+02  0.7561462E-02  0.1125453E+00
         25   -1    0    0    0    0  0.00000000000E+00  0.00000000000E+00  0.99999998245E-14  0.12509000000E+03  0.12509000000E+03 0.  0.
        -13    1    3    3    0    0 -0.26086154252E+02 -0.79764872539E+01 -0.53704404253E+02  0.60235255397E+02  0.10566000000E+00 0.  1.
         23    2    1    0    0    0 -0.16289862724E+02  0.73893909724E+01 -0.22823788814E+02  0.96091930024E+02  0.91612067728E+02 0.  0.
         13    1    3    3    0    0  0.97962915283E+01  0.15365878226E+02  0.30880615439E+02  0.35856674627E+02  0.10566000000E+00 0. -1.
         22    1    1    0    0    0  0.16289862724E+02 -0.73893909724E+01  0.22823788814E+02  0.28998069976E+02  0.00000000000E+00 0.  1.
</event>
<event>
 5    1  0.1255769E-009  0.9118800E+02  0.7561462E-02  0.1125453E+00
         25   -1    0    0    0    0  0.00000000000E+00  0.00000000000E+00  0.99999998245E-14  0.12509000000E+03  0.12509000000E+03 0.  0.
        -13    1    3    3    0    0  0.21505134818E+02  0.35308561520E+02  0.18025063266E+02  0.45100769505E+02  0.10566000000E+00 0.  1.
         23    2    1    0    0    0  0.24592643603E+02 -0.14144708702E+02  0.72372679683E+01  0.95811185965E+02  0.91227925575E+02 0.  0.
         13    1    3    3    0    0  0.30875087847E+01 -0.49453270222E+02 -0.10787795298E+02  0.50710416460E+02  0.10566000000E+00 0. -1.
         22    1    1    0    0    0 -0.24592643603E+02  0.14144708702E+02 -0.72372679683E+01  0.29278814035E+02  0.00000000000E+00 0. -1.
</event>
<event>
 5    1  0.1255769E-009  0.9118800E+02  0.7561462E-02  0.1125453E+00
         25   -1    0    0    0    0  0.00000000000E+00  0.00000000000E+00  0.99999998245E-14  0.12509000000E+03  0.12509000000E+03 0.  0.
        -13    1    3    3    0    0  0.26927490498E+02  0.21711863976E+02  0.26692896715E+02  0.43692295441E+02  0.10566000000E+00 0.  1.
         23    2    1    0    0    0 -0.76545301078E+01  0.32751911895E+02 -0.39844953516E+01  0.91220311971E+02  0.84699407017E+02 0.  0.
         13    1    3    3    0    0 -0.34582020606E+02  0.11040047919E+02 -0.30677392067E+02  0.47528016530E+02  0.10566000000E+00 0. -1.
         22    1    1    0    0    0  0.76545301078E+01 -0.32751911895E+02  0.39844953516E+01  0.33869688029E+02  0.00000000000E+00 0. -1.
</event>
<event>
 5    1  0.1255769E-009  0.9118800E+02  0.7561462E-02  0.1125453E+00
         25   -1    0    0    0    0  0.00000000000E+00  0.00000000000E+00  0.99999998245E-14  0.12509000000E+03  0.12509000000E+03 0.  0.
        -13    1    3    3    0    0  0.30682361027E+02  0.13123929484E+02 -0.11423502541E+02  0.35272544247E+02  0.10566000000E+00 0. -1.
         23    2    1    0    0    0 -0.94095977474E+01 -0.13332539728E+02  0.24777845007E+02  0.95421182218E+02  0.90691583222E+02 0.  0.
         13    1    3    3    0    0 -0.40091958775E+02 -0.26456469211E+02  0.36201347548E+02  0.60148637972E+02  0.10566000000E+00 0.  1.
         22    1    1    0    0    0  0.94095977474E+01  0.13332539728E+02 -0.24777845007E+02  0.29668817782E+02  0.00000000000E+00 0.  1.
</event>
<event>
 5    1  0.1255769E-009  0.9118800E+02  0.7561462E-02  0.1125453E+00
         25   -1    0    0    0    0  0.00000000000E+00  0.00000000000E+00  0.99999998245E-14  0.12509000000E+03  0.12509000000E+03 0.  0.
        -13    1    3    3    0    0  0.19196145919E+02 -0.53395439987E+01  0.51618295445E+02  0.55330482891E+02  0.10566000000E+00 0.  1.
         23    2    1    0    0    0 -0.12218527609E+02  0.27797592175E+01  0.24312402798E+02  0.97738356392E+02  0.93833223872E+02 0.  0.
         13    1    3    3    0    0 -0.31414673528E+02  0.81193032161E+01 -0.27305892647E+02  0.42407873501E+02  0.10566000000E+00 0. -1.
         22    1    1    0    0    0  0.12218527609E+02 -0.27797592175E+01 -0.24312402798E+02  0.27351643608E+02  0.00000000000E+00 0.  1.
</event>
<event>
 5    1  0.1255769E-009  0.9118800E+02  0.7561462E-02  0.1125453E+00
         25   -1    0    0    0    0  0.00000000000E+00  0.00000000000E+00  0.99999998245E-14  0.12509000000E+03  0.12509000000E+03 0.  0.
        -13    1    3    3    0    0  0.47829756960E+02  0.96373035946E+01  0.27419588010E+02  0.55967921546E+02  0.10566000000E+00 0.  1.
         23    2    1    0    0    0  0.29097397970E+02  0.59646003622E+00 -0.60405076168E+01  0.95366237360E+02  0.90615766634E+02 0.  0.
         13    1    3    3    0    0 -0.18732358990E+02 -0.90408435584E+01 -0.33460095627E+02  0.39398315814E+02  0.10566000000E+00 0. -1.
         22    1    1    0    0    0 -0.29097397970E+02 -0.59646003622E+00  0.60405076168E+01  0.29723762640E+02  0.00000000000E+00 0.  1.
</event>
<event>
 5    1  0.1255769E-009  0.9118800E+02  0.7561462E-02  0.1125453E+00
         25   -1    0    0    0    0  0.00000000000E+00  0.00000000000E+00  0.99999998245E-14  0.12509000000E+03  0.12509000000E+03 0.  0.
        -13    1    3    3    0    0  0.77878513674E+01 -0.14999084552E+02  0.53485810946E+02  0.56092479914E+02  0.10566000000E+00 0.  1.
         23    2    1    0    0    0 -0.16111623544E+02 -0.10509073880E+02  0.22268772823E+02  0.95663425444E+02  0.91025093670E+02 0.  0.
         13    1    3    3    0    0 -0.23899474912E+02  0.44900106722E+01 -0.31217038124E+02  0.39570945530E+02  0.10566000000E+00 0. -1.
         22    1    1    0    0    0  0.16111623544E+02  0.10509073880E+02 -0.22268772823E+02  0.29426574556E+02  0.00000000000E+00 0. -1.
</event>
<event>
 5    1  0.1255769E-009  0.9118800E+02  0.7561462E-02  0.1125453E+00
         25   -1    0    0    0    0  0.00000000000E+00  0.00000000000E+00  0.99999998245E-14  0.12509000000E+03  0.12509000000E+03 0.  0.
        -13    1    3    3    0    0 -0.24566225188E+02 -0.34733600337E+02 -0.34399016147E+02  0.54710381906E+02  0.10566000000E+00 0.  1.
         23    2    1    0    0    0 -0.41267166625E+01 -0.29165299263E+02  0.60748572538E+00  0.95627930989E+02  0.90976302820E+02 0.  0.
         13    1    3    3    0    0  0.20439508525E+02  0.55683010742E+01  0.35006501872E+02  0.40917549083E+02  0.10566000000E+00 0. -1.
         22    1    1    0    0    0  0.41267166625E+01  0.29165299263E+02 -0.60748572538E+00  0.29462069011E+02  0.00000000000E+00 0.  1.
</event>
<event>
 5    1  0.1255769E-009  0.9118800E+02  0.7561462E-02  0.1125453E+00
         25   -1    0    0    0    0  0.00000000000E+00  0.00000000000E+00  0.99999998245E-14  0.12509000000E+03  0.12509000000E+03 0.  0.
        -13    1    3    3    0    0 -0.18375253302E+02  0.24660859090E+02  0.43902105339E+02  0.53602368625E+02  0.10566000000E+00 0.  1.
         23    2    1    0    0    0  0.71091980841E+01  0.28654579030E+02  0.16365124036E+02  0.91334365189E+02  0.84867681616E+02 0.  0.
         13    1    3    3    0    0  0.25484451386E+02  0.39937199401E+01 -0.27536981303E+02  0.37731996564E+02  0.10566000000E+00 0. -1.
         22    1    1    0    0    0 -0.71091980841E+01 -0.28654579030E+02 -0.16365124036E+02  0.33755634811E+02  0.00000000000E+00 0.  1.
</event>
<event>
 5    1  0.1255769E-009  0.9118800E+02  0.7561462E-02  0.1125453E+00
         25   -1    0    0    0    0  0.00000000000E+00  0.00000000000E+00  0.99999998245E-14  0.12509000000E+03  0.12509000000E+03 0.  0.
        -13    1    3    3    0    0 -0.39057663196E+02 -0.29741629767E+02 -0.33759692524E+02  0.59580144334E+02  0.10566000000E+00 0.  1.
         23    2    1    0    0    0 -0.68795644314E+01 -0.20296599183E+02 -0.19824504546E+02  0.95895971061E+02  0.91344107309E+02 0.  0.
         13    1    3    3    0    0  0.32178098765E+02  0.94450305843E+01  0.13935187977E+02  0.36315826727E+02  0.10566000000E+00 0. -1.
         22    1    1    0    0    0  0.68795644314E+01  0.20296599183E+02  0.19824504546E+02  0.29194028939E+02  0.00000000000E+00 0.  1.
</event>
<event>
 5    1  0.1255769E-009  0.9118800E+02  0.7561462E-02  0.1125453E+00
         25   -1    0    0    0    0  0.00000000000E+00  0.00000000000E+00  0.99999998245E-14  0.12509000000E+03  0.12509000000E+03 0.  0.
        -13    1    3    3    0    0  0.20335858189E+02 -0.25247858637E+02  0.75155035123E+01  0.33279054240E+02  0.10566000000E+00 0.  1.
         23    2    1    0    0    0 -0.13957037026E+02  0.25403594498E+02 -0.48965053791E+01  0.95694128506E+02  0.91067277162E+02 0.  0.
         13    1    3    3    0    0 -0.34292895215E+02  0.50651453135E+02 -0.12412008891E+02  0.62415074266E+02  0.10566000000E+00 0. -1.
         22    1    1    0    0    0  0.13957037026E+02 -0.25403594498E+02  0.48965053791E+01  0.29395871494E+02  0.00000000000E+00 0. -1.
</event>
<event>
 5    1  0.1255769E-009  0.9118800E+02  0.7561462E-02  0.1125453E+00
         25   -1    0    0    0    0  0.00000000000E+00  0.00000000000E+00  0.99999998245E-14  0.12509000000E+03  0.12509000000E+03 0.  0.
        -13    1    3    3    0    0  0.28432287550E+02  0.26904782153E+02  0.20208197669E+02  0.44052749007E+02  0.10566000000E+00 0. -1.
         23    2    1    0    0    0  0.37639304368E+02  0.20641571454E+02 -0.13927907557E+02  0.79959319590E+02  0.66005412467E+02 0.  0.
         13    1    3    3    0    0  0.92070168181E+01 -0.62632106984E+01 -0.34136105226E+02  0.35906570583E+02  0.10566000000E+00 0.  1.
         22    1    1    0    0    0 -0.37639304368E+02 -0.20641571454E+02  0.13927907557E+02  0.45130680410E+02  0.00000000000E+00 0.  1.
</event>
<event>
 5    1  0.1255769E-009  0.9118800E+02  0.7561462E-02  0.1125453E+00
         25   -1    0    0    0    0  0.00000000000E+00  0.00000000000E+00  0.99999998245E-14  0.12509000000E+03  0.12509000000E+03 0.  0.
        -13    1    3    3    0    0  0.24765379269E+02  0.31109919697E+02 -0.50252952943E+01  0.40080118148E+02  0.10566000000E+00 0. -1.
         23    2    1    0    0    0  0.30182473572E+02 -0.91842349393E+01  0.19919061353E+02  0.87779131777E+02  0.79454861953E+02 0.  0.
         13    1    3    3    0    0  0.54170943032E+01 -0.40294154637E+02  0.24944356647E+02  0.47699013629E+02  0.10566000000E+00 0.  1.
         22    1    1    0    0    0 -0.30182473572E+02  0.91842349393E+01 -0.19919061353E+02  0.37310868223E+02  0.00000000000E+00 0. -1.
</event>
<event>
 5    1  0.1255769E-009  0.9118800E+02  0.7561462E-02  0.1125453E+00
         25   -1    0    0    0    0  0.00000000000E+00  0.00000000000E+00  0.99999998245E-14  0.12509000000E+03  0.12509000000E+03 0.  0.
        -13    1    3    3    0    0 -0.13000058870E+02 -0.43606728828E+02  0.38185305495E+02  0.59402668707E+02  0.10566000000E+00 0. -1.
         23    2    1    0    0    0  0.55492802817E+01 -0.25832704258E+02  0.12051714677E+02  0.96049219232E+02  0.91553730495E+02 0.  0.
         13    1    3    3    0    0  0.18549339152E+02  0.17774024570E+02 -0.26133590817E+02  0.36646550526E+02  0.10566000000E+00 0.  1.
         22    1    1    0    0    0 -0.55492802817E+01  0.25832704258E+02 -0.12051714677E+02  0.29040780768E+02  0.00000000000E+00 0. -1.
</event>
<event>
 5    1  0.1255769E-009  0.9118800E+02  0.7561462E-02  0.1125453E+00
         25   -1    0    0    0    0  0.00000000000E+00  0.00000000000E+00  0.99999998245E-14  0.12509000000E+03  0.12509000000E+03 0.  0.
        -13    1    3    3    0    0  0.36488950523E+02 -0.48434131986E+02 -0.46455887230E+01  0.60818593457E+02  0.10566000000E+00 0.  1.
         23    2    1    0    0    0  0.14814811754E+02 -0.25196920546E+02 -0.12095462391E+02  0.93456731709E+02  0.87940303838E+02 0.  0.
         13    1    3    3    0    0 -0.21674138769E+02  0.23237211440E+02 -0.74498736678E+01  0.32638138252E+02  0.10566000000E+00 0. -1.
         22    1    1    0    0    0 -0.14814811754E+02  0.25196920546E+02  0.12095462391E+02  0.31633268291E+02  0.00000000000E+00 0.  1.
</event>
<event>
 5    1  0.1255769E-009  0.9118800E+02  0.7561462E-02  0.1125453E+00
         25   -1    0    0    0    0  0.00000000000E+00  0.00000000000E+00  0.99999998245E-14  0.12509000000E+03  0.12509000000E+03 0.  0.
        -13    1    3    3    0    0 -0.27798450534E+02 -0.13661463108E+02  0.43345580252E+02  0.53275134141E+02  0.10566000000E+00 0.  1.
         23    2    1    0    0    0 -0.89895825764E+01 -0.29658884227E+02  0.15678214655E+02  0.90358624800E+02  0.83417100480E+02 0.  0.
         13    1    3    3    0    0  0.18808867958E+02 -0.15997421120E+02 -0.27667365597E+02  0.37083490659E+02  0.10566000000E+00 0. -1.
         22    1    1    0    0    0  0.89895825764E+01  0.29658884227E+02 -0.15678214655E+02  0.34731375200E+02  0.00000000000E+00 0.  1.
</event>
<event>
 5    1  0.1255769E-009  0.9118800E+02  0.7561462E-02  0.1125453E+00
         25   -1    0    0    0    0  0.00000000000E+00  0.00000000000E+00  0.99999998245E-14  0.12509000000E+03  0.12509000000E+03 0.  0.
        -13    1    3    3    0    0  0.26473181469E+01  0.20801529590E+02 -0.28803514672E+02  0.35628156676E+02  0.10566000000E+00 0.  1.
         23    2    1    0    0    0  0.79384281023E+01 -0.23428094168E+02  0.13370921016E+02  0.96971042589E+02  0.92804673023E+02 0.  0.
         13    1    3    3    0    0  0.52911099555E+01 -0.44229623758E+02  0.42174435689E+02  0.61342885912E+02  0.10566000000E+00 0. -1.
         22    1    1    0    0    0 -0.79384281023E+01  0.23428094168E+02 -0.13370921016E+02  0.28118957411E+02  0.00000000000E+00 0. -1.
</event>
<event>
 5    1  0.1255769E-009  0.9118800E+02  0.7561462E-02  0.1125453E+00
         25   -1    0    0    0    0  0.00000000000E+00  0.00000000000E+00  0.99999998245E-14  0.12509000000E+03  0.12509000000E+03 0.  0.
        -13    1    3    3    0    0  0.85917443819E+01 -0.39744044224E+01  0.61701880154E+02  0.62423930832E+02  0.10566000000E+00 0.  1.
         23    2    1    0    0    0  0.60698053530E+01 -0.54745049650E-01  0.28563670019E+02  0.95888479851E+02  0.91333847993E+02 0.  0.
         13    1    3    3    0    0 -0.25219390289E+01  0.39196593727E+01 -0.33138210134E+02  0.33464549019E+02  0.10566000000E+00 0. -1.
         22    1    1    0    0    0 -0.60698053530E+01  0.54745049650E-01 -0.28563670019E+02  0.29201520149E+02  0.00000000000E+00 0.  1.
</event>
<event>
 5    1  0.1255769E-009  0.9118800E+02  0.7561462E-02  0.1125453E+00
         25   -1    0    0    0    0  0.00000000000E+00  0.00000000000E+00  0.99999998245E-14  0.12509000000E+03  0.12509000000E+03 0.  0.
        -13    1    3    3    0    0  0.20370883690E+02  0.18755494740E+02 -0.44170251145E+02  0.52132175626E+02  0.10566000000E+00 0.  1.
         23    2    1    0    0    0  0.24573054573E+02 -0.11015562412E+02 -0.13947004960E+02  0.94763500471E+02  0.89779866607E+02 0.  0.
         13    1    3    3    0    0  0.42021708831E+01 -0.29771057152E+02  0.30223246185E+02  0.42631324845E+02  0.10566000000E+00 0. -1.
         22    1    1    0    0    0 -0.24573054573E+02  0.11015562412E+02  0.13947004960E+02  0.30326499529E+02  0.00000000000E+00 0.  1.
</event>
<event>
 5    1  0.1255769E-009  0.9118800E+02  0.7561462E-02  0.1125453E+00
         25   -1    0    0    0    0  0.00000000000E+00  0.00000000000E+00  0.99999998245E-14  0.12509000000E+03  0.12509000000E+03 0.  0.
        -13    1    3    3    0    0  0.17735297519E+02  0.18722438410E+02  0.53435225129E+02  0.59333000318E+02  0.10566000000E+00 0.  1.
         23    2    1    0    0    0  0.70180965084E+00  0.13464791641E+01  0.35490858157E+02  0.89566675893E+02  0.82220939394E+02 0.  0.
         13    1    3    3    0    0 -0.17033487868E+02 -0.17375959246E+02 -0.17944366972E+02  0.30233675575E+02  0.10566000000E+00 0. -1.
         22    1    1    0    0    0 -0.70180965084E+00 -0.13464791641E+01 -0.35490858157E+02  0.35523324107E+02  0.00000000000E+00 0.  1.
</event>
<event>
 5    1  0.1255769E-009  0.9118800E+02  0.7561462E-02  0.1125453E+00
         25   -1    0    0    0    0  0.00000000000E+00  0.00000000000E+00  0.99999998245E-14  0.12509000000E+03  0.12509000000E+03 0.  0.
        -13    1    3    3    0    0  0.55992381104E+02 -0.16475049899E+02 -0.14239641173E+02  0.60077887410E+02  0.10566000000E+00 0. -1.
         23    2    1    0    0    0  0.27603187987E+02  0.46205958312E+01 -0.78824859501E+01  0.96013901953E+02  0.91505463720E+02 0.  0.
         13    1    3    3    0    0 -0.28389193117E+02  0.21095645731E+02  0.63571552228E+01  0.35936014543E+02  0.10566000000E+00 0.  1.
         22    1    1    0    0    0 -0.27603187987E+02 -0.46205958312E+01  0.78824859501E+01  0.29076098047E+02  0.00000000000E+00 0. -1.
</event>
<event>
 4    1  0.1255769E-009  0.9118800E+02  0.7561462E-02  0.1125453E+00
         25   -1    0    0    0    0  0.00000000000E+00  0.00000000000E+00  0.99999998245E-14  0.12509000000E+03  0.12509000000E+03 0.  0.
        -13    1    1    0    0    0  0.45295997576E+01 -0.22689136704E+02 -0.13893081971E+02  0.26987832240E+02  0.10566000000E+00 0.  1.
         13    1    1    0    0    0 -0.29485518503E+02  0.10259710003E+02 -0.31807383493E+02  0.44568803657E+02  0.10566000000E+00 0. -1.
         22    1    1    0    0    0  0.24955918745E+02  0.12429426701E+02  0.45700465464E+02  0.53533364103E+02  0.00000000000E+00 0. -1.
</event>
<event>
 5    1  0.1255769E-009  0.9118800E+02  0.7561462E-02  0.1125453E+00
         25   -1    0    0    0    0  0.00000000000E+00  0.00000000000E+00  0.99999998245E-14  0.12509000000E+03  0.12509000000E+03 0.  0.
        -13    1    3    3    0    0 -0.15483165709E+02 -0.17252836543E+02  0.28894414955E+02  0.37044394567E+02  0.10566000000E+00 0.  1.
         23    2    1    0    0    0 -0.11439553863E+02  0.96025962386E+01 -0.24183081549E+02  0.96666511820E+02  0.92393288865E+02 0.  0.
         13    1    3    3    0    0  0.40436118462E+01  0.26855432782E+02 -0.53077496504E+02  0.59622117254E+02  0.10566000000E+00 0. -1.
         22    1    1    0    0    0  0.11439553863E+02 -0.96025962386E+01  0.24183081549E+02  0.28423488180E+02  0.00000000000E+00 0. -1.
</event>
<event>
 5    1  0.1255769E-009  0.9118800E+02  0.7561462E-02  0.1125453E+00
         25   -1    0    0    0    0  0.00000000000E+00  0.00000000000E+00  0.99999998245E-14  0.12509000000E+03  0.12509000000E+03 0.  0.
        -13    1    3    3    0    0 -0.16240863784E+02  0.29921682000E+02 -0.13266427727E+02  0.36538773636E+02  0.10566000000E+00 0. -1.
         23    2    1    0    0    0 -0.10189701670E+02 -0.26499111205E+02  0.52297545344E+01  0.96221622019E+02  0.91788982436E+02 0.  0.
         13    1    3    3    0    0  0.60511621133E+01 -0.56420793205E+02  0.18496182262E+02  0.59682848383E+02  0.10566000000E+00 0.  1.
         22    1    1    0    0    0  0.10189701670E+02  0.26499111205E+02 -0.52297545344E+01  0.28868377981E+02  0.00000000000E+00 0.  1.
</event>
<event>
 5    1  0.1255769E-009  0.9118800E+02  0.7561462E-02  0.1125453E+00
         25   -1    0    0    0    0  0.00000000000E+00  0.00000000000E+00  0.99999998245E-14  0.12509000000E+03  0.12509000000E+03 0.  0.
        -13    1    3    3    0    0 -0.53249851389E+02  0.27483348087E+02  0.14634062415E+01  0.59941920364E+02  0.10566000000E+00 0.  1.
         23    2    1    0    0    0 -0.21839301680E+02  0.12676900508E+02  0.13198624113E+02  0.96596797603E+02  0.92298855488E+02 0.  0.
         13    1    3    3    0    0  0.31410549709E+02 -0.14806447579E+02  0.11735217871E+02  0.36654877240E+02  0.10566000000E+00 0. -1.
         22    1    1    0    0    0  0.21839301680E+02 -0.12676900508E+02 -0.13198624113E+02  0.28493202397E+02  0.00000000000E+00 0.  1.
</event>
<event>
 5    1  0.1255769E-009  0.9118800E+02  0.7561462E-02  0.1125453E+00
         25   -1    0    0    0    0  0.00000000000E+00  0.00000000000E+00  0.99999998245E-14  0.12509000000E+03  0.12509000000E+03 0.  0.
        -13    1    3    3    0    0  0.29612014026E+02  0.30454067836E+02 -0.39917480689E+01  0.42664585303E+02  0.10566000000E+00 0.  1.
         23    2    1    0    0    0  0.16772619129E+02 -0.13020100546E+02  0.21667160058E+02  0.94753395120E+02  0.89765785749E+02 0.  0.
         13    1    3    3    0    0 -0.12839394897E+02 -0.43474168382E+02  0.25658908127E+02  0.52088809817E+02  0.10566000000E+00 0. -1.
         22    1    1    0    0    0 -0.16772619129E+02  0.13020100546E+02 -0.21667160058E+02  0.30336604880E+02  0.00000000000E+00 0. -1.
</event>
<event>
 5    1  0.1255769E-009  0.9118800E+02  0.7561462E-02  0.1125453E+00
         25   -1    0    0    0    0  0.00000000000E+00  0.00000000000E+00  0.99999998245E-14  0.12509000000E+03  0.12509000000E+03 0.  0.
        -13    1    3    3    0    0  0.25821683461E+02 -0.45615468876E+02  0.57598801220E+01  0.52732511041E+02  0.10566000000E+00 0.  1.
         23    2    1    0    0    0 -0.10981811025E+02 -0.28905469487E+02 -0.27790312000E+01  0.94044076692E+02  0.88771836788E+02 0.  0.
         13    1    3    3    0    0 -0.36803494486E+02  0.16709999389E+02 -0.85389113220E+01  0.41311565651E+02  0.10566000000E+00 0. -1.
         22    1    1    0    0    0  0.10981811025E+02  0.28905469487E+02  0.27790312000E+01  0.31045923308E+02  0.00000000000E+00 0.  1.
</event>
<event>
 5    1  0.1255769E-009  0.9118800E+02  0.7561462E-02  0.1125453E+00
         25   -1    0    0    0    0  0.00000000000E+00  0.00000000000E+00  0.99999998245E-14  0.12509000000E+03  0.12509000000E+03 0.  0.
        -13    1    3    3    0    0 -0.10774138398E+02 -0.23225937197E+02  0.18642994004E+02  0.31671731976E+02  0.10566000000E+00 0.  1.
         23    2    1    0    0    0  0.62372552912E+01  0.23074440685E+02 -0.19673782044E+02  0.94132111402E+02  0.88895801535E+02 0.  0.
         13    1    3    3    0    0  0.17011393689E+02  0.46300377882E+02 -0.38316776048E+02  0.62460379426E+02  0.10566000000E+00 0. -1.
         22    1    1    0    0    0 -0.62372552912E+01 -0.23074440685E+02  0.19673782044E+02  0.30957888598E+02  0.00000000000E+00 0. -1.
</event>
<event>
 5    1  0.1255769E-009  0.9118800E+02  0.7561462E-02  0.1125453E+00
         25   -1    0    0    0    0  0.00000000000E+00  0.00000000000E+00  0.99999998245E-14  0.12509000000E+03  0.12509000000E+03 0.  0.
        -13    1    3    3    0    0  0.31939048339E+02  0.33322459829E+02 -0.41938336468E+02  0.62364447946E+02  0.10566000000E+00 0.  1.
         23    2    1    0    0    0  0.13188510497E+02  0.17762599657E+02 -0.22512940311E+02  0.93526108650E+02  0.88038933217E+02 0.  0.
         13    1    3    3    0    0 -0.18750537842E+02 -0.15559860172E+02  0.19425396157E+02  0.31161660704E+02  0.10566000000E+00 0. -1.
         22    1    1    0    0    0 -0.13188510497E+02 -0.17762599657E+02  0.22512940311E+02  0.31563891350E+02  0.00000000000E+00 0.  1.
</event>
<event>
 5    1  0.1255769E-009  0.9118800E+02  0.7561462E-02  0.1125453E+00
         25   -1    0    0    0    0  0.00000000000E+00  0.00000000000E+00  0.99999998245E-14  0.12509000000E+03  0.12509000000E+03 0.  0.
        -13    1    3    3    0    0 -0.38793551782E+01 -0.21212457100E+02  0.25162659444E+02  0.33138924653E+02  0.10566000000E+00 0.  1.
         23    2    1    0    0    0  0.52371009499E+00  0.27090229963E+02 -0.13172618233E+02  0.94962393012E+02  0.90056556584E+02 0.  0.
         13    1    3    3    0    0  0.44030652732E+01  0.48302687063E+02 -0.38335277677E+02  0.61823468359E+02  0.10566000000E+00 0. -1.
         22    1    1    0    0    0 -0.52371009499E+00 -0.27090229963E+02  0.13172618233E+02  0.30127606988E+02  0.00000000000E+00 0. -1.
</event>
<event>
 5    1  0.1255769E-009  0.9118800E+02  0.7561462E-02  0.1125453E+00
         25   -1    0    0    0    0  0.00000000000E+00  0.00000000000E+00  0.99999998245E-14  0.12509000000E+03  0.12509000000E+03 0.  0.
        -13    1    3    3    0    0 -0.25140150229E+01  0.35620321633E+02 -0.30315897653E+02  0.46842207455E+02  0.10566000000E+00 0.  1.
         23    2    1    0    0    0  0.26233778010E+02  0.10175804780E+02  0.17987226006E+01  0.96894370648E+02  0.92701270480E+02 0.  0.
         13    1    3    3    0    0  0.28747793033E+02 -0.25444516853E+02  0.32114620253E+02  0.50052163192E+02  0.10566000000E+00 0. -1.
         22    1    1    0    0    0 -0.26233778010E+02 -0.10175804780E+02 -0.17987226006E+01  0.28195629352E+02  0.00000000000E+00 0.  1.
</event>
<event>
 5    1  0.1255769E-009  0.9118800E+02  0.7561462E-02  0.1125453E+00
         25   -1    0    0    0    0  0.00000000000E+00  0.00000000000E+00  0.99999998245E-14  0.12509000000E+03  0.12509000000E+03 0.  0.
        -13    1    3    3    0    0 -0.28337749869E+02 -0.36707914221E+02 -0.19745727183E+02  0.50402419982E+02  0.10566000000E+00 0.  1.
         23    2    1    0    0    0 -0.16074775588E+02  0.62421674133E+01 -0.24291907597E+02  0.95299735837E+02  0.90523918451E+02 0.  0.
         13    1    3    3    0    0  0.12262974281E+02  0.42950081634E+02 -0.45461804136E+01  0.44897315855E+02  0.10566000000E+00 0. -1.
         22    1    1    0    0    0  0.16074775588E+02 -0.62421674133E+01  0.24291907597E+02  0.29790264163E+02  0.00000000000E+00 0.  1.
</event>
<event>
 5    1  0.1255769E-009  0.9118800E+02  0.7561462E-02  0.1125453E+00
         25   -1    0    0    0    0  0.00000000000E+00  0.00000000000E+00  0.99999998245E-14  0.12509000000E+03  0.12509000000E+03 0.  0.
        -13    1    3    3    0    0  0.65393135421E+01  0.26719990248E+02 -0.24762908883E+02  0.37012610295E+02  0.10566000000E+00 0. -1.
         23    2    1    0    0    0  0.87268784359E+01  0.29964883072E+02  0.23867239619E+02  0.85800080786E+02  0.76275527603E+02 0.  0.
         13    1    3    3    0    0  0.21875648939E+01  0.32448928239E+01  0.48630148502E+02  0.48787470492E+02  0.10566000000E+00 0.  1.
         22    1    1    0    0    0 -0.87268784359E+01 -0.29964883072E+02 -0.23867239619E+02  0.39289919214E+02  0.00000000000E+00 0.  1.
</event>
<event>
 5    1  0.1255769E-009  0.9118800E+02  0.7561462E-02  0.1125453E+00
         25   -1    0    0    0    0  0.00000000000E+00  0.00000000000E+00  0.99999998245E-14  0.12509000000E+03  0.12509000000E+03 0.  0.
        -13    1    3    3    0    0  0.46481286970E+02 -0.76922111336E+01  0.34753150023E+02  0.58544621880E+02  0.10566000000E+00 0. -1.
         23    2    1    0    0    0  0.13504136516E+02 -0.10365560712E+02  0.28013321328E+02  0.92309628987E+02  0.86293191388E+02 0.  0.
         13    1    3    3    0    0 -0.32977150454E+02 -0.26733495789E+01 -0.67398286957E+01  0.33765007107E+02  0.10566000000E+00 0.  1.
         22    1    1    0    0    0 -0.13504136516E+02  0.10365560712E+02 -0.28013321328E+02  0.32780371013E+02  0.00000000000E+00 0. -1.
</event>
<event>
 5    1  0.1255769E-009  0.9118800E+02  0.7561462E-02  0.1125453E+00
         25   -1    0    0    0    0  0.00000000000E+00  0.00000000000E+00  0.99999998245E-14  0.12509000000E+03  0.12509000000E+03 0.  0.
        -13    1    3    3    0    0 -0.29686295093E+01 -0.26535445818E+02  0.21577349058E+02  0.34329809239E+02  0.10566000000E+00 0.  1.
         23    2    1    0    0    0 -0.10787782434E+02  0.24088306371E+02 -0.12532961273E+02  0.95871891370E+02  0.91311125735E+02 0.  0.
         13    1    3    3    0    0 -0.78191529244E+01  0.50623752189E+02 -0.34110310331E+02  0.61542082131E+02  0.10566000000E+00 0. -1.
         22    1    1    0    0    0  0.10787782434E+02 -0.24088306371E+02  0.12532961273E+02  0.29218108630E+02  0.00000000000E+00 0. -1.
</event>
<event>
 5    1  0.1255769E-009  0.9118800E+02  0.7561462E-02  0.1125453E+00
         25   -1    0    0    0    0  0.00000000000E+00  0.00000000000E+00  0.99999998245E-14  0.12509000000E+03  0.12509000000E+03 0.  0.
        -13    1    3    3    0    0 -0.24719588864E+02  0.99464029600E+01  0.32841998231E+02  0.42291807921E+02  0.10566000000E+00 0.  1.
         23    2    1    0    0    0  0.11269921088E+02  0.26675545109E+02 -0.32668000925E+01  0.95947800168E+02  0.91415056452E+02 0.  0.
         13    1    3    3    0    0  0.35989509952E+02  0.16729142149E+02 -0.36108798323E+02  0.53655992247E+02  0.10566000000E+00 0. -1.
         22    1    1    0    0    0 -0.11269921088E+02 -0.26675545109E+02  0.32668000925E+01  0.29142199832E+02  0.00000000000E+00 0. -1.
</event>
<event>
 5    1  0.1255769E-009  0.9118800E+02  0.7561462E-02  0.1125453E+00
         25   -1    0    0    0    0  0.00000000000E+00  0.00000000000E+00  0.99999998245E-14  0.12509000000E+03  0.12509000000E+03 0.  0.
        -13    1    3    3    0    0 -0.22294624203E+02 -0.19187249813E+02 -0.17744021349E+02  0.34352034604E+02  0.10566000000E+00 0. -1.
         23    2    1    0    0    0  0.17923780823E+02  0.23829509826E+02 -0.93737112185E+01  0.93833417981E+02  0.88474495819E+02 0.  0.
         13    1    3    3    0    0  0.40218405026E+02  0.43016759639E+02  0.83703101307E+01  0.59481383377E+02  0.10566000000E+00 0.  1.
         22    1    1    0    0    0 -0.17923780823E+02 -0.23829509826E+02  0.93737112185E+01  0.31256582019E+02  0.00000000000E+00 0.  1.
</event>
<event>
 5    1  0.1255769E-009  0.9118800E+02  0.7561462E-02  0.1125453E+00
         25   -1    0    0    0    0  0.00000000000E+00  0.00000000000E+00  0.99999998245E-14  0.12509000000E+03  0.12509000000E+03 0.  0.
        -13    1    3    3    0    0 -0.99622962030E+01  0.32699653822E+02 -0.18740811166E+02  0.38983892480E+02  0.10566000000E+00 0. -1.
         23    2    1    0    0    0  0.23138594716E+02 -0.48551535316E+01 -0.26426891276E+02  0.89630901538E+02  0.82318593566E+02 0.  0.
         13    1    3    3    0    0  0.33100890919E+02 -0.37554807353E+02 -0.76860801098E+01  0.50647009058E+02  0.10566000000E+00 0.  1.
         22    1    1    0    0    0 -0.23138594716E+02  0.48551535316E+01  0.26426891276E+02  0.35459098462E+02  0.00000000000E+00 0.  1.
</event>
<event>
 5    1  0.1255769E-009  0.9118800E+02  0.7561462E-02  0.1125453E+00
         25   -1    0    0    0    0  0.00000000000E+00  0.00000000000E+00  0.99999998245E-14  0.12509000000E+03  0.12509000000E+03 0.  0.
        -13    1    3    3    0    0  0.14844711144E+02 -0.15555524060E+02  0.38020285495E+02  0.43679435103E+02  0.10566000000E+00 0.  1.
         23    2    1    0    0    0  0.15041819323E+02  0.22876338598E+02  0.41334231068E-01  0.97711451742E+02  0.93797350159E+02 0.  0.
         13    1    3    3    0    0  0.19710817880E+00  0.38431862657E+02 -0.37978951264E+02  0.54032016640E+02  0.10566000000E+00 0. -1.
         22    1    1    0    0    0 -0.15041819323E+02 -0.22876338598E+02 -0.41334231068E-01  0.27378548258E+02  0.00000000000E+00 0. -1.
</event>
<event>
 5    1  0.1255769E-009  0.9118800E+02  0.7561462E-02  0.1125453E+00
         25   -1    0    0    0    0  0.00000000000E+00  0.00000000000E+00  0.99999998245E-14  0.12509000000E+03  0.12509000000E+03 0.  0.
        -13    1    3    3    0    0  0.16337558175E+02  0.14153594207E+02 -0.38559489148E+02  0.44205038214E+02  0.10566000000E+00 0.  1.
         23    2    1    0    0    0  0.88287675759E+01  0.28538538618E+02  0.85389935660E+01  0.94020565913E+02  0.88738701141E+02 0.  0.
         13    1    3    3    0    0 -0.75087905991E+01  0.14384944410E+02  0.47098482714E+02  0.49815527699E+02  0.10566000000E+00 0. -1.
         22    1    1    0    0    0 -0.88287675759E+01 -0.28538538618E+02 -0.85389935660E+01  0.31069434087E+02  0.00000000000E+00 0.  1.
</event>
<event>
 5    1  0.1255769E-009  0.9118800E+02  0.7561462E-02  0.1125453E+00
         25   -1    0    0    0    0  0.00000000000E+00  0.00000000000E+00  0.99999998245E-14  0.12509000000E+03  0.12509000000E+03 0.  0.
        -13    1    3    3    0    0  0.26087363933E+02 -0.17665960374E+02 -0.35807397747E+02  0.47695048069E+02  0.10566000000E+00 0. -1.
         23    2    1    0    0    0  0.27703322031E+02  0.10316770232E+02  0.27903463334E+01  0.95396636563E+02  0.90657721322E+02 0.  0.
         13    1    3    3    0    0  0.16159580980E+01  0.27982730606E+02  0.38597744080E+02  0.47701588494E+02  0.10566000000E+00 0.  1.
         22    1    1    0    0    0 -0.27703322031E+02 -0.10316770232E+02 -0.27903463334E+01  0.29693363437E+02  0.00000000000E+00 0. -1.
</event>
<event>
 5    1  0.1255769E-009  0.9118800E+02  0.7561462E-02  0.1125453E+00
         25   -1    0    0    0    0  0.00000000000E+00  0.00000000000E+00  0.99999998245E-14  0.12509000000E+03  0.12509000000E+03 0.  0.
        -13    1    3    3    0    0 -0.12959138617E+01  0.31672216462E+02 -0.10541983612E+02  0.33405886770E+02  0.10566000000E+00 0. -1.
         23    2    1    0    0    0 -0.80931463341E+01 -0.27625101765E+02  0.67044194828E+01  0.95533367822E+02  0.90846187932E+02 0.  0.
         13    1    3    3    0    0 -0.67972324724E+01 -0.59297318227E+02  0.17246403095E+02  0.62127481052E+02  0.10566000000E+00 0.  1.
         22    1    1    0    0    0  0.80931463341E+01  0.27625101765E+02 -0.67044194828E+01  0.29556632178E+02  0.00000000000E+00 0.  1.
</event>
<event>
 5    1  0.1255769E-009  0.9118800E+02  0.7561462E-02  0.1125453E+00
         25   -1    0    0    0    0  0.00000000000E+00  0.00000000000E+00  0.99999998245E-14  0.12509000000E+03  0.12509000000E+03 0.  0.
        -13    1    3    3    0    0 -0.28494442978E+02 -0.33124910789E+01  0.52023522850E+02  0.59408450338E+02  0.10566000000E+00 0.  1.
         23    2    1    0    0    0 -0.49146995163E+00  0.51353136834E+00  0.29586509600E+02  0.95494952991E+02  0.90793277500E+02 0.  0.
         13    1    3    3    0    0  0.28002973026E+02  0.38260224473E+01 -0.22437013250E+02  0.36086502653E+02  0.10566000000E+00 0. -1.
         22    1    1    0    0    0  0.49146995163E+00 -0.51353136834E+00 -0.29586509600E+02  0.29595047009E+02  0.00000000000E+00 0.  1.
</event>
<event>
 5    1  0.1255769E-009  0.9118800E+02  0.7561462E-02  0.1125453E+00
         25   -1    0    0    0    0  0.00000000000E+00  0.00000000000E+00  0.99999998245E-14  0.12509000000E+03  0.12509000000E+03 0.  0.
        -13    1    3    3    0    0 -0.34144044858E+02 -0.30333895212E+02 -0.40625272112E+02  0.61125975625E+02  0.10566000000E+00 0. -1.
         23    2    1    0    0    0 -0.21940420017E+02 -0.82045848744E+01 -0.14163246621E+02  0.97716750314E+02  0.93804416173E+02 0.  0.
         13    1    3    3    0    0  0.12203624841E+02  0.22129310337E+02  0.26462025491E+02  0.36590774689E+02  0.10566000000E+00 0.  1.
         22    1    1    0    0    0  0.21940420017E+02  0.82045848744E+01  0.14163246621E+02  0.27373249686E+02  0.00000000000E+00 0. -1.
</event>
<event>
 5    1  0.1255769E-009  0.9118800E+02  0.7561462E-02  0.1125453E+00
         25   -1    0    0    0    0  0.00000000000E+00  0.00000000000E+00  0.99999998245E-14  0.12509000000E+03  0.12509000000E+03 0.  0.
        -13    1    3    3    0    0 -0.11283267241E+02 -0.15038642021E+02  0.40173956007E+02  0.44355729943E+02  0.10566000000E+00 0.  1.
         23    2    1    0    0    0  0.27713107857E+02  0.52385293564E+00  0.12216312967E+02  0.94799257660E+02  0.89829673168E+02 0.  0.
         13    1    3    3    0    0  0.38996375098E+02  0.15562494957E+02 -0.27957643041E+02  0.50443527717E+02  0.10566000000E+00 0. -1.
         22    1    1    0    0    0 -0.27713107857E+02 -0.52385293564E+00 -0.12216312967E+02  0.30290742340E+02  0.00000000000E+00 0. -1.
</event>
<event>
 5    1  0.1255769E-009  0.9118800E+02  0.7561462E-02  0.1125453E+00
         25   -1    0    0    0    0  0.00000000000E+00  0.00000000000E+00  0.99999998245E-14  0.12509000000E+03  0.12509000000E+03 0.  0.
        -13    1    3    3    0    0  0.27047056254E+02 -0.15359436994E+02 -0.19196530231E+02  0.36550971173E+02  0.10566000000E+00 0. -1.
         23    2    1    0    0    0 -0.11577308805E+02  0.26544993305E+02 -0.20804023523E+01  0.96055557992E+02  0.91562390743E+02 0.  0.
         13    1    3    3    0    0 -0.38624365059E+02  0.41904430299E+02  0.17116127879E+02  0.59504586819E+02  0.10566000000E+00 0.  1.
         22    1    1    0    0    0  0.11577308805E+02 -0.26544993305E+02  0.20804023523E+01  0.29034442008E+02  0.00000000000E+00 0.  1.
</event>
<event>
 5    1  0.1255769E-009  0.9118800E+02  0.7561462E-02  0.1125453E+00
         25   -1    0    0    0    0  0.00000000000E+00  0.00000000000E+00  0.99999998245E-14  0.12509000000E+03  0.12509000000E+03 0.  0.
        -13    1    3    3    0    0  0.39875378676E+02  0.15974441069E+02  0.43297776653E+02  0.60991288059E+02  0.10566000000E+00 0.  1.
         23    2    1    0    0    0  0.24649668893E+02  0.93782694993E+01  0.12656998941E+02  0.95836662797E+02  0.91262852238E+02 0.  0.
         13    1    3    3    0    0 -0.15225709783E+02 -0.65961715701E+01 -0.30640777712E+02  0.34845374738E+02  0.10566000000E+00 0. -1.
         22    1    1    0    0    0 -0.24649668893E+02 -0.93782694993E+01 -0.12656998941E+02  0.29253337203E+02  0.00000000000E+00 0.  1.
</event>
<event>
 5    1  0.1255769E-009  0.9118800E+02  0.7561462E-02  0.1125453E+00
         25   -1    0    0    0    0  0.00000000000E+00  0.00000000000E+00  0.99999998245E-14  0.12509000000E+03  0.12509000000E+03 0.  0.
        -13    1    3    3    0    0 -0.22195865022E+02  0.66657463028E+01  0.40484303228E+02  0.46648457314E+02  0.10566000000E+00 0.  1.
         23    2    1    0    0    0  0.17103983997E+02 -0.13594986752E+02  0.20349862525E+02  0.95232223155E+02  0.90430578284E+02 0.  0.
         13    1    3    3    0    0  0.39299849019E+02 -0.20260733054E+02 -0.20134440703E+02  0.48583765841E+02  0.10566000000E+00 0. -1.
         22    1    1    0    0    0 -0.17103983997E+02  0.13594986752E+02 -0.20349862525E+02  0.29857776845E+02  0.00000000000E+00 0.  1.
</event>
<event>
 5    1  0.1255769E-009  0.9118800E+02  0.7561462E-02  0.1125453E+00
         25   -1    0    0    0    0  0.00000000000E+00  0.00000000000E+00  0.99999998245E-14  0.12509000000E+03  0.12509000000E+03 0.  0.
        -13    1    3    3    0    0 -0.87792518310E+01  0.36939528941E+02  0.28429722156E+02  0.47432734762E+02  0.10566000000E+00 0.  1.
         23    2    1    0    0    0  0.12851178127E+02 -0.57499570976E+01  0.26206405885E+02  0.95341210188E+02  0.90581211434E+02 0.  0.
         13    1    3    3    0    0  0.21630429958E+02 -0.42689486038E+02 -0.22233162710E+01  0.47908475426E+02  0.10566000000E+00 0. -1.
         22    1    1    0    0    0 -0.12851178127E+02  0.57499570976E+01 -0.26206405885E+02  0.29748789812E+02  0.00000000000E+00 0. -1.
</event>
<event>
 5    1  0.1255769E-009  0.9118800E+02  0.7561462E-02  0.1125453E+00
         25   -1    0    0    0    0  0.00000000000E+00  0.00000000000E+00  0.99999998245E-14  0.12509000000E+03  0.12509000000E+03 0.  0.
        -13    1    3    3    0    0  0.12276914591E+00 -0.33892515538E+02  0.30686392927E+02  0.45720712556E+02  0.10566000000E+00 0.  1.
         23    2    1    0    0    0  0.25980029649E+02 -0.14907328730E+02 -0.60923048508E+01  0.94523571213E+02  0.89444949248E+02 0.  0.
         13    1    3    3    0    0  0.25857260503E+02  0.18985186807E+02 -0.36778697777E+02  0.48802858657E+02  0.10566000000E+00 0. -1.
         22    1    1    0    0    0 -0.25980029649E+02  0.14907328730E+02  0.60923048508E+01  0.30566428787E+02  0.00000000000E+00 0. -1.
</event>
<event>
 5    1  0.1255769E-009  0.9118800E+02  0.7561462E-02  0.1125453E+00
         25   -1    0    0    0    0  0.00000000000E+00  0.00000000000E+00  0.99999998245E-14  0.12509000000E+03  0.12509000000E+03 0.  0.
        -13    1    3    3    0    0  0.14538531892E+01 -0.28235051642E+02  0.46816213003E+02  0.54690957153E+02  0.10566000000E+00 0.  1.
         23    2    1    0    0    0 -0.19961645792E+02 -0.53406923242E+01  0.13670781262E+02  0.10031338688E+03  0.97205426960E+02 0.  0.
         13    1    3    3    0    0 -0.21415498981E+02  0.22894359317E+02 -0.33145431741E+02  0.45622429730E+02  0.10566000000E+00 0. -1.
         22    1    1    0    0    0  0.19961645792E+02  0.53406923242E+01 -0.13670781262E+02  0.24776613117E+02  0.00000000000E+00 0.  1.
</event>
<event>
 5    1  0.1255769E-009  0.9118800E+02  0.7561462E-02  0.1125453E+00
         25   -1    0    0    0    0  0.00000000000E+00  0.00000000000E+00  0.99999998245E-14  0.12509000000E+03  0.12509000000E+03 0.  0.
        -13    1    3    3    0    0  0.27502482367E+02  0.20318192348E+02 -0.31979530353E+02  0.46817913263E+02  0.10566000000E+00 0. -1.
         23    2    1    0    0    0 -0.99054897282E+01  0.28189690360E+02 -0.24727458530E+01  0.95108474999E+02  0.90259238725E+02 0.  0.
         13    1    3    3    0    0 -0.37407972095E+02  0.78714980114E+01  0.29506784500E+02  0.48290561736E+02  0.10566000000E+00 0.  1.
         22    1    1    0    0    0  0.99054897282E+01 -0.28189690360E+02  0.24727458530E+01  0.29981525001E+02  0.00000000000E+00 0. -1.
</event>
<event>
 5    1  0.1255769E-009  0.9118800E+02  0.7561462E-02  0.1125453E+00
         25   -1    0    0    0    0  0.00000000000E+00  0.00000000000E+00  0.99999998245E-14  0.12509000000E+03  0.12509000000E+03 0.  0.
        -13    1    3    3    0    0 -0.48544286909E+02 -0.99879081044E+01 -0.14154261951E+02  0.51542801585E+02  0.10566000000E+00 0.  1.
         23    2    1    0    0    0 -0.22278999159E+02  0.10031400607E+02  0.15688245491E+02  0.96053749411E+02  0.91559919876E+02 0.  0.
         13    1    3    3    0    0  0.26265287750E+02  0.20019308712E+02  0.29842507443E+02  0.44510947826E+02  0.10566000000E+00 0. -1.
         22    1    1    0    0    0  0.22278999159E+02 -0.10031400607E+02 -0.15688245491E+02  0.29036250589E+02  0.00000000000E+00 0.  1.
</event>
<event>
 5    1  0.1255769E-009  0.9118800E+02  0.7561462E-02  0.1125453E+00
         25   -1    0    0    0    0  0.00000000000E+00  0.00000000000E+00  0.99999998245E-14  0.12509000000E+03  0.12509000000E+03 0.  0.
        -13    1    3    3    0    0 -0.64223805621E+00  0.73522724089E+01  0.44365960277E+02  0.44975748739E+02  0.10566000000E+00 0.  1.
         23    2    1    0    0    0 -0.27010356139E+02  0.29089567797E+01 -0.12974730342E+01  0.97892485324E+02  0.94038470204E+02 0.  0.
         13    1    3    3    0    0 -0.26368118083E+02 -0.44433156292E+01 -0.45663433311E+02  0.52916736585E+02  0.10566000000E+00 0. -1.
         22    1    1    0    0    0  0.27010356139E+02 -0.29089567797E+01  0.12974730342E+01  0.27197514676E+02  0.00000000000E+00 0. -1.
</event>
<event>
 5    1  0.1255769E-009  0.9118800E+02  0.7561462E-02  0.1125453E+00
         25   -1    0    0    0    0  0.00000000000E+00  0.00000000000E+00  0.99999998245E-14  0.12509000000E+03  0.12509000000E+03 0.  0.
        -13    1    3    3    0    0 -0.80850912030E+01  0.33142382029E+02  0.37006191849E+01  0.34314602325E+02  0.10566000000E+00 0.  1.
         23    2    1    0    0    0  0.70659579109E+01 -0.23356254703E+02  0.18281844601E+02  0.94599538590E+02  0.89551127657E+02 0.  0.
         13    1    3    3    0    0  0.15151049114E+02 -0.56498636732E+02  0.14581225416E+02  0.60284936266E+02  0.10566000000E+00 0. -1.
         22    1    1    0    0    0 -0.70659579109E+01  0.23356254703E+02 -0.18281844601E+02  0.30490461410E+02  0.00000000000E+00 0. -1.
</event>
<event>
 5    1  0.1255769E-009  0.9118800E+02  0.7561462E-02  0.1125453E+00
         25   -1    0    0    0    0  0.00000000000E+00  0.00000000000E+00  0.99999998245E-14  0.12509000000E+03  0.12509000000E+03 0.  0.
        -13    1    3    3    0    0  0.23919543392E+02 -0.23502500259E+02  0.29985424967E+01  0.33667707015E+02  0.10566000000E+00 0.  1.
         23    2    1    0    0    0 -0.16482114261E+02  0.23816853159E+02  0.36881199207E+01  0.95892314930E+02  0.91339100330E+02 0.  0.
         13    1    3    3    0    0 -0.40401657653E+02  0.47319353419E+02  0.68957742401E+00  0.62224607914E+02  0.10566000000E+00 0. -1.
         22    1    1    0    0    0  0.16482114261E+02 -0.23816853159E+02 -0.36881199207E+01  0.29197685070E+02  0.00000000000E+00 0. -1.
</event>
<event>
 5    1  0.1255769E-009  0.9118800E+02  0.7561462E-02  0.1125453E+00
         25   -1    0    0    0    0  0.00000000000E+00  0.00000000000E+00  0.99999998245E-14  0.12509000000E+03  0.12509000000E+03 0.  0.
        -13    1    3    3    0    0 -0.34664870099E+02 -0.25531208244E+01 -0.18177406150E+01  0.34806421676E+02  0.10566000000E+00 0. -1.
         23    2    1    0    0    0  0.21324968266E+02  0.16433052949E+01  0.20723117482E+02  0.95309094675E+02  0.90536849988E+02 0.  0.
         13    1    3    3    0    0  0.55989838364E+02  0.41964261192E+01  0.22540858097E+02  0.60502672999E+02  0.10566000000E+00 0.  1.
         22    1    1    0    0    0 -0.21324968266E+02 -0.16433052949E+01 -0.20723117482E+02  0.29780905325E+02  0.00000000000E+00 0.  1.
</event>
<event>
 5    1  0.1255769E-009  0.9118800E+02  0.7561462E-02  0.1125453E+00
         25   -1    0    0    0    0  0.00000000000E+00  0.00000000000E+00  0.99999998245E-14  0.12509000000E+03  0.12509000000E+03 0.  0.
        -13    1    3    3    0    0 -0.18929368329E+02  0.25171833327E+02 -0.15146052547E+02  0.34947907665E+02  0.10566000000E+00 0. -1.
         23    2    1    0    0    0  0.13864457385E+02 -0.23828883660E+02 -0.14559459766E+02  0.93912816937E+02  0.88586683205E+02 0.  0.
         13    1    3    3    0    0  0.32793825714E+02 -0.49000716987E+02  0.58659278099E+00  0.58964909271E+02  0.10566000000E+00 0.  1.
         22    1    1    0    0    0 -0.13864457385E+02  0.23828883660E+02  0.14559459766E+02  0.31177183063E+02  0.00000000000E+00 0.  1.
</event>
<event>
 5    1  0.1255769E-009  0.9118800E+02  0.7561462E-02  0.1125453E+00
         25   -1    0    0    0    0  0.00000000000E+00  0.00000000000E+00  0.99999998245E-14  0.12509000000E+03  0.12509000000E+03 0.  0.
        -13    1    3    3    0    0 -0.15342248882E+02 -0.38553112698E+02  0.19445351419E+02  0.45824228912E+02  0.10566000000E+00 0.  1.
         23    2    1    0    0    0 -0.73846953219E+00 -0.15323321423E+02 -0.23642016372E+02  0.96906769972E+02  0.92718000472E+02 0.  0.
         13    1    3    3    0    0  0.14603779350E+02  0.23229791275E+02 -0.43087367791E+02  0.51082541060E+02  0.10566000000E+00 0. -1.
         22    1    1    0    0    0  0.73846953219E+00  0.15323321423E+02  0.23642016372E+02  0.28183230028E+02  0.00000000000E+00 0.  1.
</event>
<event>
 5    1  0.1255769E-009  0.9118800E+02  0.7561462E-02  0.1125453E+00
         25   -1    0    0    0    0  0.00000000000E+00  0.00000000000E+00  0.99999998245E-14  0.12509000000E+03  0.12509000000E+03 0.  0.
        -13    1    3    3    0    0 -0.96989451093E+01 -0.21879502785E+02 -0.35811915042E+02  0.43073037987E+02  0.10566000000E+00 0.  1.
         23    2    1    0    0    0  0.29662825373E+02 -0.40770583136E+01 -0.94015400454E+01  0.93706970050E+02  0.88295535941E+02 0.  0.
         13    1    3    3    0    0  0.39361770483E+02  0.17802444471E+02  0.26410374997E+02  0.50633932063E+02  0.10566000000E+00 0. -1.
         22    1    1    0    0    0 -0.29662825373E+02  0.40770583136E+01  0.94015400454E+01  0.31383029950E+02  0.00000000000E+00 0. -1.
</event>
<event>
 5    1  0.1255769E-009  0.9118800E+02  0.7561462E-02  0.1125453E+00
         25   -1    0    0    0    0  0.00000000000E+00  0.00000000000E+00  0.99999998245E-14  0.12509000000E+03  0.12509000000E+03 0.  0.
        -13    1    3    3    0    0  0.41219382934E+02 -0.32441767131E+02  0.48715496620E+01  0.52680631585E+02  0.10566000000E+00 0. -1.
         23    2    1    0    0    0  0.23634652222E+02 -0.36826267209E+01 -0.19460102850E+02  0.94254077310E+02  0.89067260884E+02 0.  0.
         13    1    3    3    0    0 -0.17584730713E+02  0.28759140411E+02 -0.24331652512E+02  0.41573445725E+02  0.10566000000E+00 0.  1.
         22    1    1    0    0    0 -0.23634652222E+02  0.36826267209E+01  0.19460102850E+02  0.30835922690E+02  0.00000000000E+00 0.  1.
</event>
<event>
 5    1  0.1255769E-009  0.9118800E+02  0.7561462E-02  0.1125453E+00
         25   -1    0    0    0    0  0.00000000000E+00  0.00000000000E+00  0.99999998245E-14  0.12509000000E+03  0.12509000000E+03 0.  0.
        -13    1    3    3    0    0  0.31791345899E+02  0.15752856319E+02 -0.13817157738E+02  0.38075808176E+02  0.10566000000E+00 0. -1.
         23    2    1    0    0    0 -0.24888935119E+02  0.15319839789E+02 -0.44077096719E+01  0.95533537305E+02  0.90846421299E+02 0.  0.
         13    1    3    3    0    0 -0.56680281018E+02 -0.43301653028E+00  0.94094480661E+01  0.57457729128E+02  0.10566000000E+00 0.  1.
         22    1    1    0    0    0  0.24888935119E+02 -0.15319839789E+02  0.44077096719E+01  0.29556462695E+02  0.00000000000E+00 0.  1.
</event>
<event>
 5    1  0.1255769E-009  0.9118800E+02  0.7561462E-02  0.1125453E+00
         25   -1    0    0    0    0  0.00000000000E+00  0.00000000000E+00  0.99999998245E-14  0.12509000000E+03  0.12509000000E+03 0.  0.
        -13    1    3    3    0    0 -0.56088020960E+02  0.14591676449E+02 -0.10058651004E+01  0.57963833944E+02  0.10566000000E+00 0.  1.
         23    2    1    0    0    0 -0.24368202335E+02 -0.14882211961E+01 -0.15284908228E+02  0.96286310880E+02  0.91877098104E+02 0.  0.
         13    1    3    3    0    0  0.31719818625E+02 -0.16079897645E+02 -0.14279043127E+02  0.38322476936E+02  0.10566000000E+00 0. -1.
         22    1    1    0    0    0  0.24368202335E+02  0.14882211961E+01  0.15284908228E+02  0.28803689120E+02  0.00000000000E+00 0. -1.
</event>
<event>
 5    1  0.1255769E-009  0.9118800E+02  0.7561462E-02  0.1125453E+00
         25   -1    0    0    0    0  0.00000000000E+00  0.00000000000E+00  0.99999998245E-14  0.12509000000E+03  0.12509000000E+03 0.  0.
        -13    1    3    3    0    0 -0.14075935573E+02  0.49367679169E+02  0.17396770171E+02  0.54202937976E+02  0.10566000000E+00 0. -1.
         23    2    1    0    0    0 -0.13209543191E+02  0.71137456837E+01  0.23807549298E+02  0.96949338804E+02  0.92775414210E+02 0.  0.
         13    1    3    3    0    0  0.86639238167E+00 -0.42253933485E+02  0.64107791271E+01  0.42746400828E+02  0.10566000000E+00 0.  1.
         22    1    1    0    0    0  0.13209543191E+02 -0.71137456837E+01 -0.23807549298E+02  0.28140661196E+02  0.00000000000E+00 0.  1.
</event>
<event>
 5    1  0.1255769E-009  0.9118800E+02  0.7561462E-02  0.1125453E+00
         25   -1    0    0    0    0  0.00000000000E+00  0.00000000000E+00  0.99999998245E-14  0.12509000000E+03  0.12509000000E+03 0.  0.
        -13    1    3    3    0    0 -0.23342298314E+01  0.33670803367E+02  0.13103102786E+02  0.36205995290E+02  0.10566000000E+00 0. -1.
         23    2    1    0    0    0 -0.21845995927E+02 -0.10575096480E+02 -0.19014786205E+02  0.94257512296E+02  0.89072085000E+02 0.  0.
         13    1    3    3    0    0 -0.19511766096E+02 -0.44245899847E+02 -0.32117888991E+02  0.58051517006E+02  0.10566000000E+00 0.  1.
         22    1    1    0    0    0  0.21845995927E+02  0.10575096480E+02  0.19014786205E+02  0.30832487704E+02  0.00000000000E+00 0.  1.
</event>
<event>
 5    1  0.1255769E-009  0.9118800E+02  0.7561462E-02  0.1125453E+00
         25   -1    0    0    0    0  0.00000000000E+00  0.00000000000E+00  0.99999998245E-14  0.12509000000E+03  0.12509000000E+03 0.  0.
        -13    1    3    3    0    0  0.19523333393E+02 -0.23574045792E+02  0.28631984757E+02  0.41912980053E+02  0.10566000000E+00 0. -1.
         23    2    1    0    0    0  0.16390499817E+02 -0.67700274002E+01 -0.22854146643E+02  0.96162612043E+02  0.91708528397E+02 0.  0.
         13    1    3    3    0    0 -0.31328335764E+01  0.16804018392E+02 -0.51486131401E+02  0.54249631989E+02  0.10566000000E+00 0.  1.
         22    1    1    0    0    0 -0.16390499817E+02  0.67700274002E+01  0.22854146643E+02  0.28927387957E+02  0.00000000000E+00 0.  1.
</event>
<event>
 5    1  0.1255769E-009  0.9118800E+02  0.7561462E-02  0.1125453E+00
         25   -1    0    0    0    0  0.00000000000E+00  0.00000000000E+00  0.99999998245E-14  0.12509000000E+03  0.12509000000E+03 0.  0.
        -13    1    3    3    0    0 -0.13857318712E+02 -0.26333857685E+02  0.36795600529E+02  0.47322560421E+02  0.10566000000E+00 0.  1.
         23    2    1    0    0    0  0.68693910833E+01 -0.28354768931E+02 -0.63506911682E+01  0.95231789516E+02  0.90429978443E+02 0.  0.
         13    1    3    3    0    0  0.20726709795E+02 -0.20209112460E+01 -0.43146291698E+02  0.47909229095E+02  0.10566000000E+00 0. -1.
         22    1    1    0    0    0 -0.68693910833E+01  0.28354768931E+02  0.63506911682E+01  0.29858210484E+02  0.00000000000E+00 0. -1.
</event>
<event>
 5    1  0.1255769E-009  0.9118800E+02  0.7561462E-02  0.1125453E+00
         25   -1    0    0    0    0  0.00000000000E+00  0.00000000000E+00  0.99999998245E-14  0.12509000000E+03  0.12509000000E+03 0.  0.
        -13    1    3    3    0    0 -0.37339512325E+02 -0.13874792384E+02 -0.14060535730E+02  0.42242855886E+02  0.10566000000E+00 0.  1.
         23    2    1    0    0    0 -0.14912460939E+02  0.26783539030E+02  0.76400626222E+01  0.93497120880E+02  0.87997736345E+02 0.  0.
         13    1    3    3    0    0  0.22427051386E+02  0.40658331413E+02  0.21700598352E+02  0.51254264994E+02  0.10566000000E+00 0. -1.
         22    1    1    0    0    0  0.14912460939E+02 -0.26783539030E+02 -0.76400626222E+01  0.31592879120E+02  0.00000000000E+00 0. -1.
</event>
<event>
 5    1  0.1255769E-009  0.9118800E+02  0.7561462E-02  0.1125453E+00
         25   -1    0    0    0    0  0.00000000000E+00  0.00000000000E+00  0.99999998245E-14  0.12509000000E+03  0.12509000000E+03 0.  0.
        -13    1    3    3    0    0  0.29830660637E+02  0.59590273249E+01  0.10506099930E+02  0.32183343836E+02  0.10566000000E+00 0. -1.
         23    2    1    0    0    0 -0.27495357593E+02 -0.99859822985E+01 -0.84658162489E+01  0.94637010386E+02  0.89603455059E+02 0.  0.
         13    1    3    3    0    0 -0.57326018230E+02 -0.15945009623E+02 -0.18971916179E+02  0.62453666550E+02  0.10566000000E+00 0.  1.
         22    1    1    0    0    0  0.27495357593E+02  0.99859822985E+01  0.84658162489E+01  0.30452989614E+02  0.00000000000E+00 0.  1.
</event>
<event>
 5    1  0.1255769E-009  0.9118800E+02  0.7561462E-02  0.1125453E+00
         25   -1    0    0    0    0  0.00000000000E+00  0.00000000000E+00  0.99999998245E-14  0.12509000000E+03  0.12509000000E+03 0.  0.
        -13    1    3    3    0    0 -0.54955138347E+02 -0.16607044767E+02  0.21651886693E+02  0.61356959899E+02  0.10566000000E+00 0. -1.
         23    2    1    0    0    0 -0.29011943305E+02 -0.18325724119E+01  0.48410903905E+01  0.95619890870E+02  0.90965247198E+02 0.  0.
         13    1    3    3    0    0  0.25943195042E+02  0.14774472356E+02 -0.16810796303E+02  0.34262930971E+02  0.10566000000E+00 0.  1.
         22    1    1    0    0    0  0.29011943305E+02  0.18325724119E+01 -0.48410903905E+01  0.29470109130E+02  0.00000000000E+00 0. -1.
</event>
<event>
 5    1  0.1255769E-009  0.9118800E+02  0.7561462E-02  0.1125453E+00
         25   -1    0    0    0    0  0.00000000000E+00  0.00000000000E+00  0.99999998245E-14  0.12509000000E+03  0.12509000000E+03 0.  0.
        -13    1    3    3    0    0  0.17208410605E+02  0.30374062730E+02 -0.52044613023E+01  0.35296043174E+02  0.10566000000E+00 0.  1.
         23    2    1    0    0    0  0.20308220329E+01 -0.22894968038E+02  0.18539638367E+02  0.95559981538E+02  0.90882826106E+02 0.  0.
         13    1    3    3    0    0 -0.15177588572E+02 -0.53269030768E+02  0.23744099670E+02  0.60263938363E+02  0.10566000000E+00 0. -1.
         22    1    1    0    0    0 -0.20308220329E+01  0.22894968038E+02 -0.18539638367E+02  0.29530018462E+02  0.00000000000E+00 0. -1.
</event>
<event>
 5    1  0.1255769E-009  0.9118800E+02  0.7561462E-02  0.1125453E+00
         25   -1    0    0    0    0  0.00000000000E+00  0.00000000000E+00  0.99999998245E-14  0.12509000000E+03  0.12509000000E+03 0.  0.
        -13    1    3    3    0    0  0.23465030994E+01  0.33458983712E+02 -0.50526794688E+02  0.60646333882E+02  0.10566000000E+00 0.  1.
         23    2    1    0    0    0 -0.60283337573E+01  0.73210288148E+01 -0.25849218514E+02  0.97556014299E+02  0.93589826142E+02 0.  0.
         13    1    3    3    0    0 -0.83748368567E+01 -0.26137954897E+02  0.24677576174E+02  0.36909680416E+02  0.10566000000E+00 0. -1.
         22    1    1    0    0    0  0.60283337573E+01 -0.73210288148E+01  0.25849218514E+02  0.27533985701E+02  0.00000000000E+00 0.  1.
</event>
<event>
 5    1  0.1255769E-009  0.9118800E+02  0.7561462E-02  0.1125453E+00
         25   -1    0    0    0    0  0.00000000000E+00  0.00000000000E+00  0.99999998245E-14  0.12509000000E+03  0.12509000000E+03 0.  0.
        -13    1    3    3    0    0  0.34183985111E+01  0.10554905736E+02  0.34569677756E+02  0.36306545797E+02  0.10566000000E+00 0. -1.
         23    2    1    0    0    0  0.87271898092E+01 -0.24452210872E+02 -0.13355985594E+02  0.95893136989E+02  0.91340226143E+02 0.  0.
         13    1    3    3    0    0  0.53087912981E+01 -0.35007116609E+02 -0.47925663350E+02  0.59586591192E+02  0.10566000000E+00 0.  1.
         22    1    1    0    0    0 -0.87271898092E+01  0.24452210872E+02  0.13355985594E+02  0.29196863011E+02  0.00000000000E+00 0.  1.
</event>
<event>
 5    1  0.1255769E-009  0.9118800E+02  0.7561462E-02  0.1125453E+00
         25   -1    0    0    0    0  0.00000000000E+00  0.00000000000E+00  0.99999998245E-14  0.12509000000E+03  0.12509000000E+03 0.  0.
        -13    1    3    3    0    0 -0.20162470353E+02 -0.90334093573E+01  0.12321583664E+01  0.22128196349E+02  0.10566000000E+00 0. -1.
         23    2    1    0    0    0  0.37096307890E+02 -0.16428279391E+02  0.15598990786E+02  0.81623312338E+02  0.69086989952E+02 0.  0.
         13    1    3    3    0    0  0.57258778243E+02 -0.73948700339E+01  0.14366832419E+02  0.59495115989E+02  0.10566000000E+00 0.  1.
         22    1    1    0    0    0 -0.37096307890E+02  0.16428279391E+02 -0.15598990786E+02  0.43466687662E+02  0.00000000000E+00 0.  1.
</event>
<event>
 5    1  0.1255769E-009  0.9118800E+02  0.7561462E-02  0.1125453E+00
         25   -1    0    0    0    0  0.00000000000E+00  0.00000000000E+00  0.99999998245E-14  0.12509000000E+03  0.12509000000E+03 0.  0.
        -13    1    3    3    0    0  0.10274789760E+02  0.39627824372E+02  0.18255210491E+02  0.44824096680E+02  0.10566000000E+00 0. -1.
         23    2    1    0    0    0  0.74696353319E-01  0.92282214254E+01 -0.24869440458E+02  0.98563509110E+02  0.94926869796E+02 0.  0.
         13    1    3    3    0    0 -0.10200093407E+02 -0.30399602946E+02 -0.43124650949E+02  0.53739412430E+02  0.10566000000E+00 0.  1.
         22    1    1    0    0    0 -0.74696353319E-01 -0.92282214254E+01  0.24869440458E+02  0.26526490890E+02  0.00000000000E+00 0.  1.
</event>
<event>
 5    1  0.1255769E-009  0.9118800E+02  0.7561462E-02  0.1125453E+00
         25   -1    0    0    0    0  0.00000000000E+00  0.00000000000E+00  0.99999998245E-14  0.12509000000E+03  0.12509000000E+03 0.  0.
        -13    1    3    3    0    0  0.23228741309E+02  0.42910524125E+02  0.33508503559E+02  0.59192216365E+02  0.10566000000E+00 0.  1.
         23    2    1    0    0    0  0.87715210925E+01  0.22940674305E+02  0.33054927235E+00  0.10052735799E+03  0.97480389419E+02 0.  0.
         13    1    3    3    0    0 -0.14457220217E+02 -0.19969849820E+02 -0.33177954286E+02  0.41335141622E+02  0.10566000000E+00 0. -1.
         22    1    1    0    0    0 -0.87715210925E+01 -0.22940674305E+02 -0.33054927235E+00  0.24562642013E+02  0.00000000000E+00 0. -1.
</event>
<event>
 5    1  0.1255769E-009  0.9118800E+02  0.7561462E-02  0.1125453E+00
         25   -1    0    0    0    0  0.00000000000E+00  0.00000000000E+00  0.99999998245E-14  0.12509000000E+03  0.12509000000E+03 0.  0.
        -13    1    3    3    0    0  0.32413038722E+02  0.24445031696E+02  0.52930477035E+01  0.40941325966E+02  0.10566000000E+00 0.  1.
         23    2    1    0    0    0 -0.11340707270E+02  0.21296169011E+01  0.27816281485E+02  0.94975345342E+02  0.90074545781E+02 0.  0.
         13    1    3    3    0    0 -0.43753745992E+02 -0.22315414795E+02  0.22523233782E+02  0.54034019375E+02  0.10566000000E+00 0. -1.
         22    1    1    0    0    0  0.11340707270E+02 -0.21296169011E+01 -0.27816281485E+02  0.30114654658E+02  0.00000000000E+00 0. -1.
</event>
<event>
 5    1  0.1255769E-009  0.9118800E+02  0.7561462E-02  0.1125453E+00
         25   -1    0    0    0    0  0.00000000000E+00  0.00000000000E+00  0.99999998245E-14  0.12509000000E+03  0.12509000000E+03 0.  0.
        -13    1    3    3    0    0 -0.96941240387E+01  0.43023222744E+02 -0.32791575788E+02  0.54957004493E+02  0.10566000000E+00 0.  1.
         23    2    1    0    0    0 -0.15591472311E+02  0.25537458428E+02  0.27900799401E+01  0.95039370425E+02  0.90163416045E+02 0.  0.
         13    1    3    3    0    0 -0.58973482719E+01 -0.17485764316E+02  0.35581655728E+02  0.40082365932E+02  0.10566000000E+00 0. -1.
         22    1    1    0    0    0  0.15591472311E+02 -0.25537458428E+02 -0.27900799401E+01  0.30050629575E+02  0.00000000000E+00 0. -1.
</event>
<event>
 5    1  0.1255769E-009  0.9118800E+02  0.7561462E-02  0.1125453E+00
         25   -1    0    0    0    0  0.00000000000E+00  0.00000000000E+00  0.99999998245E-14  0.12509000000E+03  0.12509000000E+03 0.  0.
        -13    1    3    3    0    0 -0.25130063534E+02  0.51313036778E+02  0.11919208954E+02  0.58366313424E+02  0.10566000000E+00 0.  1.
         23    2    1    0    0    0 -0.14326065352E+02  0.23940507441E+02 -0.10415232906E+02  0.95309786409E+02  0.90537805716E+02 0.  0.
         13    1    3    3    0    0  0.10803998182E+02 -0.27372529336E+02 -0.22334441860E+02  0.36943472985E+02  0.10566000000E+00 0. -1.
         22    1    1    0    0    0  0.14326065352E+02 -0.23940507441E+02  0.10415232906E+02  0.29780213591E+02  0.00000000000E+00 0.  1.
</event>
<event>
 5    1  0.1255769E-009  0.9118800E+02  0.7561462E-02  0.1125453E+00
         25   -1    0    0    0    0  0.00000000000E+00  0.00000000000E+00  0.99999998245E-14  0.12509000000E+03  0.12509000000E+03 0.  0.
        -13    1    3    3    0    0  0.40216916667E+02 -0.30338249844E-01 -0.31992601608E+02  0.51390067409E+02  0.10566000000E+00 0. -1.
         23    2    1    0    0    0  0.12665071891E+02 -0.25744252586E+02 -0.13032023539E+02  0.93578030453E+02  0.88112675358E+02 0.  0.
         13    1    3    3    0    0 -0.27551844776E+02 -0.25713914337E+02  0.18960578069E+02  0.42187963044E+02  0.10566000000E+00 0.  1.
         22    1    1    0    0    0 -0.12665071891E+02  0.25744252586E+02  0.13032023539E+02  0.31511969547E+02  0.00000000000E+00 0. -1.
</event>
<event>
 5    1  0.1255769E-009  0.9118800E+02  0.7561462E-02  0.1125453E+00
         25   -1    0    0    0    0  0.00000000000E+00  0.00000000000E+00  0.99999998245E-14  0.12509000000E+03  0.12509000000E+03 0.  0.
        -13    1    3    3    0    0  0.14761718868E+02 -0.36646998073E+02 -0.36796513858E+01  0.39679488531E+02  0.10566000000E+00 0.  1.
         23    2    1    0    0    0 -0.27457125699E+02  0.24188179833E+01  0.18475136242E+01  0.97464690251E+02  0.93467684828E+02 0.  0.
         13    1    3    3    0    0 -0.42218844568E+02  0.39065816056E+02  0.55271650100E+01  0.57785201721E+02  0.10566000000E+00 0. -1.
         22    1    1    0    0    0  0.27457125699E+02 -0.24188179833E+01 -0.18475136242E+01  0.27625309749E+02  0.00000000000E+00 0. -1.
</event>
<event>
 5    1  0.1255769E-009  0.9118800E+02  0.7561462E-02  0.1125453E+00
         25   -1    0    0    0    0  0.00000000000E+00  0.00000000000E+00  0.99999998245E-14  0.12509000000E+03  0.12509000000E+03 0.  0.
        -13    1    3    3    0    0  0.20623009191E+02  0.40294197190E+02 -0.36788986248E+02  0.58329850921E+02  0.10566000000E+00 0. -1.
         23    2    1    0    0    0 -0.74780364197E+01  0.14845064191E+02 -0.17813626049E+02  0.10072563601E+03  0.97734495024E+02 0.  0.
         13    1    3    3    0    0 -0.28101045611E+02 -0.25449132999E+02  0.18975360199E+02  0.42395785091E+02  0.10566000000E+00 0.  1.
         22    1    1    0    0    0  0.74780364197E+01 -0.14845064191E+02  0.17813626049E+02  0.24364363988E+02  0.00000000000E+00 0. -1.
</event>
<event>
 5    1  0.1255769E-009  0.9118800E+02  0.7561462E-02  0.1125453E+00
         25   -1    0    0    0    0  0.00000000000E+00  0.00000000000E+00  0.99999998245E-14  0.12509000000E+03  0.12509000000E+03 0.  0.
        -13    1    3    3    0    0  0.42654351579E+02  0.31167372192E+02  0.24768261202E+02  0.58346180038E+02  0.10566000000E+00 0. -1.
         23    2    1    0    0    0  0.28559578829E+02  0.23184393386E+01  0.51387073787E+01  0.95979331554E+02  0.91458193007E+02 0.  0.
         13    1    3    3    0    0 -0.14094772751E+02 -0.28848932854E+02 -0.19629553823E+02  0.37633151516E+02  0.10566000000E+00 0.  1.
         22    1    1    0    0    0 -0.28559578829E+02 -0.23184393386E+01 -0.51387073787E+01  0.29110668446E+02  0.00000000000E+00 0. -1.
</event>
<event>
 5    1  0.1255769E-009  0.9118800E+02  0.7561462E-02  0.1125453E+00
         25   -1    0    0    0    0  0.00000000000E+00  0.00000000000E+00  0.99999998245E-14  0.12509000000E+03  0.12509000000E+03 0.  0.
        -13    1    3    3    0    0 -0.47558332632E+02  0.34823728914E+02 -0.16374046967E+02  0.61176855724E+02  0.10566000000E+00 0. -1.
         23    2    1    0    0    0 -0.29272224908E+02  0.12309949996E+02 -0.14323547287E+02  0.90253782828E+02  0.83259733893E+02 0.  0.
         13    1    3    3    0    0  0.18286107724E+02 -0.22513778918E+02  0.20504996803E+01  0.29076927104E+02  0.10566000000E+00 0.  1.
         22    1    1    0    0    0  0.29272224908E+02 -0.12309949996E+02  0.14323547287E+02  0.34836217172E+02  0.00000000000E+00 0. -1.
</event>
<event>
 5    1  0.1255769E-009  0.9118800E+02  0.7561462E-02  0.1125453E+00
         25   -1    0    0    0    0  0.00000000000E+00  0.00000000000E+00  0.99999998245E-14  0.12509000000E+03  0.12509000000E+03 0.  0.
        -13    1    3    3    0    0 -0.10019585769E+02 -0.18905864666E+02  0.35074967365E+02  0.41086351961E+02  0.10566000000E+00 0.  1.
         23    2    1    0    0    0 -0.26023240714E+02  0.41140782540E+01 -0.12204908013E+02  0.96053910788E+02  0.91560140350E+02 0.  0.
         13    1    3    3    0    0 -0.16003654945E+02  0.23019942920E+02 -0.47279875378E+02  0.54967558827E+02  0.10566000000E+00 0. -1.
         22    1    1    0    0    0  0.26023240714E+02 -0.41140782540E+01  0.12204908013E+02  0.29036089212E+02  0.00000000000E+00 0. -1.
</event>
<event>
 5    1  0.1255769E-009  0.9118800E+02  0.7561462E-02  0.1125453E+00
         25   -1    0    0    0    0  0.00000000000E+00  0.00000000000E+00  0.99999998245E-14  0.12509000000E+03  0.12509000000E+03 0.  0.
        -13    1    3    3    0    0  0.40066898590E+01  0.35313212590E+02 -0.29513617544E+02  0.46196767545E+02  0.10566000000E+00 0.  1.
         23    2    1    0    0    0 -0.24160508798E+02 -0.42949238000E+01 -0.10838532029E+02  0.98263700733E+02  0.94530971376E+02 0.  0.
         13    1    3    3    0    0 -0.28167198657E+02 -0.39608136390E+02  0.18675085516E+02  0.52066933187E+02  0.10566000000E+00 0. -1.
         22    1    1    0    0    0  0.24160508798E+02  0.42949238000E+01  0.10838532029E+02  0.26826299267E+02  0.00000000000E+00 0. -1.
</event>
<event>
 4    1  0.1255769E-009  0.9118800E+02  0.7561462E-02  0.1125453E+00
         25   -1    0    0    0    0  0.00000000000E+00  0.00000000000E+00  0.99999998245E-14  0.12509000000E+03  0.12509000000E+03 0.  0.
        -13    1    1    0    0    0  0.19269657753E+02  0.35701215887E+02  0.22630895441E+02  0.46454979478E+02  0.10566000000E+00 0.  1.
         13    1    1    0    0    0 -0.16916209884E+02  0.15694231089E+02 -0.18572415366E+01  0.23150109211E+02  0.10566000000E+00 0. -1.
         22    1    1    0    0    0 -0.23534478686E+01 -0.51395446976E+02 -0.20773653905E+02  0.55484911312E+02  0.00000000000E+00 0.  1.
</event>
<event>
 5    1  0.1255769E-009  0.9118800E+02  0.7561462E-02  0.1125453E+00
         25   -1    0    0    0    0  0.00000000000E+00  0.00000000000E+00  0.99999998245E-14  0.12509000000E+03  0.12509000000E+03 0.  0.
        -13    1    3    3    0    0 -0.69551765063E+01  0.43625143907E+02  0.45272006288E+00  0.44178544347E+02  0.10566000000E+00 0. -1.
         23    2    1    0    0    0  0.20838653467E+02  0.98137899196E+00 -0.17197434392E+02  0.98053647939E+02  0.94252604959E+02 0.  0.
         13    1    3    3    0    0  0.27793829974E+02 -0.42643764915E+02 -0.17650154455E+02  0.53875103592E+02  0.10566000000E+00 0.  1.
         22    1    1    0    0    0 -0.20838653467E+02 -0.98137899196E+00  0.17197434392E+02  0.27036352061E+02  0.00000000000E+00 0.  1.
</event>
<event>
 5    1  0.1255769E-009  0.9118800E+02  0.7561462E-02  0.1125453E+00
         25   -1    0    0    0    0  0.00000000000E+00  0.00000000000E+00  0.99999998245E-14  0.12509000000E+03  0.12509000000E+03 0.  0.
        -13    1    3    3    0    0  0.18129669051E+01  0.26890602471E+02  0.57866663681E+01  0.27566066494E+02  0.10566000000E+00 0.  1.
         23    2    1    0    0    0  0.33452505845E+02 -0.93827073899E+01 -0.22785897398E+02  0.83541203802E+02  0.72476411799E+02 0.  0.
         13    1    3    3    0    0  0.31639538940E+02 -0.36273309861E+02 -0.28572563766E+02  0.55975137309E+02  0.10566000000E+00 0. -1.
         22    1    1    0    0    0 -0.33452505845E+02  0.93827073899E+01  0.22785897398E+02  0.41548796198E+02  0.00000000000E+00 0. -1.
</event>
<event>
 5    1  0.1255769E-009  0.9118800E+02  0.7561462E-02  0.1125453E+00
         25   -1    0    0    0    0  0.00000000000E+00  0.00000000000E+00  0.99999998245E-14  0.12509000000E+03  0.12509000000E+03 0.  0.
        -13    1    3    3    0    0 -0.22239929484E+02  0.33902268205E+02  0.33093250968E+02  0.52336915046E+02  0.10566000000E+00 0.  1.
         23    2    1    0    0    0  0.14422759203E+01  0.32091303800E+02  0.12981357521E+00  0.92966040235E+02  0.87239531441E+02 0.  0.
         13    1    3    3    0    0  0.23682205404E+02 -0.18109644055E+01 -0.32963437393E+02  0.40629125189E+02  0.10566000000E+00 0. -1.
         22    1    1    0    0    0 -0.14422759203E+01 -0.32091303800E+02 -0.12981357521E+00  0.32123959765E+02  0.00000000000E+00 0.  1.
</event>
<event>
 5    1  0.1255769E-009  0.9118800E+02  0.7561462E-02  0.1125453E+00
         25   -1    0    0    0    0  0.00000000000E+00  0.00000000000E+00  0.99999998245E-14  0.12509000000E+03  0.12509000000E+03 0.  0.
        -13    1    3    3    0    0  0.26329740513E+02  0.30450837452E+02  0.23575014633E+02  0.46650843679E+02  0.10566000000E+00 0.  1.
         23    2    1    0    0    0 -0.11390687338E+02  0.27871191623E+02 -0.56721403380E+01  0.94451392712E+02  0.89343949592E+02 0.  0.
         13    1    3    3    0    0 -0.37720427851E+02 -0.25796458285E+01 -0.29247154971E+02  0.47800549033E+02  0.10566000000E+00 0. -1.
         22    1    1    0    0    0  0.11390687338E+02 -0.27871191623E+02  0.56721403380E+01  0.30638607288E+02  0.00000000000E+00 0. -1.
</event>
<event>
 5    1  0.1255769E-009  0.9118800E+02  0.7561462E-02  0.1125453E+00
         25   -1    0    0    0    0  0.00000000000E+00  0.00000000000E+00  0.99999998245E-14  0.12509000000E+03  0.12509000000E+03 0.  0.
        -13    1    3    3    0    0  0.33813007423E+01  0.34790107815E+02  0.49928933102E+02  0.60948292193E+02  0.10566000000E+00 0. -1.
         23    2    1    0    0    0  0.10908398475E+02  0.12782196002E+02  0.24141127502E+02  0.95676198325E+02  0.91042644935E+02 0.  0.
         13    1    3    3    0    0  0.75270977330E+01 -0.22007911812E+02 -0.25787805600E+02  0.34727906132E+02  0.10566000000E+00 0.  1.
         22    1    1    0    0    0 -0.10908398475E+02 -0.12782196002E+02 -0.24141127502E+02  0.29413801675E+02  0.00000000000E+00 0. -1.
</event>
<event>
 5    1  0.1255769E-009  0.9118800E+02  0.7561462E-02  0.1125453E+00
         25   -1    0    0    0    0  0.00000000000E+00  0.00000000000E+00  0.99999998245E-14  0.12509000000E+03  0.12509000000E+03 0.  0.
        -13    1    3    3    0    0  0.44588125294E+02 -0.34901443937E+02  0.52603107608E+01  0.56867334555E+02  0.10566000000E+00 0. -1.
         23    2    1    0    0    0  0.26668731727E+02 -0.10636075177E+01 -0.77340682962E+01  0.97302083106E+02  0.93249809928E+02 0.  0.
         13    1    3    3    0    0 -0.17919393567E+02  0.33837836419E+02 -0.12994379057E+02  0.40434748551E+02  0.10566000000E+00 0.  1.
         22    1    1    0    0    0 -0.26668731727E+02  0.10636075177E+01  0.77340682962E+01  0.27787916894E+02  0.00000000000E+00 0. -1.
</event>
<event>
 5    1  0.1255769E-009  0.9118800E+02  0.7561462E-02  0.1125453E+00
         25   -1    0    0    0    0  0.00000000000E+00  0.00000000000E+00  0.99999998245E-14  0.12509000000E+03  0.12509000000E+03 0.  0.
        -13    1    3    3    0    0  0.47785201981E+02 -0.59342650113E+01  0.21066867096E+01  0.48198447304E+02  0.10566000000E+00 0.  1.
         23    2    1    0    0    0  0.48364192229E+01 -0.23583073104E+01  0.26722984093E+02  0.97830681536E+02  0.93956222821E+02 0.  0.
         13    1    3    3    0    0 -0.42948782759E+02  0.35759577008E+01  0.24616297384E+02  0.49632234232E+02  0.10566000000E+00 0. -1.
         22    1    1    0    0    0 -0.48364192229E+01  0.23583073104E+01 -0.26722984093E+02  0.27259318464E+02  0.00000000000E+00 0. -1.
</event>
<event>
 5    1  0.1255769E-009  0.9118800E+02  0.7561462E-02  0.1125453E+00
         25   -1    0    0    0    0  0.00000000000E+00  0.00000000000E+00  0.99999998245E-14  0.12509000000E+03  0.12509000000E+03 0.  0.
        -13    1    3    3    0    0 -0.12057801865E+02 -0.32408506616E+02  0.45551137683E+02  0.57189327633E+02  0.10566000000E+00 0.  1.
         23    2    1    0    0    0 -0.66641805278E+01  0.12943135774E+01  0.29339088649E+02  0.94975739715E+02  0.90075093461E+02 0.  0.
         13    1    3    3    0    0  0.53936213369E+01  0.33702820194E+02 -0.16212049034E+02  0.37786412082E+02  0.10566000000E+00 0. -1.
         22    1    1    0    0    0  0.66641805278E+01 -0.12943135774E+01 -0.29339088649E+02  0.30114260285E+02  0.00000000000E+00 0.  1.
</event>
<event>
 5    1  0.1255769E-009  0.9118800E+02  0.7561462E-02  0.1125453E+00
         25   -1    0    0    0    0  0.00000000000E+00  0.00000000000E+00  0.99999998245E-14  0.12509000000E+03  0.12509000000E+03 0.  0.
        -13    1    3    3    0    0 -0.51508522288E+01  0.39668679099E+02  0.84582817675E+01  0.40886294460E+02  0.10566000000E+00 0.  1.
         23    2    1    0    0    0  0.20488014230E+02  0.46322850939E+01 -0.22576110776E+02  0.94253372914E+02  0.89066271594E+02 0.  0.
         13    1    3    3    0    0  0.25638866459E+02 -0.35036394005E+02 -0.31034392543E+02  0.53367078454E+02  0.10566000000E+00 0. -1.
         22    1    1    0    0    0 -0.20488014230E+02 -0.46322850939E+01  0.22576110776E+02  0.30836627086E+02  0.00000000000E+00 0.  1.
</event>
<event>
 5    1  0.1255769E-009  0.9118800E+02  0.7561462E-02  0.1125453E+00
         25   -1    0    0    0    0  0.00000000000E+00  0.00000000000E+00  0.99999998245E-14  0.12509000000E+03  0.12509000000E+03 0.  0.
        -13    1    3    3    0    0 -0.26810325468E+02  0.12736806229E+02 -0.47089065493E+02  0.55663372496E+02  0.10566000000E+00 0.  1.
         23    2    1    0    0    0 -0.31081317005E+02  0.60124126973E+01 -0.12671989563E+02  0.90990488381E+02  0.84359304662E+02 0.  0.
         13    1    3    3    0    0 -0.42709915365E+01 -0.67243935312E+01  0.34417075930E+02  0.35327115884E+02  0.10566000000E+00 0. -1.
         22    1    1    0    0    0  0.31081317005E+02 -0.60124126973E+01  0.12671989563E+02  0.34099511619E+02  0.00000000000E+00 0.  1.
</event>
<event>
 5    1  0.1255769E-009  0.9118800E+02  0.7561462E-02  0.1125453E+00
         25   -1    0    0    0    0  0.00000000000E+00  0.00000000000E+00  0.99999998245E-14  0.12509000000E+03  0.12509000000E+03 0.  0.
        -13    1    3    3    0    0  0.39317793445E+02  0.25892148935E+01 -0.25069564083E+02  0.46702110472E+02  0.10566000000E+00 0.  1.
         23    2    1    0    0    0 -0.51742335065E+01  0.22103733647E+02 -0.18654413958E+02  0.95707438954E+02  0.91085558556E+02 0.  0.
         13    1    3    3    0    0 -0.44492026952E+02  0.19514518754E+02  0.64151501251E+01  0.49005328482E+02  0.10566000000E+00 0. -1.
         22    1    1    0    0    0  0.51742335065E+01 -0.22103733647E+02  0.18654413958E+02  0.29382561046E+02  0.00000000000E+00 0. -1.
</event>
<event>
 5    1  0.1255769E-009  0.9118800E+02  0.7561462E-02  0.1125453E+00
         25   -1    0    0    0    0  0.00000000000E+00  0.00000000000E+00  0.99999998245E-14  0.12509000000E+03  0.12509000000E+03 0.  0.
        -13    1    3    3    0    0 -0.39868655403E+02 -0.20016293089E+02 -0.21755613473E+02  0.49633451968E+02  0.10566000000E+00 0. -1.
         23    2    1    0    0    0  0.65378642762E+00 -0.27372289250E+02  0.27739250911E+01  0.97569747169E+02  0.93608179379E+02 0.  0.
         13    1    3    3    0    0  0.40522441830E+02 -0.73559961610E+01  0.24529538564E+02  0.47936295201E+02  0.10566000000E+00 0.  1.
         22    1    1    0    0    0 -0.65378642762E+00  0.27372289250E+02 -0.27739250911E+01  0.27520252831E+02  0.00000000000E+00 0.  1.
</event>
<event>
 5    1  0.1255769E-009  0.9118800E+02  0.7561462E-02  0.1125453E+00
         25   -1    0    0    0    0  0.00000000000E+00  0.00000000000E+00  0.99999998245E-14  0.12509000000E+03  0.12509000000E+03 0.  0.
        -13    1    3    3    0    0  0.32073998770E+02 -0.58061603664E+00  0.38609914385E+02  0.50197760557E+02  0.10566000000E+00 0.  1.
         23    2    1    0    0    0  0.55140896450E+01  0.25568760161E+02  0.21598006517E+02  0.91168906765E+02  0.84623454162E+02 0.  0.
         13    1    3    3    0    0 -0.26559909125E+02  0.26149376197E+02 -0.17011907868E+02  0.40971146208E+02  0.10566000000E+00 0. -1.
         22    1    1    0    0    0 -0.55140896450E+01 -0.25568760161E+02 -0.21598006517E+02  0.33921093235E+02  0.00000000000E+00 0.  1.
</event>
<event>
 5    1  0.1255769E-009  0.9118800E+02  0.7561462E-02  0.1125453E+00
         25   -1    0    0    0    0  0.00000000000E+00  0.00000000000E+00  0.99999998245E-14  0.12509000000E+03  0.12509000000E+03 0.  0.
        -13    1    3    3    0    0 -0.70050244888E+01 -0.19119819721E+02 -0.57220924662E+02  0.60736177501E+02  0.10566000000E+00 0. -1.
         23    2    1    0    0    0  0.19229861914E+01 -0.19335246916E+01 -0.34031584341E+02  0.90949333247E+02  0.84298256753E+02 0.  0.
         13    1    3    3    0    0  0.89280106802E+01  0.17186295029E+02  0.23189340321E+02  0.30213155745E+02  0.10566000000E+00 0.  1.
         22    1    1    0    0    0 -0.19229861914E+01  0.19335246916E+01  0.34031584341E+02  0.34140666753E+02  0.00000000000E+00 0. -1.
</event>
<event>
 5    1  0.1255769E-009  0.9118800E+02  0.7561462E-02  0.1125453E+00
         25   -1    0    0    0    0  0.00000000000E+00  0.00000000000E+00  0.99999998245E-14  0.12509000000E+03  0.12509000000E+03 0.  0.
        -13    1    3    3    0    0 -0.75714955061E+01 -0.41019108305E+02 -0.24146247954E+02  0.48196963023E+02  0.10566000000E+00 0.  1.
         23    2    1    0    0    0 -0.14404723030E+01  0.26350949303E+01  0.16596408119E+02  0.10822407434E+03  0.10690178118E+03 0.  0.
         13    1    3    3    0    0  0.61310232030E+01  0.43654203236E+02  0.40742656073E+02  0.60027111322E+02  0.10566000000E+00 0. -1.
         22    1    1    0    0    0  0.14404723030E+01 -0.26350949303E+01 -0.16596408119E+02  0.16865925655E+02  0.00000000000E+00 0. -1.
</event>
<event>
 5    1  0.1255769E-009  0.9118800E+02  0.7561462E-02  0.1125453E+00
         25   -1    0    0    0    0  0.00000000000E+00  0.00000000000E+00  0.99999998245E-14  0.12509000000E+03  0.12509000000E+03 0.  0.
        -13    1    3    3    0    0  0.21138599783E+02 -0.27543409422E+02  0.30791879447E+01  0.34856453718E+02  0.10566000000E+00 0.  1.
         23    2    1    0    0    0 -0.56068345727E+01  0.19735668472E+02  0.24399955401E+02  0.93210680252E+02  0.87589610603E+02 0.  0.
         13    1    3    3    0    0 -0.26745434355E+02  0.47279077895E+02  0.21320767457E+02  0.58354226534E+02  0.10566000000E+00 0. -1.
         22    1    1    0    0    0  0.56068345727E+01 -0.19735668472E+02 -0.24399955401E+02  0.31879319748E+02  0.00000000000E+00 0. -1.
</event>
<event>
 5    1  0.1255769E-009  0.9118800E+02  0.7561462E-02  0.1125453E+00
         25   -1    0    0    0    0  0.00000000000E+00  0.00000000000E+00  0.99999998245E-14  0.12509000000E+03  0.12509000000E+03 0.  0.
        -13    1    3    3    0    0  0.39662700002E+02  0.27186578007E+02  0.22502705546E+02  0.53090702727E+02  0.10566000000E+00 0. -1.
         23    2    1    0    0    0 -0.42445138445E+01  0.17433573173E+02  0.20120352623E+02  0.98131254461E+02  0.94355546425E+02 0.  0.
         13    1    3    3    0    0 -0.43907213846E+02 -0.97530048333E+01 -0.23823529233E+01  0.45040551734E+02  0.10566000000E+00 0.  1.
         22    1    1    0    0    0  0.42445138445E+01 -0.17433573173E+02 -0.20120352623E+02  0.26958745539E+02  0.00000000000E+00 0. -1.
</event>
<event>
 5    1  0.1255769E-009  0.9118800E+02  0.7561462E-02  0.1125453E+00
         25   -1    0    0    0    0  0.00000000000E+00  0.00000000000E+00  0.99999998245E-14  0.12509000000E+03  0.12509000000E+03 0.  0.
        -13    1    3    3    0    0  0.30287873590E+01 -0.23274280415E+02 -0.18094464480E+01  0.23540410833E+02  0.10566000000E+00 0. -1.
         23    2    1    0    0    0  0.20897702162E+02  0.30252035865E+02  0.19021725620E+02  0.83692830107E+02  0.72737639060E+02 0.  0.
         13    1    3    3    0    0  0.17868914803E+02  0.53526316280E+02  0.20831172068E+02  0.60152419274E+02  0.10566000000E+00 0.  1.
         22    1    1    0    0    0 -0.20897702162E+02 -0.30252035865E+02 -0.19021725620E+02  0.41397169893E+02  0.00000000000E+00 0.  1.
</event>
<event>
 5    1  0.1255769E-009  0.9118800E+02  0.7561462E-02  0.1125453E+00
         25   -1    0    0    0    0  0.00000000000E+00  0.00000000000E+00  0.99999998245E-14  0.12509000000E+03  0.12509000000E+03 0.  0.
        -13    1    3    3    0    0 -0.27609354972E+02  0.48285160945E+02 -0.18220678589E+02  0.58529800459E+02  0.10566000000E+00 0.  1.
         23    2    1    0    0    0 -0.87187733124E+01  0.16423397678E+02 -0.22594479618E+02  0.95828156098E+02  0.91251191732E+02 0.  0.
         13    1    3    3    0    0  0.18890581660E+02 -0.31861763266E+02 -0.43738010286E+01  0.37298355639E+02  0.10566000000E+00 0. -1.
         22    1    1    0    0    0  0.87187733124E+01 -0.16423397678E+02  0.22594479618E+02  0.29261843902E+02  0.00000000000E+00 0.  1.
</event>
<event>
 5    1  0.1255769E-009  0.9118800E+02  0.7561462E-02  0.1125453E+00
         25   -1    0    0    0    0  0.00000000000E+00  0.00000000000E+00  0.99999998245E-14  0.12509000000E+03  0.12509000000E+03 0.  0.
        -13    1    3    3    0    0  0.47532817873E+02 -0.28509926972E+01 -0.94215936812E+01  0.48541472226E+02  0.10566000000E+00 0.  1.
         23    2    1    0    0    0  0.32283596530E+01 -0.32518886445E+01 -0.28096168870E+02  0.96622618825E+02  0.92333843620E+02 0.  0.
         13    1    3    3    0    0 -0.44304458220E+02 -0.40089594731E+00 -0.18674575189E+02  0.48081146599E+02  0.10566000000E+00 0. -1.
         22    1    1    0    0    0 -0.32283596530E+01  0.32518886445E+01  0.28096168870E+02  0.28467381175E+02  0.00000000000E+00 0. -1.
</event>
<event>
 5    1  0.1255769E-009  0.9118800E+02  0.7561462E-02  0.1125453E+00
         25   -1    0    0    0    0  0.00000000000E+00  0.00000000000E+00  0.99999998245E-14  0.12509000000E+03  0.12509000000E+03 0.  0.
        -13    1    3    3    0    0  0.26652918471E+02  0.20510466590E+02 -0.17465385042E+02  0.37896017488E+02  0.10566000000E+00 0. -1.
         23    2    1    0    0    0  0.21875822579E+02 -0.18928228598E+02  0.17889804624E+02  0.91077141242E+02  0.84487697897E+02 0.  0.
         13    1    3    3    0    0 -0.47770958921E+01 -0.39438695188E+02  0.35355189667E+02  0.53181123754E+02  0.10566000000E+00 0.  1.
         22    1    1    0    0    0 -0.21875822579E+02  0.18928228598E+02 -0.17889804624E+02  0.34012858758E+02  0.00000000000E+00 0.  1.
</event>
<event>
 5    1  0.1255769E-009  0.9118800E+02  0.7561462E-02  0.1125453E+00
         25   -1    0    0    0    0  0.00000000000E+00  0.00000000000E+00  0.99999998245E-14  0.12509000000E+03  0.12509000000E+03 0.  0.
        -13    1    3    3    0    0  0.32669284769E+02  0.52865692752E+01 -0.36585731585E+01  0.33296040359E+02  0.10566000000E+00 0.  1.
         23    2    1    0    0    0 -0.27781138433E+02 -0.87268691646E+01 -0.58515225891E+01  0.95388312933E+02  0.90646235606E+02 0.  0.
         13    1    3    3    0    0 -0.60450423201E+02 -0.14013438440E+02 -0.21929494306E+01  0.62092272574E+02  0.10566000000E+00 0. -1.
         22    1    1    0    0    0  0.27781138433E+02  0.87268691646E+01  0.58515225891E+01  0.29701687067E+02  0.00000000000E+00 0. -1.
</event>
<event>
 5    1  0.1255769E-009  0.9118800E+02  0.7561462E-02  0.1125453E+00
         25   -1    0    0    0    0  0.00000000000E+00  0.00000000000E+00  0.99999998245E-14  0.12509000000E+03  0.12509000000E+03 0.  0.
        -13    1    3    3    0    0 -0.32548597926E+02  0.44454236823E+02 -0.47369409626E+01  0.55299549476E+02  0.10566000000E+00 0.  1.
         23    2    1    0    0    0 -0.81912876912E+01  0.15529728685E+02 -0.22062428945E+02  0.96893893212E+02  0.92700626232E+02 0.  0.
         13    1    3    3    0    0  0.24357310235E+02 -0.28924508139E+02 -0.17325487982E+02  0.41594343736E+02  0.10566000000E+00 0. -1.
         22    1    1    0    0    0  0.81912876912E+01 -0.15529728685E+02  0.22062428945E+02  0.28196106788E+02  0.00000000000E+00 0.  1.
</event>
<event>
 5    1  0.1255769E-009  0.9118800E+02  0.7561462E-02  0.1125453E+00
         25   -1    0    0    0    0  0.00000000000E+00  0.00000000000E+00  0.99999998245E-14  0.12509000000E+03  0.12509000000E+03 0.  0.
        -13    1    3    3    0    0  0.18279597680E+02 -0.37914976395E+02  0.16896561617E+02  0.45356301490E+02  0.10566000000E+00 0. -1.
         23    2    1    0    0    0 -0.82490015969E+01 -0.15108906290E+02 -0.21662550439E+02  0.97420681827E+02  0.93408768750E+02 0.  0.
         13    1    3    3    0    0 -0.26528599277E+02  0.22806070105E+02 -0.38559112057E+02  0.52064380337E+02  0.10566000000E+00 0.  1.
         22    1    1    0    0    0  0.82490015969E+01  0.15108906290E+02  0.21662550439E+02  0.27669318173E+02  0.00000000000E+00 0.  1.
</event>
<event>
 5    1  0.1255769E-009  0.9118800E+02  0.7561462E-02  0.1125453E+00
         25   -1    0    0    0    0  0.00000000000E+00  0.00000000000E+00  0.99999998245E-14  0.12509000000E+03  0.12509000000E+03 0.  0.
        -13    1    3    3    0    0  0.24681649860E+02 -0.31703398198E+02  0.76056142176E+01  0.40891879742E+02  0.10566000000E+00 0. -1.
         23    2    1    0    0    0  0.18858773019E+02  0.16836090184E+02 -0.15991165763E+02  0.95176380445E+02  0.90353299661E+02 0.  0.
         13    1    3    3    0    0 -0.58228768411E+01  0.48539488382E+02 -0.23596779980E+02  0.54284500703E+02  0.10566000000E+00 0.  1.
         22    1    1    0    0    0 -0.18858773019E+02 -0.16836090184E+02  0.15991165763E+02  0.29913619555E+02  0.00000000000E+00 0.  1.
</event>
<event>
 5    1  0.1255769E-009  0.9118800E+02  0.7561462E-02  0.1125453E+00
         25   -1    0    0    0    0  0.00000000000E+00  0.00000000000E+00  0.99999998245E-14  0.12509000000E+03  0.12509000000E+03 0.  0.
        -13    1    3    3    0    0 -0.31374211177E+02  0.25397366680E+02  0.31674365327E+01  0.40489642867E+02  0.10566000000E+00 0. -1.
         23    2    1    0    0    0 -0.13279288993E+01 -0.70511467059E+01 -0.29026297110E+02  0.95190033630E+02  0.90372199893E+02 0.  0.
         13    1    3    3    0    0  0.30046282278E+02 -0.32448513386E+02 -0.32193733643E+02  0.54700390763E+02  0.10566000000E+00 0.  1.
         22    1    1    0    0    0  0.13279288993E+01  0.70511467059E+01  0.29026297110E+02  0.29899966370E+02  0.00000000000E+00 0.  1.
</event>
<event>
 5    1  0.1255769E-009  0.9118800E+02  0.7561462E-02  0.1125453E+00
         25   -1    0    0    0    0  0.00000000000E+00  0.00000000000E+00  0.99999998245E-14  0.12509000000E+03  0.12509000000E+03 0.  0.
        -13    1    3    3    0    0 -0.13431440708E+02  0.25262242995E+02 -0.55245839706E+02  0.62214937833E+02  0.10566000000E+00 0. -1.
         23    2    1    0    0    0 -0.71377898205E+01  0.15782566736E+02 -0.23817568364E+02  0.95639804431E+02  0.90992627023E+02 0.  0.
         13    1    3    3    0    0  0.62936508876E+01 -0.94796762594E+01  0.31428271342E+02  0.33424866598E+02  0.10566000000E+00 0.  1.
         22    1    1    0    0    0  0.71377898205E+01 -0.15782566736E+02  0.23817568364E+02  0.29450195569E+02  0.00000000000E+00 0. -1.
</event>
<event>
 4    1  0.1255769E-009  0.9118800E+02  0.7561462E-02  0.1125453E+00
         25   -1    0    0    0    0  0.00000000000E+00  0.00000000000E+00  0.99999998245E-14  0.12509000000E+03  0.12509000000E+03 0.  0.
        -13    1    1    0    0    0 -0.12595712268E+02  0.18511357721E+01 -0.60621392396E+02  0.61943870167E+02  0.10566000000E+00 0.  1.
         13    1    1    0    0    0  0.16983296984E+00 -0.38224110999E+01  0.61754940719E+01  0.72655048635E+01  0.10566000000E+00 0. -1.
         22    1    1    0    0    0  0.12425879298E+02  0.19712753277E+01  0.54445898324E+02  0.55880624970E+02  0.00000000000E+00 0.  1.
</event>
<event>
 5    1  0.1255769E-009  0.9118800E+02  0.7561462E-02  0.1125453E+00
         25   -1    0    0    0    0  0.00000000000E+00  0.00000000000E+00  0.99999998245E-14  0.12509000000E+03  0.12509000000E+03 0.  0.
        -13    1    3    3    0    0  0.12451916546E+02  0.14329361251E+02 -0.38840577221E+02  0.43231729348E+02  0.10566000000E+00 0.  1.
         23    2    1    0    0    0  0.13201639635E+02 -0.21587400104E+02  0.43548553568E+01  0.99413865215E+02  0.96040890768E+02 0.  0.
         13    1    3    3    0    0  0.74972308894E+00 -0.35916761355E+02  0.43195432578E+02  0.56182135867E+02  0.10566000000E+00 0. -1.
         22    1    1    0    0    0 -0.13201639635E+02  0.21587400104E+02 -0.43548553568E+01  0.25676134785E+02  0.00000000000E+00 0. -1.
</event>
<event>
 5    1  0.1255769E-009  0.9118800E+02  0.7561462E-02  0.1125453E+00
         25   -1    0    0    0    0  0.00000000000E+00  0.00000000000E+00  0.99999998245E-14  0.12509000000E+03  0.12509000000E+03 0.  0.
        -13    1    3    3    0    0  0.15701902208E+02  0.35680563993E+02  0.89172303262E+01  0.39989755445E+02  0.10566000000E+00 0. -1.
         23    2    1    0    0    0 -0.12455768086E+01  0.39581753236E+01 -0.31054003825E+02  0.93759986163E+02  0.88370612979E+02 0.  0.
         13    1    3    3    0    0 -0.16947479017E+02 -0.31722388669E+02 -0.39971234151E+02  0.53770230718E+02  0.10566000000E+00 0.  1.
         22    1    1    0    0    0  0.12455768086E+01 -0.39581753236E+01  0.31054003825E+02  0.31330013837E+02  0.00000000000E+00 0.  1.
</event>
<event>
 5    1  0.1255769E-009  0.9118800E+02  0.7561462E-02  0.1125453E+00
         25   -1    0    0    0    0  0.00000000000E+00  0.00000000000E+00  0.99999998245E-14  0.12509000000E+03  0.12509000000E+03 0.  0.
        -13    1    3    3    0    0 -0.68710735221E+01  0.35836227943E+02  0.21812720887E+01  0.36554288346E+02  0.10566000000E+00 0.  1.
         23    2    1    0    0    0 -0.16174561089E+02 -0.22067894710E+02 -0.90590034189E+01  0.96268585283E+02  0.91852961662E+02 0.  0.
         13    1    3    3    0    0 -0.93034875665E+01 -0.57904122653E+02 -0.11240275508E+02  0.59714296937E+02  0.10566000000E+00 0. -1.
         22    1    1    0    0    0  0.16174561089E+02  0.22067894710E+02  0.90590034189E+01  0.28821414717E+02  0.00000000000E+00 0. -1.
</event>
<event>
 5    1  0.1255769E-009  0.9118800E+02  0.7561462E-02  0.1125453E+00
         25   -1    0    0    0    0  0.00000000000E+00  0.00000000000E+00  0.99999998245E-14  0.12509000000E+03  0.12509000000E+03 0.  0.
        -13    1    3    3    0    0  0.33355813100E+02 -0.17678238419E+02  0.22835574834E+01  0.37820049973E+02  0.10566000000E+00 0. -1.
         23    2    1    0    0    0 -0.11266000812E+02  0.15595132221E+02  0.21061795523E+02  0.96564044207E+02  0.92254455066E+02 0.  0.
         13    1    3    3    0    0 -0.44621813912E+02  0.33273370641E+02  0.18778238039E+02  0.58743994233E+02  0.10566000000E+00 0.  1.
         22    1    1    0    0    0  0.11266000812E+02 -0.15595132221E+02 -0.21061795523E+02  0.28525955793E+02  0.00000000000E+00 0.  1.
</event>
<event>
 5    1  0.1255769E-009  0.9118800E+02  0.7561462E-02  0.1125453E+00
         25   -1    0    0    0    0  0.00000000000E+00  0.00000000000E+00  0.99999998245E-14  0.12509000000E+03  0.12509000000E+03 0.  0.
        -13    1    3    3    0    0  0.68345861911E+01  0.26789356379E+02  0.37001316392E+02  0.46189714898E+02  0.10566000000E+00 0. -1.
         23    2    1    0    0    0 -0.22352544221E+02  0.19657468809E+02 -0.18056265902E+01  0.95268655287E+02  0.90480959763E+02 0.  0.
         13    1    3    3    0    0 -0.29187130412E+02 -0.71318875705E+01 -0.38806942982E+02  0.49078940389E+02  0.10566000000E+00 0.  1.
         22    1    1    0    0    0  0.22352544221E+02 -0.19657468809E+02  0.18056265902E+01  0.29821344713E+02  0.00000000000E+00 0.  1.
</event>
<event>
 5    1  0.1255769E-009  0.9118800E+02  0.7561462E-02  0.1125453E+00
         25   -1    0    0    0    0  0.00000000000E+00  0.00000000000E+00  0.99999998245E-14  0.12509000000E+03  0.12509000000E+03 0.  0.
        -13    1    3    3    0    0  0.37651315598E+02  0.36871882868E+01  0.43028267344E+02  0.57294501293E+02  0.10566000000E+00 0. -1.
         23    2    1    0    0    0  0.24297041269E+02  0.12519547206E+02  0.67691144970E+01  0.96931410054E+02  0.92751237551E+02 0.  0.
         13    1    3    3    0    0 -0.13354274328E+02  0.88323589188E+01 -0.36259152847E+02  0.39636908761E+02  0.10566000000E+00 0.  1.
         22    1    1    0    0    0 -0.24297041269E+02 -0.12519547206E+02 -0.67691144970E+01  0.28158589946E+02  0.00000000000E+00 0. -1.
</event>
<event>
 5    1  0.1255769E-009  0.9118800E+02  0.7561462E-02  0.1125453E+00
         25   -1    0    0    0    0  0.00000000000E+00  0.00000000000E+00  0.99999998245E-14  0.12509000000E+03  0.12509000000E+03 0.  0.
        -13    1    3    3    0    0  0.28086825279E+02  0.55835633258E+02 -0.22849610937E+01  0.62543743946E+02  0.10566000000E+00 0.  1.
         23    2    1    0    0    0  0.13191902250E+02  0.26453018175E+02 -0.82487180496E+00  0.95518580200E+02  0.90825823940E+02 0.  0.
         13    1    3    3    0    0 -0.14894923030E+02 -0.29382615083E+02  0.14600892888E+01  0.32974836254E+02  0.10566000000E+00 0. -1.
         22    1    1    0    0    0 -0.13191902250E+02 -0.26453018175E+02  0.82487180496E+00  0.29571419800E+02  0.00000000000E+00 0.  1.
</event>
<event>
 5    1  0.1255769E-009  0.9118800E+02  0.7561462E-02  0.1125453E+00
         25   -1    0    0    0    0  0.00000000000E+00  0.00000000000E+00  0.99999998245E-14  0.12509000000E+03  0.12509000000E+03 0.  0.
        -13    1    3    3    0    0  0.25439205078E+02 -0.39520927996E+00 -0.23860450230E+02  0.34880389828E+02  0.10566000000E+00 0.  1.
         23    2    1    0    0    0 -0.18223616013E+02 -0.13365928815E+02  0.17578549316E+02  0.96458660008E+02  0.92111451301E+02 0.  0.
         13    1    3    3    0    0 -0.43662821091E+02 -0.12970719535E+02  0.41438999546E+02  0.61578270180E+02  0.10566000000E+00 0. -1.
         22    1    1    0    0    0  0.18223616013E+02  0.13365928815E+02 -0.17578549316E+02  0.28631339992E+02  0.00000000000E+00 0. -1.
</event>
<event>
 5    1  0.1255769E-009  0.9118800E+02  0.7561462E-02  0.1125453E+00
         25   -1    0    0    0    0  0.00000000000E+00  0.00000000000E+00  0.99999998245E-14  0.12509000000E+03  0.12509000000E+03 0.  0.
        -13    1    3    3    0    0  0.24388936532E+02  0.44476880969E+02  0.27476693245E+02  0.57688759751E+02  0.10566000000E+00 0. -1.
         23    2    1    0    0    0  0.10711377757E+02  0.27777284736E+02 -0.31442066424E+01  0.95153447156E+02  0.90321543994E+02 0.  0.
         13    1    3    3    0    0 -0.13677558776E+02 -0.16699596233E+02 -0.30620899887E+02  0.37464687405E+02  0.10566000000E+00 0.  1.
         22    1    1    0    0    0 -0.10711377757E+02 -0.27777284736E+02  0.31442066424E+01  0.29936552844E+02  0.00000000000E+00 0. -1.
</event>
<event>
 5    1  0.1255769E-009  0.9118800E+02  0.7561462E-02  0.1125453E+00
         25   -1    0    0    0    0  0.00000000000E+00  0.00000000000E+00  0.99999998245E-14  0.12509000000E+03  0.12509000000E+03 0.  0.
        -13    1    3    3    0    0 -0.16023285903E+02 -0.50726250109E+02  0.24009823376E+02  0.58364209271E+02  0.10566000000E+00 0. -1.
         23    2    1    0    0    0 -0.12485585504E+02 -0.13074257320E+02  0.22519775317E+02  0.96211524795E+02  0.91775220911E+02 0.  0.
         13    1    3    3    0    0  0.35377003993E+01  0.37651992789E+02 -0.14900480588E+01  0.37847315524E+02  0.10566000000E+00 0.  1.
         22    1    1    0    0    0  0.12485585504E+02  0.13074257320E+02 -0.22519775317E+02  0.28878475205E+02  0.00000000000E+00 0. -1.
</event>
<event>
 5    1  0.1255769E-009  0.9118800E+02  0.7561462E-02  0.1125453E+00
         25   -1    0    0    0    0  0.00000000000E+00  0.00000000000E+00  0.99999998245E-14  0.12509000000E+03  0.12509000000E+03 0.  0.
        -13    1    3    3    0    0 -0.21507480683E+02  0.36325886663E+02 -0.12017574329E+02  0.43892767331E+02  0.10566000000E+00 0.  1.
         23    2    1    0    0    0 -0.25683063332E+02 -0.12212196188E+02 -0.15439964631E+02  0.92730303066E+02  0.86900858000E+02 0.  0.
         13    1    3    3    0    0 -0.41755826486E+01 -0.48538082851E+02 -0.34223903024E+01  0.48837535735E+02  0.10566000000E+00 0. -1.
         22    1    1    0    0    0  0.25683063332E+02  0.12212196188E+02  0.15439964631E+02  0.32359696934E+02  0.00000000000E+00 0. -1.
</event>
<event>
 5    1  0.1255769E-009  0.9118800E+02  0.7561462E-02  0.1125453E+00
         25   -1    0    0    0    0  0.00000000000E+00  0.00000000000E+00  0.99999998245E-14  0.12509000000E+03  0.12509000000E+03 0.  0.
        -13    1    3    3    0    0 -0.16923369658E+02  0.39489324366E+02 -0.38947903022E+02  0.57989287746E+02  0.10566000000E+00 0. -1.
         23    2    1    0    0    0  0.65983015476E+01  0.13339863895E+02 -0.25341654015E+02  0.95701414116E+02  0.91077284125E+02 0.  0.
         13    1    3    3    0    0  0.23521671206E+02 -0.26149460471E+02  0.13606249007E+02  0.37712126370E+02  0.10566000000E+00 0.  1.
         22    1    1    0    0    0 -0.65983015476E+01 -0.13339863895E+02  0.25341654015E+02  0.29388585884E+02  0.00000000000E+00 0. -1.
</event>
<event>
 5    1  0.1255769E-009  0.9118800E+02  0.7561462E-02  0.1125453E+00
         25   -1    0    0    0    0  0.00000000000E+00  0.00000000000E+00  0.99999998245E-14  0.12509000000E+03  0.12509000000E+03 0.  0.
        -13    1    3    3    0    0  0.12291874735E+02 -0.48416044410E+02  0.10762695415E+02  0.51098437525E+02  0.10566000000E+00 0.  1.
         23    2    1    0    0    0  0.13759366570E+02 -0.64839814567E+01  0.25355926614E+02  0.95521685906E+02  0.90830101177E+02 0.  0.
         13    1    3    3    0    0  0.14674918352E+01  0.41932062954E+02  0.14593231199E+02  0.44423248381E+02  0.10566000000E+00 0. -1.
         22    1    1    0    0    0 -0.13759366570E+02  0.64839814567E+01 -0.25355926614E+02  0.29568314094E+02  0.00000000000E+00 0. -1.
</event>
<event>
 5    1  0.1255769E-009  0.9118800E+02  0.7561462E-02  0.1125453E+00
         25   -1    0    0    0    0  0.00000000000E+00  0.00000000000E+00  0.99999998245E-14  0.12509000000E+03  0.12509000000E+03 0.  0.
        -13    1    3    3    0    0 -0.15600271810E+02 -0.37392731984E+02 -0.46762107965E+02  0.61873183134E+02  0.10566000000E+00 0. -1.
         23    2    1    0    0    0 -0.13258137831E+02 -0.18004668189E+02 -0.19414508067E+02  0.95478018999E+02  0.90769943776E+02 0.  0.
         13    1    3    3    0    0  0.23421339786E+01  0.19388063794E+02  0.27347599898E+02  0.33604835865E+02  0.10566000000E+00 0.  1.
         22    1    1    0    0    0  0.13258137831E+02  0.18004668189E+02  0.19414508067E+02  0.29611981001E+02  0.00000000000E+00 0. -1.
</event>
<event>
 5    1  0.1255769E-009  0.9118800E+02  0.7561462E-02  0.1125453E+00
         25   -1    0    0    0    0  0.00000000000E+00  0.00000000000E+00  0.99999998245E-14  0.12509000000E+03  0.12509000000E+03 0.  0.
        -13    1    3    3    0    0  0.90738991898E+01  0.25182834263E+02  0.53200595481E+02  0.59555229087E+02  0.10566000000E+00 0. -1.
         23    2    1    0    0    0  0.16324369715E+02  0.19145636149E+02  0.23710822555E+02  0.90517705654E+02  0.83655313642E+02 0.  0.
         13    1    3    3    0    0  0.72504705248E+01 -0.60371981142E+01 -0.29489772926E+02  0.30962476567E+02  0.10566000000E+00 0.  1.
         22    1    1    0    0    0 -0.16324369715E+02 -0.19145636149E+02 -0.23710822555E+02  0.34572294346E+02  0.00000000000E+00 0. -1.
</event>
<event>
 5    1  0.1255769E-009  0.9118800E+02  0.7561462E-02  0.1125453E+00
         25   -1    0    0    0    0  0.00000000000E+00  0.00000000000E+00  0.99999998245E-14  0.12509000000E+03  0.12509000000E+03 0.  0.
        -13    1    3    3    0    0  0.29355806090E+02  0.19063043065E+02  0.80764812292E+01  0.35922189175E+02  0.10566000000E+00 0.  1.
         23    2    1    0    0    0 -0.27465735391E+02  0.62007844695E+00  0.10419093926E+02  0.95707885779E+02  0.91086172190E+02 0.  0.
         13    1    3    3    0    0 -0.56821541481E+02 -0.18442964618E+02  0.23426126969E+01  0.59785696604E+02  0.10566000000E+00 0. -1.
         22    1    1    0    0    0  0.27465735391E+02 -0.62007844695E+00 -0.10419093926E+02  0.29382114221E+02  0.00000000000E+00 0. -1.
</event>
<event>
 5    1  0.1255769E-009  0.9118800E+02  0.7561462E-02  0.1125453E+00
         25   -1    0    0    0    0  0.00000000000E+00  0.00000000000E+00  0.99999998245E-14  0.12509000000E+03  0.12509000000E+03 0.  0.
        -13    1    3    3    0    0  0.87808494761E+01 -0.49641230486E+01 -0.60118650690E+02  0.60959077748E+02  0.10566000000E+00 0. -1.
         23    2    1    0    0    0 -0.29976668524E+01 -0.92816640961E+01 -0.27914100606E+02  0.95520889300E+02  0.90829004095E+02 0.  0.
         13    1    3    3    0    0 -0.11778516329E+02 -0.43175410475E+01  0.32204550083E+02  0.34561811551E+02  0.10566000000E+00 0.  1.
         22    1    1    0    0    0  0.29976668524E+01  0.92816640961E+01  0.27914100606E+02  0.29569110700E+02  0.00000000000E+00 0. -1.
</event>
<event>
 5    1  0.1255769E-009  0.9118800E+02  0.7561462E-02  0.1125453E+00
         25   -1    0    0    0    0  0.00000000000E+00  0.00000000000E+00  0.99999998245E-14  0.12509000000E+03  0.12509000000E+03 0.  0.
        -13    1    3    3    0    0 -0.19703019633E+02 -0.15952195201E+02 -0.26412499128E+02  0.36610282553E+02  0.10566000000E+00 0.  1.
         23    2    1    0    0    0 -0.81234530962E+01  0.75439557415E+01  0.26891546042E+02  0.96002940902E+02  0.91490478493E+02 0.  0.
         13    1    3    3    0    0  0.11579566537E+02  0.23496150943E+02  0.53304045170E+02  0.59392658349E+02  0.10566000000E+00 0. -1.
         22    1    1    0    0    0  0.81234530962E+01 -0.75439557415E+01 -0.26891546042E+02  0.29087059098E+02  0.00000000000E+00 0. -1.
</event>
<event>
 5    1  0.1255769E-009  0.9118800E+02  0.7561462E-02  0.1125453E+00
         25   -1    0    0    0    0  0.00000000000E+00  0.00000000000E+00  0.99999998245E-14  0.12509000000E+03  0.12509000000E+03 0.  0.
        -13    1    3    3    0    0 -0.32794110326E+02 -0.41662945380E+02 -0.74769555069E+01  0.53545968265E+02  0.10566000000E+00 0. -1.
         23    2    1    0    0    0 -0.24127720185E+01 -0.33096482229E+02 -0.18641291934E+02  0.87028255824E+02  0.78263790746E+02 0.  0.
         13    1    3    3    0    0  0.30381338307E+02  0.85664631507E+01 -0.11164336427E+02  0.33482287559E+02  0.10566000000E+00 0.  1.
         22    1    1    0    0    0  0.24127720185E+01  0.33096482229E+02  0.18641291934E+02  0.38061744176E+02  0.00000000000E+00 0. -1.
</event>
<event>
 5    1  0.1255769E-009  0.9118800E+02  0.7561462E-02  0.1125453E+00
         25   -1    0    0    0    0  0.00000000000E+00  0.00000000000E+00  0.99999998245E-14  0.12509000000E+03  0.12509000000E+03 0.  0.
        -13    1    3    3    0    0 -0.58511796685E+02  0.90030653119E+01  0.34414385254E+01  0.59300423265E+02  0.10566000000E+00 0. -1.
         23    2    1    0    0    0 -0.26779446969E+02  0.13306567505E+02  0.12650002680E+02  0.92621152060E+02  0.86743597587E+02 0.  0.
         13    1    3    3    0    0  0.31732349715E+02  0.43035021933E+01  0.92085641546E+01  0.33320728795E+02  0.10566000000E+00 0.  1.
         22    1    1    0    0    0  0.26779446969E+02 -0.13306567505E+02 -0.12650002680E+02  0.32468847940E+02  0.00000000000E+00 0. -1.
</event>
<event>
 5    1  0.1255769E-009  0.9118800E+02  0.7561462E-02  0.1125453E+00
         25   -1    0    0    0    0  0.00000000000E+00  0.00000000000E+00  0.99999998245E-14  0.12509000000E+03  0.12509000000E+03 0.  0.
        -13    1    3    3    0    0  0.84908877826E+01 -0.48409195904E+02  0.13169126995E+02  0.50882044901E+02  0.10566000000E+00 0.  1.
         23    2    1    0    0    0  0.27406883470E+02 -0.12457921704E+02 -0.34771638166E+01  0.94784427197E+02  0.89809019013E+02 0.  0.
         13    1    3    3    0    0  0.18915995687E+02  0.35951274200E+02 -0.16646290812E+02  0.43902382296E+02  0.10566000000E+00 0. -1.
         22    1    1    0    0    0 -0.27406883470E+02  0.12457921704E+02  0.34771638166E+01  0.30305572803E+02  0.00000000000E+00 0.  1.
</event>
<event>
 4    1  0.1255769E-009  0.9118800E+02  0.7561462E-02  0.1125453E+00
         25   -1    0    0    0    0  0.00000000000E+00  0.00000000000E+00  0.99999998245E-14  0.12509000000E+03  0.12509000000E+03 0.  0.
        -13    1    1    0    0    0  0.38448591562E+01  0.23788164975E+02 -0.21722257134E+02  0.32442677970E+02  0.10566000000E+00 0. -1.
         13    1    1    0    0    0 -0.38812812768E+02  0.11298901447E+02  0.75470670343E+01  0.41122609277E+02  0.10566000000E+00 0.  1.
         22    1    1    0    0    0  0.34967953612E+02 -0.35087066423E+02  0.14175190100E+02  0.51524712753E+02  0.00000000000E+00 0. -1.
</event>
<event>
 5    1  0.1255769E-009  0.9118800E+02  0.7561462E-02  0.1125453E+00
         25   -1    0    0    0    0  0.00000000000E+00  0.00000000000E+00  0.99999998245E-14  0.12509000000E+03  0.12509000000E+03 0.  0.
        -13    1    3    3    0    0  0.48258408068E+00  0.32695611115E+02 -0.20568406800E+02  0.38630381773E+02  0.10566000000E+00 0.  1.
         23    2    1    0    0    0  0.14344701170E+02 -0.22481575946E+02 -0.25853781457E+01  0.98296793980E+02  0.94574752540E+02 0.  0.
         13    1    3    3    0    0  0.13862117089E+02 -0.55177187061E+02  0.17983028654E+02  0.59666412208E+02  0.10566000000E+00 0. -1.
         22    1    1    0    0    0 -0.14344701170E+02  0.22481575946E+02  0.25853781457E+01  0.26793206020E+02  0.00000000000E+00 0. -1.
</event>
<event>
 5    1  0.1255769E-009  0.9118800E+02  0.7561462E-02  0.1125453E+00
         25   -1    0    0    0    0  0.00000000000E+00  0.00000000000E+00  0.99999998245E-14  0.12509000000E+03  0.12509000000E+03 0.  0.
        -13    1    3    3    0    0 -0.22973742476E+02 -0.21305447437E+02 -0.39162125519E+02  0.50153745354E+02  0.10566000000E+00 0.  1.
         23    2    1    0    0    0 -0.16556906706E+02 -0.24653336501E+02  0.50604611130E+01  0.94964820714E+02  0.90059928638E+02 0.  0.
         13    1    3    3    0    0  0.64168357692E+01 -0.33478890638E+01  0.44222586632E+02  0.44811075360E+02  0.10566000000E+00 0. -1.
         22    1    1    0    0    0  0.16556906706E+02  0.24653336501E+02 -0.50604611130E+01  0.30125179286E+02  0.00000000000E+00 0. -1.
</event>
<event>
 5    1  0.1255769E-009  0.9118800E+02  0.7561462E-02  0.1125453E+00
         25   -1    0    0    0    0  0.00000000000E+00  0.00000000000E+00  0.99999998245E-14  0.12509000000E+03  0.12509000000E+03 0.  0.
        -13    1    3    3    0    0 -0.18354971648E+02  0.26566692771E+02 -0.88062375174E+01  0.33470212611E+02  0.10566000000E+00 0. -1.
         23    2    1    0    0    0  0.24524207611E+02 -0.16993676557E+02  0.19085760809E+00  0.95252804614E+02  0.90459043541E+02 0.  0.
         13    1    3    3    0    0  0.42879179259E+02 -0.43560369328E+02  0.89970951255E+01  0.61782592003E+02  0.10566000000E+00 0.  1.
         22    1    1    0    0    0 -0.24524207611E+02  0.16993676557E+02 -0.19085760809E+00  0.29837195386E+02  0.00000000000E+00 0.  1.
</event>
<event>
 5    1  0.1255769E-009  0.9118800E+02  0.7561462E-02  0.1125453E+00
         25   -1    0    0    0    0  0.00000000000E+00  0.00000000000E+00  0.99999998245E-14  0.12509000000E+03  0.12509000000E+03 0.  0.
        -13    1    3    3    0    0 -0.51586029119E+02 -0.27664783939E+01 -0.30366516805E+02  0.59924188021E+02  0.10566000000E+00 0.  1.
         23    2    1    0    0    0 -0.22973152305E+02 -0.13901794082E+02 -0.16110534038E+02  0.93775867208E+02  0.88393089990E+02 0.  0.
         13    1    3    3    0    0  0.28612876815E+02 -0.11135315689E+02  0.14255982767E+02  0.33851679187E+02  0.10566000000E+00 0. -1.
         22    1    1    0    0    0  0.22973152305E+02  0.13901794082E+02  0.16110534038E+02  0.31314132792E+02  0.00000000000E+00 0.  1.
</event>
<event>
 5    1  0.1255769E-009  0.9118800E+02  0.7561462E-02  0.1125453E+00
         25   -1    0    0    0    0  0.00000000000E+00  0.00000000000E+00  0.99999998245E-14  0.12509000000E+03  0.12509000000E+03 0.  0.
        -13    1    3    3    0    0  0.54015146648E+01 -0.10488382912E+02  0.32364086098E+02  0.34447463909E+02  0.10566000000E+00 0. -1.
         23    2    1    0    0    0  0.12979343264E+02 -0.10741717549E+02 -0.26439992338E+02  0.93738428392E+02  0.88340092343E+02 0.  0.
         13    1    3    3    0    0  0.75778285988E+01 -0.25333463716E+00 -0.58804078435E+02  0.59290964483E+02  0.10566000000E+00 0.  1.
         22    1    1    0    0    0 -0.12979343264E+02  0.10741717549E+02  0.26439992338E+02  0.31351571608E+02  0.00000000000E+00 0.  1.
</event>
<event>
 5    1  0.1255769E-009  0.9118800E+02  0.7561462E-02  0.1125453E+00
         25   -1    0    0    0    0  0.00000000000E+00  0.00000000000E+00  0.99999998245E-14  0.12509000000E+03  0.12509000000E+03 0.  0.
        -13    1    3    3    0    0 -0.26060157522E+02  0.89525229666E+01  0.28698892053E+02  0.39785890045E+02  0.10566000000E+00 0. -1.
         23    2    1    0    0    0 -0.13480360703E+02 -0.15570489388E+02 -0.20406373675E+02  0.96097236230E+02  0.91619312702E+02 0.  0.
         13    1    3    3    0    0  0.12579796819E+02 -0.24523012355E+02 -0.49105265728E+02  0.56311346185E+02  0.10566000000E+00 0.  1.
         22    1    1    0    0    0  0.13480360703E+02  0.15570489388E+02  0.20406373675E+02  0.28992763770E+02  0.00000000000E+00 0.  1.
</event>
<event>
 5    1  0.1255769E-009  0.9118800E+02  0.7561462E-02  0.1125453E+00
         25   -1    0    0    0    0  0.00000000000E+00  0.00000000000E+00  0.99999998245E-14  0.12509000000E+03  0.12509000000E+03 0.  0.
        -13    1    3    3    0    0  0.95951720647E+01 -0.13018320429E+01 -0.33512449945E+02  0.34883485476E+02  0.10566000000E+00 0. -1.
         23    2    1    0    0    0  0.89859204946E+00  0.70166141191E+01  0.27306690591E+02  0.96881921505E+02  0.92684470231E+02 0.  0.
         13    1    3    3    0    0 -0.86965800152E+01  0.83184461619E+01  0.60819140536E+02  0.61998436029E+02  0.10566000000E+00 0.  1.
         22    1    1    0    0    0 -0.89859204946E+00 -0.70166141191E+01 -0.27306690591E+02  0.28208078495E+02  0.00000000000E+00 0.  1.
</event>
<event>
 5    1  0.1255769E-009  0.9118800E+02  0.7561462E-02  0.1125453E+00
         25   -1    0    0    0    0  0.00000000000E+00  0.00000000000E+00  0.99999998245E-14  0.12509000000E+03  0.12509000000E+03 0.  0.
        -13    1    3    3    0    0 -0.30292830622E+02 -0.31633882315E+02 -0.67457009433E+00  0.43804386838E+02  0.10566000000E+00 0. -1.
         23    2    1    0    0    0  0.18207786991E+02 -0.24515717504E+02 -0.83725984787E+01  0.93425440677E+02  0.87895782883E+02 0.  0.
         13    1    3    3    0    0  0.48500617613E+02  0.71181648110E+01 -0.76980283844E+01  0.49621053839E+02  0.10566000000E+00 0.  1.
         22    1    1    0    0    0 -0.18207786991E+02  0.24515717504E+02  0.83725984787E+01  0.31664559323E+02  0.00000000000E+00 0.  1.
</event>
<event>
 5    1  0.1255769E-009  0.9118800E+02  0.7561462E-02  0.1125453E+00
         25   -1    0    0    0    0  0.00000000000E+00  0.00000000000E+00  0.99999998245E-14  0.12509000000E+03  0.12509000000E+03 0.  0.
        -13    1    3    3    0    0  0.47084476609E+01  0.34791051560E+02 -0.44976612080E+02  0.57056932500E+02  0.10566000000E+00 0. -1.
         23    2    1    0    0    0 -0.57621919184E+01  0.27293762040E+02 -0.82134261170E+01  0.96010579948E+02  0.91500922353E+02 0.  0.
         13    1    3    3    0    0 -0.10470639579E+02 -0.74972895207E+01  0.36763185963E+02  0.38953647448E+02  0.10566000000E+00 0.  1.
         22    1    1    0    0    0  0.57621919184E+01 -0.27293762040E+02  0.82134261170E+01  0.29079420052E+02  0.00000000000E+00 0. -1.
</event>
<event>
 5    1  0.1255769E-009  0.9118800E+02  0.7561462E-02  0.1125453E+00
         25   -1    0    0    0    0  0.00000000000E+00  0.00000000000E+00  0.99999998245E-14  0.12509000000E+03  0.12509000000E+03 0.  0.
        -13    1    3    3    0    0 -0.35345948641E+02 -0.32198411093E+02 -0.29287344033E+02  0.56069897866E+02  0.10566000000E+00 0.  1.
         23    2    1    0    0    0 -0.21798717027E+02 -0.17752688704E+02  0.58226678244E+01  0.96380324264E+02  0.92005007605E+02 0.  0.
         13    1    3    3    0    0  0.13547231614E+02  0.14445722389E+02  0.35110011857E+02  0.40310426398E+02  0.10566000000E+00 0. -1.
         22    1    1    0    0    0  0.21798717027E+02  0.17752688704E+02 -0.58226678244E+01  0.28709675736E+02  0.00000000000E+00 0.  1.
</event>
<event>
 5    1  0.1255769E-009  0.9118800E+02  0.7561462E-02  0.1125453E+00
         25   -1    0    0    0    0  0.00000000000E+00  0.00000000000E+00  0.99999998245E-14  0.12509000000E+03  0.12509000000E+03 0.  0.
        -13    1    3    3    0    0  0.23117066313E+02 -0.24744491587E+01  0.32246219792E+02  0.39753635160E+02  0.10566000000E+00 0. -1.
         23    2    1    0    0    0  0.87264558361E+01  0.22899969962E+02 -0.15778250591E+02  0.95943596321E+02  0.91409303835E+02 0.  0.
         13    1    3    3    0    0 -0.14390610477E+02  0.25374419120E+02 -0.48024470383E+02  0.56189961161E+02  0.10566000000E+00 0.  1.
         22    1    1    0    0    0 -0.87264558361E+01 -0.22899969962E+02  0.15778250591E+02  0.29146403679E+02  0.00000000000E+00 0.  1.
</event>
<event>
 5    1  0.1255769E-009  0.9118800E+02  0.7561462E-02  0.1125453E+00
         25   -1    0    0    0    0  0.00000000000E+00  0.00000000000E+00  0.99999998245E-14  0.12509000000E+03  0.12509000000E+03 0.  0.
        -13    1    3    3    0    0  0.26779930193E+02  0.25440386400E+02 -0.73974473940E+01  0.37671093869E+02  0.10566000000E+00 0. -1.
         23    2    1    0    0    0  0.12301028830E+02 -0.27682170773E+02  0.56958569182E+01  0.94266945723E+02  0.89085332019E+02 0.  0.
         13    1    3    3    0    0 -0.14478901363E+02 -0.53122557172E+02  0.13093304312E+02  0.56595851854E+02  0.10566000000E+00 0.  1.
         22    1    1    0    0    0 -0.12301028830E+02  0.27682170773E+02 -0.56958569182E+01  0.30823054277E+02  0.00000000000E+00 0.  1.
</event>
<event>
 5    1  0.1255769E-009  0.9118800E+02  0.7561462E-02  0.1125453E+00
         25   -1    0    0    0    0  0.00000000000E+00  0.00000000000E+00  0.99999998245E-14  0.12509000000E+03  0.12509000000E+03 0.  0.
        -13    1    3    3    0    0 -0.40344480075E+02 -0.70756608642E+01  0.81324408055E+01  0.41759906689E+02  0.10566000000E+00 0. -1.
         23    2    1    0    0    0  0.92446959090E+01 -0.14117868819E+02  0.25275041461E+02  0.94699107560E+02  0.89690103297E+02 0.  0.
         13    1    3    3    0    0  0.49589175984E+02 -0.70422079549E+01  0.17142600655E+02  0.52939200871E+02  0.10566000000E+00 0.  1.
         22    1    1    0    0    0 -0.92446959090E+01  0.14117868819E+02 -0.25275041461E+02  0.30390892440E+02  0.00000000000E+00 0.  1.
</event>
<event>
 5    1  0.1255769E-009  0.9118800E+02  0.7561462E-02  0.1125453E+00
         25   -1    0    0    0    0  0.00000000000E+00  0.00000000000E+00  0.99999998245E-14  0.12509000000E+03  0.12509000000E+03 0.  0.
        -13    1    3    3    0    0 -0.33720542824E+02 -0.33163657068E+02  0.28128964650E+02  0.55028655942E+02  0.10566000000E+00 0. -1.
         23    2    1    0    0    0 -0.64308335986E+01 -0.31209324050E+02  0.15280875934E+01  0.93188392201E+02  0.87557774417E+02 0.  0.
         13    1    3    3    0    0  0.27289709225E+02  0.19543330178E+01 -0.26600877057E+02  0.38159736259E+02  0.10566000000E+00 0.  1.
         22    1    1    0    0    0  0.64308335986E+01  0.31209324050E+02 -0.15280875934E+01  0.31901607799E+02  0.00000000000E+00 0.  1.
</event>
<event>
 5    1  0.1255769E-009  0.9118800E+02  0.7561462E-02  0.1125453E+00
         25   -1    0    0    0    0  0.00000000000E+00  0.00000000000E+00  0.99999998245E-14  0.12509000000E+03  0.12509000000E+03 0.  0.
        -13    1    3    3    0    0  0.29959797266E+02  0.23197012913E+02 -0.40525765153E+02  0.55480083503E+02  0.10566000000E+00 0.  1.
         23    2    1    0    0    0  0.10996785246E+02 -0.95007424260E+01 -0.24644762824E+02  0.96479552135E+02  0.92139819042E+02 0.  0.
         13    1    3    3    0    0 -0.18963012020E+02 -0.32697755339E+02  0.15881002328E+02  0.40999468631E+02  0.10566000000E+00 0. -1.
         22    1    1    0    0    0 -0.10996785246E+02  0.95007424260E+01  0.24644762824E+02  0.28610447865E+02  0.00000000000E+00 0.  1.
</event>
<event>
 5    1  0.1255769E-009  0.9118800E+02  0.7561462E-02  0.1125453E+00
         25   -1    0    0    0    0  0.00000000000E+00  0.00000000000E+00  0.99999998245E-14  0.12509000000E+03  0.12509000000E+03 0.  0.
        -13    1    3    3    0    0  0.25842739602E+02  0.24256748647E+00  0.27133961834E+02  0.37472244101E+02  0.10566000000E+00 0. -1.
         23    2    1    0    0    0 -0.27965749027E+02 -0.64770366681E+01  0.13397042405E+02  0.93411681423E+02  0.87876199044E+02 0.  0.
         13    1    3    3    0    0 -0.53808488629E+02 -0.67196041546E+01 -0.13736919428E+02  0.55939437322E+02  0.10566000000E+00 0.  1.
         22    1    1    0    0    0  0.27965749027E+02  0.64770366681E+01 -0.13397042405E+02  0.31678318577E+02  0.00000000000E+00 0.  1.
</event>
<event>
 5    1  0.1255769E-009  0.9118800E+02  0.7561462E-02  0.1125453E+00
         25   -1    0    0    0    0  0.00000000000E+00  0.00000000000E+00  0.99999998245E-14  0.12509000000E+03  0.12509000000E+03 0.  0.
        -13    1    3    3    0    0  0.60159907224E+02  0.92744494828E+01 -0.12780256264E+02  0.62197877493E+02  0.10566000000E+00 0. -1.
         23    2    1    0    0    0  0.28382847408E+02  0.89622584628E+01 -0.72694115002E+01  0.94450932663E+02  0.89343305478E+02 0.  0.
         13    1    3    3    0    0 -0.31777059816E+02 -0.31219102005E+00  0.55108447641E+01  0.32253055171E+02  0.10566000000E+00 0.  1.
         22    1    1    0    0    0 -0.28382847408E+02 -0.89622584628E+01  0.72694115002E+01  0.30639067337E+02  0.00000000000E+00 0. -1.
</event>
<event>
 5    1  0.1255769E-009  0.9118800E+02  0.7561462E-02  0.1125453E+00
         25   -1    0    0    0    0  0.00000000000E+00  0.00000000000E+00  0.99999998245E-14  0.12509000000E+03  0.12509000000E+03 0.  0.
        -13    1    3    3    0    0  0.14631617822E+02  0.33674689961E+02 -0.41539735741E+02  0.55440326420E+02  0.10566000000E+00 0.  1.
         23    2    1    0    0    0 -0.25526819433E+01  0.26838538801E+02 -0.32852552324E+01  0.97930908483E+02  0.94089566820E+02 0.  0.
         13    1    3    3    0    0 -0.17184299765E+02 -0.68361511604E+01  0.38254480509E+02  0.42490582064E+02  0.10566000000E+00 0. -1.
         22    1    1    0    0    0  0.25526819433E+01 -0.26838538801E+02  0.32852552324E+01  0.27159091517E+02  0.00000000000E+00 0.  1.
</event>
<event>
 5    1  0.1255769E-009  0.9118800E+02  0.7561462E-02  0.1125453E+00
         25   -1    0    0    0    0  0.00000000000E+00  0.00000000000E+00  0.99999998245E-14  0.12509000000E+03  0.12509000000E+03 0.  0.
        -13    1    3    3    0    0  0.37158333589E+01  0.44346947302E+02  0.16768834583E+02  0.47556956692E+02  0.10566000000E+00 0.  1.
         23    2    1    0    0    0 -0.17214367282E+02  0.15838631241E+02 -0.16777732975E+02  0.96303041073E+02  0.91899873316E+02 0.  0.
         13    1    3    3    0    0 -0.20930200641E+02 -0.28508316060E+02 -0.33546567558E+02  0.48746084380E+02  0.10566000000E+00 0. -1.
         22    1    1    0    0    0  0.17214367282E+02 -0.15838631241E+02  0.16777732975E+02  0.28786958927E+02  0.00000000000E+00 0.  1.
</event>
<event>
 5    1  0.1255769E-009  0.9118800E+02  0.7561462E-02  0.1125453E+00
         25   -1    0    0    0    0  0.00000000000E+00  0.00000000000E+00  0.99999998245E-14  0.12509000000E+03  0.12509000000E+03 0.  0.
        -13    1    3    3    0    0  0.51007871760E+02 -0.33451638004E+02  0.24149405376E+01  0.61046360812E+02  0.10566000000E+00 0. -1.
         23    2    1    0    0    0  0.21058092449E+02 -0.25226348806E+02 -0.34542575148E+00  0.92227692555E+02  0.86174335062E+02 0.  0.
         13    1    3    3    0    0 -0.29949779311E+02  0.82252891981E+01 -0.27603662890E+01  0.31181331742E+02  0.10566000000E+00 0.  1.
         22    1    1    0    0    0 -0.21058092449E+02  0.25226348806E+02  0.34542575148E+00  0.32862307445E+02  0.00000000000E+00 0. -1.
</event>
<event>
 5    1  0.1255769E-009  0.9118800E+02  0.7561462E-02  0.1125453E+00
         25   -1    0    0    0    0  0.00000000000E+00  0.00000000000E+00  0.99999998245E-14  0.12509000000E+03  0.12509000000E+03 0.  0.
        -13    1    3    3    0    0  0.47702082726E+02  0.29935788719E+02 -0.17714232199E+02  0.59037660261E+02  0.10566000000E+00 0.  1.
         23    2    1    0    0    0  0.20890726686E+02  0.44179497218E+01 -0.19608331340E+02  0.96099874110E+02  0.91622914190E+02 0.  0.
         13    1    3    3    0    0 -0.26811356040E+02 -0.25517838997E+02 -0.18940991406E+01  0.37062213849E+02  0.10566000000E+00 0. -1.
         22    1    1    0    0    0 -0.20890726686E+02 -0.44179497218E+01  0.19608331340E+02  0.28990125890E+02  0.00000000000E+00 0.  1.
</event>
<event>
 5    1  0.1255769E-009  0.9118800E+02  0.7561462E-02  0.1125453E+00
         25   -1    0    0    0    0  0.00000000000E+00  0.00000000000E+00  0.99999998245E-14  0.12509000000E+03  0.12509000000E+03 0.  0.
        -13    1    3    3    0    0 -0.19650604426E+02  0.20953619230E+01 -0.33207559700E+02  0.38643110397E+02  0.10566000000E+00 0.  1.
         23    2    1    0    0    0 -0.15016376363E+02 -0.12512832905E+02  0.21837737334E+02  0.95782162853E+02  0.91188120950E+02 0.  0.
         13    1    3    3    0    0  0.46342280629E+01 -0.14608194828E+02  0.55045297034E+02  0.57139052456E+02  0.10566000000E+00 0. -1.
         22    1    1    0    0    0  0.15016376363E+02  0.12512832905E+02 -0.21837737334E+02  0.29307837147E+02  0.00000000000E+00 0. -1.
</event>
<event>
 5    1  0.1255769E-009  0.9118800E+02  0.7561462E-02  0.1125453E+00
         25   -1    0    0    0    0  0.00000000000E+00  0.00000000000E+00  0.99999998245E-14  0.12509000000E+03  0.12509000000E+03 0.  0.
        -13    1    3    3    0    0  0.23445293147E+02 -0.28810345777E+02 -0.49777321089E+02  0.62108861311E+02  0.10566000000E+00 0. -1.
         23    2    1    0    0    0  0.13538820536E+02 -0.13554883316E+02 -0.17584913954E+02  0.99084928918E+02  0.95611502533E+02 0.  0.
         13    1    3    3    0    0 -0.99064726109E+01  0.15255462462E+02  0.32192407134E+02  0.36976067607E+02  0.10566000000E+00 0.  1.
         22    1    1    0    0    0 -0.13538820536E+02  0.13554883316E+02  0.17584913954E+02  0.26005071082E+02  0.00000000000E+00 0. -1.
</event>
<event>
 5    1  0.1255769E-009  0.9118800E+02  0.7561462E-02  0.1125453E+00
         25   -1    0    0    0    0  0.00000000000E+00  0.00000000000E+00  0.99999998245E-14  0.12509000000E+03  0.12509000000E+03 0.  0.
        -13    1    3    3    0    0  0.32353568191E+02  0.62266355306E+01  0.14753499504E+02  0.36099879174E+02  0.10566000000E+00 0. -1.
         23    2    1    0    0    0 -0.26987779459E+02  0.72075157525E+01  0.90690598216E+01  0.95721030500E+02  0.91104222243E+02 0.  0.
         13    1    3    3    0    0 -0.59341347650E+02  0.98088022188E+00 -0.56844396824E+01  0.59621151326E+02  0.10566000000E+00 0.  1.
         22    1    1    0    0    0  0.26987779459E+02 -0.72075157525E+01 -0.90690598216E+01  0.29368969500E+02  0.00000000000E+00 0.  1.
</event>
<event>
 5    1  0.1255769E-009  0.9118800E+02  0.7561462E-02  0.1125453E+00
         25   -1    0    0    0    0  0.00000000000E+00  0.00000000000E+00  0.99999998245E-14  0.12509000000E+03  0.12509000000E+03 0.  0.
        -13    1    3    3    0    0 -0.39139632912E+02 -0.32870009446E+02 -0.24713685461E+02  0.56772579636E+02  0.10566000000E+00 0.  1.
         23    2    1    0    0    0 -0.20960518744E+02 -0.23047770155E+02  0.55782923730E+01  0.93440981043E+02  0.87917896570E+02 0.  0.
         13    1    3    3    0    0  0.18179114168E+02  0.98222392905E+01  0.30291977834E+02  0.36668401407E+02  0.10566000000E+00 0. -1.
         22    1    1    0    0    0  0.20960518744E+02  0.23047770155E+02 -0.55782923730E+01  0.31649018957E+02  0.00000000000E+00 0.  1.
</event>
<event>
 5    1  0.1255769E-009  0.9118800E+02  0.7561462E-02  0.1125453E+00
         25   -1    0    0    0    0  0.00000000000E+00  0.00000000000E+00  0.99999998245E-14  0.12509000000E+03  0.12509000000E+03 0.  0.
        -13    1    3    3    0    0  0.94702539188E+01  0.28482242207E+02 -0.34454555100E+02  0.45695200641E+02  0.10566000000E+00 0.  1.
         23    2    1    0    0    0  0.44826099362E+01  0.29228061734E+02  0.12548223332E+02  0.92967869103E+02  0.87242153758E+02 0.  0.
         13    1    3    3    0    0 -0.49876439826E+01  0.74581952632E+00  0.47002778431E+02  0.47272668463E+02  0.10566000000E+00 0. -1.
         22    1    1    0    0    0 -0.44826099362E+01 -0.29228061734E+02 -0.12548223332E+02  0.32122130897E+02  0.00000000000E+00 0. -1.
</event>
<event>
 5    1  0.1255769E-009  0.9118800E+02  0.7561462E-02  0.1125453E+00
         25   -1    0    0    0    0  0.00000000000E+00  0.00000000000E+00  0.99999998245E-14  0.12509000000E+03  0.12509000000E+03 0.  0.
        -13    1    3    3    0    0 -0.34807386994E+02  0.29429502474E+02  0.33415150926E+02  0.56517548431E+02  0.10566000000E+00 0. -1.
         23    2    1    0    0    0 -0.15107809669E+02  0.23860444592E+02 -0.12993982216E+01  0.96818898768E+02  0.92599373614E+02 0.  0.
         13    1    3    3    0    0  0.19699577325E+02 -0.55690578819E+01 -0.34714549147E+02  0.40301350337E+02  0.10566000000E+00 0.  1.
         22    1    1    0    0    0  0.15107809669E+02 -0.23860444592E+02  0.12993982216E+01  0.28271101232E+02  0.00000000000E+00 0. -1.
</event>
<event>
 5    1  0.1255769E-009  0.9118800E+02  0.7561462E-02  0.1125453E+00
         25   -1    0    0    0    0  0.00000000000E+00  0.00000000000E+00  0.99999998245E-14  0.12509000000E+03  0.12509000000E+03 0.  0.
        -13    1    3    3    0    0 -0.34974437641E+02 -0.10301221917E+02  0.15908091665E+01  0.36494770846E+02  0.10566000000E+00 0. -1.
         23    2    1    0    0    0  0.16927255517E+02  0.35877500782E+01 -0.23592835313E+02  0.95832081276E+02  0.91256572331E+02 0.  0.
         13    1    3    3    0    0  0.51901693157E+02  0.13888971995E+02 -0.25183644480E+02  0.59337310430E+02  0.10566000000E+00 0.  1.
         22    1    1    0    0    0 -0.16927255517E+02 -0.35877500782E+01  0.23592835313E+02  0.29257918724E+02  0.00000000000E+00 0.  1.
</event>
<event>
 5    1  0.1255769E-009  0.9118800E+02  0.7561462E-02  0.1125453E+00
         25   -1    0    0    0    0  0.00000000000E+00  0.00000000000E+00  0.99999998245E-14  0.12509000000E+03  0.12509000000E+03 0.  0.
        -13    1    3    3    0    0  0.19922498908E+02 -0.55603357783E+02  0.16817728292E+02  0.61412429592E+02  0.10566000000E+00 0.  1.
         23    2    1    0    0    0  0.17146682767E+02 -0.23247685657E+02  0.92605747972E+01  0.94754841126E+02  0.89767800758E+02 0.  0.
         13    1    3    3    0    0 -0.27758161407E+01  0.32355672126E+02 -0.75571534944E+01  0.33342411534E+02  0.10566000000E+00 0. -1.
         22    1    1    0    0    0 -0.17146682767E+02  0.23247685657E+02 -0.92605747972E+01  0.30335158874E+02  0.00000000000E+00 0.  1.
</event>
<event>
 5    1  0.1255769E-009  0.9118800E+02  0.7561462E-02  0.1125453E+00
         25   -1    0    0    0    0  0.00000000000E+00  0.00000000000E+00  0.99999998245E-14  0.12509000000E+03  0.12509000000E+03 0.  0.
        -13    1    3    3    0    0 -0.20752845041E+02  0.28092205837E+02 -0.17749634182E+00  0.34926999228E+02  0.10566000000E+00 0. -1.
         23    2    1    0    0    0  0.34182027439E+01 -0.26356886055E+02 -0.12433664941E+02  0.95747785080E+02  0.91140950024E+02 0.  0.
         13    1    3    3    0    0  0.24171047785E+02 -0.54449091892E+02 -0.12256168599E+02  0.60820785852E+02  0.10566000000E+00 0.  1.
         22    1    1    0    0    0 -0.34182027439E+01  0.26356886055E+02  0.12433664941E+02  0.29342214920E+02  0.00000000000E+00 0.  1.
</event>
<event>
 5    1  0.1255769E-009  0.9118800E+02  0.7561462E-02  0.1125453E+00
         25   -1    0    0    0    0  0.00000000000E+00  0.00000000000E+00  0.99999998245E-14  0.12509000000E+03  0.12509000000E+03 0.  0.
        -13    1    3    3    0    0 -0.33614351972E+02 -0.15642383415E+02 -0.33579914970E+01  0.37227625338E+02  0.10566000000E+00 0. -1.
         23    2    1    0    0    0  0.19793029234E+02  0.11638914974E+01 -0.21269583697E+02  0.96012279313E+02  0.91503245508E+02 0.  0.
         13    1    3    3    0    0  0.53407381206E+02  0.16806274912E+02 -0.17911592200E+02  0.58784653975E+02  0.10566000000E+00 0.  1.
         22    1    1    0    0    0 -0.19793029234E+02 -0.11638914974E+01  0.21269583697E+02  0.29077720687E+02  0.00000000000E+00 0.  1.
</event>
<event>
 5    1  0.1255769E-009  0.9118800E+02  0.7561462E-02  0.1125453E+00
         25   -1    0    0    0    0  0.00000000000E+00  0.00000000000E+00  0.99999998245E-14  0.12509000000E+03  0.12509000000E+03 0.  0.
        -13    1    3    3    0    0 -0.29549542651E+01  0.17493781482E+02  0.38544256081E+02  0.42431532923E+02  0.10566000000E+00 0. -1.
         23    2    1    0    0    0 -0.54738120348E+01  0.27370534128E+02 -0.12516351600E+02  0.94499677772E+02  0.89411527697E+02 0.  0.
         13    1    3    3    0    0 -0.25188577697E+01  0.98767526457E+01 -0.51060607681E+02  0.52068144850E+02  0.10566000000E+00 0.  1.
         22    1    1    0    0    0  0.54738120348E+01 -0.27370534128E+02  0.12516351600E+02  0.30590322228E+02  0.00000000000E+00 0. -1.
</event>
<event>
 5    1  0.1255769E-009  0.9118800E+02  0.7561462E-02  0.1125453E+00
         25   -1    0    0    0    0  0.00000000000E+00  0.00000000000E+00  0.99999998245E-14  0.12509000000E+03  0.12509000000E+03 0.  0.
        -13    1    3    3    0    0 -0.15426011564E+02 -0.38625095810E+02  0.13897168997E+01  0.41614929246E+02  0.10566000000E+00 0.  1.
         23    2    1    0    0    0  0.18744135491E+02 -0.15930382615E+01 -0.21123772797E+02  0.96804064213E+02  0.92579331844E+02 0.  0.
         13    1    3    3    0    0  0.34170147055E+02  0.37032057548E+02 -0.22513489696E+02  0.55189134966E+02  0.10566000000E+00 0. -1.
         22    1    1    0    0    0 -0.18744135491E+02  0.15930382615E+01  0.21123772797E+02  0.28285935787E+02  0.00000000000E+00 0. -1.
</event>
<event>
 5    1  0.1255769E-009  0.9118800E+02  0.7561462E-02  0.1125453E+00
         25   -1    0    0    0    0  0.00000000000E+00  0.00000000000E+00  0.99999998245E-14  0.12509000000E+03  0.12509000000E+03 0.  0.
        -13    1    3    3    0    0  0.18096367706E+02  0.52220963356E+01  0.59005328768E+02  0.61938588952E+02  0.10566000000E+00 0.  1.
         23    2    1    0    0    0  0.35907677594E+01  0.63908778074E+01  0.13316940681E+02  0.10988875527E+03  0.10883225943E+03 0.  0.
         13    1    3    3    0    0 -0.14505599947E+02  0.11687814717E+01 -0.45688388087E+02  0.47950166318E+02  0.10566000000E+00 0. -1.
         22    1    1    0    0    0 -0.35907677594E+01 -0.63908778074E+01 -0.13316940681E+02  0.15201244730E+02  0.00000000000E+00 0.  1.
</event>
<event>
 5    1  0.1255769E-009  0.9118800E+02  0.7561462E-02  0.1125453E+00
         25   -1    0    0    0    0  0.00000000000E+00  0.00000000000E+00  0.99999998245E-14  0.12509000000E+03  0.12509000000E+03 0.  0.
        -13    1    3    3    0    0  0.71578562060E+00  0.21581281408E+02  0.54971768673E+02  0.59060736292E+02  0.10566000000E+00 0.  1.
         23    2    1    0    0    0 -0.13786802233E+02  0.59675256568E+01  0.26552067025E+02  0.94582631356E+02  0.89527507576E+02 0.  0.
         13    1    3    3    0    0 -0.14502587854E+02 -0.15613755752E+02 -0.28419701649E+02  0.35521895064E+02  0.10566000000E+00 0. -1.
         22    1    1    0    0    0  0.13786802233E+02 -0.59675256568E+01 -0.26552067025E+02  0.30507368644E+02  0.00000000000E+00 0.  1.
</event>
<event>
 5    1  0.1255769E-009  0.9118800E+02  0.7561462E-02  0.1125453E+00
         25   -1    0    0    0    0  0.00000000000E+00  0.00000000000E+00  0.99999998245E-14  0.12509000000E+03  0.12509000000E+03 0.  0.
        -13    1    3    3    0    0  0.44822760369E+02  0.87253445931E+01  0.29355831444E+01  0.45758499733E+02  0.10566000000E+00 0.  1.
         23    2    1    0    0    0  0.17212855012E+02 -0.28187228312E+02  0.36613906977E+01  0.91860374673E+02  0.85639479421E+02 0.  0.
         13    1    3    3    0    0 -0.27609905357E+02 -0.36912572905E+02  0.72580755327E+00  0.46101874940E+02  0.10566000000E+00 0. -1.
         22    1    1    0    0    0 -0.17212855012E+02  0.28187228312E+02 -0.36613906977E+01  0.33229625327E+02  0.00000000000E+00 0. -1.
</event>
<event>
 5    1  0.1255769E-009  0.9118800E+02  0.7561462E-02  0.1125453E+00
         25   -1    0    0    0    0  0.00000000000E+00  0.00000000000E+00  0.99999998245E-14  0.12509000000E+03  0.12509000000E+03 0.  0.
        -13    1    3    3    0    0  0.27254586436E+02 -0.26673245509E+02 -0.64856922240E+01  0.38682681854E+02  0.10566000000E+00 0. -1.
         23    2    1    0    0    0  0.94562684161E+01  0.26690694909E+02 -0.10034149961E+02  0.95048389316E+02  0.90175927714E+02 0.  0.
         13    1    3    3    0    0 -0.17798318020E+02  0.53363940418E+02 -0.35484577368E+01  0.56365707461E+02  0.10566000000E+00 0.  1.
         22    1    1    0    0    0 -0.94562684161E+01 -0.26690694909E+02  0.10034149961E+02  0.30041610684E+02  0.00000000000E+00 0.  1.
</event>
<event>
 5    1  0.1255769E-009  0.9118800E+02  0.7561462E-02  0.1125453E+00
         25   -1    0    0    0    0  0.00000000000E+00  0.00000000000E+00  0.99999998245E-14  0.12509000000E+03  0.12509000000E+03 0.  0.
        -13    1    3    3    0    0 -0.11913737508E+02 -0.10746452791E+02  0.58271010971E+02  0.60439600202E+02  0.10566000000E+00 0. -1.
         23    2    1    0    0    0 -0.57549813333E+01 -0.17572820718E+02  0.34122562417E+02  0.86279265609E+02  0.77057371938E+02 0.  0.
         13    1    3    3    0    0  0.61587561750E+01 -0.68263679262E+01 -0.24148448554E+02  0.25839665406E+02  0.10566000000E+00 0.  1.
         22    1    1    0    0    0  0.57549813333E+01  0.17572820718E+02 -0.34122562417E+02  0.38810734391E+02  0.00000000000E+00 0. -1.
</event>
<event>
 4    1  0.1255769E-009  0.9118800E+02  0.7561462E-02  0.1125453E+00
         25   -1    0    0    0    0  0.00000000000E+00  0.00000000000E+00  0.99999998245E-14  0.12509000000E+03  0.12509000000E+03 0.  0.
        -13    1    1    0    0    0  0.17770892081E+01  0.43068650828E+02  0.20314222579E+02  0.47652340270E+02  0.10566000000E+00 0. -1.
         13    1    1    0    0    0  0.24680215761E+02 -0.45897429934E+01  0.29323661865E+01  0.25274270044E+02  0.10566000000E+00 0.  1.
         22    1    1    0    0    0 -0.26457304969E+02 -0.38478907834E+02 -0.23246588765E+02  0.52163389686E+02  0.00000000000E+00 0.  1.
</event>
<event>
 5    1  0.1255769E-009  0.9118800E+02  0.7561462E-02  0.1125453E+00
         25   -1    0    0    0    0  0.00000000000E+00  0.00000000000E+00  0.99999998245E-14  0.12509000000E+03  0.12509000000E+03 0.  0.
        -13    1    3    3    0    0  0.25551424883E+02  0.44290575888E+02  0.10195463244E+02  0.52139131761E+02  0.10566000000E+00 0. -1.
         23    2    1    0    0    0 -0.54117126565E+01  0.14297592200E+02  0.23324353613E+02  0.97202130808E+02  0.93115632337E+02 0.  0.
         13    1    3    3    0    0 -0.30963137539E+02 -0.29992983687E+02  0.13128890369E+02  0.45062999047E+02  0.10566000000E+00 0.  1.
         22    1    1    0    0    0  0.54117126565E+01 -0.14297592200E+02 -0.23324353613E+02  0.27887869192E+02  0.00000000000E+00 0. -1.
</event>
<event>
 5    1  0.1255769E-009  0.9118800E+02  0.7561462E-02  0.1125453E+00
         25   -1    0    0    0    0  0.00000000000E+00  0.00000000000E+00  0.99999998245E-14  0.12509000000E+03  0.12509000000E+03 0.  0.
        -13    1    3    3    0    0 -0.16902453652E+02  0.48202828754E+02 -0.35721539268E+02  0.62331734863E+02  0.10566000000E+00 0.  1.
         23    2    1    0    0    0 -0.57505686980E+01  0.24411363947E+02 -0.14395846728E+02  0.96172459767E+02  0.91721959663E+02 0.  0.
         13    1    3    3    0    0  0.11151884954E+02 -0.23791464807E+02  0.21325692540E+02  0.33840724904E+02  0.10566000000E+00 0. -1.
         22    1    1    0    0    0  0.57505686980E+01 -0.24411363947E+02  0.14395846728E+02  0.28917540233E+02  0.00000000000E+00 0.  1.
</event>
<event>
 5    1  0.1255769E-009  0.9118800E+02  0.7561462E-02  0.1125453E+00
         25   -1    0    0    0    0  0.00000000000E+00  0.00000000000E+00  0.99999998245E-14  0.12509000000E+03  0.12509000000E+03 0.  0.
        -13    1    3    3    0    0  0.23155181012E+02 -0.10128711071E+01  0.49595891024E+01  0.23702257354E+02  0.10566000000E+00 0. -1.
         23    2    1    0    0    0 -0.32806990836E+02 -0.20011902939E+02 -0.11366845039E+02  0.85015318803E+02  0.74977492343E+02 0.  0.
         13    1    3    3    0    0 -0.55962171847E+02 -0.18999031832E+02 -0.16326434141E+02  0.61313061449E+02  0.10566000000E+00 0.  1.
         22    1    1    0    0    0  0.32806990836E+02  0.20011902939E+02  0.11366845039E+02  0.40074681197E+02  0.00000000000E+00 0.  1.
</event>
<event>
 5    1  0.1255769E-009  0.9118800E+02  0.7561462E-02  0.1125453E+00
         25   -1    0    0    0    0  0.00000000000E+00  0.00000000000E+00  0.99999998245E-14  0.12509000000E+03  0.12509000000E+03 0.  0.
        -13    1    3    3    0    0 -0.18587568483E+02  0.24999755647E+02 -0.15577098046E+02  0.34830197129E+02  0.10566000000E+00 0. -1.
         23    2    1    0    0    0  0.45389317739E+01 -0.29404727604E+02 -0.39955866426E+01  0.95069929718E+02  0.90205803122E+02 0.  0.
         13    1    3    3    0    0  0.23126500257E+02 -0.54404483251E+02  0.11581511403E+02  0.60239732589E+02  0.10566000000E+00 0.  1.
         22    1    1    0    0    0 -0.45389317739E+01  0.29404727604E+02  0.39955866426E+01  0.30020070282E+02  0.00000000000E+00 0.  1.
</event>
<event>
 5    1  0.1255769E-009  0.9118800E+02  0.7561462E-02  0.1125453E+00
         25   -1    0    0    0    0  0.00000000000E+00  0.00000000000E+00  0.99999998245E-14  0.12509000000E+03  0.12509000000E+03 0.  0.
        -13    1    3    3    0    0  0.15144909245E+02  0.31232581570E+02 -0.34106504238E+02  0.48663201939E+02  0.10566000000E+00 0.  1.
         23    2    1    0    0    0  0.27201359765E+01 -0.13989007187E+02 -0.24817513716E+02  0.96471816115E+02  0.92129315941E+02 0.  0.
         13    1    3    3    0    0 -0.12424773269E+02 -0.45221588757E+02  0.92889905223E+01  0.47808614176E+02  0.10566000000E+00 0. -1.
         22    1    1    0    0    0 -0.27201359765E+01  0.13989007187E+02  0.24817513716E+02  0.28618183885E+02  0.00000000000E+00 0.  1.
</event>
<event>
 5    1  0.1255769E-009  0.9118800E+02  0.7561462E-02  0.1125453E+00
         25   -1    0    0    0    0  0.00000000000E+00  0.00000000000E+00  0.99999998245E-14  0.12509000000E+03  0.12509000000E+03 0.  0.
        -13    1    3    3    0    0  0.51776948967E+02 -0.14114117517E+02 -0.19338150278E+02  0.57044158139E+02  0.10566000000E+00 0.  1.
         23    2    1    0    0    0  0.10139203454E+02 -0.13736609020E+02 -0.20134307483E+02  0.98691359658E+02  0.95095195774E+02 0.  0.
         13    1    3    3    0    0 -0.41637745513E+02  0.37750849702E+00 -0.79615720468E+00  0.41647201519E+02  0.10566000000E+00 0. -1.
         22    1    1    0    0    0 -0.10139203454E+02  0.13736609020E+02  0.20134307483E+02  0.26398640342E+02  0.00000000000E+00 0.  1.
</event>
<event>
 5    1  0.1255769E-009  0.9118800E+02  0.7561462E-02  0.1125453E+00
         25   -1    0    0    0    0  0.00000000000E+00  0.00000000000E+00  0.99999998245E-14  0.12509000000E+03  0.12509000000E+03 0.  0.
        -13    1    3    3    0    0 -0.21753838043E+02  0.57627555583E+01  0.23348248641E+02  0.32428239235E+02  0.10566000000E+00 0. -1.
         23    2    1    0    0    0  0.23447023775E+02  0.22262862511E+02 -0.10313708836E+02  0.91152254627E+02  0.84598835468E+02 0.  0.
         13    1    3    3    0    0  0.45200861818E+02  0.16500106952E+02 -0.33661957477E+02  0.58724015392E+02  0.10566000000E+00 0.  1.
         22    1    1    0    0    0 -0.23447023775E+02 -0.22262862511E+02  0.10313708836E+02  0.33937745373E+02  0.00000000000E+00 0.  1.
</event>
<event>
 5    1  0.1255769E-009  0.9118800E+02  0.7561462E-02  0.1125453E+00
         25   -1    0    0    0    0  0.00000000000E+00  0.00000000000E+00  0.99999998245E-14  0.12509000000E+03  0.12509000000E+03 0.  0.
        -13    1    3    3    0    0 -0.25410320352E+02  0.54220005940E+02  0.90010220258E+00  0.59885847848E+02  0.10566000000E+00 0.  1.
         23    2    1    0    0    0 -0.27441078533E+00  0.28147853313E+02 -0.47597919279E+01  0.96541224779E+02  0.92223508474E+02 0.  0.
         13    1    3    3    0    0  0.25135909567E+02 -0.26072152626E+02 -0.56598941305E+01  0.36655376931E+02  0.10566000000E+00 0. -1.
         22    1    1    0    0    0  0.27441078533E+00 -0.28147853313E+02  0.47597919279E+01  0.28548775221E+02  0.00000000000E+00 0.  1.
</event>
<event>
 5    1  0.1255769E-009  0.9118800E+02  0.7561462E-02  0.1125453E+00
         25   -1    0    0    0    0  0.00000000000E+00  0.00000000000E+00  0.99999998245E-14  0.12509000000E+03  0.12509000000E+03 0.  0.
        -13    1    3    3    0    0 -0.23402819772E+02 -0.22390519321E+02  0.89899573579E+01  0.33613357852E+02  0.10566000000E+00 0.  1.
         23    2    1    0    0    0  0.11954425164E+02  0.24675542992E+02 -0.10657366710E+02  0.95672825286E+02  0.91038010359E+02 0.  0.
         13    1    3    3    0    0  0.35357244936E+02  0.47066062313E+02 -0.19647324068E+02  0.62059467434E+02  0.10566000000E+00 0. -1.
         22    1    1    0    0    0 -0.11954425164E+02 -0.24675542992E+02  0.10657366710E+02  0.29417174714E+02  0.00000000000E+00 0. -1.
</event>
<event>
 5    1  0.1255769E-009  0.9118800E+02  0.7561462E-02  0.1125453E+00
         25   -1    0    0    0    0  0.00000000000E+00  0.00000000000E+00  0.99999998245E-14  0.12509000000E+03  0.12509000000E+03 0.  0.
        -13    1    3    3    0    0 -0.71096797494E+01  0.32817963272E+02 -0.17418256064E+02  0.37828204660E+02  0.10566000000E+00 0.  1.
         23    2    1    0    0    0  0.10504891139E+02  0.14035772451E+00  0.27235948510E+02  0.95898060541E+02  0.91346968675E+02 0.  0.
         13    1    3    3    0    0  0.17614570888E+02 -0.32677605547E+02  0.44654204574E+02  0.58069855881E+02  0.10566000000E+00 0. -1.
         22    1    1    0    0    0 -0.10504891139E+02 -0.14035772451E+00 -0.27235948510E+02  0.29191939459E+02  0.00000000000E+00 0. -1.
</event>
<event>
 5    1  0.1255769E-009  0.9118800E+02  0.7561462E-02  0.1125453E+00
         25   -1    0    0    0    0  0.00000000000E+00  0.00000000000E+00  0.99999998245E-14  0.12509000000E+03  0.12509000000E+03 0.  0.
        -13    1    3    3    0    0 -0.14364981568E+02 -0.71838782071E+01  0.44460771434E+02  0.47272953812E+02  0.10566000000E+00 0. -1.
         23    2    1    0    0    0  0.51516853992E+01 -0.31148553607E+02  0.14393426032E+02  0.90392118693E+02  0.83467311893E+02 0.  0.
         13    1    3    3    0    0  0.19516666967E+02 -0.23964675399E+02 -0.30067345402E+02  0.43119164881E+02  0.10566000000E+00 0.  1.
         22    1    1    0    0    0 -0.51516853992E+01  0.31148553607E+02 -0.14393426032E+02  0.34697881307E+02  0.00000000000E+00 0.  1.
</event>
<event>
 5    1  0.1255769E-009  0.9118800E+02  0.7561462E-02  0.1125453E+00
         25   -1    0    0    0    0  0.00000000000E+00  0.00000000000E+00  0.99999998245E-14  0.12509000000E+03  0.12509000000E+03 0.  0.
        -13    1    3    3    0    0  0.40704764697E+02  0.46159469616E+01 -0.12245172256E+02  0.42756756694E+02  0.10566000000E+00 0.  1.
         23    2    1    0    0    0 -0.53233439024E+01  0.20048337310E+02  0.15974007905E+02  0.98909038448E+02  0.95381104727E+02 0.  0.
         13    1    3    3    0    0 -0.46028108600E+02  0.15432390349E+02  0.28219180161E+02  0.56152281754E+02  0.10566000000E+00 0. -1.
         22    1    1    0    0    0  0.53233439024E+01 -0.20048337310E+02 -0.15974007905E+02  0.26180961552E+02  0.00000000000E+00 0. -1.
</event>
<event>
 5    1  0.1255769E-009  0.9118800E+02  0.7561462E-02  0.1125453E+00
         25   -1    0    0    0    0  0.00000000000E+00  0.00000000000E+00  0.99999998245E-14  0.12509000000E+03  0.12509000000E+03 0.  0.
        -13    1    3    3    0    0  0.35699577424E+02  0.25057950363E+00  0.24226943653E+02  0.43144855790E+02  0.10566000000E+00 0.  1.
         23    2    1    0    0    0  0.13935957336E+02 -0.12624733011E+02 -0.22190718554E+02  0.96003529255E+02  0.91491282913E+02 0.  0.
         13    1    3    3    0    0 -0.21763620088E+02 -0.12875312515E+02 -0.46417662207E+02  0.52858673465E+02  0.10566000000E+00 0. -1.
         22    1    1    0    0    0 -0.13935957336E+02  0.12624733011E+02  0.22190718554E+02  0.29086470745E+02  0.00000000000E+00 0. -1.
</event>
<event>
 5    1  0.1255769E-009  0.9118800E+02  0.7561462E-02  0.1125453E+00
         25   -1    0    0    0    0  0.00000000000E+00  0.00000000000E+00  0.99999998245E-14  0.12509000000E+03  0.12509000000E+03 0.  0.
        -13    1    3    3    0    0  0.42880682481E+02  0.18417234174E+02  0.79393521896E+01  0.47339116192E+02  0.10566000000E+00 0.  1.
         23    2    1    0    0    0  0.10768443772E+02  0.16388704675E+02 -0.24953729710E+02  0.93352992444E+02  0.87792616715E+02 0.  0.
         13    1    3    3    0    0 -0.32112238709E+02 -0.20285294986E+01 -0.32893081899E+02  0.46013876252E+02  0.10566000000E+00 0. -1.
         22    1    1    0    0    0 -0.10768443772E+02 -0.16388704675E+02  0.24953729710E+02  0.31737007556E+02  0.00000000000E+00 0. -1.
</event>
<event>
 5    1  0.1255769E-009  0.9118800E+02  0.7561462E-02  0.1125453E+00
         25   -1    0    0    0    0  0.00000000000E+00  0.00000000000E+00  0.99999998245E-14  0.12509000000E+03  0.12509000000E+03 0.  0.
        -13    1    3    3    0    0  0.40419345462E+02  0.54337683779E+00  0.70577659246E+00  0.40429296687E+02  0.10566000000E+00 0.  1.
         23    2    1    0    0    0 -0.72492444094E+01 -0.13938424981E+02  0.24770823367E+02  0.95756999373E+02  0.91153595668E+02 0.  0.
         13    1    3    3    0    0 -0.47668589871E+02 -0.14481801819E+02  0.24065046775E+02  0.55327702686E+02  0.10566000000E+00 0. -1.
         22    1    1    0    0    0  0.72492444094E+01  0.13938424981E+02 -0.24770823367E+02  0.29333000627E+02  0.00000000000E+00 0. -1.
</event>
<event>
 5    1  0.1255769E-009  0.9118800E+02  0.7561462E-02  0.1125453E+00
         25   -1    0    0    0    0  0.00000000000E+00  0.00000000000E+00  0.99999998245E-14  0.12509000000E+03  0.12509000000E+03 0.  0.
        -13    1    3    3    0    0 -0.41130685847E+02 -0.42698110863E+02 -0.15365572960E+02  0.61245195615E+02  0.10566000000E+00 0.  1.
         23    2    1    0    0    0 -0.25797635629E+02 -0.16721652506E+02 -0.18721375218E+01  0.94290055755E+02  0.89117776279E+02 0.  0.
         13    1    3    3    0    0  0.15333050218E+02  0.25976458357E+02  0.13493435438E+02  0.33044860140E+02  0.10566000000E+00 0. -1.
         22    1    1    0    0    0  0.25797635629E+02  0.16721652506E+02  0.18721375218E+01  0.30799944245E+02  0.00000000000E+00 0.  1.
</event>
<event>
 5    1  0.1255769E-009  0.9118800E+02  0.7561462E-02  0.1125453E+00
         25   -1    0    0    0    0  0.00000000000E+00  0.00000000000E+00  0.99999998245E-14  0.12509000000E+03  0.12509000000E+03 0.  0.
        -13    1    3    3    0    0 -0.20656397550E+02  0.44666291217E+02 -0.13011534459E+02  0.50902608222E+02  0.10566000000E+00 0. -1.
         23    2    1    0    0    0 -0.26778501468E+02  0.55374147011E+01  0.91105524041E+01  0.96267209234E+02  0.91851087670E+02 0.  0.
         13    1    3    3    0    0 -0.61221039177E+01 -0.39128876516E+02  0.22122086863E+02  0.45364601012E+02  0.10566000000E+00 0.  1.
         22    1    1    0    0    0  0.26778501468E+02 -0.55374147011E+01 -0.91105524041E+01  0.28822790766E+02  0.00000000000E+00 0. -1.
</event>
<event>
 5    1  0.1255769E-009  0.9118800E+02  0.7561462E-02  0.1125453E+00
         25   -1    0    0    0    0  0.00000000000E+00  0.00000000000E+00  0.99999998245E-14  0.12509000000E+03  0.12509000000E+03 0.  0.
        -13    1    3    3    0    0  0.29983452346E+02  0.54229256663E+01  0.13175368112E+02  0.33196641792E+02  0.10566000000E+00 0.  1.
         23    2    1    0    0    0 -0.25815738102E+02  0.53624863951E+01 -0.13972673085E+02  0.95249688553E+02  0.90454734438E+02 0.  0.
         13    1    3    3    0    0 -0.55799190448E+02 -0.60439271195E-01 -0.27148041196E+02  0.62053046761E+02  0.10566000000E+00 0. -1.
         22    1    1    0    0    0  0.25815738102E+02 -0.53624863951E+01  0.13972673085E+02  0.29840311447E+02  0.00000000000E+00 0. -1.
</event>
<event>
 5    1  0.1255769E-009  0.9118800E+02  0.7561462E-02  0.1125453E+00
         25   -1    0    0    0    0  0.00000000000E+00  0.00000000000E+00  0.99999998245E-14  0.12509000000E+03  0.12509000000E+03 0.  0.
        -13    1    3    3    0    0 -0.26843699186E+02 -0.50255504017E+01  0.53870676699E+02  0.60397858528E+02  0.10566000000E+00 0.  1.
         23    2    1    0    0    0 -0.58778769799E-02 -0.35013711933E+01  0.25001804557E+02  0.99844210927E+02  0.96599775309E+02 0.  0.
         13    1    3    3    0    0  0.26837821309E+02  0.15241792084E+01 -0.28868872141E+02  0.39446352399E+02  0.10566000000E+00 0. -1.
         22    1    1    0    0    0  0.58778769799E-02  0.35013711933E+01 -0.25001804557E+02  0.25245789073E+02  0.00000000000E+00 0.  1.
</event>
<event>
 5    1  0.1255769E-009  0.9118800E+02  0.7561462E-02  0.1125453E+00
         25   -1    0    0    0    0  0.00000000000E+00  0.00000000000E+00  0.99999998245E-14  0.12509000000E+03  0.12509000000E+03 0.  0.
        -13    1    3    3    0    0  0.23574239963E+02  0.43273022457E+02  0.52303308319E+01  0.49554684814E+02  0.10566000000E+00 0.  1.
         23    2    1    0    0    0  0.91773730007E+01  0.17562840283E+02 -0.25939022583E+02  0.92447842802E+02  0.86493313106E+02 0.  0.
         13    1    3    3    0    0 -0.14396866962E+02 -0.25710182175E+02 -0.31169353415E+02  0.42893157987E+02  0.10566000000E+00 0. -1.
         22    1    1    0    0    0 -0.91773730007E+01 -0.17562840283E+02  0.25939022583E+02  0.32642157198E+02  0.00000000000E+00 0.  1.
</event>
<event>
 5    1  0.1255769E-009  0.9118800E+02  0.7561462E-02  0.1125453E+00
         25   -1    0    0    0    0  0.00000000000E+00  0.00000000000E+00  0.99999998245E-14  0.12509000000E+03  0.12509000000E+03 0.  0.
        -13    1    3    3    0    0 -0.13153967792E+02  0.31388077827E+02 -0.14023098933E+02  0.36808922370E+02  0.10566000000E+00 0. -1.
         23    2    1    0    0    0  0.54826623432E+01 -0.31739379886E+01  0.29203297722E+02  0.95207462180E+02  0.90396320656E+02 0.  0.
         13    1    3    3    0    0  0.18636630135E+02 -0.34562015816E+02  0.43226396655E+02  0.58398539809E+02  0.10566000000E+00 0.  1.
         22    1    1    0    0    0 -0.54826623432E+01  0.31739379886E+01 -0.29203297722E+02  0.29882537820E+02  0.00000000000E+00 0.  1.
</event>
<event>
 5    1  0.1255769E-009  0.9118800E+02  0.7561462E-02  0.1125453E+00
         25   -1    0    0    0    0  0.00000000000E+00  0.00000000000E+00  0.99999998245E-14  0.12509000000E+03  0.12509000000E+03 0.  0.
        -13    1    3    3    0    0  0.57511588220E+02 -0.83948534467E+01 -0.16618462829E+02  0.60450316912E+02  0.10566000000E+00 0.  1.
         23    2    1    0    0    0  0.27298403711E+02  0.61611347178E+01 -0.13160124037E+02  0.94165070075E+02  0.88942167342E+02 0.  0.
         13    1    3    3    0    0 -0.30213184509E+02  0.14555988164E+02  0.34583387916E+01  0.33714753163E+02  0.10566000000E+00 0. -1.
         22    1    1    0    0    0 -0.27298403711E+02 -0.61611347178E+01  0.13160124037E+02  0.30924929925E+02  0.00000000000E+00 0.  1.
</event>
<event>
 5    1  0.1255769E-009  0.9118800E+02  0.7561462E-02  0.1125453E+00
         25   -1    0    0    0    0  0.00000000000E+00  0.00000000000E+00  0.99999998245E-14  0.12509000000E+03  0.12509000000E+03 0.  0.
        -13    1    3    3    0    0 -0.11047352266E+02 -0.37111995142E+02  0.42530046604E+02  0.57516608069E+02  0.10566000000E+00 0. -1.
         23    2    1    0    0    0  0.91689907602E+01 -0.22227027699E+02  0.32754390153E+02  0.84457977824E+02  0.74041804353E+02 0.  0.
         13    1    3    3    0    0  0.20216343026E+02  0.14884967444E+02 -0.97756564519E+01  0.26941369755E+02  0.10566000000E+00 0.  1.
         22    1    1    0    0    0 -0.91689907602E+01  0.22227027699E+02 -0.32754390153E+02  0.40632022176E+02  0.00000000000E+00 0. -1.
</event>
<event>
 5    1  0.1255769E-009  0.9118800E+02  0.7561462E-02  0.1125453E+00
         25   -1    0    0    0    0  0.00000000000E+00  0.00000000000E+00  0.99999998245E-14  0.12509000000E+03  0.12509000000E+03 0.  0.
        -13    1    3    3    0    0  0.13792447553E+02 -0.23963111574E+02  0.39464001927E+02  0.48185899783E+02  0.10566000000E+00 0.  1.
         23    2    1    0    0    0 -0.80878347377E+01 -0.31189504993E+02  0.12073290446E+01  0.92846303935E+02  0.87067676083E+02 0.  0.
         13    1    3    3    0    0 -0.21880282291E+02 -0.72263934194E+01 -0.38256672882E+02  0.44660404152E+02  0.10566000000E+00 0. -1.
         22    1    1    0    0    0  0.80878347377E+01  0.31189504993E+02 -0.12073290446E+01  0.32243696065E+02  0.00000000000E+00 0. -1.
</event>
<event>
 5    1  0.1255769E-009  0.9118800E+02  0.7561462E-02  0.1125453E+00
         25   -1    0    0    0    0  0.00000000000E+00  0.00000000000E+00  0.99999998245E-14  0.12509000000E+03  0.12509000000E+03 0.  0.
        -13    1    3    3    0    0  0.58345007247E+01  0.45611065912E+02  0.15536844059E+02  0.48536742986E+02  0.10566000000E+00 0. -1.
         23    2    1    0    0    0 -0.17758578997E+02  0.41519283692E+01  0.21821137745E+02  0.96651158785E+02  0.92372500263E+02 0.  0.
         13    1    3    3    0    0 -0.23593079722E+02 -0.41459137543E+02  0.62842936859E+01  0.48114415799E+02  0.10566000000E+00 0.  1.
         22    1    1    0    0    0  0.17758578997E+02 -0.41519283692E+01 -0.21821137745E+02  0.28438841215E+02  0.00000000000E+00 0. -1.
</event>
<event>
 5    1  0.1255769E-009  0.9118800E+02  0.7561462E-02  0.1125453E+00
         25   -1    0    0    0    0  0.00000000000E+00  0.00000000000E+00  0.99999998245E-14  0.12509000000E+03  0.12509000000E+03 0.  0.
        -13    1    3    3    0    0 -0.72538142880E+01 -0.52021866348E+02 -0.15473929761E+02  0.54757155390E+02  0.10566000000E+00 0. -1.
         23    2    1    0    0    0 -0.23202121707E+02 -0.18208458540E+02 -0.14664117429E+02  0.92151834385E+02  0.86064149485E+02 0.  0.
         13    1    3    3    0    0 -0.15948307419E+02  0.33813407808E+02  0.80981233142E+00  0.37394678996E+02  0.10566000000E+00 0.  1.
         22    1    1    0    0    0  0.23202121707E+02  0.18208458540E+02  0.14664117429E+02  0.32938165615E+02  0.00000000000E+00 0. -1.
</event>
<event>
 5    1  0.1255769E-009  0.9118800E+02  0.7561462E-02  0.1125453E+00
         25   -1    0    0    0    0  0.00000000000E+00  0.00000000000E+00  0.99999998245E-14  0.12509000000E+03  0.12509000000E+03 0.  0.
        -13    1    3    3    0    0  0.59383166714E+02  0.72582087550E-01 -0.69866819939E+01  0.59792897960E+02  0.10566000000E+00 0.  1.
         23    2    1    0    0    0  0.25711340427E+02 -0.12659511773E+02 -0.60254526897E+01  0.95804468675E+02  0.91218714490E+02 0.  0.
         13    1    3    3    0    0 -0.33671826287E+02 -0.12732093861E+02  0.96122930424E+00  0.36011570715E+02  0.10566000000E+00 0. -1.
         22    1    1    0    0    0 -0.25711340427E+02  0.12659511773E+02  0.60254526897E+01  0.29285531325E+02  0.00000000000E+00 0.  1.
</event>
<event>
 5    1  0.1255769E-009  0.9118800E+02  0.7561462E-02  0.1125453E+00
         25   -1    0    0    0    0  0.00000000000E+00  0.00000000000E+00  0.99999998245E-14  0.12509000000E+03  0.12509000000E+03 0.  0.
        -13    1    3    3    0    0 -0.30331236400E+02 -0.37857549457E+02  0.10674239772E+02  0.49670197414E+02  0.10566000000E+00 0. -1.
         23    2    1    0    0    0 -0.14393933478E+02  0.44664345549E+01  0.23940185116E+02  0.96801012355E+02  0.92575208187E+02 0.  0.
         13    1    3    3    0    0  0.15937302922E+02  0.42323984012E+02  0.13265945344E+02  0.47130814941E+02  0.10566000000E+00 0.  1.
         22    1    1    0    0    0  0.14393933478E+02 -0.44664345549E+01 -0.23940185116E+02  0.28288987645E+02  0.00000000000E+00 0. -1.
</event>
<event>
 5    1  0.1255769E-009  0.9118800E+02  0.7561462E-02  0.1125453E+00
         25   -1    0    0    0    0  0.00000000000E+00  0.00000000000E+00  0.99999998245E-14  0.12509000000E+03  0.12509000000E+03 0.  0.
        -13    1    3    3    0    0 -0.33063743899E+02  0.17052896028E+01  0.10859392341E+02  0.34843316996E+02  0.10566000000E+00 0. -1.
         23    2    1    0    0    0  0.26916738324E+02 -0.86552936150E+01  0.76624042150E+01  0.95796018572E+02  0.91207125962E+02 0.  0.
         13    1    3    3    0    0  0.59980482223E+02 -0.10360583218E+02 -0.31969881257E+01  0.60952701576E+02  0.10566000000E+00 0.  1.
         22    1    1    0    0    0 -0.26916738324E+02  0.86552936150E+01 -0.76624042150E+01  0.29293981428E+02  0.00000000000E+00 0.  1.
</event>
<event>
 5    1  0.1255769E-009  0.9118800E+02  0.7561462E-02  0.1125453E+00
         25   -1    0    0    0    0  0.00000000000E+00  0.00000000000E+00  0.99999998245E-14  0.12509000000E+03  0.12509000000E+03 0.  0.
        -13    1    3    3    0    0 -0.40031120894E+02 -0.11756727993E+02 -0.21203636107E+02  0.46800818810E+02  0.10566000000E+00 0. -1.
         23    2    1    0    0    0 -0.10572774355E+02 -0.25493051482E+02  0.13514979201E+02  0.94359983823E+02  0.89215876686E+02 0.  0.
         13    1    3    3    0    0  0.29458346539E+02 -0.13736323490E+02  0.34718615308E+02  0.47559165013E+02  0.10566000000E+00 0.  1.
         22    1    1    0    0    0  0.10572774355E+02  0.25493051482E+02 -0.13514979201E+02  0.30730016177E+02  0.00000000000E+00 0. -1.
</event>
<event>
 5    1  0.1255769E-009  0.9118800E+02  0.7561462E-02  0.1125453E+00
         25   -1    0    0    0    0  0.00000000000E+00  0.00000000000E+00  0.99999998245E-14  0.12509000000E+03  0.12509000000E+03 0.  0.
        -13    1    3    3    0    0  0.17931204679E+02  0.29899780813E+02  0.19086973953E+02  0.39747311011E+02  0.10566000000E+00 0.  1.
         23    2    1    0    0    0 -0.25980537943E+02 -0.25141173337E+01  0.16129114591E+02  0.94406820972E+02  0.89281523121E+02 0.  0.
         13    1    3    3    0    0 -0.43911742622E+02 -0.32413898146E+02 -0.29578593623E+01  0.54659509961E+02  0.10566000000E+00 0. -1.
         22    1    1    0    0    0  0.25980537943E+02  0.25141173337E+01 -0.16129114591E+02  0.30683179028E+02  0.00000000000E+00 0. -1.
</event>
<event>
 4    1  0.1255769E-009  0.9118800E+02  0.7561462E-02  0.1125453E+00
         25   -1    0    0    0    0  0.00000000000E+00  0.00000000000E+00  0.99999998245E-14  0.12509000000E+03  0.12509000000E+03 0.  0.
        -13    1    1    0    0    0  0.13881564303E+02 -0.16358260256E+02  0.12859541755E+02  0.25013386102E+02  0.10566000000E+00 0. -1.
         13    1    1    0    0    0 -0.50268441964E+01  0.10080656944E+02  0.42343626983E+02  0.43816466278E+02  0.10566000000E+00 0.  1.
         22    1    1    0    0    0 -0.88547201061E+01  0.62776033124E+01 -0.55203168738E+02  0.56260147620E+02  0.00000000000E+00 0.  1.
</event>
<event>
 5    1  0.1255769E-009  0.9118800E+02  0.7561462E-02  0.1125453E+00
         25   -1    0    0    0    0  0.00000000000E+00  0.00000000000E+00  0.99999998245E-14  0.12509000000E+03  0.12509000000E+03 0.  0.
        -13    1    3    3    0    0  0.22919830518E+02 -0.75688216392E+01 -0.13129818976E+02  0.27477427142E+02  0.10566000000E+00 0.  1.
         23    2    1    0    0    0 -0.74846417206E+01  0.65528809777E+01 -0.48130027320E+02  0.75942674125E+02  0.57894992121E+02 0.  0.
         13    1    3    3    0    0 -0.30404472239E+02  0.14121702617E+02 -0.35000208345E+02  0.48465246983E+02  0.10566000000E+00 0. -1.
         22    1    1    0    0    0  0.74846417206E+01 -0.65528809777E+01  0.48130027320E+02  0.49147325875E+02  0.00000000000E+00 0.  1.
</event>
<event>
 5    1  0.1255769E-009  0.9118800E+02  0.7561462E-02  0.1125453E+00
         25   -1    0    0    0    0  0.00000000000E+00  0.00000000000E+00  0.99999998245E-14  0.12509000000E+03  0.12509000000E+03 0.  0.
        -13    1    3    3    0    0  0.32802945239E+02  0.14574125289E+02 -0.66576007886E+01  0.36507165825E+02  0.10566000000E+00 0. -1.
         23    2    1    0    0    0 -0.25948114604E+02  0.12065019200E+02 -0.81678044185E+01  0.95331263991E+02  0.90567474986E+02 0.  0.
         13    1    3    3    0    0 -0.58751059843E+02 -0.25091060883E+01 -0.15102036299E+01  0.58824098166E+02  0.10566000000E+00 0.  1.
         22    1    1    0    0    0  0.25948114604E+02 -0.12065019200E+02  0.81678044185E+01  0.29758736009E+02  0.00000000000E+00 0.  1.
</event>
<event>
 5    1  0.1255769E-009  0.9118800E+02  0.7561462E-02  0.1125453E+00
         25   -1    0    0    0    0  0.00000000000E+00  0.00000000000E+00  0.99999998245E-14  0.12509000000E+03  0.12509000000E+03 0.  0.
        -13    1    3    3    0    0  0.34618965172E+01  0.10412496137E+02  0.35244215202E+02  0.36913014948E+02  0.10566000000E+00 0.  1.
         23    2    1    0    0    0 -0.21739412488E+02 -0.15791418980E+02 -0.11272498878E+02  0.95951705615E+02  0.91420400408E+02 0.  0.
         13    1    3    3    0    0 -0.25201309005E+02 -0.26203915116E+02 -0.46516714079E+02  0.59038690668E+02  0.10566000000E+00 0. -1.
         22    1    1    0    0    0  0.21739412488E+02  0.15791418980E+02  0.11272498878E+02  0.29138294385E+02  0.00000000000E+00 0. -1.
</event>
<event>
 5    1  0.1255769E-009  0.9118800E+02  0.7561462E-02  0.1125453E+00
         25   -1    0    0    0    0  0.00000000000E+00  0.00000000000E+00  0.99999998245E-14  0.12509000000E+03  0.12509000000E+03 0.  0.
        -13    1    3    3    0    0 -0.75633553945E+01 -0.22434048013E+02 -0.22011668060E+02  0.32326700263E+02  0.10566000000E+00 0.  1.
         23    2    1    0    0    0  0.37480751707E+02  0.22218365330E+01 -0.16848870898E+02  0.83936291095E+02  0.73155131100E+02 0.  0.
         13    1    3    3    0    0  0.45044107101E+02  0.24655884546E+02  0.51627971613E+01  0.51609590832E+02  0.10566000000E+00 0. -1.
         22    1    1    0    0    0 -0.37480751707E+02 -0.22218365330E+01  0.16848870898E+02  0.41153708905E+02  0.00000000000E+00 0. -1.
</event>
<event>
 5    1  0.1255769E-009  0.9118800E+02  0.7561462E-02  0.1125453E+00
         25   -1    0    0    0    0  0.00000000000E+00  0.00000000000E+00  0.99999998245E-14  0.12509000000E+03  0.12509000000E+03 0.  0.
        -13    1    3    3    0    0  0.39996158303E+02 -0.25558514017E+00  0.10116080509E+01  0.40009905244E+02  0.10566000000E+00 0.  1.
         23    2    1    0    0    0 -0.62756034678E+01  0.21146533058E+02 -0.20154531288E+02  0.95210840194E+02  0.90400995015E+02 0.  0.
         13    1    3    3    0    0 -0.46271761771E+02  0.21402118199E+02 -0.21166139339E+02  0.55200934950E+02  0.10566000000E+00 0. -1.
         22    1    1    0    0    0  0.62756034678E+01 -0.21146533058E+02  0.20154531288E+02  0.29879159806E+02  0.00000000000E+00 0.  1.
</event>
<event>
 5    1  0.1255769E-009  0.9118800E+02  0.7561462E-02  0.1125453E+00
         25   -1    0    0    0    0  0.00000000000E+00  0.00000000000E+00  0.99999998245E-14  0.12509000000E+03  0.12509000000E+03 0.  0.
        -13    1    3    3    0    0  0.20555661981E+01  0.23356033481E+02 -0.50899724057E+02  0.56040366928E+02  0.10566000000E+00 0. -1.
         23    2    1    0    0    0  0.12368124326E+02 -0.61219465161E+01 -0.24662727965E+02  0.96828738896E+02  0.92612665425E+02 0.  0.
         13    1    3    3    0    0  0.10312558128E+02 -0.29477979997E+02  0.26236996092E+02  0.40788371968E+02  0.10566000000E+00 0.  1.
         22    1    1    0    0    0 -0.12368124326E+02  0.61219465161E+01  0.24662727965E+02  0.28261261104E+02  0.00000000000E+00 0. -1.
</event>
<event>
 5    1  0.1255769E-009  0.9118800E+02  0.7561462E-02  0.1125453E+00
         25   -1    0    0    0    0  0.00000000000E+00  0.00000000000E+00  0.99999998245E-14  0.12509000000E+03  0.12509000000E+03 0.  0.
        -13    1    3    3    0    0  0.28084066697E+02 -0.14916106674E+02  0.19928791262E+02  0.37528295002E+02  0.10566000000E+00 0. -1.
         23    2    1    0    0    0 -0.22563247306E+02 -0.24812009691E+02  0.55728993690E+01  0.91093041882E+02  0.84511236638E+02 0.  0.
         13    1    3    3    0    0 -0.50647314003E+02 -0.98959030179E+01 -0.14355891893E+02  0.53564746880E+02  0.10566000000E+00 0.  1.
         22    1    1    0    0    0  0.22563247306E+02  0.24812009691E+02 -0.55728993690E+01  0.33996958118E+02  0.00000000000E+00 0. -1.
</event>
<event>
 5    1  0.1255769E-009  0.9118800E+02  0.7561462E-02  0.1125453E+00
         25   -1    0    0    0    0  0.00000000000E+00  0.00000000000E+00  0.99999998245E-14  0.12509000000E+03  0.12509000000E+03 0.  0.
        -13    1    3    3    0    0  0.90898706371E+01  0.60760700227E+02 -0.82000593269E+01  0.61981776171E+02  0.10566000000E+00 0.  1.
         23    2    1    0    0    0 -0.11480557517E+00  0.29851191498E+02 -0.78040907681E+01  0.94235330225E+02  0.89040927757E+02 0.  0.
         13    1    3    3    0    0 -0.92046762122E+01 -0.30909508729E+02  0.39596855884E+00  0.32253554055E+02  0.10566000000E+00 0. -1.
         22    1    1    0    0    0  0.11480557517E+00 -0.29851191498E+02  0.78040907681E+01  0.30854669775E+02  0.00000000000E+00 0.  1.
</event>
<event>
 5    1  0.1255769E-009  0.9118800E+02  0.7561462E-02  0.1125453E+00
         25   -1    0    0    0    0  0.00000000000E+00  0.00000000000E+00  0.99999998245E-14  0.12509000000E+03  0.12509000000E+03 0.  0.
        -13    1    3    3    0    0 -0.23498331557E+02 -0.45375258482E+02  0.22096535562E+02  0.55671839526E+02  0.10566000000E+00 0. -1.
         23    2    1    0    0    0 -0.21953959947E+02 -0.65862476703E+01  0.20200750855E+02  0.94537989414E+02  0.89465111030E+02 0.  0.
         13    1    3    3    0    0  0.15443716098E+01  0.38789010812E+02 -0.18957847067E+01  0.38866149888E+02  0.10566000000E+00 0.  1.
         22    1    1    0    0    0  0.21953959947E+02  0.65862476703E+01 -0.20200750855E+02  0.30552010586E+02  0.00000000000E+00 0. -1.
</event>
<event>
 5    1  0.1255769E-009  0.9118800E+02  0.7561462E-02  0.1125453E+00
         25   -1    0    0    0    0  0.00000000000E+00  0.00000000000E+00  0.99999998245E-14  0.12509000000E+03  0.12509000000E+03 0.  0.
        -13    1    3    3    0    0 -0.50842323485E+01  0.78639591808E+01 -0.20351432677E+02  0.22402750917E+02  0.10566000000E+00 0.  1.
         23    2    1    0    0    0  0.14733916486E+02  0.34336510113E+02  0.26164640285E+02  0.79475609474E+02  0.65082254711E+02 0.  0.
         13    1    3    3    0    0  0.19818148835E+02  0.26472550932E+02  0.46516072962E+02  0.57072858558E+02  0.10566000000E+00 0. -1.
         22    1    1    0    0    0 -0.14733916486E+02 -0.34336510113E+02 -0.26164640285E+02  0.45614390526E+02  0.00000000000E+00 0. -1.
</event>
<event>
 5    1  0.1255769E-009  0.9118800E+02  0.7561462E-02  0.1125453E+00
         25   -1    0    0    0    0  0.00000000000E+00  0.00000000000E+00  0.99999998245E-14  0.12509000000E+03  0.12509000000E+03 0.  0.
        -13    1    3    3    0    0  0.21846603303E+02  0.36419901926E+02 -0.36616382233E+02  0.56075430841E+02  0.10566000000E+00 0.  1.
         23    2    1    0    0    0 -0.90256942807E+01  0.20924377038E+02 -0.21426745831E+02  0.93810643412E+02  0.88442290047E+02 0.  0.
         13    1    3    3    0    0 -0.30872297584E+02 -0.15495524888E+02  0.15189636402E+02  0.37735212570E+02  0.10566000000E+00 0. -1.
         22    1    1    0    0    0  0.90256942807E+01 -0.20924377038E+02  0.21426745831E+02  0.31279356588E+02  0.00000000000E+00 0.  1.
</event>
<event>
 5    1  0.1255769E-009  0.9118800E+02  0.7561462E-02  0.1125453E+00
         25   -1    0    0    0    0  0.00000000000E+00  0.00000000000E+00  0.99999998245E-14  0.12509000000E+03  0.12509000000E+03 0.  0.
        -13    1    3    3    0    0 -0.19991397364E+02  0.18930141825E+02  0.28628645480E+02  0.39719223861E+02  0.10566000000E+00 0.  1.
         23    2    1    0    0    0  0.30956528065E+01 -0.27808168917E+02  0.64166906932E+01  0.96383707235E+02  0.92009606977E+02 0.  0.
         13    1    3    3    0    0  0.23087050170E+02 -0.46738310742E+02 -0.22211954787E+02  0.56664483374E+02  0.10566000000E+00 0. -1.
         22    1    1    0    0    0 -0.30956528065E+01  0.27808168917E+02 -0.64166906932E+01  0.28706292765E+02  0.00000000000E+00 0. -1.
</event>
<event>
 5    1  0.1255769E-009  0.9118800E+02  0.7561462E-02  0.1125453E+00
         25   -1    0    0    0    0  0.00000000000E+00  0.00000000000E+00  0.99999998245E-14  0.12509000000E+03  0.12509000000E+03 0.  0.
        -13    1    3    3    0    0  0.22784530936E+02 -0.26711670862E+02 -0.78057823551E+00  0.35117925290E+02  0.10566000000E+00 0.  1.
         23    2    1    0    0    0 -0.24347782172E+02  0.70384100707E+01 -0.16082158360E+02  0.95073512355E+02  0.90210771091E+02 0.  0.
         13    1    3    3    0    0 -0.47132313109E+02  0.33750080933E+02 -0.15301580125E+02  0.59955587065E+02  0.10566000000E+00 0. -1.
         22    1    1    0    0    0  0.24347782172E+02 -0.70384100707E+01  0.16082158360E+02  0.30016487645E+02  0.00000000000E+00 0. -1.
</event>
<event>
 5    1  0.1255769E-009  0.9118800E+02  0.7561462E-02  0.1125453E+00
         25   -1    0    0    0    0  0.00000000000E+00  0.00000000000E+00  0.99999998245E-14  0.12509000000E+03  0.12509000000E+03 0.  0.
        -13    1    3    3    0    0 -0.27747757791E+02  0.83308689258E+01  0.12366200102E+02  0.31500404894E+02  0.10566000000E+00 0.  1.
         23    2    1    0    0    0  0.25279208113E+02 -0.95647174735E+01 -0.15407807813E+02  0.93978543512E+02  0.88679444720E+02 0.  0.
         13    1    3    3    0    0  0.53026965904E+02 -0.17895586399E+02 -0.27774007914E+02  0.62478138619E+02  0.10566000000E+00 0. -1.
         22    1    1    0    0    0 -0.25279208113E+02  0.95647174735E+01  0.15407807813E+02  0.31111456488E+02  0.00000000000E+00 0. -1.
</event>
<event>
 5    1  0.1255769E-009  0.9118800E+02  0.7561462E-02  0.1125453E+00
         25   -1    0    0    0    0  0.00000000000E+00  0.00000000000E+00  0.99999998245E-14  0.12509000000E+03  0.12509000000E+03 0.  0.
        -13    1    3    3    0    0 -0.11658516759E+02 -0.14232466136E+02  0.52595087192E+02  0.55720180062E+02  0.10566000000E+00 0.  1.
         23    2    1    0    0    0 -0.22306347224E+02  0.43266404183E+01  0.19405460292E+02  0.95209156087E+02  0.90398664647E+02 0.  0.
         13    1    3    3    0    0 -0.10647830465E+02  0.18559106554E+02 -0.33189626901E+02  0.39488976025E+02  0.10566000000E+00 0. -1.
         22    1    1    0    0    0  0.22306347224E+02 -0.43266404183E+01 -0.19405460292E+02  0.29880843913E+02  0.00000000000E+00 0.  1.
</event>
<event>
 5    1  0.1255769E-009  0.9118800E+02  0.7561462E-02  0.1125453E+00
         25   -1    0    0    0    0  0.00000000000E+00  0.00000000000E+00  0.99999998245E-14  0.12509000000E+03  0.12509000000E+03 0.  0.
        -13    1    3    3    0    0 -0.24882244672E+02  0.24067429600E+02  0.74130915394E+01  0.35402434347E+02  0.10566000000E+00 0.  1.
         23    2    1    0    0    0  0.80335397926E+00 -0.28094099960E+02  0.13587769934E+02  0.93872195433E+02  0.88529304490E+02 0.  0.
         13    1    3    3    0    0  0.25685598651E+02 -0.52161529560E+02  0.61746783945E+01  0.58469761086E+02  0.10566000000E+00 0. -1.
         22    1    1    0    0    0 -0.80335397926E+00  0.28094099960E+02 -0.13587769934E+02  0.31217804567E+02  0.00000000000E+00 0. -1.
</event>
<event>
 5    1  0.1255769E-009  0.9118800E+02  0.7561462E-02  0.1125453E+00
         25   -1    0    0    0    0  0.00000000000E+00  0.00000000000E+00  0.99999998245E-14  0.12509000000E+03  0.12509000000E+03 0.  0.
        -13    1    3    3    0    0 -0.52442462854E+01 -0.24088260367E+02 -0.46581652170E+02  0.52703015943E+02  0.10566000000E+00 0. -1.
         23    2    1    0    0    0  0.32406890934E+01 -0.27168505934E+02 -0.25953806412E+01  0.97606081409E+02  0.93656720778E+02 0.  0.
         13    1    3    3    0    0  0.84849353788E+01 -0.30802455666E+01  0.43986271529E+02  0.44903065465E+02  0.10566000000E+00 0.  1.
         22    1    1    0    0    0 -0.32406890934E+01  0.27168505934E+02  0.25953806412E+01  0.27483918591E+02  0.00000000000E+00 0.  1.
</event>
<event>
 5    1  0.1255769E-009  0.9118800E+02  0.7561462E-02  0.1125453E+00
         25   -1    0    0    0    0  0.00000000000E+00  0.00000000000E+00  0.99999998245E-14  0.12509000000E+03  0.12509000000E+03 0.  0.
        -13    1    3    3    0    0 -0.99443679971E+01 -0.19580779871E+01 -0.38687615879E+02  0.39993340829E+02  0.10566000000E+00 0.  1.
         23    2    1    0    0    0  0.29275778715E+02  0.80128468976E-01  0.95859119965E+00  0.95798422080E+02  0.91210422299E+02 0.  0.
         13    1    3    3    0    0  0.39220146712E+02  0.20382064561E+01  0.39646207078E+02  0.55805081251E+02  0.10566000000E+00 0. -1.
         22    1    1    0    0    0 -0.29275778715E+02 -0.80128468976E-01 -0.95859119965E+00  0.29291577920E+02  0.00000000000E+00 0. -1.
</event>
<event>
 5    1  0.1255769E-009  0.9118800E+02  0.7561462E-02  0.1125453E+00
         25   -1    0    0    0    0  0.00000000000E+00  0.00000000000E+00  0.99999998245E-14  0.12509000000E+03  0.12509000000E+03 0.  0.
        -13    1    3    3    0    0 -0.29078517587E+02  0.88614614351E+01  0.24348764485E+02  0.38948160159E+02  0.10566000000E+00 0. -1.
         23    2    1    0    0    0 -0.17125236222E+02  0.21781838482E+02 -0.22756707659E+02  0.89234875585E+02  0.81714582994E+02 0.  0.
         13    1    3    3    0    0  0.11953281365E+02  0.12920377046E+02 -0.47105472144E+02  0.50286715426E+02  0.10566000000E+00 0.  1.
         22    1    1    0    0    0  0.17125236222E+02 -0.21781838482E+02  0.22756707659E+02  0.35855124415E+02  0.00000000000E+00 0.  1.
</event>
<event>
 5    1  0.1255769E-009  0.9118800E+02  0.7561462E-02  0.1125453E+00
         25   -1    0    0    0    0  0.00000000000E+00  0.00000000000E+00  0.99999998245E-14  0.12509000000E+03  0.12509000000E+03 0.  0.
        -13    1    3    3    0    0  0.47745105609E+02  0.27489841777E+02 -0.18336708306E+02  0.58064899433E+02  0.10566000000E+00 0.  1.
         23    2    1    0    0    0  0.15345718379E+02  0.57780101939E+01 -0.22456974719E+02  0.97283666407E+02  0.93225101564E+02 0.  0.
         13    1    3    3    0    0 -0.32399387230E+02 -0.21711831583E+02 -0.41202664134E+01  0.39218766974E+02  0.10566000000E+00 0. -1.
         22    1    1    0    0    0 -0.15345718379E+02 -0.57780101939E+01  0.22456974719E+02  0.27806333593E+02  0.00000000000E+00 0.  1.
</event>
<event>
 5    1  0.1255769E-009  0.9118800E+02  0.7561462E-02  0.1125453E+00
         25   -1    0    0    0    0  0.00000000000E+00  0.00000000000E+00  0.99999998245E-14  0.12509000000E+03  0.12509000000E+03 0.  0.
        -13    1    3    3    0    0 -0.31487049286E+02  0.20561768013E+02 -0.86724338709E+01  0.38593300583E+02  0.10566000000E+00 0.  1.
         23    2    1    0    0    0  0.23744631226E+02  0.19650946693E+02 -0.30869944754E+01  0.94114255410E+02  0.88870671870E+02 0.  0.
         13    1    3    3    0    0  0.55231680512E+02 -0.91082131978E+00  0.55854393955E+01  0.55520954828E+02  0.10566000000E+00 0. -1.
         22    1    1    0    0    0 -0.23744631226E+02 -0.19650946693E+02  0.30869944754E+01  0.30975744590E+02  0.00000000000E+00 0. -1.
</event>
<event>
 5    1  0.1255769E-009  0.9118800E+02  0.7561462E-02  0.1125453E+00
         25   -1    0    0    0    0  0.00000000000E+00  0.00000000000E+00  0.99999998245E-14  0.12509000000E+03  0.12509000000E+03 0.  0.
        -13    1    3    3    0    0 -0.12262089555E+02  0.41856791965E+02  0.29955263716E+02  0.52911991667E+02  0.10566000000E+00 0.  1.
         23    2    1    0    0    0 -0.24426132144E+02  0.27357773333E+01  0.13366575679E+02  0.97111691357E+02  0.92994058110E+02 0.  0.
         13    1    3    3    0    0 -0.12164042588E+02 -0.39121014632E+02 -0.16588688037E+02  0.44199699690E+02  0.10566000000E+00 0. -1.
         22    1    1    0    0    0  0.24426132144E+02 -0.27357773333E+01 -0.13366575679E+02  0.27978308643E+02  0.00000000000E+00 0.  1.
</event>
<event>
 5    1  0.1255769E-009  0.9118800E+02  0.7561462E-02  0.1125453E+00
         25   -1    0    0    0    0  0.00000000000E+00  0.00000000000E+00  0.99999998245E-14  0.12509000000E+03  0.12509000000E+03 0.  0.
        -13    1    3    3    0    0  0.32036121777E+02  0.20976384562E+02  0.13624220476E+01  0.38316956634E+02  0.10566000000E+00 0.  1.
         23    2    1    0    0    0 -0.24102941394E+02  0.11777173606E+02  0.11146489165E+02  0.96040080504E+02  0.91541243386E+02 0.  0.
         13    1    3    3    0    0 -0.56139063171E+02 -0.91992109556E+01  0.97840671177E+01  0.57723123870E+02  0.10566000000E+00 0. -1.
         22    1    1    0    0    0  0.24102941394E+02 -0.11777173606E+02 -0.11146489165E+02  0.29049919496E+02  0.00000000000E+00 0. -1.
</event>
<event>
 5    1  0.1255769E-009  0.9118800E+02  0.7561462E-02  0.1125453E+00
         25   -1    0    0    0    0  0.00000000000E+00  0.00000000000E+00  0.99999998245E-14  0.12509000000E+03  0.12509000000E+03 0.  0.
        -13    1    3    3    0    0 -0.18980646115E+02 -0.40380264027E+02  0.32949937219E+02  0.55466568098E+02  0.10566000000E+00 0.  1.
         23    2    1    0    0    0  0.92523045025E+01 -0.13298036158E+02  0.24861281999E+02  0.95416337487E+02  0.90684900687E+02 0.  0.
         13    1    3    3    0    0  0.28232950618E+02  0.27082227869E+02 -0.80886552195E+01  0.39949769389E+02  0.10566000000E+00 0. -1.
         22    1    1    0    0    0 -0.92523045025E+01  0.13298036158E+02 -0.24861281999E+02  0.29673662513E+02  0.00000000000E+00 0.  1.
</event>
<event>
 5    1  0.1255769E-009  0.9118800E+02  0.7561462E-02  0.1125453E+00
         25   -1    0    0    0    0  0.00000000000E+00  0.00000000000E+00  0.99999998245E-14  0.12509000000E+03  0.12509000000E+03 0.  0.
        -13    1    3    3    0    0 -0.33432958852E+02 -0.16261942001E+02 -0.17004055967E+02  0.40882301533E+02  0.10566000000E+00 0.  1.
         23    2    1    0    0    0 -0.14034394988E+01 -0.13479335476E+02  0.26705566133E+02  0.95142556206E+02  0.90306459412E+02 0.  0.
         13    1    3    3    0    0  0.32029519353E+02  0.27826065244E+01  0.43709622100E+02  0.54260254673E+02  0.10566000000E+00 0. -1.
         22    1    1    0    0    0  0.14034394988E+01  0.13479335476E+02 -0.26705566133E+02  0.29947443794E+02  0.00000000000E+00 0. -1.
</event>
<event>
 5    1  0.1255769E-009  0.9118800E+02  0.7561462E-02  0.1125453E+00
         25   -1    0    0    0    0  0.00000000000E+00  0.00000000000E+00  0.99999998245E-14  0.12509000000E+03  0.12509000000E+03 0.  0.
        -13    1    3    3    0    0 -0.46834340626E+01 -0.28684504512E+02  0.22547107609E+02  0.36784760150E+02  0.10566000000E+00 0.  1.
         23    2    1    0    0    0 -0.97569420840E+01  0.26572102361E+02 -0.26988103565E+00  0.96781920262E+02  0.92549406865E+02 0.  0.
         13    1    3    3    0    0 -0.50735080214E+01  0.55256606872E+02 -0.22816988644E+02  0.59997160112E+02  0.10566000000E+00 0. -1.
         22    1    1    0    0    0  0.97569420840E+01 -0.26572102361E+02  0.26988103565E+00  0.28308079738E+02  0.00000000000E+00 0. -1.
</event>
<event>
 5    1  0.1255769E-009  0.9118800E+02  0.7561462E-02  0.1125453E+00
         25   -1    0    0    0    0  0.00000000000E+00  0.00000000000E+00  0.99999998245E-14  0.12509000000E+03  0.12509000000E+03 0.  0.
        -13    1    3    3    0    0  0.14873654124E+02  0.44682880826E+02 -0.13008779135E+02  0.48857189077E+02  0.10566000000E+00 0. -1.
         23    2    1    0    0    0  0.29690381651E+02  0.19469931270E+01 -0.73502583804E+01  0.94441413686E+02  0.89329976916E+02 0.  0.
         13    1    3    3    0    0  0.14816727527E+02 -0.42735887699E+02  0.56585207549E+01  0.45584224609E+02  0.10566000000E+00 0.  1.
         22    1    1    0    0    0 -0.29690381651E+02 -0.19469931270E+01  0.73502583804E+01  0.30648586314E+02  0.00000000000E+00 0.  1.
</event>
<event>
 5    1  0.1255769E-009  0.9118800E+02  0.7561462E-02  0.1125453E+00
         25   -1    0    0    0    0  0.00000000000E+00  0.00000000000E+00  0.99999998245E-14  0.12509000000E+03  0.12509000000E+03 0.  0.
        -13    1    3    3    0    0  0.22168556292E+02  0.38456307639E+02 -0.21338333074E+02  0.49251072148E+02  0.10566000000E+00 0.  1.
         23    2    1    0    0    0  0.69871363294E+01  0.22464452828E+02  0.18751693763E+02  0.95005157738E+02  0.90115937896E+02 0.  0.
         13    1    3    3    0    0 -0.15181419963E+02 -0.15991854811E+02  0.40090026837E+02  0.45754085590E+02  0.10566000000E+00 0. -1.
         22    1    1    0    0    0 -0.69871363294E+01 -0.22464452828E+02 -0.18751693763E+02  0.30084842262E+02  0.00000000000E+00 0. -1.
</event>
<event>
 5    1  0.1255769E-009  0.9118800E+02  0.7561462E-02  0.1125453E+00
         25   -1    0    0    0    0  0.00000000000E+00  0.00000000000E+00  0.99999998245E-14  0.12509000000E+03  0.12509000000E+03 0.  0.
        -13    1    3    3    0    0  0.20729187887E+02  0.96534972160E+01  0.24053635167E+02  0.33188518614E+02  0.10566000000E+00 0.  1.
         23    2    1    0    0    0 -0.87030658997E+01 -0.82381588349E+01 -0.27444240373E+02  0.95143431804E+02  0.90307672258E+02 0.  0.
         13    1    3    3    0    0 -0.29432253787E+02 -0.17891656051E+02 -0.51497875540E+02  0.61954913191E+02  0.10566000000E+00 0. -1.
         22    1    1    0    0    0  0.87030658997E+01  0.82381588349E+01  0.27444240373E+02  0.29946568196E+02  0.00000000000E+00 0. -1.
</event>
<event>
 5    1  0.1255769E-009  0.9118800E+02  0.7561462E-02  0.1125453E+00
         25   -1    0    0    0    0  0.00000000000E+00  0.00000000000E+00  0.99999998245E-14  0.12509000000E+03  0.12509000000E+03 0.  0.
        -13    1    3    3    0    0  0.31025381916E+02 -0.15414953781E+02 -0.52058146560E+02  0.62532047067E+02  0.10566000000E+00 0. -1.
         23    2    1    0    0    0  0.13929663867E+02 -0.65770278818E+01 -0.24662610142E+02  0.96011878151E+02  0.91502697096E+02 0.  0.
         13    1    3    3    0    0 -0.17095718049E+02  0.88379258988E+01  0.27395536418E+02  0.33479831084E+02  0.10566000000E+00 0.  1.
         22    1    1    0    0    0 -0.13929663867E+02  0.65770278818E+01  0.24662610142E+02  0.29078121849E+02  0.00000000000E+00 0. -1.
</event>
<event>
 5    1  0.1255769E-009  0.9118800E+02  0.7561462E-02  0.1125453E+00
         25   -1    0    0    0    0  0.00000000000E+00  0.00000000000E+00  0.99999998245E-14  0.12509000000E+03  0.12509000000E+03 0.  0.
        -13    1    3    3    0    0  0.23740719643E+02  0.25884738089E+02  0.47022644030E+01  0.35436759017E+02  0.10566000000E+00 0.  1.
         23    2    1    0    0    0 -0.39746017291E+01  0.51507395964E+01  0.39818232916E+02  0.84743757921E+02  0.74523051848E+02 0.  0.
         13    1    3    3    0    0 -0.27715321372E+02 -0.20733998493E+02  0.35115968513E+02  0.49306998904E+02  0.10566000000E+00 0. -1.
         22    1    1    0    0    0  0.39746017291E+01 -0.51507395964E+01 -0.39818232916E+02  0.40346242079E+02  0.00000000000E+00 0. -1.
</event>
<event>
 5    1  0.1255769E-009  0.9118800E+02  0.7561462E-02  0.1125453E+00
         25   -1    0    0    0    0  0.00000000000E+00  0.00000000000E+00  0.99999998245E-14  0.12509000000E+03  0.12509000000E+03 0.  0.
        -13    1    3    3    0    0  0.28393923882E+02 -0.18679943071E+02  0.16924734267E+02  0.37968578859E+02  0.10566000000E+00 0. -1.
         23    2    1    0    0    0 -0.22634736577E+02 -0.14012730262E+02 -0.10953896935E+02  0.96303270985E+02  0.91900186262E+02 0.  0.
         13    1    3    3    0    0 -0.51028660459E+02  0.46672128096E+01 -0.27878631202E+02  0.58334692126E+02  0.10566000000E+00 0.  1.
         22    1    1    0    0    0  0.22634736577E+02  0.14012730262E+02  0.10953896935E+02  0.28786729015E+02  0.00000000000E+00 0.  1.
</event>
<event>
 5    1  0.1255769E-009  0.9118800E+02  0.7561462E-02  0.1125453E+00
         25   -1    0    0    0    0  0.00000000000E+00  0.00000000000E+00  0.99999998245E-14  0.12509000000E+03  0.12509000000E+03 0.  0.
        -13    1    3    3    0    0 -0.29508348610E+02 -0.74870720086E+01  0.29569083695E+01  0.30586816704E+02  0.10566000000E+00 0.  1.
         23    2    1    0    0    0  0.13150846963E+02  0.20825430475E+02 -0.25891606061E+02  0.89354603056E+02  0.81897658651E+02 0.  0.
         13    1    3    3    0    0  0.42659195573E+02  0.28312502484E+02 -0.28848514430E+02  0.58767786352E+02  0.10566000000E+00 0. -1.
         22    1    1    0    0    0 -0.13150846963E+02 -0.20825430475E+02  0.25891606061E+02  0.35735396944E+02  0.00000000000E+00 0. -1.
</event>
<event>
 5    1  0.1255769E-009  0.9118800E+02  0.7561462E-02  0.1125453E+00
         25   -1    0    0    0    0  0.00000000000E+00  0.00000000000E+00  0.99999998245E-14  0.12509000000E+03  0.12509000000E+03 0.  0.
        -13    1    3    3    0    0 -0.11931254407E+02  0.49545896651E+01  0.57778481585E+02  0.59205294432E+02  0.10566000000E+00 0.  1.
         23    2    1    0    0    0 -0.10782645800E+02  0.15322230070E+02  0.23503582041E+02  0.95032479252E+02  0.90153854932E+02 0.  0.
         13    1    3    3    0    0  0.11486086065E+01  0.10367640405E+02 -0.34274899544E+02  0.35827184820E+02  0.10566000000E+00 0. -1.
         22    1    1    0    0    0  0.10782645800E+02 -0.15322230070E+02 -0.23503582041E+02  0.30057520748E+02  0.00000000000E+00 0.  1.
</event>
<event>
 5    1  0.1255769E-009  0.9118800E+02  0.7561462E-02  0.1125453E+00
         25   -1    0    0    0    0  0.00000000000E+00  0.00000000000E+00  0.99999998245E-14  0.12509000000E+03  0.12509000000E+03 0.  0.
        -13    1    3    3    0    0 -0.48182582536E+01 -0.32880017373E+02  0.19712735780E+02  0.38638248809E+02  0.10566000000E+00 0.  1.
         23    2    1    0    0    0  0.18455549101E+02 -0.32172884007E+01 -0.22878287662E+02  0.95520179513E+02  0.90828026570E+02 0.  0.
         13    1    3    3    0    0  0.23273807354E+02  0.29662728972E+02 -0.42591023442E+02  0.56881930705E+02  0.10566000000E+00 0. -1.
         22    1    1    0    0    0 -0.18455549101E+02  0.32172884007E+01  0.22878287662E+02  0.29569820487E+02  0.00000000000E+00 0. -1.
</event>
<event>
 5    1  0.1255769E-009  0.9118800E+02  0.7561462E-02  0.1125453E+00
         25   -1    0    0    0    0  0.00000000000E+00  0.00000000000E+00  0.99999998245E-14  0.12509000000E+03  0.12509000000E+03 0.  0.
        -13    1    3    3    0    0  0.49089923166E+02  0.48280732683E+01  0.38021977114E+02  0.62280115251E+02  0.10566000000E+00 0. -1.
         23    2    1    0    0    0  0.25984803619E+02  0.48921310676E+01  0.16085675475E+02  0.94140170905E+02  0.88907141767E+02 0.  0.
         13    1    3    3    0    0 -0.23105119547E+02  0.64057799253E-01 -0.21936301639E+02  0.31860055655E+02  0.10566000000E+00 0.  1.
         22    1    1    0    0    0 -0.25984803619E+02 -0.48921310676E+01 -0.16085675475E+02  0.30949829095E+02  0.00000000000E+00 0. -1.
</event>
<event>
 5    1  0.1255769E-009  0.9118800E+02  0.7561462E-02  0.1125453E+00
         25   -1    0    0    0    0  0.00000000000E+00  0.00000000000E+00  0.99999998245E-14  0.12509000000E+03  0.12509000000E+03 0.  0.
        -13    1    3    3    0    0  0.16338774159E+02 -0.49682205942E+01 -0.57343599814E+02  0.59832586110E+02  0.10566000000E+00 0.  1.
         23    2    1    0    0    0  0.72770380320E+01 -0.14900071781E+02 -0.22822777101E+02  0.96879247153E+02  0.92680860768E+02 0.  0.
         13    1    3    3    0    0 -0.90617361266E+01 -0.99318511865E+01  0.34520822713E+02  0.37046661043E+02  0.10566000000E+00 0. -1.
         22    1    1    0    0    0 -0.72770380320E+01  0.14900071781E+02  0.22822777101E+02  0.28210752847E+02  0.00000000000E+00 0.  1.
</event>
<event>
 5    1  0.1255769E-009  0.9118800E+02  0.7561462E-02  0.1125453E+00
         25   -1    0    0    0    0  0.00000000000E+00  0.00000000000E+00  0.99999998245E-14  0.12509000000E+03  0.12509000000E+03 0.  0.
        -13    1    3    3    0    0 -0.83216141487E+01  0.15537872180E+02 -0.36623449433E+02  0.40644347041E+02  0.10566000000E+00 0. -1.
         23    2    1    0    0    0 -0.20831901417E+02 -0.13952506081E+02  0.10731807697E+02  0.97817078648E+02  0.93938110670E+02 0.  0.
         13    1    3    3    0    0 -0.12510287269E+02 -0.29490378262E+02  0.47355257130E+02  0.57172731608E+02  0.10566000000E+00 0.  1.
         22    1    1    0    0    0  0.20831901417E+02  0.13952506081E+02 -0.10731807697E+02  0.27272921352E+02  0.00000000000E+00 0.  1.
</event>
<event>
 5    1  0.1255769E-009  0.9118800E+02  0.7561462E-02  0.1125453E+00
         25   -1    0    0    0    0  0.00000000000E+00  0.00000000000E+00  0.99999998245E-14  0.12509000000E+03  0.12509000000E+03 0.  0.
        -13    1    3    3    0    0 -0.29488828601E+02  0.15534199860E+02 -0.39768235452E+02  0.51888593087E+02  0.10566000000E+00 0. -1.
         23    2    1    0    0    0  0.20669982406E+01  0.27342060609E+02 -0.14019842301E+02  0.94293624593E+02  0.89122785530E+02 0.  0.
         13    1    3    3    0    0  0.31555826842E+02  0.11807860748E+02  0.25748393151E+02  0.42405031506E+02  0.10566000000E+00 0.  1.
         22    1    1    0    0    0 -0.20669982406E+01 -0.27342060609E+02  0.14019842301E+02  0.30796375407E+02  0.00000000000E+00 0.  1.
</event>
<event>
 5    1  0.1255769E-009  0.9118800E+02  0.7561462E-02  0.1125453E+00
         25   -1    0    0    0    0  0.00000000000E+00  0.00000000000E+00  0.99999998245E-14  0.12509000000E+03  0.12509000000E+03 0.  0.
        -13    1    3    3    0    0 -0.46158704180E+01  0.87157473323E+01 -0.33204344495E+02  0.34638276064E+02  0.10566000000E+00 0. -1.
         23    2    1    0    0    0 -0.10308550539E+02 -0.21711580851E+02  0.18403961266E+02  0.94818482900E+02  0.89856440793E+02 0.  0.
         13    1    3    3    0    0 -0.56926801207E+01 -0.30427328183E+02  0.51608305761E+02  0.60180206836E+02  0.10566000000E+00 0.  1.
         22    1    1    0    0    0  0.10308550539E+02  0.21711580851E+02 -0.18403961266E+02  0.30271517100E+02  0.00000000000E+00 0.  1.
</event>
<event>
 5    1  0.1255769E-009  0.9118800E+02  0.7561462E-02  0.1125453E+00
         25   -1    0    0    0    0  0.00000000000E+00  0.00000000000E+00  0.99999998245E-14  0.12509000000E+03  0.12509000000E+03 0.  0.
        -13    1    3    3    0    0 -0.28924653224E+02  0.11207683148E+02 -0.47885076136E+02  0.57054705382E+02  0.10566000000E+00 0.  1.
         23    2    1    0    0    0 -0.24933413384E+02  0.22098662719E+02 -0.22722975133E+02  0.84761851074E+02  0.74553415761E+02 0.  0.
         13    1    3    3    0    0  0.39912398396E+01  0.10890979571E+02  0.25162101003E+02  0.27707145692E+02  0.10566000000E+00 0. -1.
         22    1    1    0    0    0  0.24933413384E+02 -0.22098662719E+02  0.22722975133E+02  0.40328148926E+02  0.00000000000E+00 0.  1.
</event>
<event>
 5    1  0.1255769E-009  0.9118800E+02  0.7561462E-02  0.1125453E+00
         25   -1    0    0    0    0  0.00000000000E+00  0.00000000000E+00  0.99999998245E-14  0.12509000000E+03  0.12509000000E+03 0.  0.
        -13    1    3    3    0    0  0.31451618662E+01 -0.58750194181E+01  0.26035228651E+02  0.26874750069E+02  0.10566000000E+00 0.  1.
         23    2    1    0    0    0 -0.18116520052E+02  0.35732391833E+02 -0.74251489374E+01  0.84345123492E+02  0.73850896374E+02 0.  0.
         13    1    3    3    0    0 -0.21261681919E+02  0.41607411251E+02 -0.33460377588E+02  0.57470373423E+02  0.10566000000E+00 0. -1.
         22    1    1    0    0    0  0.18116520052E+02 -0.35732391833E+02  0.74251489374E+01  0.40744876508E+02  0.00000000000E+00 0. -1.
</event>
<event>
 5    1  0.1255769E-009  0.9118800E+02  0.7561462E-02  0.1125453E+00
         25   -1    0    0    0    0  0.00000000000E+00  0.00000000000E+00  0.99999998245E-14  0.12509000000E+03  0.12509000000E+03 0.  0.
        -13    1    3    3    0    0 -0.25474689712E+02  0.51646472982E+01 -0.48145126942E+02  0.54713780804E+02  0.10566000000E+00 0.  1.
         23    2    1    0    0    0 -0.21805943448E+02 -0.15422226400E+02 -0.13542599370E+02  0.95144278528E+02  0.90308845093E+02 0.  0.
         13    1    3    3    0    0  0.36687462636E+01 -0.20586873698E+02  0.34602527572E+02  0.40430497724E+02  0.10566000000E+00 0. -1.
         22    1    1    0    0    0  0.21805943448E+02  0.15422226400E+02  0.13542599370E+02  0.29945721472E+02  0.00000000000E+00 0.  1.
</event>
<event>
 5    1  0.1255769E-009  0.9118800E+02  0.7561462E-02  0.1125453E+00
         25   -1    0    0    0    0  0.00000000000E+00  0.00000000000E+00  0.99999998245E-14  0.12509000000E+03  0.12509000000E+03 0.  0.
        -13    1    3    3    0    0  0.39240099449E+02 -0.22519870993E+02 -0.37042939063E+02  0.58473245957E+02  0.10566000000E+00 0. -1.
         23    2    1    0    0    0  0.11687410158E+02 -0.10962318850E+01 -0.28297903575E+02  0.94453932575E+02  0.89347505570E+02 0.  0.
         13    1    3    3    0    0 -0.27552689291E+02  0.21423639108E+02  0.87450354881E+01  0.35980686618E+02  0.10566000000E+00 0.  1.
         22    1    1    0    0    0 -0.11687410158E+02  0.10962318850E+01  0.28297903575E+02  0.30636067425E+02  0.00000000000E+00 0. -1.
</event>
<event>
 5    1  0.1255769E-009  0.9118800E+02  0.7561462E-02  0.1125453E+00
         25   -1    0    0    0    0  0.00000000000E+00  0.00000000000E+00  0.99999998245E-14  0.12509000000E+03  0.12509000000E+03 0.  0.
        -13    1    3    3    0    0  0.21633505131E+02 -0.48825921160E+02 -0.10604120832E+02  0.54446649705E+02  0.10566000000E+00 0.  1.
         23    2    1    0    0    0  0.15019160565E+02 -0.10375456235E+02 -0.23313711004E+02  0.95479961214E+02  0.90772620302E+02 0.  0.
         13    1    3    3    0    0 -0.66143445662E+01  0.38450464926E+02 -0.12709590172E+02  0.41033311509E+02  0.10566000000E+00 0. -1.
         22    1    1    0    0    0 -0.15019160565E+02  0.10375456235E+02  0.23313711004E+02  0.29610038786E+02  0.00000000000E+00 0.  1.
</event>
<event>
 5    1  0.1255769E-009  0.9118800E+02  0.7561462E-02  0.1125453E+00
         25   -1    0    0    0    0  0.00000000000E+00  0.00000000000E+00  0.99999998245E-14  0.12509000000E+03  0.12509000000E+03 0.  0.
        -13    1    3    3    0    0  0.29238525028E+02  0.53781678123E+02  0.12024647186E+02  0.62385603720E+02  0.10566000000E+00 0.  1.
         23    2    1    0    0    0  0.12443271886E+02  0.23975650499E+02  0.21619425319E+01  0.97991276273E+02  0.94169790263E+02 0.  0.
         13    1    3    3    0    0 -0.16795253142E+02 -0.29806027624E+02 -0.98627046544E+01  0.35605672553E+02  0.10566000000E+00 0. -1.
         22    1    1    0    0    0 -0.12443271886E+02 -0.23975650499E+02 -0.21619425319E+01  0.27098723727E+02  0.00000000000E+00 0.  1.
</event>
<event>
 5    1  0.1255769E-009  0.9118800E+02  0.7561462E-02  0.1125453E+00
         25   -1    0    0    0    0  0.00000000000E+00  0.00000000000E+00  0.99999998245E-14  0.12509000000E+03  0.12509000000E+03 0.  0.
        -13    1    3    3    0    0 -0.44502358789E+02 -0.64334018772E+01 -0.18826932996E+02  0.48747442677E+02  0.10566000000E+00 0.  1.
         23    2    1    0    0    0 -0.50492340307E+01 -0.28388442773E+02 -0.73620783117E+01  0.95330990533E+02  0.90567097291E+02 0.  0.
         13    1    3    3    0    0  0.39453124758E+02 -0.21955040896E+02  0.11464854684E+02  0.46583547856E+02  0.10566000000E+00 0. -1.
         22    1    1    0    0    0  0.50492340307E+01  0.28388442773E+02  0.73620783117E+01  0.29759009467E+02  0.00000000000E+00 0.  1.
</event>
<event>
 5    1  0.1255769E-009  0.9118800E+02  0.7561462E-02  0.1125453E+00
         25   -1    0    0    0    0  0.00000000000E+00  0.00000000000E+00  0.99999998245E-14  0.12509000000E+03  0.12509000000E+03 0.  0.
        -13    1    3    3    0    0 -0.26062505474E+02 -0.37213834841E+01 -0.32098097472E+02  0.41513876138E+02  0.10566000000E+00 0. -1.
         23    2    1    0    0    0 -0.17949566172E+02 -0.26216767651E+02  0.11549532233E+02  0.91283232532E+02  0.84792281576E+02 0.  0.
         13    1    3    3    0    0  0.81129393025E+01 -0.22495384167E+02  0.43647629705E+02  0.49769356394E+02  0.10566000000E+00 0.  1.
         22    1    1    0    0    0  0.17949566172E+02  0.26216767651E+02 -0.11549532233E+02  0.33806767468E+02  0.00000000000E+00 0.  1.
</event>
<event>
 5    1  0.1255769E-009  0.9118800E+02  0.7561462E-02  0.1125453E+00
         25   -1    0    0    0    0  0.00000000000E+00  0.00000000000E+00  0.99999998245E-14  0.12509000000E+03  0.12509000000E+03 0.  0.
        -13    1    3    3    0    0  0.35367718026E+02 -0.22478872319E+02 -0.35878841037E+02  0.55167722241E+02  0.10566000000E+00 0.  1.
         23    2    1    0    0    0  0.42472966562E+01 -0.28054854613E+02 -0.15972360804E+02  0.92528815963E+02  0.86610340477E+02 0.  0.
         13    1    3    3    0    0 -0.31120421369E+02 -0.55759822945E+01  0.19906480233E+02  0.37361093721E+02  0.10566000000E+00 0. -1.
         22    1    1    0    0    0 -0.42472966562E+01  0.28054854613E+02  0.15972360804E+02  0.32561184037E+02  0.00000000000E+00 0.  1.
</event>
<event>
 5    1  0.1255769E-009  0.9118800E+02  0.7561462E-02  0.1125453E+00
         25   -1    0    0    0    0  0.00000000000E+00  0.00000000000E+00  0.99999998245E-14  0.12509000000E+03  0.12509000000E+03 0.  0.
        -13    1    3    3    0    0  0.47566035171E+02  0.24686388259E+02  0.71851139934E-01  0.53590687566E+02  0.10566000000E+00 0.  1.
         23    2    1    0    0    0  0.24687251979E+02 -0.29537671205E+01 -0.18600293897E+02  0.94039137154E+02  0.88764876123E+02 0.  0.
         13    1    3    3    0    0 -0.22878783192E+02 -0.27640155380E+02 -0.18672145036E+02  0.40448449588E+02  0.10566000000E+00 0. -1.
         22    1    1    0    0    0 -0.24687251979E+02  0.29537671205E+01  0.18600293897E+02  0.31050862846E+02  0.00000000000E+00 0.  1.
</event>
<event>
 5    1  0.1255769E-009  0.9118800E+02  0.7561462E-02  0.1125453E+00
         25   -1    0    0    0    0  0.00000000000E+00  0.00000000000E+00  0.99999998245E-14  0.12509000000E+03  0.12509000000E+03 0.  0.
        -13    1    3    3    0    0  0.17112238467E+01  0.35321838890E+02  0.32533702057E+02  0.48052195821E+02  0.10566000000E+00 0. -1.
         23    2    1    0    0    0  0.13279323544E+02 -0.25981644959E+01  0.34789490295E+02  0.87761732862E+02  0.79427465196E+02 0.  0.
         13    1    3    3    0    0  0.11568099698E+02 -0.37920003386E+02  0.22557882378E+01  0.39709537041E+02  0.10566000000E+00 0.  1.
         22    1    1    0    0    0 -0.13279323544E+02  0.25981644959E+01 -0.34789490295E+02  0.37328267138E+02  0.00000000000E+00 0. -1.
</event>
<event>
 5    1  0.1255769E-009  0.9118800E+02  0.7561462E-02  0.1125453E+00
         25   -1    0    0    0    0  0.00000000000E+00  0.00000000000E+00  0.99999998245E-14  0.12509000000E+03  0.12509000000E+03 0.  0.
        -13    1    3    3    0    0  0.36069818584E+02  0.32516394467E+01  0.14881064292E+02  0.39154338332E+02  0.10566000000E+00 0. -1.
         23    2    1    0    0    0  0.38477144663E+01 -0.88570614131E+01 -0.28768663329E+02  0.94743856370E+02  0.89752492370E+02 0.  0.
         13    1    3    3    0    0 -0.32222104118E+02 -0.12108700860E+02 -0.43649727620E+02  0.55589518038E+02  0.10566000000E+00 0.  1.
         22    1    1    0    0    0 -0.38477144663E+01  0.88570614131E+01  0.28768663329E+02  0.30346143630E+02  0.00000000000E+00 0.  1.
</event>
<event>
 5    1  0.1255769E-009  0.9118800E+02  0.7561462E-02  0.1125453E+00
         25   -1    0    0    0    0  0.00000000000E+00  0.00000000000E+00  0.99999998245E-14  0.12509000000E+03  0.12509000000E+03 0.  0.
        -13    1    3    3    0    0 -0.10665259175E+01 -0.47795449170E+02 -0.47188776124E+01  0.48039789850E+02  0.10566000000E+00 0.  1.
         23    2    1    0    0    0  0.12734225191E+02 -0.11982056958E+02  0.23586650319E+02  0.95729137386E+02  0.91115352665E+02 0.  0.
         13    1    3    3    0    0  0.13800751108E+02  0.35813392212E+02  0.28305527932E+02  0.47689347536E+02  0.10566000000E+00 0. -1.
         22    1    1    0    0    0 -0.12734225191E+02  0.11982056958E+02 -0.23586650319E+02  0.29360862614E+02  0.00000000000E+00 0. -1.
</event>
<event>
 5    1  0.1255769E-009  0.9118800E+02  0.7561462E-02  0.1125453E+00
         25   -1    0    0    0    0  0.00000000000E+00  0.00000000000E+00  0.99999998245E-14  0.12509000000E+03  0.12509000000E+03 0.  0.
        -13    1    3    3    0    0 -0.14909333644E+01 -0.39622872984E+02 -0.47248392728E+02  0.61681575249E+02  0.10566000000E+00 0. -1.
         23    2    1    0    0    0  0.59463592597E+01 -0.18438321302E+02 -0.17264248639E+02  0.99140334068E+02  0.95683962487E+02 0.  0.
         13    1    3    3    0    0  0.74372926241E+01  0.21184551682E+02  0.29984144089E+02  0.37458758820E+02  0.10566000000E+00 0.  1.
         22    1    1    0    0    0 -0.59463592597E+01  0.18438321302E+02  0.17264248639E+02  0.25949665932E+02  0.00000000000E+00 0. -1.
</event>
<event>
 5    1  0.1255769E-009  0.9118800E+02  0.7561462E-02  0.1125453E+00
         25   -1    0    0    0    0  0.00000000000E+00  0.00000000000E+00  0.99999998245E-14  0.12509000000E+03  0.12509000000E+03 0.  0.
        -13    1    3    3    0    0  0.27003194688E+02  0.47151201499E+02  0.14058062835E+02  0.56125293949E+02  0.10566000000E+00 0. -1.
         23    2    1    0    0    0  0.32454037914E+01  0.16840553184E+02  0.23709001521E+02  0.95828188189E+02  0.91251235724E+02 0.  0.
         13    1    3    3    0    0 -0.23757790896E+02 -0.30310648314E+02  0.96509386864E+01  0.39702894241E+02  0.10566000000E+00 0.  1.
         22    1    1    0    0    0 -0.32454037914E+01 -0.16840553184E+02 -0.23709001521E+02  0.29261811811E+02  0.00000000000E+00 0. -1.
</event>
<event>
 5    1  0.1255769E-009  0.9118800E+02  0.7561462E-02  0.1125453E+00
         25   -1    0    0    0    0  0.00000000000E+00  0.00000000000E+00  0.99999998245E-14  0.12509000000E+03  0.12509000000E+03 0.  0.
        -13    1    3    3    0    0  0.46162921412E+02 -0.23114794394E+02  0.71493183240E+01  0.52119410488E+02  0.10566000000E+00 0.  1.
         23    2    1    0    0    0  0.17919776062E+01 -0.26583203262E+02  0.97916179224E+01  0.96704199660E+02  0.92444299829E+02 0.  0.
         13    1    3    3    0    0 -0.44370943805E+02 -0.34684088688E+01  0.26422995984E+01  0.44584789171E+02  0.10566000000E+00 0. -1.
         22    1    1    0    0    0 -0.17919776062E+01  0.26583203262E+02 -0.97916179224E+01  0.28385800340E+02  0.00000000000E+00 0.  1.
</event>
<event>
 5    1  0.1255769E-009  0.9118800E+02  0.7561462E-02  0.1125453E+00
         25   -1    0    0    0    0  0.00000000000E+00  0.00000000000E+00  0.99999998245E-14  0.12509000000E+03  0.12509000000E+03 0.  0.
        -13    1    3    3    0    0 -0.23256112269E+02  0.26565744772E+02 -0.29380921505E+02  0.45932943142E+02  0.10566000000E+00 0.  1.
         23    2    1    0    0    0  0.21969291902E+02  0.77189556485E+01 -0.16367983786E+02  0.96626989684E+02  0.92339764886E+02 0.  0.
         13    1    3    3    0    0  0.45225404171E+02 -0.18846789124E+02  0.13012937719E+02  0.50694046542E+02  0.10566000000E+00 0. -1.
         22    1    1    0    0    0 -0.21969291902E+02 -0.77189556485E+01  0.16367983786E+02  0.28463010316E+02  0.00000000000E+00 0.  1.
</event>
<event>
 5    1  0.1255769E-009  0.9118800E+02  0.7561462E-02  0.1125453E+00
         25   -1    0    0    0    0  0.00000000000E+00  0.00000000000E+00  0.99999998245E-14  0.12509000000E+03  0.12509000000E+03 0.  0.
        -13    1    3    3    0    0 -0.25853660822E+02  0.22786392559E+02  0.14072239077E+02  0.37224595907E+02  0.10566000000E+00 0.  1.
         23    2    1    0    0    0  0.11709722019E+02  0.48648954680E+01 -0.26727715833E+02  0.95506971228E+02  0.90809834059E+02 0.  0.
         13    1    3    3    0    0  0.37563382841E+02 -0.17921497091E+02 -0.40799954910E+02  0.58282375321E+02  0.10566000000E+00 0. -1.
         22    1    1    0    0    0 -0.11709722019E+02 -0.48648954680E+01  0.26727715833E+02  0.29583028772E+02  0.00000000000E+00 0. -1.
</event>
<event>
 5    1  0.1255769E-009  0.9118800E+02  0.7561462E-02  0.1125453E+00
         25   -1    0    0    0    0  0.00000000000E+00  0.00000000000E+00  0.99999998245E-14  0.12509000000E+03  0.12509000000E+03 0.  0.
        -13    1    3    3    0    0  0.51313590364E+02  0.49220255830E+01  0.14723328202E+02  0.53610618810E+02  0.10566000000E+00 0.  1.
         23    2    1    0    0    0  0.14895370316E+02  0.24038792795E+02  0.10360807999E+02  0.94972198648E+02  0.90070175740E+02 0.  0.
         13    1    3    3    0    0 -0.36418220048E+02  0.19116767212E+02 -0.43625202023E+01  0.41361579838E+02  0.10566000000E+00 0. -1.
         22    1    1    0    0    0 -0.14895370316E+02 -0.24038792795E+02 -0.10360807999E+02  0.30117801352E+02  0.00000000000E+00 0.  1.
</event>
<event>
 5    1  0.1255769E-009  0.9118800E+02  0.7561462E-02  0.1125453E+00
         25   -1    0    0    0    0  0.00000000000E+00  0.00000000000E+00  0.99999998245E-14  0.12509000000E+03  0.12509000000E+03 0.  0.
        -13    1    3    3    0    0 -0.33047275051E+02 -0.35041185966E+02  0.36106533106E+02  0.60197176006E+02  0.10566000000E+00 0. -1.
         23    2    1    0    0    0 -0.12477726073E+02 -0.50595147811E+01  0.22201006183E+02  0.99125081103E+02  0.95664019832E+02 0.  0.
         13    1    3    3    0    0  0.20569548978E+02  0.29981671185E+02 -0.13905526923E+02  0.38927905097E+02  0.10566000000E+00 0.  1.
         22    1    1    0    0    0  0.12477726073E+02  0.50595147811E+01 -0.22201006183E+02  0.25964918897E+02  0.00000000000E+00 0. -1.
</event>
<event>
 5    1  0.1255769E-009  0.9118800E+02  0.7561462E-02  0.1125453E+00
         25   -1    0    0    0    0  0.00000000000E+00  0.00000000000E+00  0.99999998245E-14  0.12509000000E+03  0.12509000000E+03 0.  0.
        -13    1    3    3    0    0 -0.26018150756E+02  0.27866652635E+01 -0.35399627571E+02  0.44021068459E+02  0.10566000000E+00 0.  1.
         23    2    1    0    0    0 -0.26894473236E+02 -0.62417728739E+01  0.13921461554E+02  0.94169464574E+02  0.88948347635E+02 0.  0.
         13    1    3    3    0    0 -0.87632247980E+00 -0.90284381373E+01  0.49321089126E+02  0.50148396115E+02  0.10566000000E+00 0. -1.
         22    1    1    0    0    0  0.26894473236E+02  0.62417728739E+01 -0.13921461554E+02  0.30920535426E+02  0.00000000000E+00 0. -1.
</event>
<event>
 5    1  0.1255769E-009  0.9118800E+02  0.7561462E-02  0.1125453E+00
         25   -1    0    0    0    0  0.00000000000E+00  0.00000000000E+00  0.99999998245E-14  0.12509000000E+03  0.12509000000E+03 0.  0.
        -13    1    3    3    0    0  0.22086264147E+02  0.56372278946E+02  0.15617792109E+02  0.62526502316E+02  0.10566000000E+00 0.  1.
         23    2    1    0    0    0  0.10987483755E+02  0.28908381459E+02  0.90371440452E+01  0.92870606921E+02  0.87102585149E+02 0.  0.
         13    1    3    3    0    0 -0.11098780392E+02 -0.27463897486E+02 -0.65806480642E+01  0.30344104605E+02  0.10566000000E+00 0. -1.
         22    1    1    0    0    0 -0.10987483755E+02 -0.28908381459E+02 -0.90371440452E+01  0.32219393079E+02  0.00000000000E+00 0.  1.
</event>
<event>
 5    1  0.1255769E-009  0.9118800E+02  0.7561462E-02  0.1125453E+00
         25   -1    0    0    0    0  0.00000000000E+00  0.00000000000E+00  0.99999998245E-14  0.12509000000E+03  0.12509000000E+03 0.  0.
        -13    1    3    3    0    0 -0.28805945315E+02  0.22630849982E+02  0.99657942947E+01  0.37964010278E+02  0.10566000000E+00 0.  1.
         23    2    1    0    0    0  0.21829955452E+02  0.73729172305E-01  0.21351292092E+02  0.94554282143E+02  0.89487888603E+02 0.  0.
         13    1    3    3    0    0  0.50635900767E+02 -0.22557120810E+02  0.11385497798E+02  0.56590271866E+02  0.10566000000E+00 0. -1.
         22    1    1    0    0    0 -0.21829955452E+02 -0.73729172305E-01 -0.21351292092E+02  0.30535717857E+02  0.00000000000E+00 0. -1.
</event>
<event>
 5    1  0.1255769E-009  0.9118800E+02  0.7561462E-02  0.1125453E+00
         25   -1    0    0    0    0  0.00000000000E+00  0.00000000000E+00  0.99999998245E-14  0.12509000000E+03  0.12509000000E+03 0.  0.
        -13    1    3    3    0    0 -0.34079025230E+02  0.85355224206E+01 -0.19862736438E+02  0.40358079321E+02  0.10566000000E+00 0.  1.
         23    2    1    0    0    0  0.15082624150E+01  0.15294192646E+02  0.23593959826E+02  0.96932192477E+02  0.92752292769E+02 0.  0.
         13    1    3    3    0    0  0.35587287645E+02  0.67586702257E+01  0.43456696264E+02  0.56574113156E+02  0.10566000000E+00 0. -1.
         22    1    1    0    0    0 -0.15082624150E+01 -0.15294192646E+02 -0.23593959826E+02  0.28157807523E+02  0.00000000000E+00 0. -1.
</event>
<event>
 5    1  0.1255769E-009  0.9118800E+02  0.7561462E-02  0.1125453E+00
         25   -1    0    0    0    0  0.00000000000E+00  0.00000000000E+00  0.99999998245E-14  0.12509000000E+03  0.12509000000E+03 0.  0.
        -13    1    3    3    0    0 -0.31461885256E+02 -0.35157865301E+02  0.63129338389E+01  0.47600315273E+02  0.10566000000E+00 0.  1.
         23    2    1    0    0    0 -0.12640732768E+02 -0.40432562526E+01 -0.25775709452E+02  0.96098221100E+02  0.91620657358E+02 0.  0.
         13    1    3    3    0    0  0.18821152488E+02  0.31114609049E+02 -0.32088643291E+02  0.48497905826E+02  0.10566000000E+00 0. -1.
         22    1    1    0    0    0  0.12640732768E+02  0.40432562526E+01  0.25775709452E+02  0.28991778900E+02  0.00000000000E+00 0. -1.
</event>
<event>
 4    1  0.1255769E-009  0.9118800E+02  0.7561462E-02  0.1125453E+00
         25   -1    0    0    0    0  0.00000000000E+00  0.00000000000E+00  0.99999998245E-14  0.12509000000E+03  0.12509000000E+03 0.  0.
        -13    1    1    0    0    0 -0.47373901043E+02 -0.18269661746E+02 -0.23770120464E+02  0.56063328756E+02  0.10566000000E+00 0.  1.
         13    1    1    0    0    0  0.11715560832E+02 -0.11880001217E+02  0.12593032276E+00  0.16685796865E+02  0.10566000000E+00 0. -1.
         22    1    1    0    0    0  0.35658340210E+02  0.30149662963E+02  0.23644190141E+02  0.52340874379E+02  0.00000000000E+00 0.  1.
</event>
<event>
 5    1  0.1255769E-009  0.9118800E+02  0.7561462E-02  0.1125453E+00
         25   -1    0    0    0    0  0.00000000000E+00  0.00000000000E+00  0.99999998245E-14  0.12509000000E+03  0.12509000000E+03 0.  0.
        -13    1    3    3    0    0 -0.10220558223E+02 -0.27652908296E+02  0.34004360456E+02  0.45005009073E+02  0.10566000000E+00 0.  1.
         23    2    1    0    0    0 -0.17375687236E+02 -0.19620332903E+02 -0.14807270728E+02  0.94988052612E+02  0.90092191130E+02 0.  0.
         13    1    3    3    0    0 -0.71551290127E+01  0.80325753937E+01 -0.48811631183E+02  0.49983043539E+02  0.10566000000E+00 0. -1.
         22    1    1    0    0    0  0.17375687236E+02  0.19620332903E+02  0.14807270728E+02  0.30101947388E+02  0.00000000000E+00 0. -1.
</event>
<event>
 5    1  0.1255769E-009  0.9118800E+02  0.7561462E-02  0.1125453E+00
         25   -1    0    0    0    0  0.00000000000E+00  0.00000000000E+00  0.99999998245E-14  0.12509000000E+03  0.12509000000E+03 0.  0.
        -13    1    3    3    0    0 -0.54929128061E+02 -0.10544462613E+02 -0.31102333211E+00  0.55933019772E+02  0.10566000000E+00 0. -1.
         23    2    1    0    0    0 -0.22434900831E+02  0.57734222338E+00 -0.19573649495E+02  0.95311050154E+02  0.90539551731E+02 0.  0.
         13    1    3    3    0    0  0.32494227229E+02  0.11121804836E+02 -0.19262626163E+02  0.39378030382E+02  0.10566000000E+00 0.  1.
         22    1    1    0    0    0  0.22434900831E+02 -0.57734222338E+00  0.19573649495E+02  0.29778949846E+02  0.00000000000E+00 0. -1.
</event>
<event>
 5    1  0.1255769E-009  0.9118800E+02  0.7561462E-02  0.1125453E+00
         25   -1    0    0    0    0  0.00000000000E+00  0.00000000000E+00  0.99999998245E-14  0.12509000000E+03  0.12509000000E+03 0.  0.
        -13    1    3    3    0    0 -0.94885370117E+00 -0.17796148279E+02  0.29133044700E+02  0.34151847306E+02  0.10566000000E+00 0. -1.
         23    2    1    0    0    0 -0.37325616022E+01  0.56326174180E+01 -0.28169406388E+02  0.96121502433E+02  0.91652437930E+02 0.  0.
         13    1    3    3    0    0 -0.27837079010E+01  0.23428765697E+02 -0.57302451088E+02  0.61969655126E+02  0.10566000000E+00 0.  1.
         22    1    1    0    0    0  0.37325616022E+01 -0.56326174180E+01  0.28169406388E+02  0.28968497567E+02  0.00000000000E+00 0.  1.
</event>
<event>
 5    1  0.1255769E-009  0.9118800E+02  0.7561462E-02  0.1125453E+00
         25   -1    0    0    0    0  0.00000000000E+00  0.00000000000E+00  0.99999998245E-14  0.12509000000E+03  0.12509000000E+03 0.  0.
        -13    1    3    3    0    0  0.41919190198E+02  0.78266827655E+01  0.19108778388E+02  0.46729348867E+02  0.10566000000E+00 0.  1.
         23    2    1    0    0    0 -0.74716433441E+01  0.12816817006E+02  0.24275732208E+02  0.96639913416E+02  0.92357270631E+02 0.  0.
         13    1    3    3    0    0 -0.49390833543E+02  0.49901342406E+01  0.51669538199E+01  0.49910564549E+02  0.10566000000E+00 0. -1.
         22    1    1    0    0    0  0.74716433441E+01 -0.12816817006E+02 -0.24275732208E+02  0.28450086584E+02  0.00000000000E+00 0.  1.
</event>
<event>
 5    1  0.1255769E-009  0.9118800E+02  0.7561462E-02  0.1125453E+00
         25   -1    0    0    0    0  0.00000000000E+00  0.00000000000E+00  0.99999998245E-14  0.12509000000E+03  0.12509000000E+03 0.  0.
        -13    1    3    3    0    0  0.49739931970E+02 -0.72438414620E+01  0.22202671920E+02  0.54950012520E+02  0.10566000000E+00 0. -1.
         23    2    1    0    0    0  0.11393271123E+02 -0.33374827181E+01  0.28693005178E+02  0.94037883101E+02  0.88763108859E+02 0.  0.
         13    1    3    3    0    0 -0.38346660847E+02  0.39063587438E+01  0.64903332571E+01  0.39087870581E+02  0.10566000000E+00 0.  1.
         22    1    1    0    0    0 -0.11393271123E+02  0.33374827181E+01 -0.28693005178E+02  0.31052116899E+02  0.00000000000E+00 0. -1.
</event>
<event>
 5    1  0.1255769E-009  0.9118800E+02  0.7561462E-02  0.1125453E+00
         25   -1    0    0    0    0  0.00000000000E+00  0.00000000000E+00  0.99999998245E-14  0.12509000000E+03  0.12509000000E+03 0.  0.
        -13    1    3    3    0    0 -0.21220201735E+02  0.42716285117E+02 -0.16364319935E+02  0.50425986424E+02  0.10566000000E+00 0.  1.
         23    2    1    0    0    0 -0.11640512796E+02 -0.40411976986E+00 -0.26847523627E+02  0.95824758230E+02  0.91246533710E+02 0.  0.
         13    1    3    3    0    0  0.95796889393E+01 -0.43120404887E+02 -0.10483203692E+02  0.45398771806E+02  0.10566000000E+00 0. -1.
         22    1    1    0    0    0  0.11640512796E+02  0.40411976986E+00  0.26847523627E+02  0.29265241770E+02  0.00000000000E+00 0. -1.
</event>
<event>
 5    1  0.1255769E-009  0.9118800E+02  0.7561462E-02  0.1125453E+00
         25   -1    0    0    0    0  0.00000000000E+00  0.00000000000E+00  0.99999998245E-14  0.12509000000E+03  0.12509000000E+03 0.  0.
        -13    1    3    3    0    0 -0.30262141509E+02 -0.32355610333E+02  0.41058770752E+02  0.60402951488E+02  0.10566000000E+00 0. -1.
         23    2    1    0    0    0 -0.75712446403E+01 -0.23931301810E+02  0.15572445081E+02  0.95551347398E+02  0.90870941406E+02 0.  0.
         13    1    3    3    0    0  0.22690896869E+02  0.84243085230E+01 -0.25486325671E+02  0.35148395910E+02  0.10566000000E+00 0.  1.
         22    1    1    0    0    0  0.75712446403E+01  0.23931301810E+02 -0.15572445081E+02  0.29538652602E+02  0.00000000000E+00 0. -1.
</event>
<event>
 5    1  0.1255769E-009  0.9118800E+02  0.7561462E-02  0.1125453E+00
         25   -1    0    0    0    0  0.00000000000E+00  0.00000000000E+00  0.99999998245E-14  0.12509000000E+03  0.12509000000E+03 0.  0.
        -13    1    3    3    0    0 -0.23481313425E+02  0.51707812052E+02 -0.73029542438E+01  0.57257438050E+02  0.10566000000E+00 0.  1.
         23    2    1    0    0    0 -0.97488950396E+01  0.39421337234E+02  0.10779722852E+02  0.83074702683E+02  0.71666735780E+02 0.  0.
         13    1    3    3    0    0  0.13732418385E+02 -0.12286474818E+02  0.18082677096E+02  0.25817264633E+02  0.10566000000E+00 0. -1.
         22    1    1    0    0    0  0.97488950396E+01 -0.39421337234E+02 -0.10779722852E+02  0.42015297317E+02  0.00000000000E+00 0.  1.
</event>
<event>
 5    1  0.1255769E-009  0.9118800E+02  0.7561462E-02  0.1125453E+00
         25   -1    0    0    0    0  0.00000000000E+00  0.00000000000E+00  0.99999998245E-14  0.12509000000E+03  0.12509000000E+03 0.  0.
        -13    1    3    3    0    0  0.47957831227E+01 -0.67928946198E+01  0.45490219568E+02  0.46244071982E+02  0.10566000000E+00 0. -1.
         23    2    1    0    0    0 -0.10231190854E+02 -0.26701526085E+02  0.19424697711E+01  0.96429540298E+02  0.92071897404E+02 0.  0.
         13    1    3    3    0    0 -0.15026973976E+02 -0.19908631465E+02 -0.43547749797E+02  0.50185468316E+02  0.10566000000E+00 0.  1.
         22    1    1    0    0    0  0.10231190854E+02  0.26701526085E+02 -0.19424697711E+01  0.28660459702E+02  0.00000000000E+00 0.  1.
</event>
<event>
 5    1  0.1255769E-009  0.9118800E+02  0.7561462E-02  0.1125453E+00
         25   -1    0    0    0    0  0.00000000000E+00  0.00000000000E+00  0.99999998245E-14  0.12509000000E+03  0.12509000000E+03 0.  0.
        -13    1    3    3    0    0 -0.19606815939E+02  0.27910735892E+02  0.42798325502E+01  0.34376802353E+02  0.10566000000E+00 0.  1.
         23    2    1    0    0    0  0.21332841977E+02 -0.16132753055E+02  0.13363234324E+02  0.95191306056E+02  0.90373961124E+02 0.  0.
         13    1    3    3    0    0  0.40939657916E+02 -0.44043488947E+02  0.90834017742E+01  0.60814503704E+02  0.10566000000E+00 0. -1.
         22    1    1    0    0    0 -0.21332841977E+02  0.16132753055E+02 -0.13363234324E+02  0.29898693944E+02  0.00000000000E+00 0. -1.
</event>
<event>
 5    1  0.1255769E-009  0.9118800E+02  0.7561462E-02  0.1125453E+00
         25   -1    0    0    0    0  0.00000000000E+00  0.00000000000E+00  0.99999998245E-14  0.12509000000E+03  0.12509000000E+03 0.  0.
        -13    1    3    3    0    0 -0.50991804924E+02  0.58837223652E+01 -0.12243783697E+02  0.52770292414E+02  0.10566000000E+00 0.  1.
         23    2    1    0    0    0 -0.18982098027E+02 -0.19869576871E+02  0.47013342363E+01  0.97211286361E+02  0.93127930943E+02 0.  0.
         13    1    3    3    0    0  0.32009706897E+02 -0.25753299237E+02  0.16945117933E+02  0.44440993947E+02  0.10566000000E+00 0. -1.
         22    1    1    0    0    0  0.18982098027E+02  0.19869576871E+02 -0.47013342363E+01  0.27878713639E+02  0.00000000000E+00 0.  1.
</event>
<event>
 5    1  0.1255769E-009  0.9118800E+02  0.7561462E-02  0.1125453E+00
         25   -1    0    0    0    0  0.00000000000E+00  0.00000000000E+00  0.99999998245E-14  0.12509000000E+03  0.12509000000E+03 0.  0.
        -13    1    3    3    0    0 -0.51629256862E+02 -0.26370021000E+02 -0.20456382615E+02  0.61477092688E+02  0.10566000000E+00 0. -1.
         23    2    1    0    0    0 -0.30167762132E+02 -0.10962412418E+02 -0.18670390445E+02  0.87957105722E+02  0.79734563457E+02 0.  0.
         13    1    3    3    0    0  0.21461494730E+02  0.15407608582E+02  0.17859921704E+01  0.26480013035E+02  0.10566000000E+00 0.  1.
         22    1    1    0    0    0  0.30167762132E+02  0.10962412418E+02  0.18670390445E+02  0.37132894278E+02  0.00000000000E+00 0. -1.
</event>
<event>
 5    1  0.1255769E-009  0.9118800E+02  0.7561462E-02  0.1125453E+00
         25   -1    0    0    0    0  0.00000000000E+00  0.00000000000E+00  0.99999998245E-14  0.12509000000E+03  0.12509000000E+03 0.  0.
        -13    1    3    3    0    0  0.26779896642E+02 -0.40707076185E+01 -0.13255699173E+02  0.30157225490E+02  0.10566000000E+00 0.  1.
         23    2    1    0    0    0 -0.32862163943E+02 -0.65509739410E+01 -0.10733290583E+02  0.89904198811E+02  0.82732849331E+02 0.  0.
         13    1    3    3    0    0 -0.59642060585E+02 -0.24802663226E+01  0.25224085897E+01  0.59746973321E+02  0.10566000000E+00 0. -1.
         22    1    1    0    0    0  0.32862163943E+02  0.65509739410E+01  0.10733290583E+02  0.35185801189E+02  0.00000000000E+00 0. -1.
</event>
<event>
 5    1  0.1255769E-009  0.9118800E+02  0.7561462E-02  0.1125453E+00
         25   -1    0    0    0    0  0.00000000000E+00  0.00000000000E+00  0.99999998245E-14  0.12509000000E+03  0.12509000000E+03 0.  0.
        -13    1    3    3    0    0  0.31433327343E+01  0.38588730603E+02  0.14324179601E+02  0.41281520751E+02  0.10566000000E+00 0.  1.
         23    2    1    0    0    0  0.28861679177E+02 -0.64695702141E+01 -0.13566803347E+01  0.95481007359E+02  0.90774061940E+02 0.  0.
         13    1    3    3    0    0  0.25718346443E+02 -0.45058300817E+02 -0.15680859936E+02  0.54199486608E+02  0.10566000000E+00 0. -1.
         22    1    1    0    0    0 -0.28861679177E+02  0.64695702141E+01  0.13566803347E+01  0.29608992641E+02  0.00000000000E+00 0. -1.
</event>
<event>
 5    1  0.1255769E-009  0.9118800E+02  0.7561462E-02  0.1125453E+00
         25   -1    0    0    0    0  0.00000000000E+00  0.00000000000E+00  0.99999998245E-14  0.12509000000E+03  0.12509000000E+03 0.  0.
        -13    1    3    3    0    0 -0.53584925805E+02 -0.76434211264E+00  0.22630350977E+02  0.58172780936E+02  0.10566000000E+00 0. -1.
         23    2    1    0    0    0 -0.16038655574E+02 -0.16855267997E+01  0.24479223261E+02  0.95775978702E+02  0.91179637264E+02 0.  0.
         13    1    3    3    0    0  0.37546270231E+02 -0.92118468708E+00  0.18488722832E+01  0.37603197766E+02  0.10566000000E+00 0.  1.
         22    1    1    0    0    0  0.16038655574E+02  0.16855267997E+01 -0.24479223261E+02  0.29314021298E+02  0.00000000000E+00 0. -1.
</event>
<event>
 5    1  0.1255769E-009  0.9118800E+02  0.7561462E-02  0.1125453E+00
         25   -1    0    0    0    0  0.00000000000E+00  0.00000000000E+00  0.99999998245E-14  0.12509000000E+03  0.12509000000E+03 0.  0.
        -13    1    3    3    0    0  0.10556881377E+02  0.21342311125E+01  0.38434341595E+02  0.39915065636E+02  0.10566000000E+00 0.  1.
         23    2    1    0    0    0 -0.26835720725E+02  0.93980989305E+01 -0.33537791920E+01  0.96459107502E+02  0.92112059009E+02 0.  0.
         13    1    3    3    0    0 -0.37392602102E+02  0.72638678180E+01 -0.41788120787E+02  0.56544041866E+02  0.10566000000E+00 0. -1.
         22    1    1    0    0    0  0.26835720725E+02 -0.93980989305E+01  0.33537791920E+01  0.28630892498E+02  0.00000000000E+00 0. -1.
</event>
<event>
 5    1  0.1255769E-009  0.9118800E+02  0.7561462E-02  0.1125453E+00
         25   -1    0    0    0    0  0.00000000000E+00  0.00000000000E+00  0.99999998245E-14  0.12509000000E+03  0.12509000000E+03 0.  0.
        -13    1    3    3    0    0 -0.47469645217E+02  0.20406650623E+02 -0.22922085556E+02  0.56526381248E+02  0.10566000000E+00 0.  1.
         23    2    1    0    0    0 -0.86446140776E+01  0.17565992864E+02 -0.22238805972E+02  0.95461332313E+02  0.90746944952E+02 0.  0.
         13    1    3    3    0    0  0.38825031139E+02 -0.28406577593E+01  0.68327958475E+00  0.38934951066E+02  0.10566000000E+00 0. -1.
         22    1    1    0    0    0  0.86446140776E+01 -0.17565992864E+02  0.22238805972E+02  0.29628667687E+02  0.00000000000E+00 0.  1.
</event>
<event>
 5    1  0.1255769E-009  0.9118800E+02  0.7561462E-02  0.1125453E+00
         25   -1    0    0    0    0  0.00000000000E+00  0.00000000000E+00  0.99999998245E-14  0.12509000000E+03  0.12509000000E+03 0.  0.
        -13    1    3    3    0    0  0.50211019931E+02  0.25572310697E+02 -0.64386310650E+01  0.56714695899E+02  0.10566000000E+00 0. -1.
         23    2    1    0    0    0  0.12053490331E+02  0.27298288543E+02 -0.38937794851E+01  0.94996068631E+02  0.90103320417E+02 0.  0.
         13    1    3    3    0    0 -0.38157529599E+02  0.17259778456E+01  0.25448515800E+01  0.38281372732E+02  0.10566000000E+00 0.  1.
         22    1    1    0    0    0 -0.12053490331E+02 -0.27298288543E+02  0.38937794851E+01  0.30093931369E+02  0.00000000000E+00 0. -1.
</event>
<event>
 5    1  0.1255769E-009  0.9118800E+02  0.7561462E-02  0.1125453E+00
         25   -1    0    0    0    0  0.00000000000E+00  0.00000000000E+00  0.99999998245E-14  0.12509000000E+03  0.12509000000E+03 0.  0.
        -13    1    3    3    0    0 -0.73838171353E+01  0.28167424492E+02  0.35138808653E+02  0.45636296909E+02  0.10566000000E+00 0.  1.
         23    2    1    0    0    0 -0.20547430032E+02 -0.15424994373E+02  0.13814078007E+02  0.95918848437E+02  0.91375431064E+02 0.  0.
         13    1    3    3    0    0 -0.13163612897E+02 -0.43592418865E+02 -0.21324730646E+02  0.50282551528E+02  0.10566000000E+00 0. -1.
         22    1    1    0    0    0  0.20547430032E+02  0.15424994373E+02 -0.13814078007E+02  0.29171151563E+02  0.00000000000E+00 0. -1.
</event>
<event>
 5    1  0.1255769E-009  0.9118800E+02  0.7561462E-02  0.1125453E+00
         25   -1    0    0    0    0  0.00000000000E+00  0.00000000000E+00  0.99999998245E-14  0.12509000000E+03  0.12509000000E+03 0.  0.
        -13    1    3    3    0    0  0.37585203764E+02 -0.44713539123E+02 -0.21842605453E+02  0.62362317948E+02  0.10566000000E+00 0.  1.
         23    2    1    0    0    0  0.18235201840E+02 -0.26658123092E+02 -0.13125031154E+02  0.90226773590E+02  0.83219145133E+02 0.  0.
         13    1    3    3    0    0 -0.19350001924E+02  0.18055416031E+02  0.87175742989E+01  0.27864455641E+02  0.10566000000E+00 0. -1.
         22    1    1    0    0    0 -0.18235201840E+02  0.26658123092E+02  0.13125031154E+02  0.34863226410E+02  0.00000000000E+00 0.  1.
</event>
<event>
 5    1  0.1255769E-009  0.9118800E+02  0.7561462E-02  0.1125453E+00
         25   -1    0    0    0    0  0.00000000000E+00  0.00000000000E+00  0.99999998245E-14  0.12509000000E+03  0.12509000000E+03 0.  0.
        -13    1    3    3    0    0  0.68142159999E+01 -0.83180596977E+01 -0.58661526017E+02  0.59638992744E+02  0.10566000000E+00 0. -1.
         23    2    1    0    0    0 -0.10293672320E+02 -0.33931952202E+01 -0.27558844815E+02  0.95476432313E+02  0.90767757139E+02 0.  0.
         13    1    3    3    0    0 -0.17107888320E+02  0.49248644776E+01  0.31102681202E+02  0.35837439569E+02  0.10566000000E+00 0.  1.
         22    1    1    0    0    0  0.10293672320E+02  0.33931952202E+01  0.27558844815E+02  0.29613567687E+02  0.00000000000E+00 0. -1.
</event>
<event>
 5    1  0.1255769E-009  0.9118800E+02  0.7561462E-02  0.1125453E+00
         25   -1    0    0    0    0  0.00000000000E+00  0.00000000000E+00  0.99999998245E-14  0.12509000000E+03  0.12509000000E+03 0.  0.
        -13    1    3    3    0    0 -0.16581691413E+02  0.36379846759E+02  0.46654236928E+02  0.61441636760E+02  0.10566000000E+00 0.  1.
         23    2    1    0    0    0 -0.47784377475E+01  0.11704524859E+02  0.27466171211E+02  0.94853929977E+02  0.89905773461E+02 0.  0.
         13    1    3    3    0    0  0.11803253665E+02 -0.24675321900E+02 -0.19188065718E+02  0.33412293216E+02  0.10566000000E+00 0. -1.
         22    1    1    0    0    0  0.47784377475E+01 -0.11704524859E+02 -0.27466171211E+02  0.30236070023E+02  0.00000000000E+00 0.  1.
</event>
<event>
 5    1  0.1255769E-009  0.9118800E+02  0.7561462E-02  0.1125453E+00
         25   -1    0    0    0    0  0.00000000000E+00  0.00000000000E+00  0.99999998245E-14  0.12509000000E+03  0.12509000000E+03 0.  0.
        -13    1    3    3    0    0  0.86037215975E+01 -0.29185939419E+02  0.44686186768E+02  0.54062089647E+02  0.10566000000E+00 0. -1.
         23    2    1    0    0    0 -0.12352736361E+02  0.15387964646E+01  0.27236698626E+02  0.95143451915E+02  0.90307700115E+02 0.  0.
         13    1    3    3    0    0 -0.20956457959E+02  0.30724735884E+02 -0.17449488143E+02  0.41081362268E+02  0.10566000000E+00 0.  1.
         22    1    1    0    0    0  0.12352736361E+02 -0.15387964646E+01 -0.27236698626E+02  0.29946548085E+02  0.00000000000E+00 0. -1.
</event>
<event>
 5    1  0.1255769E-009  0.9118800E+02  0.7561462E-02  0.1125453E+00
         25   -1    0    0    0    0  0.00000000000E+00  0.00000000000E+00  0.99999998245E-14  0.12509000000E+03  0.12509000000E+03 0.  0.
        -13    1    3    3    0    0 -0.16915978764E+01 -0.36605534924E+02 -0.20397611439E+02  0.41939246618E+02  0.10566000000E+00 0.  1.
         23    2    1    0    0    0  0.30585946104E+02 -0.36811658629E+01  0.38672607905E+01  0.94041541307E+02  0.88768264059E+02 0.  0.
         13    1    3    3    0    0  0.32277543981E+02  0.32924369061E+02  0.24264872229E+02  0.52102294689E+02  0.10566000000E+00 0. -1.
         22    1    1    0    0    0 -0.30585946104E+02  0.36811658629E+01 -0.38672607905E+01  0.31048458693E+02  0.00000000000E+00 0. -1.
</event>
<event>
 4    1  0.1255769E-009  0.9118800E+02  0.7561462E-02  0.1125453E+00
         25   -1    0    0    0    0  0.00000000000E+00  0.00000000000E+00  0.99999998245E-14  0.12509000000E+03  0.12509000000E+03 0.  0.
        -13    1    1    0    0    0 -0.12257461511E+02  0.15215328669E+00 -0.29010053761E+02  0.31493854901E+02  0.10566000000E+00 0. -1.
         13    1    1    0    0    0  0.35154413276E+02 -0.13784034106E+02 -0.16222608729E+02  0.41097646733E+02  0.10566000000E+00 0.  1.
         22    1    1    0    0    0 -0.22896951765E+02  0.13631880819E+02  0.45232662489E+02  0.52498498366E+02  0.00000000000E+00 0.  1.
</event>
<event>
 5    1  0.1255769E-009  0.9118800E+02  0.7561462E-02  0.1125453E+00
         25   -1    0    0    0    0  0.00000000000E+00  0.00000000000E+00  0.99999998245E-14  0.12509000000E+03  0.12509000000E+03 0.  0.
        -13    1    3    3    0    0 -0.30631661614E+00 -0.51139678396E+01 -0.51886126761E+02  0.52138544391E+02  0.10566000000E+00 0. -1.
         23    2    1    0    0    0  0.20446181376E+02 -0.15575916077E+02 -0.16258440614E+02  0.94676312527E+02  0.89658305628E+02 0.  0.
         13    1    3    3    0    0  0.20752497992E+02 -0.10461948238E+02  0.35627686147E+02  0.42537768137E+02  0.10566000000E+00 0.  1.
         22    1    1    0    0    0 -0.20446181376E+02  0.15575916077E+02  0.16258440614E+02  0.30413687473E+02  0.00000000000E+00 0. -1.
</event>
<event>
 5    1  0.1255769E-009  0.9118800E+02  0.7561462E-02  0.1125453E+00
         25   -1    0    0    0    0  0.00000000000E+00  0.00000000000E+00  0.99999998245E-14  0.12509000000E+03  0.12509000000E+03 0.  0.
        -13    1    3    3    0    0 -0.50082120749E+02  0.28243681368E+02 -0.20028617526E+02  0.60885803271E+02  0.10566000000E+00 0.  1.
         23    2    1    0    0    0 -0.27062087393E+02  0.99469515896E+01 -0.37410717126E+00  0.96255326842E+02  0.91834903872E+02 0.  0.
         13    1    3    3    0    0  0.23020033356E+02 -0.18296729778E+02  0.19654510354E+02  0.35369523571E+02  0.10566000000E+00 0. -1.
         22    1    1    0    0    0  0.27062087393E+02 -0.99469515896E+01  0.37410717126E+00  0.28834673158E+02  0.00000000000E+00 0.  1.
</event>
<event>
 5    1  0.1255769E-009  0.9118800E+02  0.7561462E-02  0.1125453E+00
         25   -1    0    0    0    0  0.00000000000E+00  0.00000000000E+00  0.99999998245E-14  0.12509000000E+03  0.12509000000E+03 0.  0.
        -13    1    3    3    0    0 -0.41322566901E+02  0.96770981295E+01 -0.16608736227E+02  0.45574796177E+02  0.10566000000E+00 0. -1.
         23    2    1    0    0    0 -0.65326701019E+01  0.27914780698E+02  0.11836999979E+02  0.94073466851E+02  0.88813241337E+02 0.  0.
         13    1    3    3    0    0  0.34789896799E+02  0.18237682569E+02  0.28445736206E+02  0.48498670674E+02  0.10566000000E+00 0.  1.
         22    1    1    0    0    0  0.65326701019E+01 -0.27914780698E+02 -0.11836999979E+02  0.31016533149E+02  0.00000000000E+00 0. -1.
</event>
<event>
 5    1  0.1255769E-009  0.9118800E+02  0.7561462E-02  0.1125453E+00
         25   -1    0    0    0    0  0.00000000000E+00  0.00000000000E+00  0.99999998245E-14  0.12509000000E+03  0.12509000000E+03 0.  0.
        -13    1    3    3    0    0 -0.27367315087E+02 -0.41018368246E+02 -0.46189598501E+01  0.49525977252E+02  0.10566000000E+00 0.  1.
         23    2    1    0    0    0  0.98492975950E+01 -0.21300618516E+02  0.16265178870E+02  0.96536873096E+02  0.92217605755E+02 0.  0.
         13    1    3    3    0    0  0.37216612682E+02  0.19717749730E+02  0.20884138721E+02  0.47010895844E+02  0.10566000000E+00 0. -1.
         22    1    1    0    0    0 -0.98492975950E+01  0.21300618516E+02 -0.16265178870E+02  0.28553126904E+02  0.00000000000E+00 0.  1.
</event>
<event>
 5    1  0.1255769E-009  0.9118800E+02  0.7561462E-02  0.1125453E+00
         25   -1    0    0    0    0  0.00000000000E+00  0.00000000000E+00  0.99999998245E-14  0.12509000000E+03  0.12509000000E+03 0.  0.
        -13    1    3    3    0    0  0.32586783709E+02  0.99738065033E+01 -0.37347393898E+02  0.50559017827E+02  0.10566000000E+00 0. -1.
         23    2    1    0    0    0  0.14215509054E+02  0.22316254390E+02  0.48325124509E+01  0.98192991165E+02  0.94437357172E+02 0.  0.
         13    1    3    3    0    0 -0.18371274655E+02  0.12342447887E+02  0.42179906349E+02  0.47633973338E+02  0.10566000000E+00 0.  1.
         22    1    1    0    0    0 -0.14215509054E+02 -0.22316254390E+02 -0.48325124509E+01  0.26897008835E+02  0.00000000000E+00 0. -1.
</event>
<event>
 5    1  0.1255769E-009  0.9118800E+02  0.7561462E-02  0.1125453E+00
         25   -1    0    0    0    0  0.00000000000E+00  0.00000000000E+00  0.99999998245E-14  0.12509000000E+03  0.12509000000E+03 0.  0.
        -13    1    3    3    0    0  0.37792127431E+02  0.19277972240E+02 -0.25616734714E+02  0.49559190579E+02  0.10566000000E+00 0. -1.
         23    2    1    0    0    0  0.28310362535E+02 -0.11726856418E+02  0.48683878185E+01  0.94062641294E+02  0.88797992651E+02 0.  0.
         13    1    3    3    0    0 -0.94817648955E+01 -0.31004828658E+02  0.30485122533E+02  0.44503450714E+02  0.10566000000E+00 0.  1.
         22    1    1    0    0    0 -0.28310362535E+02  0.11726856418E+02 -0.48683878185E+01  0.31027358706E+02  0.00000000000E+00 0.  1.
</event>
<event>
 5    1  0.1255769E-009  0.9118800E+02  0.7561462E-02  0.1125453E+00
         25   -1    0    0    0    0  0.00000000000E+00  0.00000000000E+00  0.99999998245E-14  0.12509000000E+03  0.12509000000E+03 0.  0.
        -13    1    3    3    0    0 -0.10898798227E+02 -0.19771396881E+01  0.52814764983E+02  0.53963908757E+02  0.10566000000E+00 0.  1.
         23    2    1    0    0    0 -0.21040573792E+02  0.16127448346E+02  0.25140631162E+02  0.88554378055E+02  0.80666140368E+02 0.  0.
         13    1    3    3    0    0 -0.10141775565E+02  0.18104588034E+02 -0.27674133821E+02  0.34590469298E+02  0.10566000000E+00 0. -1.
         22    1    1    0    0    0  0.21040573792E+02 -0.16127448346E+02 -0.25140631162E+02  0.36535621945E+02  0.00000000000E+00 0.  1.
</event>
<event>
 5    1  0.1255769E-009  0.9118800E+02  0.7561462E-02  0.1125453E+00
         25   -1    0    0    0    0  0.00000000000E+00  0.00000000000E+00  0.99999998245E-14  0.12509000000E+03  0.12509000000E+03 0.  0.
        -13    1    3    3    0    0  0.13090055282E+02  0.24286043081E+02  0.34314543042E+02  0.44030222167E+02  0.10566000000E+00 0. -1.
         23    2    1    0    0    0  0.32261122319E+02  0.11157876454E+02 -0.58738410634E+01  0.90452156114E+02  0.83557239762E+02 0.  0.
         13    1    3    3    0    0  0.19171067037E+02 -0.13128166628E+02 -0.40188384106E+02  0.46421933947E+02  0.10566000000E+00 0.  1.
         22    1    1    0    0    0 -0.32261122319E+02 -0.11157876454E+02  0.58738410634E+01  0.34637843886E+02  0.00000000000E+00 0.  1.
</event>
<event>
 5    1  0.1255769E-009  0.9118800E+02  0.7561462E-02  0.1125453E+00
         25   -1    0    0    0    0  0.00000000000E+00  0.00000000000E+00  0.99999998245E-14  0.12509000000E+03  0.12509000000E+03 0.  0.
        -13    1    3    3    0    0 -0.13294610146E+02  0.16379930906E+02  0.50106468896E+02  0.54366517128E+02  0.10566000000E+00 0. -1.
         23    2    1    0    0    0 -0.26605038674E+02  0.17008952175E+02  0.18925781609E+02  0.88275359619E+02  0.80232296299E+02 0.  0.
         13    1    3    3    0    0 -0.13310428527E+02  0.62902126852E+00 -0.31180687287E+02  0.33908842490E+02  0.10566000000E+00 0.  1.
         22    1    1    0    0    0  0.26605038674E+02 -0.17008952175E+02 -0.18925781609E+02  0.36814640381E+02  0.00000000000E+00 0. -1.
</event>
<event>
 5    1  0.1255769E-009  0.9118800E+02  0.7561462E-02  0.1125453E+00
         25   -1    0    0    0    0  0.00000000000E+00  0.00000000000E+00  0.99999998245E-14  0.12509000000E+03  0.12509000000E+03 0.  0.
        -13    1    3    3    0    0  0.25129746588E+02  0.21045286365E+02 -0.38413555845E+02  0.50497729438E+02  0.10566000000E+00 0.  1.
         23    2    1    0    0    0 -0.15425751027E+02  0.14445384587E+02 -0.21532065424E+02  0.94919604377E+02  0.89997102860E+02 0.  0.
         13    1    3    3    0    0 -0.40555497614E+02 -0.65999017772E+01  0.16881490421E+02  0.44421874939E+02  0.10566000000E+00 0. -1.
         22    1    1    0    0    0  0.15425751027E+02 -0.14445384587E+02  0.21532065424E+02  0.30170395623E+02  0.00000000000E+00 0.  1.
</event>
<event>
 5    1  0.1255769E-009  0.9118800E+02  0.7561462E-02  0.1125453E+00
         25   -1    0    0    0    0  0.00000000000E+00  0.00000000000E+00  0.99999998245E-14  0.12509000000E+03  0.12509000000E+03 0.  0.
        -13    1    3    3    0    0 -0.37757481429E+02  0.18241336085E+02  0.61483502088E+01  0.42381447832E+02  0.10566000000E+00 0. -1.
         23    2    1    0    0    0  0.11430712312E+02  0.29340629034E+02  0.70806505255E+01  0.92815097863E+02  0.87022830817E+02 0.  0.
         13    1    3    3    0    0  0.49188193741E+02  0.11099292949E+02  0.93230031671E+00  0.50433650031E+02  0.10566000000E+00 0.  1.
         22    1    1    0    0    0 -0.11430712312E+02 -0.29340629034E+02 -0.70806505255E+01  0.32274902137E+02  0.00000000000E+00 0.  1.
</event>
<event>
 5    1  0.1255769E-009  0.9118800E+02  0.7561462E-02  0.1125453E+00
         25   -1    0    0    0    0  0.00000000000E+00  0.00000000000E+00  0.99999998245E-14  0.12509000000E+03  0.12509000000E+03 0.  0.
        -13    1    3    3    0    0  0.12546076171E+02  0.19658238489E+02  0.34855521304E+02  0.41937678729E+02  0.10566000000E+00 0. -1.
         23    2    1    0    0    0  0.27163607571E+02 -0.67864650241E+01 -0.94271388562E+01  0.95547003693E+02  0.90864961805E+02 0.  0.
         13    1    3    3    0    0  0.14617531400E+02 -0.26444703513E+02 -0.44282660160E+02  0.53609324963E+02  0.10566000000E+00 0.  1.
         22    1    1    0    0    0 -0.27163607571E+02  0.67864650241E+01  0.94271388562E+01  0.29542996307E+02  0.00000000000E+00 0.  1.
</event>
<event>
 5    1  0.1255769E-009  0.9118800E+02  0.7561462E-02  0.1125453E+00
         25   -1    0    0    0    0  0.00000000000E+00  0.00000000000E+00  0.99999998245E-14  0.12509000000E+03  0.12509000000E+03 0.  0.
        -13    1    3    3    0    0  0.20679191563E+02 -0.60050258764E+01  0.42605610424E+02  0.47738228948E+02  0.10566000000E+00 0. -1.
         23    2    1    0    0    0 -0.21217142096E+02 -0.37249546034E+01  0.21299271886E+02  0.94796413411E+02  0.89825712395E+02 0.  0.
         13    1    3    3    0    0 -0.41896333659E+02  0.22800712729E+01 -0.21306338537E+02  0.47058184463E+02  0.10566000000E+00 0.  1.
         22    1    1    0    0    0  0.21217142096E+02  0.37249546034E+01 -0.21299271886E+02  0.30293586589E+02  0.00000000000E+00 0. -1.
</event>
<event>
 5    1  0.1255769E-009  0.9118800E+02  0.7561462E-02  0.1125453E+00
         25   -1    0    0    0    0  0.00000000000E+00  0.00000000000E+00  0.99999998245E-14  0.12509000000E+03  0.12509000000E+03 0.  0.
        -13    1    3    3    0    0  0.21216851859E+02  0.21641518336E+02 -0.30010866933E+02  0.42651769211E+02  0.10566000000E+00 0. -1.
         23    2    1    0    0    0 -0.25049942868E+02  0.17014961282E+02 -0.11563583025E+02  0.92675111484E+02  0.86821375772E+02 0.  0.
         13    1    3    3    0    0 -0.46266794727E+02 -0.46265570540E+01  0.18447283908E+02  0.50023342273E+02  0.10566000000E+00 0.  1.
         22    1    1    0    0    0  0.25049942868E+02 -0.17014961282E+02  0.11563583025E+02  0.32414888516E+02  0.00000000000E+00 0. -1.
</event>
<event>
 5    1  0.1255769E-009  0.9118800E+02  0.7561462E-02  0.1125453E+00
         25   -1    0    0    0    0  0.00000000000E+00  0.00000000000E+00  0.99999998245E-14  0.12509000000E+03  0.12509000000E+03 0.  0.
        -13    1    3    3    0    0  0.15261698389E+02 -0.30781042437E+02  0.15343764621E+00  0.34357338640E+02  0.10566000000E+00 0. -1.
         23    2    1    0    0    0 -0.23269999403E+02  0.17384677433E+02  0.44237132303E+00  0.96039774974E+02  0.91540825881E+02 0.  0.
         13    1    3    3    0    0 -0.38531697792E+02  0.48165719870E+02  0.28893367682E+00  0.61682436334E+02  0.10566000000E+00 0.  1.
         22    1    1    0    0    0  0.23269999403E+02 -0.17384677433E+02 -0.44237132303E+00  0.29050225026E+02  0.00000000000E+00 0.  1.
</event>
<event>
 5    1  0.1255769E-009  0.9118800E+02  0.7561462E-02  0.1125453E+00
         25   -1    0    0    0    0  0.00000000000E+00  0.00000000000E+00  0.99999998245E-14  0.12509000000E+03  0.12509000000E+03 0.  0.
        -13    1    3    3    0    0 -0.10742786397E+02 -0.50192419830E+02 -0.16793754954E+02  0.54006738815E+02  0.10566000000E+00 0.  1.
         23    2    1    0    0    0  0.10405370145E+02 -0.27046701818E+02  0.91490625009E+01  0.94700838253E+02  0.89692517046E+02 0.  0.
         13    1    3    3    0    0  0.21148156542E+02  0.23145718013E+02  0.25942817455E+02  0.40694099437E+02  0.10566000000E+00 0. -1.
         22    1    1    0    0    0 -0.10405370145E+02  0.27046701818E+02 -0.91490625009E+01  0.30389161747E+02  0.00000000000E+00 0.  1.
</event>
<event>
 5    1  0.1255769E-009  0.9118800E+02  0.7561462E-02  0.1125453E+00
         25   -1    0    0    0    0  0.00000000000E+00  0.00000000000E+00  0.99999998245E-14  0.12509000000E+03  0.12509000000E+03 0.  0.
        -13    1    3    3    0    0 -0.20368510436E+02 -0.29379471950E+02 -0.36400616876E+02  0.51020051572E+02  0.10566000000E+00 0. -1.
         23    2    1    0    0    0  0.41517134744E+01 -0.44165068515E+01 -0.38539413473E+02  0.86076814429E+02  0.76728021829E+02 0.  0.
         13    1    3    3    0    0  0.24520223910E+02  0.24962965098E+02 -0.21387965970E+01  0.35056762857E+02  0.10566000000E+00 0.  1.
         22    1    1    0    0    0 -0.41517134744E+01  0.44165068515E+01  0.38539413473E+02  0.39013185571E+02  0.00000000000E+00 0. -1.
</event>
<event>
 5    1  0.1255769E-009  0.9118800E+02  0.7561462E-02  0.1125453E+00
         25   -1    0    0    0    0  0.00000000000E+00  0.00000000000E+00  0.99999998245E-14  0.12509000000E+03  0.12509000000E+03 0.  0.
        -13    1    3    3    0    0 -0.70262737494E+01 -0.13765273351E+02 -0.31553700109E+02  0.35135429809E+02  0.10566000000E+00 0.  1.
         23    2    1    0    0    0 -0.92688542200E+01  0.18639527688E+02  0.20099574164E+02  0.96153232168E+02  0.91695733400E+02 0.  0.
         13    1    3    3    0    0 -0.22425804706E+01  0.32404801039E+02  0.51653274273E+02  0.61017802359E+02  0.10566000000E+00 0. -1.
         22    1    1    0    0    0  0.92688542200E+01 -0.18639527688E+02 -0.20099574164E+02  0.28936767832E+02  0.00000000000E+00 0. -1.
</event>
<event>
 5    1  0.1255769E-009  0.9118800E+02  0.7561462E-02  0.1125453E+00
         25   -1    0    0    0    0  0.00000000000E+00  0.00000000000E+00  0.99999998245E-14  0.12509000000E+03  0.12509000000E+03 0.  0.
        -13    1    3    3    0    0  0.30590332227E+00  0.55077844140E+02 -0.18825107404E+01  0.55110956285E+02  0.10566000000E+00 0. -1.
         23    2    1    0    0    0  0.16147930021E+02  0.19763853398E+02 -0.14395556476E+02  0.95788164028E+02  0.91196352868E+02 0.  0.
         13    1    3    3    0    0  0.15842026699E+02 -0.35313990742E+02 -0.12513045735E+02  0.40677207742E+02  0.10566000000E+00 0.  1.
         22    1    1    0    0    0 -0.16147930021E+02 -0.19763853398E+02  0.14395556476E+02  0.29301835972E+02  0.00000000000E+00 0. -1.
</event>
<event>
 5    1  0.1255769E-009  0.9118800E+02  0.7561462E-02  0.1125453E+00
         25   -1    0    0    0    0  0.00000000000E+00  0.00000000000E+00  0.99999998245E-14  0.12509000000E+03  0.12509000000E+03 0.  0.
        -13    1    3    3    0    0  0.12433913397E+02  0.16183680129E+01  0.29195458817E+02  0.31774318198E+02  0.10566000000E+00 0. -1.
         23    2    1    0    0    0  0.27494271271E+02 -0.29414076461E+02 -0.96114211733E+01  0.83695528584E+02  0.72742279599E+02 0.  0.
         13    1    3    3    0    0  0.15060357874E+02 -0.31032444474E+02 -0.38806879990E+02  0.51921210386E+02  0.10566000000E+00 0.  1.
         22    1    1    0    0    0 -0.27494271271E+02  0.29414076461E+02  0.96114211733E+01  0.41394471416E+02  0.00000000000E+00 0.  1.
</event>
<event>
 5    1  0.1255769E-009  0.9118800E+02  0.7561462E-02  0.1125453E+00
         25   -1    0    0    0    0  0.00000000000E+00  0.00000000000E+00  0.99999998245E-14  0.12509000000E+03  0.12509000000E+03 0.  0.
        -13    1    3    3    0    0 -0.42381481999E+02 -0.41628573411E+02  0.46351838722E+01  0.59587114666E+02  0.10566000000E+00 0.  1.
         23    2    1    0    0    0 -0.25043421848E+02 -0.10513579317E+02  0.11027676413E+02  0.95775874139E+02  0.91179493814E+02 0.  0.
         13    1    3    3    0    0  0.17338060150E+02  0.31114994095E+02  0.63924925406E+01  0.36188759473E+02  0.10566000000E+00 0. -1.
         22    1    1    0    0    0  0.25043421848E+02  0.10513579317E+02 -0.11027676413E+02  0.29314125861E+02  0.00000000000E+00 0.  1.
</event>
<event>
 5    1  0.1255769E-009  0.9118800E+02  0.7561462E-02  0.1125453E+00
         25   -1    0    0    0    0  0.00000000000E+00  0.00000000000E+00  0.99999998245E-14  0.12509000000E+03  0.12509000000E+03 0.  0.
        -13    1    3    3    0    0  0.16144043811E+02  0.28484526062E+02  0.12774665147E+02  0.35145435112E+02  0.10566000000E+00 0. -1.
         23    2    1    0    0    0 -0.18638256158E+02 -0.12909193425E+02 -0.16891937528E+02  0.96816878118E+02  0.92596643933E+02 0.  0.
         13    1    3    3    0    0 -0.34782299969E+02 -0.41393719487E+02 -0.29666602675E+02  0.61671443006E+02  0.10566000000E+00 0.  1.
         22    1    1    0    0    0  0.18638256158E+02  0.12909193425E+02  0.16891937528E+02  0.28273121882E+02  0.00000000000E+00 0.  1.
</event>
<event>
 5    1  0.1255769E-009  0.9118800E+02  0.7561462E-02  0.1125453E+00
         25   -1    0    0    0    0  0.00000000000E+00  0.00000000000E+00  0.99999998245E-14  0.12509000000E+03  0.12509000000E+03 0.  0.
        -13    1    3    3    0    0 -0.31669130579E+02  0.47265929894E+02 -0.24972639959E+02  0.62134095881E+02  0.10566000000E+00 0.  1.
         23    2    1    0    0    0 -0.13639175519E+02  0.24769371626E+02 -0.75377003028E+01  0.95826271505E+02  0.91248608236E+02 0.  0.
         13    1    3    3    0    0  0.18029955060E+02 -0.22496558268E+02  0.17434939657E+02  0.33692175624E+02  0.10566000000E+00 0. -1.
         22    1    1    0    0    0  0.13639175519E+02 -0.24769371626E+02  0.75377003028E+01  0.29263728495E+02  0.00000000000E+00 0.  1.
</event>
<event>
 5    1  0.1255769E-009  0.9118800E+02  0.7561462E-02  0.1125453E+00
         25   -1    0    0    0    0  0.00000000000E+00  0.00000000000E+00  0.99999998245E-14  0.12509000000E+03  0.12509000000E+03 0.  0.
        -13    1    3    3    0    0 -0.35766429410E+02  0.10559031362E+02  0.18913507359E+01  0.37340580977E+02  0.10566000000E+00 0. -1.
         23    2    1    0    0    0  0.85553220349E+01 -0.26544968587E+02  0.94669675962E+01  0.95637455664E+02  0.90989398053E+02 0.  0.
         13    1    3    3    0    0  0.44321751445E+02 -0.37103999949E+02  0.75756168603E+01  0.58296874687E+02  0.10566000000E+00 0.  1.
         22    1    1    0    0    0 -0.85553220349E+01  0.26544968587E+02 -0.94669675962E+01  0.29452544336E+02  0.00000000000E+00 0.  1.
</event>
<event>
 5    1  0.1255769E-009  0.9118800E+02  0.7561462E-02  0.1125453E+00
         25   -1    0    0    0    0  0.00000000000E+00  0.00000000000E+00  0.99999998245E-14  0.12509000000E+03  0.12509000000E+03 0.  0.
        -13    1    3    3    0    0 -0.19503450917E+02  0.76596409616E+01  0.37888756922E+02  0.43296925554E+02  0.10566000000E+00 0. -1.
         23    2    1    0    0    0  0.18126280709E+01 -0.27769211780E+02  0.35651466055E+01  0.97034251681E+02  0.92889832520E+02 0.  0.
         13    1    3    3    0    0  0.21316078988E+02 -0.35428852742E+02 -0.34323610316E+02  0.53737326126E+02  0.10566000000E+00 0.  1.
         22    1    1    0    0    0 -0.18126280709E+01  0.27769211780E+02 -0.35651466055E+01  0.28055748319E+02  0.00000000000E+00 0.  1.
</event>
<event>
 5    1  0.1255769E-009  0.9118800E+02  0.7561462E-02  0.1125453E+00
         25   -1    0    0    0    0  0.00000000000E+00  0.00000000000E+00  0.99999998245E-14  0.12509000000E+03  0.12509000000E+03 0.  0.
        -13    1    3    3    0    0  0.16592516367E+02 -0.31039127351E+02 -0.17228223708E+02  0.39186246086E+02  0.10566000000E+00 0.  1.
         23    2    1    0    0    0  0.23199701409E+02  0.18039633318E+02  0.78159500907E+01  0.94680402970E+02  0.89664012374E+02 0.  0.
         13    1    3    3    0    0  0.66071850413E+01  0.49078760670E+02  0.25044173798E+02  0.55494156884E+02  0.10566000000E+00 0. -1.
         22    1    1    0    0    0 -0.23199701409E+02 -0.18039633318E+02 -0.78159500907E+01  0.30409597030E+02  0.00000000000E+00 0. -1.
</event>
<event>
 5    1  0.1255769E-009  0.9118800E+02  0.7561462E-02  0.1125453E+00
         25   -1    0    0    0    0  0.00000000000E+00  0.00000000000E+00  0.99999998245E-14  0.12509000000E+03  0.12509000000E+03 0.  0.
        -13    1    3    3    0    0  0.11049477253E+02 -0.17515619737E+02 -0.19809713141E+02  0.28658747026E+02  0.10566000000E+00 0. -1.
         23    2    1    0    0    0  0.17094505934E+02  0.24452737833E+02  0.21856027747E+02  0.88105618573E+02  0.79967215498E+02 0.  0.
         13    1    3    3    0    0  0.60450286815E+01  0.41968357571E+02  0.41665740887E+02  0.59446871547E+02  0.10566000000E+00 0.  1.
         22    1    1    0    0    0 -0.17094505934E+02 -0.24452737833E+02 -0.21856027747E+02  0.36984381427E+02  0.00000000000E+00 0.  1.
</event>
<event>
 5    1  0.1255769E-009  0.9118800E+02  0.7561462E-02  0.1125453E+00
         25   -1    0    0    0    0  0.00000000000E+00  0.00000000000E+00  0.99999998245E-14  0.12509000000E+03  0.12509000000E+03 0.  0.
        -13    1    3    3    0    0 -0.44177625328E+01  0.32400830471E+02 -0.41096335241E+02  0.52519047738E+02  0.10566000000E+00 0.  1.
         23    2    1    0    0    0  0.18794071261E+02  0.13070481422E+01 -0.23071960881E+02  0.95303411268E+02  0.90528997184E+02 0.  0.
         13    1    3    3    0    0  0.23211833793E+02 -0.31093782329E+02  0.18024374360E+02  0.42784363530E+02  0.10566000000E+00 0. -1.
         22    1    1    0    0    0 -0.18794071261E+02 -0.13070481422E+01  0.23071960881E+02  0.29786588732E+02  0.00000000000E+00 0.  1.
</event>
<event>
 5    1  0.1255769E-009  0.9118800E+02  0.7561462E-02  0.1125453E+00
         25   -1    0    0    0    0  0.00000000000E+00  0.00000000000E+00  0.99999998245E-14  0.12509000000E+03  0.12509000000E+03 0.  0.
        -13    1    3    3    0    0 -0.27831047297E+02 -0.13714651685E+02 -0.47811070149E+02  0.56996214412E+02  0.10566000000E+00 0. -1.
         23    2    1    0    0    0 -0.52665022222E+01  0.10158823124E+02 -0.26690786846E+02  0.96049754901E+02  0.91554462377E+02 0.  0.
         13    1    3    3    0    0  0.22564545075E+02  0.23873474809E+02  0.21120283303E+02  0.39053540489E+02  0.10566000000E+00 0.  1.
         22    1    1    0    0    0  0.52665022222E+01 -0.10158823124E+02  0.26690786846E+02  0.29040245099E+02  0.00000000000E+00 0. -1.
</event>
<event>
 5    1  0.1255769E-009  0.9118800E+02  0.7561462E-02  0.1125453E+00
         25   -1    0    0    0    0  0.00000000000E+00  0.00000000000E+00  0.99999998245E-14  0.12509000000E+03  0.12509000000E+03 0.  0.
        -13    1    3    3    0    0  0.27095047882E+02  0.54722413317E+02  0.43470050011E+01  0.61217577178E+02  0.10566000000E+00 0.  1.
         23    2    1    0    0    0  0.55324446528E+01  0.27939027852E+02  0.71757896695E+01  0.95718429076E+02  0.91100650306E+02 0.  0.
         13    1    3    3    0    0 -0.21562603229E+02 -0.26783385465E+02  0.28287846684E+01  0.34500851899E+02  0.10566000000E+00 0. -1.
         22    1    1    0    0    0 -0.55324446528E+01 -0.27939027852E+02 -0.71757896695E+01  0.29371570924E+02  0.00000000000E+00 0.  1.
</event>
<event>
 5    1  0.1255769E-009  0.9118800E+02  0.7561462E-02  0.1125453E+00
         25   -1    0    0    0    0  0.00000000000E+00  0.00000000000E+00  0.99999998245E-14  0.12509000000E+03  0.12509000000E+03 0.  0.
        -13    1    3    3    0    0 -0.90646365628E+01  0.34742094488E+02 -0.28061471759E+02  0.45570145125E+02  0.10566000000E+00 0. -1.
         23    2    1    0    0    0 -0.27840814950E+02  0.66855176330E+01  0.83902733947E+01  0.95253716539E+02  0.90460304575E+02 0.  0.
         13    1    3    3    0    0 -0.18776178387E+02 -0.28056576855E+02  0.36451745154E+02  0.49683571414E+02  0.10566000000E+00 0.  1.
         22    1    1    0    0    0  0.27840814950E+02 -0.66855176330E+01 -0.83902733947E+01  0.29836283461E+02  0.00000000000E+00 0.  1.
</event>
<event>
 5    1  0.1255769E-009  0.9118800E+02  0.7561462E-02  0.1125453E+00
         25   -1    0    0    0    0  0.00000000000E+00  0.00000000000E+00  0.99999998245E-14  0.12509000000E+03  0.12509000000E+03 0.  0.
        -13    1    3    3    0    0 -0.32752854075E+02  0.30463454287E+02  0.29641709675E+02  0.53660167850E+02  0.10566000000E+00 0.  1.
         23    2    1    0    0    0 -0.22095725918E+02 -0.84695498823E+01  0.16980094843E+02  0.95964787556E+02  0.91438298599E+02 0.  0.
         13    1    3    3    0    0  0.10657128158E+02 -0.38933004170E+02 -0.12661614832E+02  0.42304619706E+02  0.10566000000E+00 0. -1.
         22    1    1    0    0    0  0.22095725918E+02  0.84695498823E+01 -0.16980094843E+02  0.29125212444E+02  0.00000000000E+00 0.  1.
</event>
<event>
 5    1  0.1255769E-009  0.9118800E+02  0.7561462E-02  0.1125453E+00
         25   -1    0    0    0    0  0.00000000000E+00  0.00000000000E+00  0.99999998245E-14  0.12509000000E+03  0.12509000000E+03 0.  0.
        -13    1    3    3    0    0  0.18074148455E+02  0.80515004367E+01 -0.29539183817E+02  0.35553847137E+02  0.10566000000E+00 0. -1.
         23    2    1    0    0    0  0.30085158134E+00 -0.18892935022E+02  0.21827241316E+02  0.96220258593E+02  0.91787124341E+02 0.  0.
         13    1    3    3    0    0 -0.17773296873E+02 -0.26944435459E+02  0.51366425133E+02  0.60666411456E+02  0.10566000000E+00 0.  1.
         22    1    1    0    0    0 -0.30085158134E+00  0.18892935022E+02 -0.21827241316E+02  0.28869741407E+02  0.00000000000E+00 0.  1.
</event>
<event>
 5    1  0.1255769E-009  0.9118800E+02  0.7561462E-02  0.1125453E+00
         25   -1    0    0    0    0  0.00000000000E+00  0.00000000000E+00  0.99999998245E-14  0.12509000000E+03  0.12509000000E+03 0.  0.
        -13    1    3    3    0    0 -0.18388800541E+01  0.17568458575E+02  0.35637708313E+02  0.39775490372E+02  0.10566000000E+00 0.  1.
         23    2    1    0    0    0  0.23159109216E+02 -0.19126831571E+02  0.29540054735E+01  0.94908777793E+02  0.89982053367E+02 0.  0.
         13    1    3    3    0    0  0.24997989270E+02 -0.36695290146E+02 -0.32683702839E+02  0.55133287420E+02  0.10566000000E+00 0. -1.
         22    1    1    0    0    0 -0.23159109216E+02  0.19126831571E+02 -0.29540054735E+01  0.30181222207E+02  0.00000000000E+00 0. -1.
</event>
<event>
 5    1  0.1255769E-009  0.9118800E+02  0.7561462E-02  0.1125453E+00
         25   -1    0    0    0    0  0.00000000000E+00  0.00000000000E+00  0.99999998245E-14  0.12509000000E+03  0.12509000000E+03 0.  0.
        -13    1    3    3    0    0 -0.20510101056E+02 -0.70691478372E+01 -0.23694224270E+02  0.32125761069E+02  0.10566000000E+00 0.  1.
         23    2    1    0    0    0  0.17506160722E+02  0.82472394547E+01  0.23509747469E+02  0.94640191332E+02  0.89607895676E+02 0.  0.
         13    1    3    3    0    0  0.38016261777E+02  0.15316387292E+02  0.47203971739E+02  0.62514430264E+02  0.10566000000E+00 0. -1.
         22    1    1    0    0    0 -0.17506160722E+02 -0.82472394547E+01 -0.23509747469E+02  0.30449808668E+02  0.00000000000E+00 0. -1.
</event>
<event>
 5    1  0.1255769E-009  0.9118800E+02  0.7561462E-02  0.1125453E+00
         25   -1    0    0    0    0  0.00000000000E+00  0.00000000000E+00  0.99999998245E-14  0.12509000000E+03  0.12509000000E+03 0.  0.
        -13    1    3    3    0    0 -0.39162701515E+00 -0.49109348286E+02  0.25361009778E+02  0.55272718784E+02  0.10566000000E+00 0.  1.
         23    2    1    0    0    0 -0.10926473158E+01 -0.94095564756E+01  0.28455442634E+02  0.95099237311E+02  0.90246435333E+02 0.  0.
         13    1    3    3    0    0 -0.70102030066E+00  0.39699791810E+02  0.30944328558E+01  0.39826518527E+02  0.10566000000E+00 0. -1.
         22    1    1    0    0    0  0.10926473158E+01  0.94095564756E+01 -0.28455442634E+02  0.29990762689E+02  0.00000000000E+00 0. -1.
</event>
<event>
 5    1  0.1255769E-009  0.9118800E+02  0.7561462E-02  0.1125453E+00
         25   -1    0    0    0    0  0.00000000000E+00  0.00000000000E+00  0.99999998245E-14  0.12509000000E+03  0.12509000000E+03 0.  0.
        -13    1    3    3    0    0  0.99921946382E+00 -0.57496855548E+02  0.27694319245E+01  0.57572282868E+02  0.10566000000E+00 0.  1.
         23    2    1    0    0    0  0.17684252788E+02 -0.21957467159E+02  0.70323951204E+00  0.96887913082E+02  0.92692556308E+02 0.  0.
         13    1    3    3    0    0  0.16685033324E+02  0.35539388388E+02 -0.20661924124E+01  0.39315630214E+02  0.10566000000E+00 0. -1.
         22    1    1    0    0    0 -0.17684252788E+02  0.21957467159E+02 -0.70323951204E+00  0.28202086918E+02  0.00000000000E+00 0.  1.
</event>
<event>
 5    1  0.1255769E-009  0.9118800E+02  0.7561462E-02  0.1125453E+00
         25   -1    0    0    0    0  0.00000000000E+00  0.00000000000E+00  0.99999998245E-14  0.12509000000E+03  0.12509000000E+03 0.  0.
        -13    1    3    3    0    0  0.48762075325E+02  0.17082624888E+02 -0.33846400805E+02  0.61766868745E+02  0.10566000000E+00 0.  1.
         23    2    1    0    0    0  0.17502840550E+02  0.13026935485E+02 -0.16406947740E+02  0.97790944896E+02  0.93903303957E+02 0.  0.
         13    1    3    3    0    0 -0.31259234775E+02 -0.40556894034E+01  0.17439453065E+02  0.36024076151E+02  0.10566000000E+00 0. -1.
         22    1    1    0    0    0 -0.17502840550E+02 -0.13026935485E+02  0.16406947740E+02  0.27299055104E+02  0.00000000000E+00 0.  1.
</event>
<event>
 5    1  0.1255769E-009  0.9118800E+02  0.7561462E-02  0.1125453E+00
         25   -1    0    0    0    0  0.00000000000E+00  0.00000000000E+00  0.99999998245E-14  0.12509000000E+03  0.12509000000E+03 0.  0.
        -13    1    3    3    0    0 -0.32287368478E+01  0.50622622135E+02 -0.59824353543E+01  0.51077150569E+02  0.10566000000E+00 0. -1.
         23    2    1    0    0    0 -0.25303041072E+02  0.13096269979E+02 -0.10221722432E+02  0.94820547009E+02  0.89859314213E+02 0.  0.
         13    1    3    3    0    0 -0.22074304224E+02 -0.37526352156E+02 -0.42392870781E+01  0.43743396440E+02  0.10566000000E+00 0.  1.
         22    1    1    0    0    0  0.25303041072E+02 -0.13096269979E+02  0.10221722432E+02  0.30269452991E+02  0.00000000000E+00 0. -1.
</event>
<event>
 5    1  0.1255769E-009  0.9118800E+02  0.7561462E-02  0.1125453E+00
         25   -1    0    0    0    0  0.00000000000E+00  0.00000000000E+00  0.99999998245E-14  0.12509000000E+03  0.12509000000E+03 0.  0.
        -13    1    3    3    0    0 -0.21053499401E+02  0.26347378929E+02  0.61521053434E+01  0.34282557921E+02  0.10566000000E+00 0.  1.
         23    2    1    0    0    0  0.16594983301E+02 -0.63525548535E+01 -0.25986773840E+02  0.93608881238E+02  0.88156462089E+02 0.  0.
         13    1    3    3    0    0  0.37648482701E+02 -0.32699933782E+02 -0.32138879184E+02  0.59326323317E+02  0.10566000000E+00 0. -1.
         22    1    1    0    0    0 -0.16594983301E+02  0.63525548535E+01  0.25986773840E+02  0.31481118762E+02  0.00000000000E+00 0. -1.
</event>
<event>
 5    1  0.1255769E-009  0.9118800E+02  0.7561462E-02  0.1125453E+00
         25   -1    0    0    0    0  0.00000000000E+00  0.00000000000E+00  0.99999998245E-14  0.12509000000E+03  0.12509000000E+03 0.  0.
        -13    1    3    3    0    0  0.91021759355E+01  0.34347716832E+02  0.87861953677E+01  0.36603601618E+02  0.10566000000E+00 0.  1.
         23    2    1    0    0    0 -0.17852991803E+02 -0.34021320592E+01 -0.25137534608E+02  0.94070659823E+02  0.88809287659E+02 0.  0.
         13    1    3    3    0    0 -0.26955167739E+02 -0.37749848892E+02 -0.33923729976E+02  0.57467058204E+02  0.10566000000E+00 0. -1.
         22    1    1    0    0    0  0.17852991803E+02  0.34021320592E+01  0.25137534608E+02  0.31019340177E+02  0.00000000000E+00 0. -1.
</event>
<event>
 5    1  0.1255769E-009  0.9118800E+02  0.7561462E-02  0.1125453E+00
         25   -1    0    0    0    0  0.00000000000E+00  0.00000000000E+00  0.99999998245E-14  0.12509000000E+03  0.12509000000E+03 0.  0.
        -13    1    3    3    0    0 -0.23251760061E+02 -0.27663276988E+02  0.17047755820E+02  0.39956706348E+02  0.10566000000E+00 0.  1.
         23    2    1    0    0    0  0.34748891583E+01 -0.89785128896E+01 -0.27949817458E+02  0.95528524321E+02  0.90839518463E+02 0.  0.
         13    1    3    3    0    0  0.26726649220E+02  0.18684764098E+02 -0.44997573278E+02  0.55571817973E+02  0.10566000000E+00 0. -1.
         22    1    1    0    0    0 -0.34748891583E+01  0.89785128896E+01  0.27949817458E+02  0.29561475679E+02  0.00000000000E+00 0. -1.
</event>
<event>
 5    1  0.1255769E-009  0.9118800E+02  0.7561462E-02  0.1125453E+00
         25   -1    0    0    0    0  0.00000000000E+00  0.00000000000E+00  0.99999998245E-14  0.12509000000E+03  0.12509000000E+03 0.  0.
        -13    1    3    3    0    0  0.21976141509E+02 -0.31826581314E+02 -0.12572637495E+02  0.40668961769E+02  0.10566000000E+00 0.  1.
         23    2    1    0    0    0  0.16580425156E+02  0.18087264328E+02  0.13334295932E+02  0.97163971331E+02  0.93064355409E+02 0.  0.
         13    1    3    3    0    0 -0.53957163533E+01  0.49913845642E+02  0.25906933427E+02  0.56495009562E+02  0.10566000000E+00 0. -1.
         22    1    1    0    0    0 -0.16580425156E+02 -0.18087264328E+02 -0.13334295932E+02  0.27926028669E+02  0.00000000000E+00 0. -1.
</event>
<event>
 5    1  0.1255769E-009  0.9118800E+02  0.7561462E-02  0.1125453E+00
         25   -1    0    0    0    0  0.00000000000E+00  0.00000000000E+00  0.99999998245E-14  0.12509000000E+03  0.12509000000E+03 0.  0.
        -13    1    3    3    0    0  0.21419091397E+02  0.76045301855E+01  0.32941558328E+02  0.40022041236E+02  0.10566000000E+00 0. -1.
         23    2    1    0    0    0 -0.28053451542E+02  0.61538767620E+01  0.90747472491E+01  0.94969950527E+02  0.90067053481E+02 0.  0.
         13    1    3    3    0    0 -0.49472542939E+02 -0.14506534235E+01 -0.23866811079E+02  0.54947909290E+02  0.10566000000E+00 0.  1.
         22    1    1    0    0    0  0.28053451542E+02 -0.61538767620E+01 -0.90747472491E+01  0.30120049473E+02  0.00000000000E+00 0.  1.
</event>
<event>
 5    1  0.1255769E-009  0.9118800E+02  0.7561462E-02  0.1125453E+00
         25   -1    0    0    0    0  0.00000000000E+00  0.00000000000E+00  0.99999998245E-14  0.12509000000E+03  0.12509000000E+03 0.  0.
        -13    1    3    3    0    0 -0.16931811955E+02 -0.12160304165E+02  0.47977867924E+02  0.52311052637E+02  0.10566000000E+00 0. -1.
         23    2    1    0    0    0  0.84106917193E+01 -0.24913182671E+02  0.21370695382E+02  0.91206183404E+02  0.84678538390E+02 0.  0.
         13    1    3    3    0    0  0.25342503674E+02 -0.12752878507E+02 -0.26607172542E+02  0.38895130767E+02  0.10566000000E+00 0.  1.
         22    1    1    0    0    0 -0.84106917193E+01  0.24913182671E+02 -0.21370695382E+02  0.33883816596E+02  0.00000000000E+00 0. -1.
</event>
<event>
 5    1  0.1255769E-009  0.9118800E+02  0.7561462E-02  0.1125453E+00
         25   -1    0    0    0    0  0.00000000000E+00  0.00000000000E+00  0.99999998245E-14  0.12509000000E+03  0.12509000000E+03 0.  0.
        -13    1    3    3    0    0 -0.11317646253E+02  0.37219261317E+02  0.17284868880E+01  0.38940484854E+02  0.10566000000E+00 0. -1.
         23    2    1    0    0    0  0.43760892099E+01 -0.12874205534E+02  0.25209472420E+02  0.96447150551E+02  0.92095819801E+02 0.  0.
         13    1    3    3    0    0  0.15693735463E+02 -0.50093466851E+02  0.23480985532E+02  0.57506665696E+02  0.10566000000E+00 0.  1.
         22    1    1    0    0    0 -0.43760892099E+01  0.12874205534E+02 -0.25209472420E+02  0.28642849449E+02  0.00000000000E+00 0.  1.
</event>
<event>
 5    1  0.1255769E-009  0.9118800E+02  0.7561462E-02  0.1125453E+00
         25   -1    0    0    0    0  0.00000000000E+00  0.00000000000E+00  0.99999998245E-14  0.12509000000E+03  0.12509000000E+03 0.  0.
        -13    1    3    3    0    0 -0.50829608688E+02  0.15089134681E+02  0.31179632432E+02  0.61510257254E+02  0.10566000000E+00 0. -1.
         23    2    1    0    0    0 -0.26958197108E+02  0.39929229257E+01  0.77349868721E+01  0.96761254057E+02  0.92521470156E+02 0.  0.
         13    1    3    3    0    0  0.23871411579E+02 -0.11096211756E+02 -0.23444645560E+02  0.35250996803E+02  0.10566000000E+00 0.  1.
         22    1    1    0    0    0  0.26958197108E+02 -0.39929229257E+01 -0.77349868721E+01  0.28328745943E+02  0.00000000000E+00 0. -1.
</event>
<event>
 5    1  0.1255769E-009  0.9118800E+02  0.7561462E-02  0.1125453E+00
         25   -1    0    0    0    0  0.00000000000E+00  0.00000000000E+00  0.99999998245E-14  0.12509000000E+03  0.12509000000E+03 0.  0.
        -13    1    3    3    0    0 -0.45238333662E+02 -0.39451541641E+02  0.71272386731E+01  0.60446171636E+02  0.10566000000E+00 0. -1.
         23    2    1    0    0    0 -0.21982700007E+02 -0.13023400877E+02 -0.73389255564E+01  0.98506021774E+02  0.94851085537E+02 0.  0.
         13    1    3    3    0    0  0.23255633656E+02  0.26428140764E+02 -0.14466164229E+02  0.38059850138E+02  0.10566000000E+00 0.  1.
         22    1    1    0    0    0  0.21982700007E+02  0.13023400877E+02  0.73389255564E+01  0.26583978226E+02  0.00000000000E+00 0. -1.
</event>
<event>
 5    1  0.1255769E-009  0.9118800E+02  0.7561462E-02  0.1125453E+00
         25   -1    0    0    0    0  0.00000000000E+00  0.00000000000E+00  0.99999998245E-14  0.12509000000E+03  0.12509000000E+03 0.  0.
        -13    1    3    3    0    0 -0.35823752720E+01  0.43933496926E+02  0.23089163895E+02  0.49760488524E+02  0.10566000000E+00 0. -1.
         23    2    1    0    0    0  0.20660310100E+02  0.41816488266E+00  0.13269554112E+02  0.10053181722E+03  0.97486111478E+02 0.  0.
         13    1    3    3    0    0  0.24242685372E+02 -0.43515332043E+02 -0.98196097830E+01  0.50771328692E+02  0.10566000000E+00 0.  1.
         22    1    1    0    0    0 -0.20660310100E+02 -0.41816488266E+00 -0.13269554112E+02  0.24558182784E+02  0.00000000000E+00 0. -1.
</event>
<event>
 5    1  0.1255769E-009  0.9118800E+02  0.7561462E-02  0.1125453E+00
         25   -1    0    0    0    0  0.00000000000E+00  0.00000000000E+00  0.99999998245E-14  0.12509000000E+03  0.12509000000E+03 0.  0.
        -13    1    3    3    0    0 -0.39344421835E+02 -0.23589548151E+02  0.48781500194E+00  0.45877003379E+02  0.10566000000E+00 0.  1.
         23    2    1    0    0    0  0.26349678128E+01 -0.13753802050E+02 -0.25340405682E+02  0.96137516750E+02  0.91674292147E+02 0.  0.
         13    1    3    3    0    0  0.41979389648E+02  0.98357461014E+01 -0.25828220684E+02  0.50260513371E+02  0.10566000000E+00 0. -1.
         22    1    1    0    0    0 -0.26349678128E+01  0.13753802050E+02  0.25340405682E+02  0.28952483250E+02  0.00000000000E+00 0. -1.
</event>
<event>
 5    1  0.1255769E-009  0.9118800E+02  0.7561462E-02  0.1125453E+00
         25   -1    0    0    0    0  0.00000000000E+00  0.00000000000E+00  0.99999998245E-14  0.12509000000E+03  0.12509000000E+03 0.  0.
        -13    1    3    3    0    0  0.22394717233E+02  0.23775667306E+02 -0.14787358588E+02  0.35853630971E+02  0.10566000000E+00 0.  1.
         23    2    1    0    0    0 -0.25609549095E+02 -0.11463763445E+02 -0.86980379520E+01  0.95714453344E+02  0.91095191078E+02 0.  0.
         13    1    3    3    0    0 -0.48004266327E+02 -0.35239430751E+02  0.60893206358E+01  0.59860822372E+02  0.10566000000E+00 0. -1.
         22    1    1    0    0    0  0.25609549095E+02  0.11463763445E+02  0.86980379520E+01  0.29375546656E+02  0.00000000000E+00 0.  1.
</event>
<event>
 5    1  0.1255769E-009  0.9118800E+02  0.7561462E-02  0.1125453E+00
         25   -1    0    0    0    0  0.00000000000E+00  0.00000000000E+00  0.99999998245E-14  0.12509000000E+03  0.12509000000E+03 0.  0.
        -13    1    3    3    0    0  0.29067885068E+02  0.22894061203E+00 -0.17473899948E+02  0.33916702369E+02  0.10566000000E+00 0. -1.
         23    2    1    0    0    0 -0.14148538777E+02 -0.17544526943E+02  0.20877015085E+02  0.94367999186E+02  0.89227114356E+02 0.  0.
         13    1    3    3    0    0 -0.43216423845E+02 -0.17773467555E+02  0.38350915033E+02  0.60451296817E+02  0.10566000000E+00 0.  1.
         22    1    1    0    0    0  0.14148538777E+02  0.17544526943E+02 -0.20877015085E+02  0.30722000814E+02  0.00000000000E+00 0.  1.
</event>
<event>
 5    1  0.1255769E-009  0.9118800E+02  0.7561462E-02  0.1125453E+00
         25   -1    0    0    0    0  0.00000000000E+00  0.00000000000E+00  0.99999998245E-14  0.12509000000E+03  0.12509000000E+03 0.  0.
        -13    1    3    3    0    0 -0.10990155327E+02  0.39337886633E+02  0.26428545409E+02  0.48649070036E+02  0.10566000000E+00 0.  1.
         23    2    1    0    0    0 -0.96966549312E+01  0.25791437106E+02 -0.16014331595E+02  0.93220231233E+02  0.87603249653E+02 0.  0.
         13    1    3    3    0    0  0.12935003963E+01 -0.13546449527E+02 -0.42442877004E+02  0.44571161197E+02  0.10566000000E+00 0. -1.
         22    1    1    0    0    0  0.96966549312E+01 -0.25791437106E+02  0.16014331595E+02  0.31869768767E+02  0.00000000000E+00 0.  1.
</event>
<event>
 5    1  0.1255769E-009  0.9118800E+02  0.7561462E-02  0.1125453E+00
         25   -1    0    0    0    0  0.00000000000E+00  0.00000000000E+00  0.99999998245E-14  0.12509000000E+03  0.12509000000E+03 0.  0.
        -13    1    3    3    0    0  0.33326340256E+02 -0.40876423633E+02  0.22945915317E+02  0.57515677494E+02  0.10566000000E+00 0.  1.
         23    2    1    0    0    0  0.10329358124E+01 -0.23138025810E+02  0.20018967039E+02  0.94476371726E+02  0.89378915738E+02 0.  0.
         13    1    3    3    0    0 -0.32293404443E+02  0.17738397823E+02 -0.29269482785E+01  0.36960694232E+02  0.10566000000E+00 0. -1.
         22    1    1    0    0    0 -0.10329358124E+01  0.23138025810E+02 -0.20018967039E+02  0.30613628274E+02  0.00000000000E+00 0.  1.
</event>
<event>
 5    1  0.1255769E-009  0.9118800E+02  0.7561462E-02  0.1125453E+00
         25   -1    0    0    0    0  0.00000000000E+00  0.00000000000E+00  0.99999998245E-14  0.12509000000E+03  0.12509000000E+03 0.  0.
        -13    1    3    3    0    0 -0.37584495961E+02 -0.34569416819E+02 -0.19307888299E+02  0.54593448603E+02  0.10566000000E+00 0.  1.
         23    2    1    0    0    0  0.17895520845E+01 -0.15032900278E+02 -0.21720487417E+02  0.98614158917E+02  0.94993590194E+02 0.  0.
         13    1    3    3    0    0  0.39374048045E+02  0.19536516541E+02 -0.24125991172E+01  0.44020710314E+02  0.10566000000E+00 0. -1.
         22    1    1    0    0    0 -0.17895520845E+01  0.15032900278E+02  0.21720487417E+02  0.26475841083E+02  0.00000000000E+00 0. -1.
</event>
<event>
 5    1  0.1255769E-009  0.9118800E+02  0.7561462E-02  0.1125453E+00
         25   -1    0    0    0    0  0.00000000000E+00  0.00000000000E+00  0.99999998245E-14  0.12509000000E+03  0.12509000000E+03 0.  0.
        -13    1    3    3    0    0 -0.43387393780E+02 -0.11638498982E+02 -0.13016862499E+02  0.46769332590E+02  0.10566000000E+00 0.  1.
         23    2    1    0    0    0 -0.87884907206E+01 -0.19277485591E+02  0.20548268290E+02  0.95575760223E+02  0.90904541100E+02 0.  0.
         13    1    3    3    0    0  0.34598903060E+02 -0.76389866099E+01  0.33565130789E+02  0.48806427633E+02  0.10566000000E+00 0. -1.
         22    1    1    0    0    0  0.87884907206E+01  0.19277485591E+02 -0.20548268290E+02  0.29514239777E+02  0.00000000000E+00 0. -1.
</event>
<event>
 5    1  0.1255769E-009  0.9118800E+02  0.7561462E-02  0.1125453E+00
         25   -1    0    0    0    0  0.00000000000E+00  0.00000000000E+00  0.99999998245E-14  0.12509000000E+03  0.12509000000E+03 0.  0.
        -13    1    3    3    0    0  0.32978422119E+02  0.46376344797E+02  0.76369767752E+00  0.56911651534E+02  0.10566000000E+00 0. -1.
         23    2    1    0    0    0 -0.33031726658E+01  0.24274131400E+02  0.64058753862E+01  0.99768474684E+02  0.96501652299E+02 0.  0.
         13    1    3    3    0    0 -0.36281594785E+02 -0.22102213397E+02  0.56421777087E+01  0.42856823150E+02  0.10566000000E+00 0.  1.
         22    1    1    0    0    0  0.33031726658E+01 -0.24274131400E+02 -0.64058753862E+01  0.25321525316E+02  0.00000000000E+00 0.  1.
</event>
<event>
 5    1  0.1255769E-009  0.9118800E+02  0.7561462E-02  0.1125453E+00
         25   -1    0    0    0    0  0.00000000000E+00  0.00000000000E+00  0.99999998245E-14  0.12509000000E+03  0.12509000000E+03 0.  0.
        -13    1    3    3    0    0  0.44324027555E+02  0.10375431218E+02 -0.41280046647E+02  0.61451789290E+02  0.10566000000E+00 0.  1.
         23    2    1    0    0    0  0.25167195470E+02  0.55406871129E+01 -0.12277245308E+02  0.96544988284E+02  0.92228613071E+02 0.  0.
         13    1    3    3    0    0 -0.19156832085E+02 -0.48347441050E+01  0.29002801339E+02  0.35093198994E+02  0.10566000000E+00 0. -1.
         22    1    1    0    0    0 -0.25167195470E+02 -0.55406871129E+01  0.12277245308E+02  0.28545011716E+02  0.00000000000E+00 0.  1.
</event>
<event>
 5    1  0.1255769E-009  0.9118800E+02  0.7561462E-02  0.1125453E+00
         25   -1    0    0    0    0  0.00000000000E+00  0.00000000000E+00  0.99999998245E-14  0.12509000000E+03  0.12509000000E+03 0.  0.
        -13    1    3    3    0    0  0.53679230992E+02 -0.15084677933E+02  0.74539417510E+01  0.56254597677E+02  0.10566000000E+00 0. -1.
         23    2    1    0    0    0  0.13639111492E+02 -0.21545114454E+02  0.11700407381E+02  0.97034397137E+02  0.92890028397E+02 0.  0.
         13    1    3    3    0    0 -0.40040119499E+02 -0.64604365209E+01  0.42464656303E+01  0.40779799459E+02  0.10566000000E+00 0.  1.
         22    1    1    0    0    0 -0.13639111492E+02  0.21545114454E+02 -0.11700407381E+02  0.28055602863E+02  0.00000000000E+00 0. -1.
</event>
<event>
 5    1  0.1255769E-009  0.9118800E+02  0.7561462E-02  0.1125453E+00
         25   -1    0    0    0    0  0.00000000000E+00  0.00000000000E+00  0.99999998245E-14  0.12509000000E+03  0.12509000000E+03 0.  0.
        -13    1    3    3    0    0  0.28375172427E+02 -0.19781895126E+01 -0.19769831268E+02  0.34639876392E+02  0.10566000000E+00 0.  1.
         23    2    1    0    0    0 -0.26438658247E+02  0.12115464820E+02  0.34277851045E+01  0.95806269902E+02  0.91221184514E+02 0.  0.
         13    1    3    3    0    0 -0.54813830674E+02  0.14093654333E+02  0.23197616373E+02  0.61166393510E+02  0.10566000000E+00 0. -1.
         22    1    1    0    0    0  0.26438658247E+02 -0.12115464820E+02 -0.34277851045E+01  0.29283730098E+02  0.00000000000E+00 0. -1.
</event>
<event>
 5    1  0.1255769E-009  0.9118800E+02  0.7561462E-02  0.1125453E+00
         25   -1    0    0    0    0  0.00000000000E+00  0.00000000000E+00  0.99999998245E-14  0.12509000000E+03  0.12509000000E+03 0.  0.
        -13    1    3    3    0    0 -0.25874458065E+02  0.32953926490E+02  0.14579292625E+02  0.44362323978E+02  0.10566000000E+00 0.  1.
         23    2    1    0    0    0 -0.20633854417E+02 -0.15665978610E+02  0.18247996908E+02  0.93401386507E+02  0.87861543216E+02 0.  0.
         13    1    3    3    0    0  0.52406036481E+01 -0.48619905100E+02  0.36687042835E+01  0.49039062529E+02  0.10566000000E+00 0. -1.
         22    1    1    0    0    0  0.20633854417E+02  0.15665978610E+02 -0.18247996908E+02  0.31688613493E+02  0.00000000000E+00 0.  1.
</event>
<event>
 5    1  0.1255769E-009  0.9118800E+02  0.7561462E-02  0.1125453E+00
         25   -1    0    0    0    0  0.00000000000E+00  0.00000000000E+00  0.99999998245E-14  0.12509000000E+03  0.12509000000E+03 0.  0.
        -13    1    3    3    0    0  0.83857392753E+01 -0.22693863490E+00 -0.51990950151E+02  0.52663480572E+02  0.10566000000E+00 0.  1.
         23    2    1    0    0    0  0.28487417138E+02 -0.38649094602E+01 -0.38071940292E+02  0.77383154601E+02  0.60927904265E+02 0.  0.
         13    1    3    3    0    0  0.20101677863E+02 -0.36379708253E+01  0.13919009859E+02  0.24719674029E+02  0.10566000000E+00 0. -1.
         22    1    1    0    0    0 -0.28487417138E+02  0.38649094602E+01  0.38071940292E+02  0.47706845399E+02  0.00000000000E+00 0.  1.
</event>
<event>
 5    1  0.1255769E-009  0.9118800E+02  0.7561462E-02  0.1125453E+00
         25   -1    0    0    0    0  0.00000000000E+00  0.00000000000E+00  0.99999998245E-14  0.12509000000E+03  0.12509000000E+03 0.  0.
        -13    1    3    3    0    0 -0.87277398521E+01 -0.15337339135E+02 -0.30593169073E+02  0.35317992194E+02  0.10566000000E+00 0.  1.
         23    2    1    0    0    0  0.46250614409E+01 -0.66058829992E+01  0.27951924668E+02  0.95998094318E+02  0.91483851780E+02 0.  0.
         13    1    3    3    0    0  0.13352801293E+02  0.87314561355E+01  0.58545093741E+02  0.60680102124E+02  0.10566000000E+00 0. -1.
         22    1    1    0    0    0 -0.46250614409E+01  0.66058829992E+01 -0.27951924668E+02  0.29091905682E+02  0.00000000000E+00 0. -1.
</event>
<event>
 5    1  0.1255769E-009  0.9118800E+02  0.7561462E-02  0.1125453E+00
         25   -1    0    0    0    0  0.00000000000E+00  0.00000000000E+00  0.99999998245E-14  0.12509000000E+03  0.12509000000E+03 0.  0.
        -13    1    3    3    0    0 -0.51529440248E+02  0.16518234050E+02 -0.11584281905E+00  0.54112474088E+02  0.10566000000E+00 0.  1.
         23    2    1    0    0    0 -0.27324592228E+02  0.84832439612E+01 -0.23001752113E+02  0.88379247231E+02  0.80394104089E+02 0.  0.
         13    1    3    3    0    0  0.24204848019E+02 -0.80349900891E+01 -0.22885909294E+02  0.34266773143E+02  0.10566000000E+00 0. -1.
         22    1    1    0    0    0  0.27324592228E+02 -0.84832439612E+01  0.23001752113E+02  0.36710752769E+02  0.00000000000E+00 0.  1.
</event>
<event>
 5    1  0.1255769E-009  0.9118800E+02  0.7561462E-02  0.1125453E+00
         25   -1    0    0    0    0  0.00000000000E+00  0.00000000000E+00  0.99999998245E-14  0.12509000000E+03  0.12509000000E+03 0.  0.
        -13    1    3    3    0    0 -0.17994051743E+02  0.34599428668E+02 -0.10257952187E+02  0.40325464776E+02  0.10566000000E+00 0.  1.
         23    2    1    0    0    0  0.23846360102E+01 -0.12910704298E+02 -0.27331807227E+02  0.94768382947E+02  0.89786669087E+02 0.  0.
         13    1    3    3    0    0  0.20378687753E+02 -0.47510132967E+02 -0.17073855040E+02  0.54442918171E+02  0.10566000000E+00 0. -1.
         22    1    1    0    0    0 -0.23846360102E+01  0.12910704298E+02  0.27331807227E+02  0.30321617053E+02  0.00000000000E+00 0. -1.
</event>
<event>
 5    1  0.1255769E-009  0.9118800E+02  0.7561462E-02  0.1125453E+00
         25   -1    0    0    0    0  0.00000000000E+00  0.00000000000E+00  0.99999998245E-14  0.12509000000E+03  0.12509000000E+03 0.  0.
        -13    1    3    3    0    0 -0.53717174962E+02  0.31799346593E+02 -0.16481040035E+00  0.62424127196E+02  0.10566000000E+00 0.  1.
         23    2    1    0    0    0 -0.27048153334E+02  0.17628942254E+02  0.22839007989E+01  0.92723375112E+02  0.86890884940E+02 0.  0.
         13    1    3    3    0    0  0.26669021628E+02 -0.14170404339E+02  0.24487111993E+01  0.30299247917E+02  0.10566000000E+00 0. -1.
         22    1    1    0    0    0  0.27048153334E+02 -0.17628942254E+02 -0.22839007989E+01  0.32366624888E+02  0.00000000000E+00 0.  1.
</event>
<event>
 5    1  0.1255769E-009  0.9118800E+02  0.7561462E-02  0.1125453E+00
         25   -1    0    0    0    0  0.00000000000E+00  0.00000000000E+00  0.99999998245E-14  0.12509000000E+03  0.12509000000E+03 0.  0.
        -13    1    3    3    0    0 -0.90865762688E+01 -0.39489334325E+02  0.17668632085E+02  0.44205939844E+02  0.10566000000E+00 0. -1.
         23    2    1    0    0    0 -0.27566195156E+02  0.63755806010E+01 -0.23465637997E+00  0.96795155823E+02  0.92567294353E+02 0.  0.
         13    1    3    3    0    0 -0.18479618887E+02  0.45864914926E+02 -0.17903288465E+02  0.52589215979E+02  0.10566000000E+00 0.  1.
         22    1    1    0    0    0  0.27566195156E+02 -0.63755806010E+01  0.23465637997E+00  0.28294844177E+02  0.00000000000E+00 0.  1.
</event>
<event>
 5    1  0.1255769E-009  0.9118800E+02  0.7561462E-02  0.1125453E+00
         25   -1    0    0    0    0  0.00000000000E+00  0.00000000000E+00  0.99999998245E-14  0.12509000000E+03  0.12509000000E+03 0.  0.
        -13    1    3    3    0    0  0.32625970194E+02  0.75247154156E+01  0.62907456180E+01  0.34068459279E+02  0.10566000000E+00 0.  1.
         23    2    1    0    0    0 -0.19466889519E+02  0.44997802121E+01 -0.23571449824E+02  0.94189821095E+02  0.88976970850E+02 0.  0.
         13    1    3    3    0    0 -0.52092859713E+02 -0.30249352035E+01 -0.29862195442E+02  0.60121361817E+02  0.10566000000E+00 0. -1.
         22    1    1    0    0    0  0.19466889519E+02 -0.44997802121E+01  0.23571449824E+02  0.30900178905E+02  0.00000000000E+00 0. -1.
</event>
<event>
 5    1  0.1255769E-009  0.9118800E+02  0.7561462E-02  0.1125453E+00
         25   -1    0    0    0    0  0.00000000000E+00  0.00000000000E+00  0.99999998245E-14  0.12509000000E+03  0.12509000000E+03 0.  0.
        -13    1    3    3    0    0 -0.56832176926E+01  0.12364970909E+01  0.31459653424E+02  0.31992949942E+02  0.10566000000E+00 0.  1.
         23    2    1    0    0    0  0.33193181376E+02 -0.10478246798E+01 -0.11470621361E+02  0.89955111630E+02  0.82809792461E+02 0.  0.
         13    1    3    3    0    0  0.38876399068E+02 -0.22843217707E+01 -0.42930274784E+02  0.57962161688E+02  0.10566000000E+00 0. -1.
         22    1    1    0    0    0 -0.33193181376E+02  0.10478246798E+01  0.11470621361E+02  0.35134888370E+02  0.00000000000E+00 0. -1.
</event>
<event>
 5    1  0.1255769E-009  0.9118800E+02  0.7561462E-02  0.1125453E+00
         25   -1    0    0    0    0  0.00000000000E+00  0.00000000000E+00  0.99999998245E-14  0.12509000000E+03  0.12509000000E+03 0.  0.
        -13    1    3    3    0    0 -0.40114905115E+02  0.91580775312E+01  0.30525755442E+02  0.51233864833E+02  0.10566000000E+00 0.  1.
         23    2    1    0    0    0 -0.22630067036E+02 -0.19890382641E+02  0.31770593433E+01  0.94794109821E+02  0.89822504391E+02 0.  0.
         13    1    3    3    0    0  0.17484838079E+02 -0.29048460173E+02 -0.27348696099E+02  0.43560244988E+02  0.10566000000E+00 0. -1.
         22    1    1    0    0    0  0.22630067036E+02  0.19890382641E+02 -0.31770593433E+01  0.30295890179E+02  0.00000000000E+00 0.  1.
</event>
<event>
 5    1  0.1255769E-009  0.9118800E+02  0.7561462E-02  0.1125453E+00
         25   -1    0    0    0    0  0.00000000000E+00  0.00000000000E+00  0.99999998245E-14  0.12509000000E+03  0.12509000000E+03 0.  0.
        -13    1    3    3    0    0 -0.25629159730E+02 -0.21543605074E+02  0.31739955945E+02  0.46134766885E+02  0.10566000000E+00 0.  1.
         23    2    1    0    0    0 -0.16722493601E+02 -0.13804669247E+02 -0.17784443013E+02  0.97045444404E+02  0.92904903966E+02 0.  0.
         13    1    3    3    0    0  0.89066661284E+01  0.77389358266E+01 -0.49524398959E+02  0.50910677520E+02  0.10566000000E+00 0. -1.
         22    1    1    0    0    0  0.16722493601E+02  0.13804669247E+02  0.17784443013E+02  0.28044555596E+02  0.00000000000E+00 0. -1.
</event>
<event>
 5    1  0.1255769E-009  0.9118800E+02  0.7561462E-02  0.1125453E+00
         25   -1    0    0    0    0  0.00000000000E+00  0.00000000000E+00  0.99999998245E-14  0.12509000000E+03  0.12509000000E+03 0.  0.
        -13    1    3    3    0    0 -0.28140899090E+02 -0.52639164149E+01  0.25251696215E+02  0.38174315231E+02  0.10566000000E+00 0.  1.
         23    2    1    0    0    0  0.76653660246E+00  0.87934644692E+01 -0.25419684449E+02  0.98181396297E+02  0.94421997573E+02 0.  0.
         13    1    3    3    0    0  0.28907435692E+02  0.14057380884E+02 -0.50671380664E+02  0.60007081066E+02  0.10566000000E+00 0. -1.
         22    1    1    0    0    0 -0.76653660246E+00 -0.87934644692E+01  0.25419684449E+02  0.26908603703E+02  0.00000000000E+00 0. -1.
</event>
<event>
 5    1  0.1255769E-009  0.9118800E+02  0.7561462E-02  0.1125453E+00
         25   -1    0    0    0    0  0.00000000000E+00  0.00000000000E+00  0.99999998245E-14  0.12509000000E+03  0.12509000000E+03 0.  0.
        -13    1    3    3    0    0  0.12417618937E+01  0.11388685420E+01  0.43502589146E+02  0.43535335310E+02  0.10566000000E+00 0.  1.
         23    2    1    0    0    0  0.83739421273E+01  0.30650028353E+02  0.44421468867E+01  0.93007608977E+02  0.87299115195E+02 0.  0.
         13    1    3    3    0    0  0.71321802337E+01  0.29511159811E+02 -0.39060442259E+02  0.49472273667E+02  0.10566000000E+00 0. -1.
         22    1    1    0    0    0 -0.83739421273E+01 -0.30650028353E+02 -0.44421468867E+01  0.32082391023E+02  0.00000000000E+00 0. -1.
</event>
<event>
 5    1  0.1255769E-009  0.9118800E+02  0.7561462E-02  0.1125453E+00
         25   -1    0    0    0    0  0.00000000000E+00  0.00000000000E+00  0.99999998245E-14  0.12509000000E+03  0.12509000000E+03 0.  0.
        -13    1    3    3    0    0 -0.39662618077E+02  0.36281380746E+02  0.23217924829E+02  0.58553779203E+02  0.10566000000E+00 0.  1.
         23    2    1    0    0    0 -0.27884283203E+02  0.66659366358E+01  0.30789166043E+01  0.96255165365E+02  0.91834683921E+02 0.  0.
         13    1    3    3    0    0  0.11778334873E+02 -0.29615444110E+02 -0.20139008225E+02  0.37701386162E+02  0.10566000000E+00 0. -1.
         22    1    1    0    0    0  0.27884283203E+02 -0.66659366358E+01 -0.30789166043E+01  0.28834834635E+02  0.00000000000E+00 0.  1.
</event>
<event>
 5    1  0.1255769E-009  0.9118800E+02  0.7561462E-02  0.1125453E+00
         25   -1    0    0    0    0  0.00000000000E+00  0.00000000000E+00  0.99999998245E-14  0.12509000000E+03  0.12509000000E+03 0.  0.
        -13    1    3    3    0    0  0.11813350701E+02 -0.54295969674E+02  0.19332240221E+02  0.58833275055E+02  0.10566000000E+00 0.  1.
         23    2    1    0    0    0  0.70258278083E+01 -0.19680555341E+02  0.23052265537E+02  0.93975799684E+02  0.88675574230E+02 0.  0.
         13    1    3    3    0    0 -0.47875228930E+01  0.34615414334E+02  0.37200253164E+01  0.35142524629E+02  0.10566000000E+00 0. -1.
         22    1    1    0    0    0 -0.70258278083E+01  0.19680555341E+02 -0.23052265537E+02  0.31114200316E+02  0.00000000000E+00 0.  1.
</event>
<event>
 5    1  0.1255769E-009  0.9118800E+02  0.7561462E-02  0.1125453E+00
         25   -1    0    0    0    0  0.00000000000E+00  0.00000000000E+00  0.99999998245E-14  0.12509000000E+03  0.12509000000E+03 0.  0.
        -13    1    3    3    0    0  0.34688126071E+02  0.11250857027E+02  0.13729943164E+01  0.36493069912E+02  0.10566000000E+00 0.  1.
         23    2    1    0    0    0 -0.19342944765E+02  0.25093640041E+01 -0.21718609192E+02  0.95898487447E+02  0.91347553276E+02 0.  0.
         13    1    3    3    0    0 -0.54031070836E+02 -0.87414930227E+01 -0.23091603508E+02  0.59405417535E+02  0.10566000000E+00 0. -1.
         22    1    1    0    0    0  0.19342944765E+02 -0.25093640041E+01  0.21718609192E+02  0.29191512553E+02  0.00000000000E+00 0. -1.
</event>
<event>
 5    1  0.1255769E-009  0.9118800E+02  0.7561462E-02  0.1125453E+00
         25   -1    0    0    0    0  0.00000000000E+00  0.00000000000E+00  0.99999998245E-14  0.12509000000E+03  0.12509000000E+03 0.  0.
        -13    1    3    3    0    0 -0.10098652409E+02 -0.62322122019E+01  0.31295264389E+02  0.33469807089E+02  0.10566000000E+00 0.  1.
         23    2    1    0    0    0  0.18358519423E+02 -0.17129306715E+01 -0.23404736211E+02  0.95294848649E+02  0.90517164864E+02 0.  0.
         13    1    3    3    0    0  0.28457171832E+02  0.45192815304E+01 -0.54700000600E+02  0.61825041560E+02  0.10566000000E+00 0. -1.
         22    1    1    0    0    0 -0.18358519423E+02  0.17129306715E+01  0.23404736211E+02  0.29795151351E+02  0.00000000000E+00 0. -1.
</event>
<event>
 5    1  0.1255769E-009  0.9118800E+02  0.7561462E-02  0.1125453E+00
         25   -1    0    0    0    0  0.00000000000E+00  0.00000000000E+00  0.99999998245E-14  0.12509000000E+03  0.12509000000E+03 0.  0.
        -13    1    3    3    0    0  0.21385118381E+01  0.40974743744E+00  0.43219283813E+02  0.43274227702E+02  0.10566000000E+00 0.  1.
         23    2    1    0    0    0 -0.19238381956E+02 -0.24208616872E+02  0.45814748370E+01  0.93830403349E+02  0.88470233468E+02 0.  0.
         13    1    3    3    0    0 -0.21376893794E+02 -0.24618364309E+02 -0.38637808976E+02  0.50556175647E+02  0.10566000000E+00 0. -1.
         22    1    1    0    0    0  0.19238381956E+02  0.24208616872E+02 -0.45814748370E+01  0.31259596651E+02  0.00000000000E+00 0.  1.
</event>
<event>
 5    1  0.1255769E-009  0.9118800E+02  0.7561462E-02  0.1125453E+00
         25   -1    0    0    0    0  0.00000000000E+00  0.00000000000E+00  0.99999998245E-14  0.12509000000E+03  0.12509000000E+03 0.  0.
        -13    1    3    3    0    0 -0.34377440000E+01  0.15487524450E+02  0.32184985390E+02  0.35882669159E+02  0.10566000000E+00 0. -1.
         23    2    1    0    0    0 -0.95750396208E+01 -0.24450498279E+02 -0.12397681201E+02  0.96051908654E+02  0.91557404983E+02 0.  0.
         13    1    3    3    0    0 -0.61372956207E+01 -0.39938022729E+02 -0.44582666591E+02  0.60169239495E+02  0.10566000000E+00 0.  1.
         22    1    1    0    0    0  0.95750396208E+01  0.24450498279E+02  0.12397681201E+02  0.29038091346E+02  0.00000000000E+00 0.  1.
</event>
<event>
 5    1  0.1255769E-009  0.9118800E+02  0.7561462E-02  0.1125453E+00
         25   -1    0    0    0    0  0.00000000000E+00  0.00000000000E+00  0.99999998245E-14  0.12509000000E+03  0.12509000000E+03 0.  0.
        -13    1    3    3    0    0 -0.22313493009E+02 -0.34763460515E+02 -0.27840737967E+02  0.49814736895E+02  0.10566000000E+00 0.  1.
         23    2    1    0    0    0 -0.28853761178E+02 -0.34999579465E+01  0.49677399785E+01  0.95603262638E+02  0.90942378167E+02 0.  0.
         13    1    3    3    0    0 -0.65402681690E+01  0.31263502569E+02  0.32808477946E+02  0.45788525743E+02  0.10566000000E+00 0. -1.
         22    1    1    0    0    0  0.28853761178E+02  0.34999579465E+01 -0.49677399785E+01  0.29486737362E+02  0.00000000000E+00 0.  1.
</event>
<event>
 5    1  0.1255769E-009  0.9118800E+02  0.7561462E-02  0.1125453E+00
         25   -1    0    0    0    0  0.00000000000E+00  0.00000000000E+00  0.99999998245E-14  0.12509000000E+03  0.12509000000E+03 0.  0.
        -13    1    3    3    0    0  0.24979587599E+02 -0.23516561763E+02  0.14022633684E+01  0.34336365276E+02  0.10566000000E+00 0.  1.
         23    2    1    0    0    0 -0.21638463001E+02  0.17998500794E+02 -0.21587075540E+01  0.96861837995E+02  0.92657360904E+02 0.  0.
         13    1    3    3    0    0 -0.46618050600E+02  0.41515062557E+02 -0.35609709224E+01  0.62525472719E+02  0.10566000000E+00 0. -1.
         22    1    1    0    0    0  0.21638463001E+02 -0.17998500794E+02  0.21587075540E+01  0.28228162005E+02  0.00000000000E+00 0. -1.
</event>
<event>
 5    1  0.1255769E-009  0.9118800E+02  0.7561462E-02  0.1125453E+00
         25   -1    0    0    0    0  0.00000000000E+00  0.00000000000E+00  0.99999998245E-14  0.12509000000E+03  0.12509000000E+03 0.  0.
        -13    1    3    3    0    0 -0.27396140923E+02 -0.25338903935E+02  0.14344111765E+01  0.37345378423E+02  0.10566000000E+00 0.  1.
         23    2    1    0    0    0  0.26788222131E+02 -0.57631661658E+01 -0.96979974011E+01  0.96023282215E+02  0.91518285848E+02 0.  0.
         13    1    3    3    0    0  0.54184363054E+02  0.19575737769E+02 -0.11132408578E+02  0.58677903793E+02  0.10566000000E+00 0. -1.
         22    1    1    0    0    0 -0.26788222131E+02  0.57631661658E+01  0.96979974011E+01  0.29066717785E+02  0.00000000000E+00 0. -1.
</event>
<event>
 5    1  0.1255769E-009  0.9118800E+02  0.7561462E-02  0.1125453E+00
         25   -1    0    0    0    0  0.00000000000E+00  0.00000000000E+00  0.99999998245E-14  0.12509000000E+03  0.12509000000E+03 0.  0.
        -13    1    3    3    0    0  0.62230020477E+01 -0.11784934427E+02 -0.37951590875E+02  0.40223685161E+02  0.10566000000E+00 0.  1.
         23    2    1    0    0    0 -0.34201941665E+02 -0.35357350302E+01 -0.20793075892E+02  0.84907587915E+02  0.74797541702E+02 0.  0.
         13    1    3    3    0    0 -0.40424943713E+02  0.82491993968E+01  0.17158514983E+02  0.44683902754E+02  0.10566000000E+00 0. -1.
         22    1    1    0    0    0  0.34201941665E+02  0.35357350302E+01  0.20793075892E+02  0.40182412085E+02  0.00000000000E+00 0. -1.
</event>
<event>
 5    1  0.1255769E-009  0.9118800E+02  0.7561462E-02  0.1125453E+00
         25   -1    0    0    0    0  0.00000000000E+00  0.00000000000E+00  0.99999998245E-14  0.12509000000E+03  0.12509000000E+03 0.  0.
        -13    1    3    3    0    0 -0.26350312090E+02 -0.23814251359E+02 -0.10075283796E+02  0.36918559325E+02  0.10566000000E+00 0. -1.
         23    2    1    0    0    0  0.26001370299E+02  0.41327814045E+01 -0.11687223262E+02  0.96284751743E+02  0.91874975326E+02 0.  0.
         13    1    3    3    0    0  0.52351682390E+02  0.27947032763E+02 -0.16119394654E+01  0.59366192418E+02  0.10566000000E+00 0.  1.
         22    1    1    0    0    0 -0.26001370299E+02 -0.41327814045E+01  0.11687223262E+02  0.28805248257E+02  0.00000000000E+00 0.  1.
</event>
<event>
 5    1  0.1255769E-009  0.9118800E+02  0.7561462E-02  0.1125453E+00
         25   -1    0    0    0    0  0.00000000000E+00  0.00000000000E+00  0.99999998245E-14  0.12509000000E+03  0.12509000000E+03 0.  0.
        -13    1    3    3    0    0 -0.14279769381E+02 -0.19128731434E+02 -0.56724722548E+02  0.61542875234E+02  0.10566000000E+00 0.  1.
         23    2    1    0    0    0 -0.75097753639E+01 -0.15603943448E+02 -0.22023873221E+02  0.97073384059E+02  0.92942515158E+02 0.  0.
         13    1    3    3    0    0  0.67699940168E+01  0.35247879860E+01  0.34700849327E+02  0.35530508826E+02  0.10566000000E+00 0. -1.
         22    1    1    0    0    0  0.75097753639E+01  0.15603943448E+02  0.22023873221E+02  0.28016615941E+02  0.00000000000E+00 0.  1.
</event>
<event>
 5    1  0.1255769E-009  0.9118800E+02  0.7561462E-02  0.1125453E+00
         25   -1    0    0    0    0  0.00000000000E+00  0.00000000000E+00  0.99999998245E-14  0.12509000000E+03  0.12509000000E+03 0.  0.
        -13    1    3    3    0    0 -0.38044959378E+02 -0.35154064036E+01 -0.31773040418E-01  0.38207187673E+02  0.10566000000E+00 0.  1.
         23    2    1    0    0    0  0.95325661123E+01  0.27106026088E+02 -0.77967533399E+01  0.95317599532E+02  0.90548599939E+02 0.  0.
         13    1    3    3    0    0  0.47577525491E+02  0.30621432492E+02 -0.77649802995E+01  0.57110411859E+02  0.10566000000E+00 0. -1.
         22    1    1    0    0    0 -0.95325661123E+01 -0.27106026088E+02  0.77967533399E+01  0.29772400468E+02  0.00000000000E+00 0. -1.
</event>
<event>
 5    1  0.1255769E-009  0.9118800E+02  0.7561462E-02  0.1125453E+00
         25   -1    0    0    0    0  0.00000000000E+00  0.00000000000E+00  0.99999998245E-14  0.12509000000E+03  0.12509000000E+03 0.  0.
        -13    1    3    3    0    0  0.16170903696E+02 -0.29971473050E+02  0.15708473986E+02  0.37504061675E+02  0.10566000000E+00 0. -1.
         23    2    1    0    0    0 -0.11449986426E+02  0.21912449795E+02  0.14771707313E+02  0.96289635729E+02  0.91881624750E+02 0.  0.
         13    1    3    3    0    0 -0.27620890122E+02  0.51883922846E+02 -0.93676667305E+00  0.58785574054E+02  0.10566000000E+00 0.  1.
         22    1    1    0    0    0  0.11449986426E+02 -0.21912449795E+02 -0.14771707313E+02  0.28800364271E+02  0.00000000000E+00 0.  1.
</event>
<event>
 5    1  0.1255769E-009  0.9118800E+02  0.7561462E-02  0.1125453E+00
         25   -1    0    0    0    0  0.00000000000E+00  0.00000000000E+00  0.99999998245E-14  0.12509000000E+03  0.12509000000E+03 0.  0.
        -13    1    3    3    0    0 -0.13013402786E+01  0.41368678539E+02  0.95867615778E+01  0.42485035155E+02  0.10566000000E+00 0. -1.
         23    2    1    0    0    0  0.28641040961E+02 -0.14870850967E+01  0.98517192249E+01  0.94765471626E+02  0.89782612969E+02 0.  0.
         13    1    3    3    0    0  0.29942381239E+02 -0.42855763635E+02  0.26495764702E+00  0.52280436471E+02  0.10566000000E+00 0.  1.
         22    1    1    0    0    0 -0.28641040961E+02  0.14870850967E+01 -0.98517192249E+01  0.30324528374E+02  0.00000000000E+00 0.  1.
</event>
<event>
 5    1  0.1255769E-009  0.9118800E+02  0.7561462E-02  0.1125453E+00
         25   -1    0    0    0    0  0.00000000000E+00  0.00000000000E+00  0.99999998245E-14  0.12509000000E+03  0.12509000000E+03 0.  0.
        -13    1    3    3    0    0  0.48137520680E+02  0.23534799592E+02 -0.19018072330E+02  0.56857769286E+02  0.10566000000E+00 0. -1.
         23    2    1    0    0    0  0.24368082129E+02 -0.79816129056E+01 -0.37842239055E+01  0.99170317869E+02  0.95723153022E+02 0.  0.
         13    1    3    3    0    0 -0.23769438551E+02 -0.31516412497E+02  0.15233848424E+02  0.42312548583E+02  0.10566000000E+00 0.  1.
         22    1    1    0    0    0 -0.24368082129E+02  0.79816129056E+01  0.37842239055E+01  0.25919682131E+02  0.00000000000E+00 0. -1.
</event>
<event>
 5    1  0.1255769E-009  0.9118800E+02  0.7561462E-02  0.1125453E+00
         25   -1    0    0    0    0  0.00000000000E+00  0.00000000000E+00  0.99999998245E-14  0.12509000000E+03  0.12509000000E+03 0.  0.
        -13    1    3    3    0    0 -0.52556244485E+01  0.66364224075E+00 -0.34782579862E+02  0.35183817804E+02  0.10566000000E+00 0.  1.
         23    2    1    0    0    0 -0.95180119197E+01 -0.13562974924E+02  0.24062631914E+02  0.95874300550E+02  0.91314426088E+02 0.  0.
         13    1    3    3    0    0 -0.42623874712E+01 -0.14226617165E+02  0.58845211776E+02  0.60690482746E+02  0.10566000000E+00 0. -1.
         22    1    1    0    0    0  0.95180119197E+01  0.13562974924E+02 -0.24062631914E+02  0.29215699450E+02  0.00000000000E+00 0. -1.
</event>
<event>
 5    1  0.1255769E-009  0.9118800E+02  0.7561462E-02  0.1125453E+00
         25   -1    0    0    0    0  0.00000000000E+00  0.00000000000E+00  0.99999998245E-14  0.12509000000E+03  0.12509000000E+03 0.  0.
        -13    1    3    3    0    0 -0.22865087401E+02 -0.27203256125E+02 -0.43012517669E+02  0.55793522975E+02  0.10566000000E+00 0.  1.
         23    2    1    0    0    0 -0.19906973507E+01 -0.27868777833E+02 -0.89452265970E+01  0.95753184687E+02  0.91148360627E+02 0.  0.
         13    1    3    3    0    0  0.20874390050E+02 -0.66552170849E+00  0.34067291072E+02  0.39959661712E+02  0.10566000000E+00 0. -1.
         22    1    1    0    0    0  0.19906973507E+01  0.27868777833E+02  0.89452265970E+01  0.29336815313E+02  0.00000000000E+00 0.  1.
</event>
<event>
 5    1  0.1255769E-009  0.9118800E+02  0.7561462E-02  0.1125453E+00
         25   -1    0    0    0    0  0.00000000000E+00  0.00000000000E+00  0.99999998245E-14  0.12509000000E+03  0.12509000000E+03 0.  0.
        -13    1    3    3    0    0 -0.76663482790E+01 -0.33337635949E+02 -0.65004070666E+01  0.34820070688E+02  0.10566000000E+00 0.  1.
         23    2    1    0    0    0  0.15705577315E+02  0.20478068200E+02  0.12396195728E+02  0.96459909107E+02  0.92113147597E+02 0.  0.
         13    1    3    3    0    0  0.23371925594E+02  0.53815704150E+02  0.18896602795E+02  0.61639838419E+02  0.10566000000E+00 0. -1.
         22    1    1    0    0    0 -0.15705577315E+02 -0.20478068200E+02 -0.12396195728E+02  0.28630090893E+02  0.00000000000E+00 0. -1.
</event>
<event>
 5    1  0.1255769E-009  0.9118800E+02  0.7561462E-02  0.1125453E+00
         25   -1    0    0    0    0  0.00000000000E+00  0.00000000000E+00  0.99999998245E-14  0.12509000000E+03  0.12509000000E+03 0.  0.
        -13    1    3    3    0    0  0.47273881734E+02  0.23069420182E+02  0.58739014785E+01  0.52929499566E+02  0.10566000000E+00 0.  1.
         23    2    1    0    0    0  0.71749068193E+01  0.22257844598E+02 -0.14149038405E+02  0.97757121962E+02  0.93858237105E+02 0.  0.
         13    1    3    3    0    0 -0.40098974914E+02 -0.81157558338E+00 -0.20022939884E+02  0.44827622397E+02  0.10566000000E+00 0. -1.
         22    1    1    0    0    0 -0.71749068193E+01 -0.22257844598E+02  0.14149038405E+02  0.27332878038E+02  0.00000000000E+00 0.  1.
</event>
<event>
 5    1  0.1255769E-009  0.9118800E+02  0.7561462E-02  0.1125453E+00
         25   -1    0    0    0    0  0.00000000000E+00  0.00000000000E+00  0.99999998245E-14  0.12509000000E+03  0.12509000000E+03 0.  0.
        -13    1    3    3    0    0 -0.46885234472E+02 -0.17923449070E+02 -0.10739030782E+02  0.51330431366E+02  0.10566000000E+00 0.  1.
         23    2    1    0    0    0 -0.25276819380E+02 -0.65540041583E+01  0.21144757598E+02  0.91489801454E+02  0.85096477175E+02 0.  0.
         13    1    3    3    0    0  0.21608415091E+02  0.11369444912E+02  0.31883788380E+02  0.40159370088E+02  0.10566000000E+00 0. -1.
         22    1    1    0    0    0  0.25276819380E+02  0.65540041583E+01 -0.21144757598E+02  0.33600198546E+02  0.00000000000E+00 0.  1.
</event>
<event>
 5    1  0.1255769E-009  0.9118800E+02  0.7561462E-02  0.1125453E+00
         25   -1    0    0    0    0  0.00000000000E+00  0.00000000000E+00  0.99999998245E-14  0.12509000000E+03  0.12509000000E+03 0.  0.
        -13    1    3    3    0    0  0.24934241943E+02  0.28950624428E+02 -0.32345767598E+02  0.50061111869E+02  0.10566000000E+00 0.  1.
         23    2    1    0    0    0 -0.14861074089E+02  0.23004360968E+02 -0.11382882284E+02  0.95431575300E+02  0.90705917164E+02 0.  0.
         13    1    3    3    0    0 -0.39795316032E+02 -0.59462634608E+01  0.20962885314E+02  0.45370463431E+02  0.10566000000E+00 0. -1.
         22    1    1    0    0    0  0.14861074089E+02 -0.23004360968E+02  0.11382882284E+02  0.29658424700E+02  0.00000000000E+00 0. -1.
</event>
<event>
 5    1  0.1255769E-009  0.9118800E+02  0.7561462E-02  0.1125453E+00
         25   -1    0    0    0    0  0.00000000000E+00  0.00000000000E+00  0.99999998245E-14  0.12509000000E+03  0.12509000000E+03 0.  0.
        -13    1    3    3    0    0  0.54476569276E+02  0.11574983002E+02 -0.29108121274E+01  0.55768815864E+02  0.10566000000E+00 0. -1.
         23    2    1    0    0    0  0.25753318775E+02 -0.14016111783E+02  0.57728998987E+01  0.95206707164E+02  0.90395275863E+02 0.  0.
         13    1    3    3    0    0 -0.28723250501E+02 -0.25591094785E+02  0.86837120262E+01  0.39437891300E+02  0.10566000000E+00 0.  1.
         22    1    1    0    0    0 -0.25753318775E+02  0.14016111783E+02 -0.57728998987E+01  0.29883292836E+02  0.00000000000E+00 0. -1.
</event>
<event>
 5    1  0.1255769E-009  0.9118800E+02  0.7561462E-02  0.1125453E+00
         25   -1    0    0    0    0  0.00000000000E+00  0.00000000000E+00  0.99999998245E-14  0.12509000000E+03  0.12509000000E+03 0.  0.
        -13    1    3    3    0    0 -0.21135122981E+02 -0.29456635375E+02 -0.15749257578E+01  0.36288818474E+02  0.10566000000E+00 0.  1.
         23    2    1    0    0    0 -0.73577162773E+01  0.27339237516E+02  0.83580918115E+01  0.95570047502E+02  0.90896679719E+02 0.  0.
         13    1    3    3    0    0  0.13777406704E+02  0.56795872891E+02  0.99330175694E+01  0.59281229028E+02  0.10566000000E+00 0. -1.
         22    1    1    0    0    0  0.73577162773E+01 -0.27339237516E+02 -0.83580918115E+01  0.29519952498E+02  0.00000000000E+00 0. -1.
</event>
<event>
 5    1  0.1255769E-009  0.9118800E+02  0.7561462E-02  0.1125453E+00
         25   -1    0    0    0    0  0.00000000000E+00  0.00000000000E+00  0.99999998245E-14  0.12509000000E+03  0.12509000000E+03 0.  0.
        -13    1    3    3    0    0 -0.11405885243E+02 -0.37465110838E+02  0.78535599369E+01  0.39942687891E+02  0.10566000000E+00 0.  1.
         23    2    1    0    0    0  0.18305841663E+02 -0.10634518144E+02 -0.25427231826E+02  0.92003130498E+02  0.85847743639E+02 0.  0.
         13    1    3    3    0    0  0.29711726906E+02  0.26830592694E+02 -0.33280791763E+02  0.52060442607E+02  0.10566000000E+00 0. -1.
         22    1    1    0    0    0 -0.18305841663E+02  0.10634518144E+02  0.25427231826E+02  0.33086869502E+02  0.00000000000E+00 0. -1.
</event>
<event>
 5    1  0.1255769E-009  0.9118800E+02  0.7561462E-02  0.1125453E+00
         25   -1    0    0    0    0  0.00000000000E+00  0.00000000000E+00  0.99999998245E-14  0.12509000000E+03  0.12509000000E+03 0.  0.
        -13    1    3    3    0    0  0.16614616251E+02  0.59165567512E+01  0.44685355164E+02  0.48040017143E+02  0.10566000000E+00 0. -1.
         23    2    1    0    0    0  0.11131772189E+02 -0.24967205561E+02  0.73896671068E+01  0.96772427973E+02  0.92536576175E+02 0.  0.
         13    1    3    3    0    0 -0.54828440627E+01 -0.30883762312E+02 -0.37295688057E+02  0.48732410829E+02  0.10566000000E+00 0.  1.
         22    1    1    0    0    0 -0.11131772189E+02  0.24967205561E+02 -0.73896671068E+01  0.28317572027E+02  0.00000000000E+00 0.  1.
</event>
<event>
 5    1  0.1255769E-009  0.9118800E+02  0.7561462E-02  0.1125453E+00
         25   -1    0    0    0    0  0.00000000000E+00  0.00000000000E+00  0.99999998245E-14  0.12509000000E+03  0.12509000000E+03 0.  0.
        -13    1    3    3    0    0 -0.22278363476E+02  0.18657172171E+02 -0.20231294262E+02  0.35408077950E+02  0.10566000000E+00 0. -1.
         23    2    1    0    0    0  0.24805988941E+02  0.46548722803E+01  0.14882336345E+02  0.95790019482E+02  0.91198897877E+02 0.  0.
         13    1    3    3    0    0  0.47084352416E+02 -0.14002299891E+02  0.35113630607E+02  0.60381941532E+02  0.10566000000E+00 0.  1.
         22    1    1    0    0    0 -0.24805988941E+02 -0.46548722803E+01 -0.14882336345E+02  0.29299980518E+02  0.00000000000E+00 0.  1.
</event>
<event>
 5    1  0.1255769E-009  0.9118800E+02  0.7561462E-02  0.1125453E+00
         25   -1    0    0    0    0  0.00000000000E+00  0.00000000000E+00  0.99999998245E-14  0.12509000000E+03  0.12509000000E+03 0.  0.
        -13    1    3    3    0    0  0.61962332158E+01 -0.39363156979E+02 -0.79527660710E+01  0.40633841630E+02  0.10566000000E+00 0.  1.
         23    2    1    0    0    0 -0.23517596943E+02  0.82715344668E+01 -0.12948122756E+02  0.96998194588E+02  0.92841263574E+02 0.  0.
         13    1    3    3    0    0 -0.29713830159E+02  0.47634691446E+02 -0.49953566852E+01  0.56364352957E+02  0.10566000000E+00 0. -1.
         22    1    1    0    0    0  0.23517596943E+02 -0.82715344668E+01  0.12948122756E+02  0.28091805412E+02  0.00000000000E+00 0. -1.
</event>
<event>
 5    1  0.1255769E-009  0.9118800E+02  0.7561462E-02  0.1125453E+00
         25   -1    0    0    0    0  0.00000000000E+00  0.00000000000E+00  0.99999998245E-14  0.12509000000E+03  0.12509000000E+03 0.  0.
        -13    1    3    3    0    0 -0.86657372145E+01 -0.53412403123E+02 -0.16588718555E+02  0.56596612586E+02  0.10566000000E+00 0. -1.
         23    2    1    0    0    0  0.97773241223E+00 -0.16148138555E+02 -0.24342708773E+02  0.95861831910E+02  0.91297343923E+02 0.  0.
         13    1    3    3    0    0  0.96434696267E+01  0.37264264568E+02 -0.77539902181E+01  0.39265219324E+02  0.10566000000E+00 0.  1.
         22    1    1    0    0    0 -0.97773241223E+00  0.16148138555E+02  0.24342708773E+02  0.29228168090E+02  0.00000000000E+00 0. -1.
</event>
<event>
 5    1  0.1255769E-009  0.9118800E+02  0.7561462E-02  0.1125453E+00
         25   -1    0    0    0    0  0.00000000000E+00  0.00000000000E+00  0.99999998245E-14  0.12509000000E+03  0.12509000000E+03 0.  0.
        -13    1    3    3    0    0 -0.22676811775E+02  0.17511862475E+02 -0.16503525469E+02  0.33064794518E+02  0.10566000000E+00 0.  1.
         23    2    1    0    0    0  0.94544198711E+01 -0.28441503482E+02  0.77106243756E+01  0.94142319899E+02  0.88910165292E+02 0.  0.
         13    1    3    3    0    0  0.32131231646E+02 -0.45953365957E+02  0.24214149844E+02  0.61077525380E+02  0.10566000000E+00 0. -1.
         22    1    1    0    0    0 -0.94544198711E+01  0.28441503482E+02 -0.77106243756E+01  0.30947680101E+02  0.00000000000E+00 0. -1.
</event>
<event>
 5    1  0.1255769E-009  0.9118800E+02  0.7561462E-02  0.1125453E+00
         25   -1    0    0    0    0  0.00000000000E+00  0.00000000000E+00  0.99999998245E-14  0.12509000000E+03  0.12509000000E+03 0.  0.
        -13    1    3    3    0    0 -0.20737340456E+02 -0.48235128410E+01  0.34659487062E+02  0.40676710447E+02  0.10566000000E+00 0. -1.
         23    2    1    0    0    0 -0.37303811647E+02  0.16436898360E+02  0.32822398641E+00  0.84324159863E+02  0.73815379255E+02 0.  0.
         13    1    3    3    0    0 -0.16566471191E+02  0.21260411201E+02 -0.34331263076E+02  0.43647449416E+02  0.10566000000E+00 0.  1.
         22    1    1    0    0    0  0.37303811647E+02 -0.16436898360E+02 -0.32822398641E+00  0.40765840137E+02  0.00000000000E+00 0.  1.
</event>
<event>
 5    1  0.1255769E-009  0.9118800E+02  0.7561462E-02  0.1125453E+00
         25   -1    0    0    0    0  0.00000000000E+00  0.00000000000E+00  0.99999998245E-14  0.12509000000E+03  0.12509000000E+03 0.  0.
        -13    1    3    3    0    0  0.36348221716E+02 -0.40537133989E+01 -0.28244012528E+02  0.46209968859E+02  0.10566000000E+00 0. -1.
         23    2    1    0    0    0 -0.18098913514E+02  0.21191394974E+01 -0.11642699945E+02  0.10346561828E+03  0.10118063195E+03 0.  0.
         13    1    3    3    0    0 -0.54447135230E+02  0.61728528963E+01  0.16601312582E+02  0.57255649425E+02  0.10566000000E+00 0.  1.
         22    1    1    0    0    0  0.18098913514E+02 -0.21191394974E+01  0.11642699945E+02  0.21624381716E+02  0.00000000000E+00 0. -1.
</event>
<event>
 5    1  0.1255769E-009  0.9118800E+02  0.7561462E-02  0.1125453E+00
         25   -1    0    0    0    0  0.00000000000E+00  0.00000000000E+00  0.99999998245E-14  0.12509000000E+03  0.12509000000E+03 0.  0.
        -13    1    3    3    0    0  0.20626826870E+02  0.18248181687E+02  0.19710363561E+02  0.33866970891E+02  0.10566000000E+00 0. -1.
         23    2    1    0    0    0 -0.25933483707E+02 -0.43411755461E+01 -0.13675078737E+02  0.95452200473E+02  0.90734356307E+02 0.  0.
         13    1    3    3    0    0 -0.46560310577E+02 -0.22589357233E+02 -0.33385442298E+02  0.61585229582E+02  0.10566000000E+00 0.  1.
         22    1    1    0    0    0  0.25933483707E+02  0.43411755461E+01  0.13675078737E+02  0.29637799527E+02  0.00000000000E+00 0.  1.
</event>
<event>
 5    1  0.1255769E-009  0.9118800E+02  0.7561462E-02  0.1125453E+00
         25   -1    0    0    0    0  0.00000000000E+00  0.00000000000E+00  0.99999998245E-14  0.12509000000E+03  0.12509000000E+03 0.  0.
        -13    1    3    3    0    0  0.53334529581E+02  0.10334119643E+02 -0.88881438134E+01  0.55048854111E+02  0.10566000000E+00 0. -1.
         23    2    1    0    0    0  0.18504129212E+02 -0.79237991585E+01 -0.20805526406E+02  0.96140745778E+02  0.91678698064E+02 0.  0.
         13    1    3    3    0    0 -0.34830400370E+02 -0.18257918801E+02 -0.11917382592E+02  0.41091891667E+02  0.10566000000E+00 0.  1.
         22    1    1    0    0    0 -0.18504129212E+02  0.79237991585E+01  0.20805526406E+02  0.28949254222E+02  0.00000000000E+00 0. -1.
</event>
<event>
 5    1  0.1255769E-009  0.9118800E+02  0.7561462E-02  0.1125453E+00
         25   -1    0    0    0    0  0.00000000000E+00  0.00000000000E+00  0.99999998245E-14  0.12509000000E+03  0.12509000000E+03 0.  0.
        -13    1    3    3    0    0 -0.99646520360E+01 -0.71034897807E+01  0.36881559857E+02  0.38858904756E+02  0.10566000000E+00 0.  1.
         23    2    1    0    0    0  0.60373916060E+01  0.27815611188E+02 -0.55464230760E+01  0.96091359823E+02  0.91611289154E+02 0.  0.
         13    1    3    3    0    0  0.16002043642E+02  0.34919100969E+02 -0.42427982933E+02  0.57232455067E+02  0.10566000000E+00 0. -1.
         22    1    1    0    0    0 -0.60373916060E+01 -0.27815611188E+02  0.55464230760E+01  0.28998640177E+02  0.00000000000E+00 0. -1.
</event>
<event>
 5    1  0.1255769E-009  0.9118800E+02  0.7561462E-02  0.1125453E+00
         25   -1    0    0    0    0  0.00000000000E+00  0.00000000000E+00  0.99999998245E-14  0.12509000000E+03  0.12509000000E+03 0.  0.
        -13    1    3    3    0    0  0.30618284321E+02  0.40037732992E+02  0.16508313539E+02  0.53038052169E+02  0.10566000000E+00 0.  1.
         23    2    1    0    0    0 -0.68468923041E+01  0.28517873390E+02 -0.48039895864E+00  0.95757768239E+02  0.91154650776E+02 0.  0.
         13    1    3    3    0    0 -0.37465176625E+02 -0.11519859602E+02 -0.16988712497E+02  0.42719716071E+02  0.10566000000E+00 0. -1.
         22    1    1    0    0    0  0.68468923041E+01 -0.28517873390E+02  0.48039895864E+00  0.29332231761E+02  0.00000000000E+00 0.  1.
</event>
<event>
 5    1  0.1255769E-009  0.9118800E+02  0.7561462E-02  0.1125453E+00
         25   -1    0    0    0    0  0.00000000000E+00  0.00000000000E+00  0.99999998245E-14  0.12509000000E+03  0.12509000000E+03 0.  0.
        -13    1    3    3    0    0  0.21573650059E+02 -0.27337601489E+02 -0.85097745713E+01  0.35849606125E+02  0.10566000000E+00 0.  1.
         23    2    1    0    0    0 -0.27592014498E+02  0.25660907032E+01  0.89227995887E+01  0.95977795720E+02  0.91456092379E+02 0.  0.
         13    1    3    3    0    0 -0.49165664557E+02  0.29903692193E+02  0.17432574160E+02  0.60128189595E+02  0.10566000000E+00 0. -1.
         22    1    1    0    0    0  0.27592014498E+02 -0.25660907032E+01 -0.89227995887E+01  0.29112204280E+02  0.00000000000E+00 0. -1.
</event>
<event>
 5    1  0.1255769E-009  0.9118800E+02  0.7561462E-02  0.1125453E+00
         25   -1    0    0    0    0  0.00000000000E+00  0.00000000000E+00  0.99999998245E-14  0.12509000000E+03  0.12509000000E+03 0.  0.
        -13    1    3    3    0    0  0.17052793188E+01  0.13246201672E+02  0.37975143278E+02  0.40255341351E+02  0.10566000000E+00 0. -1.
         23    2    1    0    0    0 -0.50136128317E+01 -0.29706104064E+02  0.56309978362E+01  0.94442046252E+02  0.89330862704E+02 0.  0.
         13    1    3    3    0    0 -0.67188921505E+01 -0.42952305736E+02 -0.32344145441E+02  0.54186704902E+02  0.10566000000E+00 0.  1.
         22    1    1    0    0    0  0.50136128317E+01  0.29706104064E+02 -0.56309978362E+01  0.30647953748E+02  0.00000000000E+00 0.  1.
</event>
<event>
 5    1  0.1255769E-009  0.9118800E+02  0.7561462E-02  0.1125453E+00
         25   -1    0    0    0    0  0.00000000000E+00  0.00000000000E+00  0.99999998245E-14  0.12509000000E+03  0.12509000000E+03 0.  0.
        -13    1    3    3    0    0  0.65160503196E+01 -0.36316524247E+02  0.21874656214E+02  0.42893596185E+02  0.10566000000E+00 0.  1.
         23    2    1    0    0    0 -0.28159356059E+02 -0.24997814038E+01 -0.17150976518E+01  0.96767927323E+02  0.92530492043E+02 0.  0.
         13    1    3    3    0    0 -0.34675406379E+02  0.33816742844E+02 -0.23589753866E+02  0.53874331138E+02  0.10566000000E+00 0. -1.
         22    1    1    0    0    0  0.28159356059E+02  0.24997814038E+01  0.17150976518E+01  0.28322072677E+02  0.00000000000E+00 0.  1.
</event>
<event>
 5    1  0.1255769E-009  0.9118800E+02  0.7561462E-02  0.1125453E+00
         25   -1    0    0    0    0  0.00000000000E+00  0.00000000000E+00  0.99999998245E-14  0.12509000000E+03  0.12509000000E+03 0.  0.
        -13    1    3    3    0    0  0.18855649497E+02 -0.66312873556E+01 -0.31461285478E+02  0.37273759374E+02  0.10566000000E+00 0. -1.
         23    2    1    0    0    0 -0.28039606341E+02  0.93737687861E+01 -0.86038301746E+00  0.95512519987E+02  0.90817477119E+02 0.  0.
         13    1    3    3    0    0 -0.46895255838E+02  0.16005056142E+02  0.30600902460E+02  0.58238760612E+02  0.10566000000E+00 0.  1.
         22    1    1    0    0    0  0.28039606341E+02 -0.93737687861E+01  0.86038301746E+00  0.29577480013E+02  0.00000000000E+00 0.  1.
</event>
<event>
 5    1  0.1255769E-009  0.9118800E+02  0.7561462E-02  0.1125453E+00
         25   -1    0    0    0    0  0.00000000000E+00  0.00000000000E+00  0.99999998245E-14  0.12509000000E+03  0.12509000000E+03 0.  0.
        -13    1    3    3    0    0  0.27886410089E+01  0.23317505634E+02 -0.38462050193E+02  0.45064654185E+02  0.10566000000E+00 0.  1.
         23    2    1    0    0    0  0.60084291781E+01  0.29035689092E+01  0.18374132597E+02  0.10554158108E+03  0.10371540220E+03 0.  0.
         13    1    3    3    0    0  0.32197881693E+01 -0.20413936725E+02  0.56836182790E+02  0.60476926895E+02  0.10566000000E+00 0. -1.
         22    1    1    0    0    0 -0.60084291781E+01 -0.29035689092E+01 -0.18374132597E+02  0.19548418920E+02  0.00000000000E+00 0. -1.
</event>
<event>
 5    1  0.1255769E-009  0.9118800E+02  0.7561462E-02  0.1125453E+00
         25   -1    0    0    0    0  0.00000000000E+00  0.00000000000E+00  0.99999998245E-14  0.12509000000E+03  0.12509000000E+03 0.  0.
        -13    1    3    3    0    0  0.52342874205E+01  0.25471647880E+02 -0.14495679385E+02  0.29771437576E+02  0.10566000000E+00 0.  1.
         23    2    1    0    0    0  0.67598795614E+01 -0.19332340452E+02  0.27231987365E+02  0.91016307878E+02  0.84397581747E+02 0.  0.
         13    1    3    3    0    0  0.15255921408E+01 -0.44803988331E+02  0.41727666750E+02  0.61244870301E+02  0.10566000000E+00 0. -1.
         22    1    1    0    0    0 -0.67598795614E+01  0.19332340452E+02 -0.27231987365E+02  0.34073692122E+02  0.00000000000E+00 0. -1.
</event>
<event>
 5    1  0.1255769E-009  0.9118800E+02  0.7561462E-02  0.1125453E+00
         25   -1    0    0    0    0  0.00000000000E+00  0.00000000000E+00  0.99999998245E-14  0.12509000000E+03  0.12509000000E+03 0.  0.
        -13    1    3    3    0    0 -0.22186718730E+02  0.43372486864E+02  0.32068268388E+02  0.58325021271E+02  0.10566000000E+00 0. -1.
         23    2    1    0    0    0 -0.48368720434E+00  0.27626418658E+02  0.39504567936E+01  0.97178370344E+02  0.93083707451E+02 0.  0.
         13    1    3    3    0    0  0.21703031525E+02 -0.15746068207E+02 -0.28117811594E+02  0.38853349074E+02  0.10566000000E+00 0.  1.
         22    1    1    0    0    0  0.48368720434E+00 -0.27626418658E+02 -0.39504567936E+01  0.27911629656E+02  0.00000000000E+00 0. -1.
</event>
<event>
 5    1  0.1255769E-009  0.9118800E+02  0.7561462E-02  0.1125453E+00
         25   -1    0    0    0    0  0.00000000000E+00  0.00000000000E+00  0.99999998245E-14  0.12509000000E+03  0.12509000000E+03 0.  0.
        -13    1    3    3    0    0 -0.54630119774E+01  0.40395232524E+02 -0.82954478656E+01  0.41598616923E+02  0.10566000000E+00 0.  1.
         23    2    1    0    0    0  0.13586588471E+02  0.10512693014E+02  0.27945504328E+02  0.92286596018E+02  0.86259796497E+02 0.  0.
         13    1    3    3    0    0  0.19049600449E+02 -0.29882539510E+02  0.36240952193E+02  0.50687979095E+02  0.10566000000E+00 0. -1.
         22    1    1    0    0    0 -0.13586588471E+02 -0.10512693014E+02 -0.27945504328E+02  0.32803403982E+02  0.00000000000E+00 0. -1.
</event>
<event>
 5    1  0.1255769E-009  0.9118800E+02  0.7561462E-02  0.1125453E+00
         25   -1    0    0    0    0  0.00000000000E+00  0.00000000000E+00  0.99999998245E-14  0.12509000000E+03  0.12509000000E+03 0.  0.
        -13    1    3    3    0    0 -0.36570783853E+02 -0.18811478828E+02  0.44186123305E+02  0.60363222446E+02  0.10566000000E+00 0.  1.
         23    2    1    0    0    0 -0.11124921990E+02 -0.22178055026E+01  0.28205881724E+02  0.94688448817E+02  0.89675236409E+02 0.  0.
         13    1    3    3    0    0  0.25445861863E+02  0.16593673325E+02 -0.15980241582E+02  0.34325226371E+02  0.10566000000E+00 0. -1.
         22    1    1    0    0    0  0.11124921990E+02  0.22178055026E+01 -0.28205881724E+02  0.30401551183E+02  0.00000000000E+00 0.  1.
</event>
<event>
 5    1  0.1255769E-009  0.9118800E+02  0.7561462E-02  0.1125453E+00
         25   -1    0    0    0    0  0.00000000000E+00  0.00000000000E+00  0.99999998245E-14  0.12509000000E+03  0.12509000000E+03 0.  0.
        -13    1    3    3    0    0  0.12543343158E+02  0.13789428170E+01 -0.23837989073E+02  0.26972167654E+02  0.10566000000E+00 0.  1.
         23    2    1    0    0    0 -0.78953591334E+01  0.32031169811E+01  0.34886219351E+02  0.89178372986E+02  0.81628042078E+02 0.  0.
         13    1    3    3    0    0 -0.20438702292E+02  0.18241741641E+01  0.58724208424E+02  0.62206205332E+02  0.10566000000E+00 0. -1.
         22    1    1    0    0    0  0.78953591334E+01 -0.32031169811E+01 -0.34886219351E+02  0.35911627014E+02  0.00000000000E+00 0. -1.
</event>
<event>
 5    1  0.1255769E-009  0.9118800E+02  0.7561462E-02  0.1125453E+00
         25   -1    0    0    0    0  0.00000000000E+00  0.00000000000E+00  0.99999998245E-14  0.12509000000E+03  0.12509000000E+03 0.  0.
        -13    1    3    3    0    0  0.23171363212E+02  0.35378820405E+02 -0.24800237282E+02  0.49026889965E+02  0.10566000000E+00 0. -1.
         23    2    1    0    0    0  0.11946460297E+02 -0.10843551035E+02 -0.23467542045E+02  0.96611481038E+02  0.92318753382E+02 0.  0.
         13    1    3    3    0    0 -0.11224902915E+02 -0.46222371439E+02  0.13326952374E+01  0.47584591073E+02  0.10566000000E+00 0.  1.
         22    1    1    0    0    0 -0.11946460297E+02  0.10843551035E+02  0.23467542045E+02  0.28478518962E+02  0.00000000000E+00 0.  1.
</event>
<event>
 5    1  0.1255769E-009  0.9118800E+02  0.7561462E-02  0.1125453E+00
         25   -1    0    0    0    0  0.00000000000E+00  0.00000000000E+00  0.99999998245E-14  0.12509000000E+03  0.12509000000E+03 0.  0.
        -13    1    3    3    0    0  0.11680472854E+02 -0.30346601875E+02 -0.67910913827E+01  0.33218666103E+02  0.10566000000E+00 0.  1.
         23    2    1    0    0    0 -0.34221740782E+02 -0.10997893716E+02 -0.18893763079E+02  0.84481435735E+02  0.74081424745E+02 0.  0.
         13    1    3    3    0    0 -0.45902213636E+02  0.19348708159E+02 -0.12102671696E+02  0.51262769632E+02  0.10566000000E+00 0. -1.
         22    1    1    0    0    0  0.34221740782E+02  0.10997893716E+02  0.18893763079E+02  0.40608564265E+02  0.00000000000E+00 0. -1.
</event>
<event>
 5    1  0.1255769E-009  0.9118800E+02  0.7561462E-02  0.1125453E+00
         25   -1    0    0    0    0  0.00000000000E+00  0.00000000000E+00  0.99999998245E-14  0.12509000000E+03  0.12509000000E+03 0.  0.
        -13    1    3    3    0    0 -0.23339220970E+02 -0.27963721062E+02  0.25313131725E+02  0.44355999965E+02  0.10566000000E+00 0. -1.
         23    2    1    0    0    0  0.23663923240E+02 -0.12126167906E+02  0.46088254102E+01  0.98103587070E+02  0.94318859796E+02 0.  0.
         13    1    3    3    0    0  0.47003144209E+02  0.15837553157E+02 -0.20704306315E+02  0.53747587105E+02  0.10566000000E+00 0.  1.
         22    1    1    0    0    0 -0.23663923240E+02  0.12126167906E+02 -0.46088254102E+01  0.26986412930E+02  0.00000000000E+00 0.  1.
</event>
<event>
 5    1  0.1255769E-009  0.9118800E+02  0.7561462E-02  0.1125453E+00
         25   -1    0    0    0    0  0.00000000000E+00  0.00000000000E+00  0.99999998245E-14  0.12509000000E+03  0.12509000000E+03 0.  0.
        -13    1    3    3    0    0  0.15092243228E+02  0.24710734275E+02  0.26533800790E+02  0.39274036493E+02  0.10566000000E+00 0.  1.
         23    2    1    0    0    0  0.22919412122E+02 -0.82467590052E+01 -0.17694013155E+02  0.94983745041E+02  0.90086210013E+02 0.  0.
         13    1    3    3    0    0  0.78271688944E+01 -0.32957493280E+02 -0.44227813945E+02  0.55709708549E+02  0.10566000000E+00 0. -1.
         22    1    1    0    0    0 -0.22919412122E+02  0.82467590052E+01  0.17694013155E+02  0.30106254959E+02  0.00000000000E+00 0. -1.
</event>
<event>
 5    1  0.1255769E-009  0.9118800E+02  0.7561462E-02  0.1125453E+00
         25   -1    0    0    0    0  0.00000000000E+00  0.00000000000E+00  0.99999998245E-14  0.12509000000E+03  0.12509000000E+03 0.  0.
        -13    1    3    3    0    0 -0.11105639163E+01  0.36122196235E+02  0.22882995348E+02  0.42774864736E+02  0.10566000000E+00 0. -1.
         23    2    1    0    0    0 -0.30073735677E+02 -0.31503367868E+01  0.99409396236E+01  0.93259566764E+02  0.87659399456E+02 0.  0.
         13    1    3    3    0    0 -0.28963171760E+02 -0.39272533022E+02 -0.12942055725E+02  0.50484702027E+02  0.10566000000E+00 0.  1.
         22    1    1    0    0    0  0.30073735677E+02  0.31503367868E+01 -0.99409396236E+01  0.31830433236E+02  0.00000000000E+00 0. -1.
</event>
<event>
 5    1  0.1255769E-009  0.9118800E+02  0.7561462E-02  0.1125453E+00
         25   -1    0    0    0    0  0.00000000000E+00  0.00000000000E+00  0.99999998245E-14  0.12509000000E+03  0.12509000000E+03 0.  0.
        -13    1    3    3    0    0  0.41620524460E+02  0.21492222615E+02 -0.22646046449E+02  0.52029205962E+02  0.10566000000E+00 0. -1.
         23    2    1    0    0    0  0.89238408595E+01  0.27510073839E+02  0.55729907995E+01  0.95636692465E+02  0.90988348819E+02 0.  0.
         13    1    3    3    0    0 -0.32696683601E+02  0.60178512241E+01  0.28219037248E+02  0.43607486503E+02  0.10566000000E+00 0.  1.
         22    1    1    0    0    0 -0.89238408595E+01 -0.27510073839E+02 -0.55729907995E+01  0.29453307535E+02  0.00000000000E+00 0.  1.
</event>
<event>
 5    1  0.1255769E-009  0.9118800E+02  0.7561462E-02  0.1125453E+00
         25   -1    0    0    0    0  0.00000000000E+00  0.00000000000E+00  0.99999998245E-14  0.12509000000E+03  0.12509000000E+03 0.  0.
        -13    1    3    3    0    0 -0.48355763965E+02 -0.19847489908E+02 -0.17962117287E+02  0.55270711826E+02  0.10566000000E+00 0.  1.
         23    2    1    0    0    0 -0.13775530352E+02 -0.28416761598E+02 -0.53696499108E+01  0.93057037035E+02  0.87369911442E+02 0.  0.
         13    1    3    3    0    0  0.34580233614E+02 -0.85692716902E+01  0.12592467377E+02  0.37786325208E+02  0.10566000000E+00 0. -1.
         22    1    1    0    0    0  0.13775530352E+02  0.28416761598E+02  0.53696499108E+01  0.32032962965E+02  0.00000000000E+00 0.  1.
</event>
<event>
 5    1  0.1255769E-009  0.9118800E+02  0.7561462E-02  0.1125453E+00
         25   -1    0    0    0    0  0.00000000000E+00  0.00000000000E+00  0.99999998245E-14  0.12509000000E+03  0.12509000000E+03 0.  0.
        -13    1    3    3    0    0 -0.10340313667E+02  0.26787185709E+02 -0.38505715840E+02  0.48033079449E+02  0.10566000000E+00 0.  1.
         23    2    1    0    0    0 -0.14973713804E+02  0.23052542715E+02  0.91953321942E+01  0.96104038486E+02  0.91628599512E+02 0.  0.
         13    1    3    3    0    0 -0.46334001365E+01 -0.37346429936E+01  0.47701048035E+02  0.48070959037E+02  0.10566000000E+00 0. -1.
         22    1    1    0    0    0  0.14973713804E+02 -0.23052542715E+02 -0.91953321942E+01  0.28985961514E+02  0.00000000000E+00 0. -1.
</event>
<event>
 5    1  0.1255769E-009  0.9118800E+02  0.7561462E-02  0.1125453E+00
         25   -1    0    0    0    0  0.00000000000E+00  0.00000000000E+00  0.99999998245E-14  0.12509000000E+03  0.12509000000E+03 0.  0.
        -13    1    3    3    0    0  0.57426022452E+01 -0.32699665255E+02 -0.19616458497E+02  0.38562445414E+02  0.10566000000E+00 0.  1.
         23    2    1    0    0    0 -0.25400449411E+02  0.13307147652E+02 -0.79904712071E+01  0.95322389431E+02  0.90555216789E+02 0.  0.
         13    1    3    3    0    0 -0.31143051656E+02  0.46006812906E+02  0.11625987290E+02  0.56759944016E+02  0.10566000000E+00 0. -1.
         22    1    1    0    0    0  0.25400449411E+02 -0.13307147652E+02  0.79904712071E+01  0.29767610569E+02  0.00000000000E+00 0. -1.
</event>
<event>
 5    1  0.1255769E-009  0.9118800E+02  0.7561462E-02  0.1125453E+00
         25   -1    0    0    0    0  0.00000000000E+00  0.00000000000E+00  0.99999998245E-14  0.12509000000E+03  0.12509000000E+03 0.  0.
        -13    1    3    3    0    0  0.70758598117E+01  0.33038689331E+02 -0.52121674151E+02  0.62115238591E+02  0.10566000000E+00 0.  1.
         23    2    1    0    0    0  0.18604603975E+01  0.10818201669E+02 -0.26372224387E+02  0.96524478486E+02  0.92200791362E+02 0.  0.
         13    1    3    3    0    0 -0.52153994142E+01 -0.22220487662E+02  0.25749449764E+02  0.34409239896E+02  0.10566000000E+00 0. -1.
         22    1    1    0    0    0 -0.18604603975E+01 -0.10818201669E+02  0.26372224387E+02  0.28565521514E+02  0.00000000000E+00 0.  1.
</event>
<event>
 5    1  0.1255769E-009  0.9118800E+02  0.7561462E-02  0.1125453E+00
         25   -1    0    0    0    0  0.00000000000E+00  0.00000000000E+00  0.99999998245E-14  0.12509000000E+03  0.12509000000E+03 0.  0.
        -13    1    3    3    0    0  0.39945770406E+02 -0.24197585760E+02  0.25644971892E+02  0.53280986076E+02  0.10566000000E+00 0.  1.
         23    2    1    0    0    0  0.22893132866E+02 -0.12682295535E+02 -0.12089626897E+02  0.96261277674E+02  0.91843009252E+02 0.  0.
         13    1    3    3    0    0 -0.17052637540E+02  0.11515290224E+02 -0.37734598789E+02  0.42980291597E+02  0.10566000000E+00 0. -1.
         22    1    1    0    0    0 -0.22893132866E+02  0.12682295535E+02  0.12089626897E+02  0.28828722326E+02  0.00000000000E+00 0.  1.
</event>
<event>
 5    1  0.1255769E-009  0.9118800E+02  0.7561462E-02  0.1125453E+00
         25   -1    0    0    0    0  0.00000000000E+00  0.00000000000E+00  0.99999998245E-14  0.12509000000E+03  0.12509000000E+03 0.  0.
        -13    1    3    3    0    0  0.22390501316E+02 -0.10335766370E+02  0.28267147820E+02  0.37512736844E+02  0.10566000000E+00 0.  1.
         23    2    1    0    0    0 -0.29067252163E+02  0.24236853810E+01  0.46413362033E+01  0.95554912377E+02  0.90875848709E+02 0.  0.
         13    1    3    3    0    0 -0.51457753479E+02  0.12759451751E+02 -0.23625811616E+02  0.58042175533E+02  0.10566000000E+00 0. -1.
         22    1    1    0    0    0  0.29067252163E+02 -0.24236853810E+01 -0.46413362033E+01  0.29535087623E+02  0.00000000000E+00 0.  1.
</event>
<event>
 5    1  0.1255769E-009  0.9118800E+02  0.7561462E-02  0.1125453E+00
         25   -1    0    0    0    0  0.00000000000E+00  0.00000000000E+00  0.99999998245E-14  0.12509000000E+03  0.12509000000E+03 0.  0.
        -13    1    3    3    0    0  0.29268280831E+02 -0.12963131021E+02  0.50313241248E+02  0.59633115277E+02  0.10566000000E+00 0.  1.
         23    2    1    0    0    0  0.63578277512E+01 -0.17397890354E+02  0.23039586501E+02  0.95527674167E+02  0.90838347757E+02 0.  0.
         13    1    3    3    0    0 -0.22910453080E+02 -0.44347593329E+01 -0.27273654747E+02  0.35894558891E+02  0.10566000000E+00 0. -1.
         22    1    1    0    0    0 -0.63578277512E+01  0.17397890354E+02 -0.23039586501E+02  0.29562325833E+02  0.00000000000E+00 0.  1.
</event>
<event>
 5    1  0.1255769E-009  0.9118800E+02  0.7561462E-02  0.1125453E+00
         25   -1    0    0    0    0  0.00000000000E+00  0.00000000000E+00  0.99999998245E-14  0.12509000000E+03  0.12509000000E+03 0.  0.
        -13    1    3    3    0    0 -0.29921417081E+02  0.32866759296E+02 -0.37494224380E+02  0.58149317215E+02  0.10566000000E+00 0.  1.
         23    2    1    0    0    0 -0.24764413346E+02  0.27785944705E+01 -0.16288716623E+02  0.95318889090E+02  0.90550381405E+02 0.  0.
         13    1    3    3    0    0  0.51570037347E+01 -0.30088164825E+02  0.21205507757E+02  0.37169571875E+02  0.10566000000E+00 0. -1.
         22    1    1    0    0    0  0.24764413346E+02 -0.27785944705E+01  0.16288716623E+02  0.29771110910E+02  0.00000000000E+00 0.  1.
</event>
<event>
 5    1  0.1255769E-009  0.9118800E+02  0.7561462E-02  0.1125453E+00
         25   -1    0    0    0    0  0.00000000000E+00  0.00000000000E+00  0.99999998245E-14  0.12509000000E+03  0.12509000000E+03 0.  0.
        -13    1    3    3    0    0 -0.42992927334E+02 -0.29316309646E+01 -0.41331362719E+01  0.43290648416E+02  0.10566000000E+00 0.  1.
         23    2    1    0    0    0 -0.59109626198E+01  0.27533546328E+02  0.12765777346E+02  0.94170738629E+02  0.88950139348E+02 0.  0.
         13    1    3    3    0    0  0.37081964714E+02  0.30465177293E+02  0.16898913618E+02  0.50880090212E+02  0.10566000000E+00 0. -1.
         22    1    1    0    0    0  0.59109626198E+01 -0.27533546328E+02 -0.12765777346E+02  0.30919261371E+02  0.00000000000E+00 0. -1.
</event>
<event>
 5    1  0.1255769E-009  0.9118800E+02  0.7561462E-02  0.1125453E+00
         25   -1    0    0    0    0  0.00000000000E+00  0.00000000000E+00  0.99999998245E-14  0.12509000000E+03  0.12509000000E+03 0.  0.
        -13    1    3    3    0    0 -0.24841426308E+02  0.14615054263E+02  0.16463577603E+02  0.33192722450E+02  0.10566000000E+00 0. -1.
         23    2    1    0    0    0  0.15409784578E+02 -0.25997950578E+02 -0.53609134677E+01  0.94396445494E+02  0.89266985128E+02 0.  0.
         13    1    3    3    0    0  0.40251210886E+02 -0.40613004840E+02 -0.21824491071E+02  0.61203723044E+02  0.10566000000E+00 0.  1.
         22    1    1    0    0    0 -0.15409784578E+02  0.25997950578E+02  0.53609134677E+01  0.30693554506E+02  0.00000000000E+00 0.  1.
</event>
<event>
 5    1  0.1255769E-009  0.9118800E+02  0.7561462E-02  0.1125453E+00
         25   -1    0    0    0    0  0.00000000000E+00  0.00000000000E+00  0.99999998245E-14  0.12509000000E+03  0.12509000000E+03 0.  0.
        -13    1    3    3    0    0 -0.11991114600E+02 -0.79974746532E+01  0.34059444680E+02  0.36983825736E+02  0.10566000000E+00 0.  1.
         23    2    1    0    0    0  0.22852283176E+02  0.16714022091E+02 -0.66663289833E+01  0.96003485549E+02  0.91491223156E+02 0.  0.
         13    1    3    3    0    0  0.34843397776E+02  0.24711496744E+02 -0.40725773663E+02  0.59019659812E+02  0.10566000000E+00 0. -1.
         22    1    1    0    0    0 -0.22852283176E+02 -0.16714022091E+02  0.66663289833E+01  0.29086514451E+02  0.00000000000E+00 0. -1.
</event>
<event>
 5    1  0.1255769E-009  0.9118800E+02  0.7561462E-02  0.1125453E+00
         25   -1    0    0    0    0  0.00000000000E+00  0.00000000000E+00  0.99999998245E-14  0.12509000000E+03  0.12509000000E+03 0.  0.
        -13    1    3    3    0    0  0.33618808379E+02  0.61040879279E+01 -0.13958969760E+02  0.36910000909E+02  0.10566000000E+00 0. -1.
         23    2    1    0    0    0 -0.20525042702E+02  0.19074646002E+02  0.66740652902E+01  0.96286134886E+02  0.91876858488E+02 0.  0.
         13    1    3    3    0    0 -0.54143851081E+02  0.12970558074E+02  0.20633035050E+02  0.59376133977E+02  0.10566000000E+00 0.  1.
         22    1    1    0    0    0  0.20525042702E+02 -0.19074646002E+02 -0.66740652902E+01  0.28803865114E+02  0.00000000000E+00 0.  1.
</event>
<event>
 5    1  0.1255769E-009  0.9118800E+02  0.7561462E-02  0.1125453E+00
         25   -1    0    0    0    0  0.00000000000E+00  0.00000000000E+00  0.99999998245E-14  0.12509000000E+03  0.12509000000E+03 0.  0.
        -13    1    3    3    0    0  0.11086901870E+02  0.40010899500E+01  0.54867931810E+02  0.56119775650E+02  0.10566000000E+00 0.  1.
         23    2    1    0    0    0 -0.98123070866E+01 -0.11836476212E+02  0.23540604141E+02  0.96973393114E+02  0.92807841205E+02 0.  0.
         13    1    3    3    0    0 -0.20899208957E+02 -0.15837566162E+02 -0.31327327669E+02  0.40853617464E+02  0.10566000000E+00 0. -1.
         22    1    1    0    0    0  0.98123070866E+01  0.11836476212E+02 -0.23540604141E+02  0.28116606886E+02  0.00000000000E+00 0.  1.
</event>
<event>
 5    1  0.1255769E-009  0.9118800E+02  0.7561462E-02  0.1125453E+00
         25   -1    0    0    0    0  0.00000000000E+00  0.00000000000E+00  0.99999998245E-14  0.12509000000E+03  0.12509000000E+03 0.  0.
        -13    1    3    3    0    0  0.32237065839E+02  0.27170431832E+01  0.53038834920E+02  0.62126805094E+02  0.10566000000E+00 0.  1.
         23    2    1    0    0    0  0.18003290557E+02  0.48219631417E+01  0.22593312930E+02  0.95801306130E+02  0.91214377527E+02 0.  0.
         13    1    3    3    0    0 -0.14233775281E+02  0.21049199584E+01 -0.30445521989E+02  0.33674501036E+02  0.10566000000E+00 0. -1.
         22    1    1    0    0    0 -0.18003290557E+02 -0.48219631417E+01 -0.22593312930E+02  0.29288693870E+02  0.00000000000E+00 0.  1.
</event>
<event>
 5    1  0.1255769E-009  0.9118800E+02  0.7561462E-02  0.1125453E+00
         25   -1    0    0    0    0  0.00000000000E+00  0.00000000000E+00  0.99999998245E-14  0.12509000000E+03  0.12509000000E+03 0.  0.
        -13    1    3    3    0    0  0.17340359476E+02 -0.14561685522E+01 -0.58604458895E+02  0.61133479044E+02  0.10566000000E+00 0. -1.
         23    2    1    0    0    0 -0.37696955281E+00 -0.48824500462E+01 -0.28022973633E+02  0.96642373109E+02  0.92360602015E+02 0.  0.
         13    1    3    3    0    0 -0.17717329029E+02 -0.34262814940E+01  0.30581485263E+02  0.35508894065E+02  0.10566000000E+00 0.  1.
         22    1    1    0    0    0  0.37696955281E+00  0.48824500462E+01  0.28022973633E+02  0.28447626891E+02  0.00000000000E+00 0. -1.
</event>
<event>
 5    1  0.1255769E-009  0.9118800E+02  0.7561462E-02  0.1125453E+00
         25   -1    0    0    0    0  0.00000000000E+00  0.00000000000E+00  0.99999998245E-14  0.12509000000E+03  0.12509000000E+03 0.  0.
        -13    1    3    3    0    0  0.11908512378E+02  0.40502759405E+02 -0.29405967033E+02  0.51449084031E+02  0.10566000000E+00 0.  1.
         23    2    1    0    0    0 -0.18642010394E+02  0.23738125137E+02 -0.38531116437E+01  0.94661894474E+02  0.89638187507E+02 0.  0.
         13    1    3    3    0    0 -0.30550522772E+02 -0.16764634267E+02  0.25552855390E+02  0.43212810443E+02  0.10566000000E+00 0. -1.
         22    1    1    0    0    0  0.18642010394E+02 -0.23738125137E+02  0.38531116437E+01  0.30428105526E+02  0.00000000000E+00 0.  1.
</event>
<event>
 5    1  0.1255769E-009  0.9118800E+02  0.7561462E-02  0.1125453E+00
         25   -1    0    0    0    0  0.00000000000E+00  0.00000000000E+00  0.99999998245E-14  0.12509000000E+03  0.12509000000E+03 0.  0.
        -13    1    3    3    0    0 -0.35009997758E+02 -0.43810510930E+02 -0.83003167793E+01  0.56691862147E+02  0.10566000000E+00 0. -1.
         23    2    1    0    0    0 -0.26724368336E+02 -0.63623692600E+01 -0.11772127939E+02  0.95202634747E+02  0.90389640230E+02 0.  0.
         13    1    3    3    0    0  0.82856294222E+01  0.37448141670E+02 -0.34718111602E+01  0.38510772600E+02  0.10566000000E+00 0.  1.
         22    1    1    0    0    0  0.26724368336E+02  0.63623692600E+01  0.11772127939E+02  0.29887365253E+02  0.00000000000E+00 0. -1.
</event>
<event>
 5    1  0.1255769E-009  0.9118800E+02  0.7561462E-02  0.1125453E+00
         25   -1    0    0    0    0  0.00000000000E+00  0.00000000000E+00  0.99999998245E-14  0.12509000000E+03  0.12509000000E+03 0.  0.
        -13    1    3    3    0    0 -0.63409031528E+01  0.66723178694E+01 -0.32868477360E+02  0.34133192739E+02  0.10566000000E+00 0. -1.
         23    2    1    0    0    0  0.14061277499E+01  0.24587115133E+02  0.21811589028E+02  0.92192449305E+02  0.86123161038E+02 0.  0.
         13    1    3    3    0    0  0.77470309026E+01  0.17914797263E+02  0.54680066388E+02  0.58059256566E+02  0.10566000000E+00 0.  1.
         22    1    1    0    0    0 -0.14061277499E+01 -0.24587115133E+02 -0.21811589028E+02  0.32897550695E+02  0.00000000000E+00 0.  1.
</event>
<event>
 5    1  0.1255769E-009  0.9118800E+02  0.7561462E-02  0.1125453E+00
         25   -1    0    0    0    0  0.00000000000E+00  0.00000000000E+00  0.99999998245E-14  0.12509000000E+03  0.12509000000E+03 0.  0.
        -13    1    3    3    0    0  0.24497895125E+02 -0.10661785751E+02  0.61629783747E+01  0.27419226966E+02  0.10566000000E+00 0.  1.
         23    2    1    0    0    0 -0.31403638058E+02 -0.49430514354E+01 -0.17966311275E+02  0.88574105083E+02  0.80696725520E+02 0.  0.
         13    1    3    3    0    0 -0.55901533183E+02  0.57187343153E+01 -0.24129289649E+02  0.61154878116E+02  0.10566000000E+00 0. -1.
         22    1    1    0    0    0  0.31403638058E+02  0.49430514354E+01  0.17966311275E+02  0.36515894917E+02  0.00000000000E+00 0. -1.
</event>
<event>
 5    1  0.1255769E-009  0.9118800E+02  0.7561462E-02  0.1125453E+00
         25   -1    0    0    0    0  0.00000000000E+00  0.00000000000E+00  0.99999998245E-14  0.12509000000E+03  0.12509000000E+03 0.  0.
        -13    1    3    3    0    0 -0.23024302589E+02 -0.32193832851E+02  0.25100861076E+02  0.46868174427E+02  0.10566000000E+00 0. -1.
         23    2    1    0    0    0 -0.24976413324E+01  0.10862042252E+02  0.28300334759E+02  0.94674031799E+02  0.89655123532E+02 0.  0.
         13    1    3    3    0    0  0.20526661256E+02  0.43055875103E+02  0.31994736831E+01  0.47805857373E+02  0.10566000000E+00 0.  1.
         22    1    1    0    0    0  0.24976413324E+01 -0.10862042252E+02 -0.28300334759E+02  0.30415968201E+02  0.00000000000E+00 0.  1.
</event>
<event>
 5    1  0.1255769E-009  0.9118800E+02  0.7561462E-02  0.1125453E+00
         25   -1    0    0    0    0  0.00000000000E+00  0.00000000000E+00  0.99999998245E-14  0.12509000000E+03  0.12509000000E+03 0.  0.
        -13    1    3    3    0    0 -0.53581265418E+02 -0.15979439844E+02 -0.20282537894E+02  0.59478458361E+02  0.10566000000E+00 0. -1.
         23    2    1    0    0    0 -0.28460591386E+02  0.58275417053E+01 -0.77887383056E+01  0.95012933176E+02  0.90126730340E+02 0.  0.
         13    1    3    3    0    0  0.25120674032E+02  0.21806981550E+02  0.12493799589E+02  0.35534474814E+02  0.10566000000E+00 0.  1.
         22    1    1    0    0    0  0.28460591386E+02 -0.58275417053E+01  0.77887383056E+01  0.30077066824E+02  0.00000000000E+00 0. -1.
</event>
<event>
 5    1  0.1255769E-009  0.9118800E+02  0.7561462E-02  0.1125453E+00
         25   -1    0    0    0    0  0.00000000000E+00  0.00000000000E+00  0.99999998245E-14  0.12509000000E+03  0.12509000000E+03 0.  0.
        -13    1    3    3    0    0  0.26168410036E+02  0.18466636062E+02  0.42803652064E+02  0.53459948797E+02  0.10566000000E+00 0. -1.
         23    2    1    0    0    0 -0.50739860554E+01 -0.75224611974E+01  0.26205762903E+02  0.97357802714E+02  0.93324525089E+02 0.  0.
         13    1    3    3    0    0 -0.31242396092E+02 -0.25989097260E+02 -0.16597889161E+02  0.43897853917E+02  0.10566000000E+00 0.  1.
         22    1    1    0    0    0  0.50739860554E+01  0.75224611974E+01 -0.26205762903E+02  0.27732197286E+02  0.00000000000E+00 0.  1.
</event>
<event>
 5    1  0.1255769E-009  0.9118800E+02  0.7561462E-02  0.1125453E+00
         25   -1    0    0    0    0  0.00000000000E+00  0.00000000000E+00  0.99999998245E-14  0.12509000000E+03  0.12509000000E+03 0.  0.
        -13    1    3    3    0    0 -0.40253850220E+02 -0.13923668484E+02  0.28041420141E+01  0.42686243428E+02  0.10566000000E+00 0.  1.
         23    2    1    0    0    0 -0.59853882835E+01  0.20597209156E+02 -0.19411544611E+02  0.96161156918E+02  0.91706543593E+02 0.  0.
         13    1    3    3    0    0  0.34268461936E+02  0.34520877640E+02 -0.22215686625E+02  0.53474913490E+02  0.10566000000E+00 0. -1.
         22    1    1    0    0    0  0.59853882835E+01 -0.20597209156E+02  0.19411544611E+02  0.28928843082E+02  0.00000000000E+00 0. -1.
</event>
<event>
 5    1  0.1255769E-009  0.9118800E+02  0.7561462E-02  0.1125453E+00
         25   -1    0    0    0    0  0.00000000000E+00  0.00000000000E+00  0.99999998245E-14  0.12509000000E+03  0.12509000000E+03 0.  0.
        -13    1    3    3    0    0 -0.16219086736E+02  0.26881547494E+02  0.12464192078E+02  0.33779337151E+02  0.10566000000E+00 0.  1.
         23    2    1    0    0    0  0.79470350472E+01 -0.19577256412E+02 -0.20493361743E+02  0.95655289025E+02  0.91013911619E+02 0.  0.
         13    1    3    3    0    0  0.24166121783E+02 -0.46458803905E+02 -0.32957553821E+02  0.61875951873E+02  0.10566000000E+00 0. -1.
         22    1    1    0    0    0 -0.79470350472E+01  0.19577256412E+02  0.20493361743E+02  0.29434710975E+02  0.00000000000E+00 0. -1.
</event>
<event>
 5    1  0.1255769E-009  0.9118800E+02  0.7561462E-02  0.1125453E+00
         25   -1    0    0    0    0  0.00000000000E+00  0.00000000000E+00  0.99999998245E-14  0.12509000000E+03  0.12509000000E+03 0.  0.
        -13    1    3    3    0    0  0.15058106650E+02  0.44020760418E+02  0.13845963695E+02  0.48541691342E+02  0.10566000000E+00 0.  1.
         23    2    1    0    0    0 -0.21529161757E+02  0.14429442428E+02  0.14072631649E+02  0.95598432116E+02  0.90935733608E+02 0.  0.
         13    1    3    3    0    0 -0.36587268407E+02 -0.29591317990E+02  0.22666795357E+00  0.47056740774E+02  0.10566000000E+00 0. -1.
         22    1    1    0    0    0  0.21529161757E+02 -0.14429442428E+02 -0.14072631649E+02  0.29491567884E+02  0.00000000000E+00 0.  1.
</event>
<event>
 5    1  0.1255769E-009  0.9118800E+02  0.7561462E-02  0.1125453E+00
         25   -1    0    0    0    0  0.00000000000E+00  0.00000000000E+00  0.99999998245E-14  0.12509000000E+03  0.12509000000E+03 0.  0.
        -13    1    3    3    0    0 -0.49091759644E+02  0.37415556987E+02  0.73475016287E+01  0.62160451364E+02  0.10566000000E+00 0.  1.
         23    2    1    0    0    0 -0.23549197681E+02  0.18828500989E+02 -0.12956315311E+01  0.94911268714E+02  0.89985516096E+02 0.  0.
         13    1    3    3    0    0  0.25542561963E+02 -0.18587055998E+02 -0.86431331598E+01  0.32750817350E+02  0.10566000000E+00 0. -1.
         22    1    1    0    0    0  0.23549197681E+02 -0.18828500989E+02  0.12956315311E+01  0.30178731286E+02  0.00000000000E+00 0.  1.
</event>
<event>
 5    1  0.1255769E-009  0.9118800E+02  0.7561462E-02  0.1125453E+00
         25   -1    0    0    0    0  0.00000000000E+00  0.00000000000E+00  0.99999998245E-14  0.12509000000E+03  0.12509000000E+03 0.  0.
        -13    1    3    3    0    0  0.58267334196E+02 -0.57292244602E+01 -0.95100861234E+01  0.59315758018E+02  0.10566000000E+00 0. -1.
         23    2    1    0    0    0  0.24347129547E+02 -0.16204502936E+02 -0.76194053377E+01  0.94867095270E+02  0.89924089068E+02 0.  0.
         13    1    3    3    0    0 -0.33920204648E+02 -0.10475278476E+02  0.18906807857E+01  0.35551337252E+02  0.10566000000E+00 0.  1.
         22    1    1    0    0    0 -0.24347129547E+02  0.16204502936E+02  0.76194053377E+01  0.30222904730E+02  0.00000000000E+00 0. -1.
</event>
<event>
 5    1  0.1255769E-009  0.9118800E+02  0.7561462E-02  0.1125453E+00
         25   -1    0    0    0    0  0.00000000000E+00  0.00000000000E+00  0.99999998245E-14  0.12509000000E+03  0.12509000000E+03 0.  0.
        -13    1    3    3    0    0  0.35200940473E+02  0.46171467585E+01  0.44751571729E+02  0.57123888091E+02  0.10566000000E+00 0. -1.
         23    2    1    0    0    0  0.18513062086E+02  0.68399976320E+01 -0.43926704501E+00  0.10534887564E+03  0.10348272130E+03 0.  0.
         13    1    3    3    0    0 -0.16687878387E+02  0.22228508735E+01 -0.45190838774E+02  0.48224987550E+02  0.10566000000E+00 0.  1.
         22    1    1    0    0    0 -0.18513062086E+02 -0.68399976320E+01  0.43926704501E+00  0.19741124358E+02  0.00000000000E+00 0. -1.
</event>
<event>
 5    1  0.1255769E-009  0.9118800E+02  0.7561462E-02  0.1125453E+00
         25   -1    0    0    0    0  0.00000000000E+00  0.00000000000E+00  0.99999998245E-14  0.12509000000E+03  0.12509000000E+03 0.  0.
        -13    1    3    3    0    0 -0.31529513513E+02  0.11308300518E+02  0.12899026997E+02  0.35894065589E+02  0.10566000000E+00 0. -1.
         23    2    1    0    0    0  0.27180473589E+02  0.77564827403E+01  0.11052267290E+02  0.94740473130E+02  0.89747776951E+02 0.  0.
         13    1    3    3    0    0  0.58709987102E+02 -0.35518177782E+01 -0.18467597069E+01  0.58846407541E+02  0.10566000000E+00 0.  1.
         22    1    1    0    0    0 -0.27180473589E+02 -0.77564827403E+01 -0.11052267290E+02  0.30349526870E+02  0.00000000000E+00 0.  1.
</event>
<event>
 5    1  0.1255769E-009  0.9118800E+02  0.7561462E-02  0.1125453E+00
         25   -1    0    0    0    0  0.00000000000E+00  0.00000000000E+00  0.99999998245E-14  0.12509000000E+03  0.12509000000E+03 0.  0.
        -13    1    3    3    0    0 -0.28598679759E+02 -0.35564467282E+02 -0.40222661856E+02  0.60832470835E+02  0.10566000000E+00 0.  1.
         23    2    1    0    0    0 -0.68881189909E+01 -0.24531115044E+02 -0.17180997313E+02  0.94358770652E+02  0.89214175678E+02 0.  0.
         13    1    3    3    0    0  0.21710560769E+02  0.11033352238E+02  0.23041664543E+02  0.33526299818E+02  0.10566000000E+00 0. -1.
         22    1    1    0    0    0  0.68881189909E+01  0.24531115044E+02  0.17180997313E+02  0.30731229348E+02  0.00000000000E+00 0.  1.
</event>
<event>
 5    1  0.1255769E-009  0.9118800E+02  0.7561462E-02  0.1125453E+00
         25   -1    0    0    0    0  0.00000000000E+00  0.00000000000E+00  0.99999998245E-14  0.12509000000E+03  0.12509000000E+03 0.  0.
        -13    1    3    3    0    0 -0.14537499015E+02 -0.23738348921E+02  0.26774986784E+02  0.38623298259E+02  0.10566000000E+00 0.  1.
         23    2    1    0    0    0 -0.57344742275E+01  0.11100870586E+02 -0.22347844718E+02  0.99486490749E+02  0.96135436523E+02 0.  0.
         13    1    3    3    0    0  0.88030247878E+01  0.34839219507E+02 -0.49122831502E+02  0.60863192490E+02  0.10566000000E+00 0. -1.
         22    1    1    0    0    0  0.57344742275E+01 -0.11100870586E+02  0.22347844718E+02  0.25603509251E+02  0.00000000000E+00 0. -1.
</event>
<event>
 5    1  0.1255769E-009  0.9118800E+02  0.7561462E-02  0.1125453E+00
         25   -1    0    0    0    0  0.00000000000E+00  0.00000000000E+00  0.99999998245E-14  0.12509000000E+03  0.12509000000E+03 0.  0.
        -13    1    3    3    0    0 -0.69230674334E+01 -0.59619330502E+02  0.54182642100E+00  0.60022480556E+02  0.10566000000E+00 0. -1.
         23    2    1    0    0    0 -0.15290855610E+02 -0.24817244158E+02 -0.17333301488E+01  0.95888796150E+02  0.91334281192E+02 0.  0.
         13    1    3    3    0    0 -0.83677881768E+01  0.34802086344E+02 -0.22751565698E+01  0.35866315594E+02  0.10566000000E+00 0.  1.
         22    1    1    0    0    0  0.15290855610E+02  0.24817244158E+02  0.17333301488E+01  0.29201203850E+02  0.00000000000E+00 0. -1.
</event>
<event>
 5    1  0.1255769E-009  0.9118800E+02  0.7561462E-02  0.1125453E+00
         25   -1    0    0    0    0  0.00000000000E+00  0.00000000000E+00  0.99999998245E-14  0.12509000000E+03  0.12509000000E+03 0.  0.
        -13    1    3    3    0    0  0.30812724264E+02  0.35424814806E+02  0.13930936430E+02  0.48973703499E+02  0.10566000000E+00 0.  1.
         23    2    1    0    0    0 -0.76830210915E+01  0.23808575101E+02 -0.12530577699E+02  0.97109784867E+02  0.92991493579E+02 0.  0.
         13    1    3    3    0    0 -0.38495745355E+02 -0.11616239705E+02 -0.26461514130E+02  0.48136081368E+02  0.10566000000E+00 0. -1.
         22    1    1    0    0    0  0.76830210915E+01 -0.23808575101E+02  0.12530577699E+02  0.27980215133E+02  0.00000000000E+00 0.  1.
</event>
<event>
 5    1  0.1255769E-009  0.9118800E+02  0.7561462E-02  0.1125453E+00
         25   -1    0    0    0    0  0.00000000000E+00  0.00000000000E+00  0.99999998245E-14  0.12509000000E+03  0.12509000000E+03 0.  0.
        -13    1    3    3    0    0  0.27684113494E+02  0.20438110007E+02 -0.14308103252E+02  0.37267404837E+02  0.10566000000E+00 0.  1.
         23    2    1    0    0    0 -0.12885561356E+02 -0.22045225951E+02 -0.13910908123E+02  0.96011777160E+02  0.91502559035E+02 0.  0.
         13    1    3    3    0    0 -0.40569674850E+02 -0.42483335959E+02  0.39719512923E+00  0.58744372323E+02  0.10566000000E+00 0. -1.
         22    1    1    0    0    0  0.12885561356E+02  0.22045225951E+02  0.13910908123E+02  0.29078222840E+02  0.00000000000E+00 0. -1.
</event>
<event>
 5    1  0.1255769E-009  0.9118800E+02  0.7561462E-02  0.1125453E+00
         25   -1    0    0    0    0  0.00000000000E+00  0.00000000000E+00  0.99999998245E-14  0.12509000000E+03  0.12509000000E+03 0.  0.
        -13    1    3    3    0    0 -0.18927345986E+02  0.56325459585E+02 -0.11990960789E+02  0.60618447096E+02  0.10566000000E+00 0. -1.
         23    2    1    0    0    0 -0.82560179099E+01  0.23616885765E+02 -0.16206291891E+02  0.95281225758E+02  0.90498336781E+02 0.  0.
         13    1    3    3    0    0  0.10671328076E+02 -0.32708573820E+02 -0.42153311012E+01  0.34662778662E+02  0.10566000000E+00 0.  1.
         22    1    1    0    0    0  0.82560179099E+01 -0.23616885765E+02  0.16206291891E+02  0.29808774242E+02  0.00000000000E+00 0. -1.
</event>
<event>
 5    1  0.1255769E-009  0.9118800E+02  0.7561462E-02  0.1125453E+00
         25   -1    0    0    0    0  0.00000000000E+00  0.00000000000E+00  0.99999998245E-14  0.12509000000E+03  0.12509000000E+03 0.  0.
        -13    1    3    3    0    0 -0.22509050189E+02  0.35406269943E+02  0.37880577030E+02  0.56526193679E+02  0.10566000000E+00 0. -1.
         23    2    1    0    0    0 -0.24803240041E+02  0.14495973184E+02  0.44583090572E+01  0.96017496243E+02  0.91510377062E+02 0.  0.
         13    1    3    3    0    0 -0.22941898520E+01 -0.20910296759E+02 -0.33422267973E+02  0.39491302563E+02  0.10566000000E+00 0.  1.
         22    1    1    0    0    0  0.24803240041E+02 -0.14495973184E+02 -0.44583090572E+01  0.29072503757E+02  0.00000000000E+00 0. -1.
</event>
<event>
 5    1  0.1255769E-009  0.9118800E+02  0.7561462E-02  0.1125453E+00
         25   -1    0    0    0    0  0.00000000000E+00  0.00000000000E+00  0.99999998245E-14  0.12509000000E+03  0.12509000000E+03 0.  0.
        -13    1    3    3    0    0 -0.13028434169E+02  0.32136347897E+02  0.62215980728E+01  0.35230730899E+02  0.10566000000E+00 0. -1.
         23    2    1    0    0    0  0.48747073000E+01 -0.16862027313E+02 -0.23875259396E+02  0.95456931519E+02  0.90740878481E+02 0.  0.
         13    1    3    3    0    0  0.17903141469E+02 -0.48998375210E+02 -0.30096857469E+02  0.60226200620E+02  0.10566000000E+00 0.  1.
         22    1    1    0    0    0 -0.48747073000E+01  0.16862027313E+02  0.23875259396E+02  0.29633068481E+02  0.00000000000E+00 0.  1.
</event>
<event>
 5    1  0.1255769E-009  0.9118800E+02  0.7561462E-02  0.1125453E+00
         25   -1    0    0    0    0  0.00000000000E+00  0.00000000000E+00  0.99999998245E-14  0.12509000000E+03  0.12509000000E+03 0.  0.
        -13    1    3    3    0    0 -0.28574850681E+02 -0.58925531243E+01  0.28053756607E+02  0.40475532085E+02  0.10566000000E+00 0.  1.
         23    2    1    0    0    0  0.18283348549E+02 -0.22529481055E+02  0.37099139885E+01  0.95838986128E+02  0.91266036670E+02 0.  0.
         13    1    3    3    0    0  0.46858199230E+02 -0.16636927931E+02 -0.24343842618E+02  0.55363454043E+02  0.10566000000E+00 0. -1.
         22    1    1    0    0    0 -0.18283348549E+02  0.22529481055E+02 -0.37099139885E+01  0.29251013872E+02  0.00000000000E+00 0. -1.
</event>
<event>
 5    1  0.1255769E-009  0.9118800E+02  0.7561462E-02  0.1125453E+00
         25   -1    0    0    0    0  0.00000000000E+00  0.00000000000E+00  0.99999998245E-14  0.12509000000E+03  0.12509000000E+03 0.  0.
        -13    1    3    3    0    0  0.54879796593E+02 -0.21586899552E+02 -0.17002641145E+02  0.61374972719E+02  0.10566000000E+00 0.  1.
         23    2    1    0    0    0  0.24650328002E+02 -0.18482191306E+02 -0.11168389845E+02  0.92318625330E+02  0.86306231437E+02 0.  0.
         13    1    3    3    0    0 -0.30229468591E+02  0.31047082461E+01  0.58342512994E+01  0.30943652610E+02  0.10566000000E+00 0. -1.
         22    1    1    0    0    0 -0.24650328002E+02  0.18482191306E+02  0.11168389845E+02  0.32771374670E+02  0.00000000000E+00 0.  1.
</event>
<event>
 5    1  0.1255769E-009  0.9118800E+02  0.7561462E-02  0.1125453E+00
         25   -1    0    0    0    0  0.00000000000E+00  0.00000000000E+00  0.99999998245E-14  0.12509000000E+03  0.12509000000E+03 0.  0.
        -13    1    3    3    0    0 -0.14169731459E+01  0.88085819361E+01  0.42388936389E+02  0.43317802586E+02  0.10566000000E+00 0. -1.
         23    2    1    0    0    0 -0.37629303431E+01 -0.28966545007E+02  0.71800663920E+01  0.95010543094E+02  0.90123413002E+02 0.  0.
         13    1    3    3    0    0 -0.23459571972E+01 -0.37775126943E+02 -0.35208869997E+02  0.51692740508E+02  0.10566000000E+00 0.  1.
         22    1    1    0    0    0  0.37629303431E+01  0.28966545007E+02 -0.71800663920E+01  0.30079456906E+02  0.00000000000E+00 0.  1.
</event>
<event>
 5    1  0.1255769E-009  0.9118800E+02  0.7561462E-02  0.1125453E+00
         25   -1    0    0    0    0  0.00000000000E+00  0.00000000000E+00  0.99999998245E-14  0.12509000000E+03  0.12509000000E+03 0.  0.
        -13    1    3    3    0    0 -0.34577931713E+02  0.24095835674E+02  0.23548484735E+01  0.42211362614E+02  0.10566000000E+00 0.  1.
         23    2    1    0    0    0 -0.21088403123E+02 -0.22693592820E+02 -0.10156534644E+02  0.92488234751E+02  0.86551709805E+02 0.  0.
         13    1    3    3    0    0  0.13489528590E+02 -0.46789428494E+02 -0.12511383118E+02  0.50276872137E+02  0.10566000000E+00 0. -1.
         22    1    1    0    0    0  0.21088403123E+02  0.22693592820E+02  0.10156534644E+02  0.32601765249E+02  0.00000000000E+00 0. -1.
</event>
<event>
 5    1  0.1255769E-009  0.9118800E+02  0.7561462E-02  0.1125453E+00
         25   -1    0    0    0    0  0.00000000000E+00  0.00000000000E+00  0.99999998245E-14  0.12509000000E+03  0.12509000000E+03 0.  0.
        -13    1    3    3    0    0 -0.48426970993E+02  0.18641600653E+02 -0.87366577262E+01  0.52621489401E+02  0.10566000000E+00 0.  1.
         23    2    1    0    0    0 -0.91800271555E+01  0.27590724943E+02  0.58355979726E+01  0.95432366831E+02  0.90707008736E+02 0.  0.
         13    1    3    3    0    0  0.39246943838E+02  0.89491242899E+01  0.14572255699E+02  0.42810877430E+02  0.10566000000E+00 0. -1.
         22    1    1    0    0    0  0.91800271555E+01 -0.27590724943E+02 -0.58355979726E+01  0.29657633169E+02  0.00000000000E+00 0.  1.
</event>
<event>
 5    1  0.1255769E-009  0.9118800E+02  0.7561462E-02  0.1125453E+00
         25   -1    0    0    0    0  0.00000000000E+00  0.00000000000E+00  0.99999998245E-14  0.12509000000E+03  0.12509000000E+03 0.  0.
        -13    1    3    3    0    0 -0.30463727600E+02 -0.15042049498E+02  0.26659767410E+02  0.43186297766E+02  0.10566000000E+00 0. -1.
         23    2    1    0    0    0  0.22553013630E+01 -0.30260411336E+02 -0.85095716553E+01  0.93575056112E+02  0.88108452706E+02 0.  0.
         13    1    3    3    0    0  0.32719028963E+02 -0.15218361838E+02 -0.35169339065E+02  0.50388758346E+02  0.10566000000E+00 0.  1.
         22    1    1    0    0    0 -0.22553013630E+01  0.30260411336E+02  0.85095716553E+01  0.31514943888E+02  0.00000000000E+00 0.  1.
</event>
<event>
 5    1  0.1255769E-009  0.9118800E+02  0.7561462E-02  0.1125453E+00
         25   -1    0    0    0    0  0.00000000000E+00  0.00000000000E+00  0.99999998245E-14  0.12509000000E+03  0.12509000000E+03 0.  0.
        -13    1    3    3    0    0  0.12358790132E+02  0.24529604450E+01  0.58128315200E+02  0.59478306133E+02  0.10566000000E+00 0.  1.
         23    2    1    0    0    0 -0.78579542871E+01 -0.85328010526E+00  0.28606984252E+02  0.95411134110E+02  0.90677722907E+02 0.  0.
         13    1    3    3    0    0 -0.20216744419E+02 -0.33062405502E+01 -0.29521330948E+02  0.35932827977E+02  0.10566000000E+00 0. -1.
         22    1    1    0    0    0  0.78579542871E+01  0.85328010526E+00 -0.28606984252E+02  0.29678865890E+02  0.00000000000E+00 0.  1.
</event>
<event>
 5    1  0.1255769E-009  0.9118800E+02  0.7561462E-02  0.1125453E+00
         25   -1    0    0    0    0  0.00000000000E+00  0.00000000000E+00  0.99999998245E-14  0.12509000000E+03  0.12509000000E+03 0.  0.
        -13    1    3    3    0    0  0.19900223083E+02 -0.48091223718E+02 -0.20339189593E+02  0.55879141679E+02  0.10566000000E+00 0.  1.
         23    2    1    0    0    0  0.55680196628E+01 -0.20283978745E+02  0.11999963494E+02  0.10087344036E+03  0.97923486511E+02 0.  0.
         13    1    3    3    0    0 -0.14332203420E+02  0.27807244973E+02  0.32339153086E+02  0.44994298686E+02  0.10566000000E+00 0. -1.
         22    1    1    0    0    0 -0.55680196628E+01  0.20283978745E+02 -0.11999963494E+02  0.24216559635E+02  0.00000000000E+00 0. -1.
</event>
<event>
 5    1  0.1255769E-009  0.9118800E+02  0.7561462E-02  0.1125453E+00
         25   -1    0    0    0    0  0.00000000000E+00  0.00000000000E+00  0.99999998245E-14  0.12509000000E+03  0.12509000000E+03 0.  0.
        -13    1    3    3    0    0 -0.20885903087E+02  0.38230945062E+01  0.45886593662E+02  0.50561127770E+02  0.10566000000E+00 0.  1.
         23    2    1    0    0    0  0.17869783012E+02  0.37389356853E+01  0.23546939917E+02  0.95294578131E+02  0.90516791021E+02 0.  0.
         13    1    3    3    0    0  0.38755686099E+02 -0.84158820969E-01 -0.22339653746E+02  0.44733450361E+02  0.10566000000E+00 0. -1.
         22    1    1    0    0    0 -0.17869783012E+02 -0.37389356853E+01 -0.23546939917E+02  0.29795421869E+02  0.00000000000E+00 0. -1.
</event>
<event>
 5    1  0.1255769E-009  0.9118800E+02  0.7561462E-02  0.1125453E+00
         25   -1    0    0    0    0  0.00000000000E+00  0.00000000000E+00  0.99999998245E-14  0.12509000000E+03  0.12509000000E+03 0.  0.
        -13    1    3    3    0    0 -0.79376464035E+01  0.58731093708E+02 -0.41724953091E+00  0.59266625176E+02  0.10566000000E+00 0. -1.
         23    2    1    0    0    0 -0.32963555215E+01  0.33626360049E+02  0.13920085937E+02  0.88547328472E+02  0.80655207750E+02 0.  0.
         13    1    3    3    0    0  0.46412908820E+01 -0.25104733659E+02  0.14337335468E+02  0.29280703296E+02  0.10566000000E+00 0.  1.
         22    1    1    0    0    0  0.32963555215E+01 -0.33626360049E+02 -0.13920085937E+02  0.36542671528E+02  0.00000000000E+00 0. -1.
</event>
<event>
 5    1  0.1255769E-009  0.9118800E+02  0.7561462E-02  0.1125453E+00
         25   -1    0    0    0    0  0.00000000000E+00  0.00000000000E+00  0.99999998245E-14  0.12509000000E+03  0.12509000000E+03 0.  0.
        -13    1    3    3    0    0 -0.55378917401E+02  0.24464201141E+01  0.10976754066E+02  0.56509377609E+02  0.10566000000E+00 0. -1.
         23    2    1    0    0    0 -0.21191714007E+02  0.19730896732E+02  0.89972178733E+00  0.96120938440E+02  0.91651668173E+02 0.  0.
         13    1    3    3    0    0  0.34187203394E+02  0.17284476618E+02 -0.10077032279E+02  0.39611560831E+02  0.10566000000E+00 0.  1.
         22    1    1    0    0    0  0.21191714007E+02 -0.19730896732E+02 -0.89972178733E+00  0.28969061560E+02  0.00000000000E+00 0. -1.
</event>
<event>
 5    1  0.1255769E-009  0.9118800E+02  0.7561462E-02  0.1125453E+00
         25   -1    0    0    0    0  0.00000000000E+00  0.00000000000E+00  0.99999998245E-14  0.12509000000E+03  0.12509000000E+03 0.  0.
        -13    1    3    3    0    0 -0.46707921132E+02  0.17816539089E+02 -0.51930207436E+01  0.50259701453E+02  0.10566000000E+00 0.  1.
         23    2    1    0    0    0 -0.21715644564E+02 -0.19621320149E+02  0.15814945809E+01  0.95780162943E+02  0.91185377474E+02 0.  0.
         13    1    3    3    0    0  0.24992276569E+02 -0.37437859238E+02  0.67745153245E+01  0.45520461491E+02  0.10566000000E+00 0. -1.
         22    1    1    0    0    0  0.21715644564E+02  0.19621320149E+02 -0.15814945809E+01  0.29309837057E+02  0.00000000000E+00 0.  1.
</event>
<event>
 5    1  0.1255769E-009  0.9118800E+02  0.7561462E-02  0.1125453E+00
         25   -1    0    0    0    0  0.00000000000E+00  0.00000000000E+00  0.99999998245E-14  0.12509000000E+03  0.12509000000E+03 0.  0.
        -13    1    3    3    0    0  0.56380573718E+01  0.22969248720E+02 -0.23523806892E+02  0.33357978542E+02  0.10566000000E+00 0.  1.
         23    2    1    0    0    0 -0.56953514571E+01 -0.27360366109E+02  0.10586853578E+02  0.95205085235E+02  0.90393031391E+02 0.  0.
         13    1    3    3    0    0 -0.11333408829E+02 -0.50329614829E+02  0.34110660470E+02  0.61847106693E+02  0.10566000000E+00 0. -1.
         22    1    1    0    0    0  0.56953514571E+01  0.27360366109E+02 -0.10586853578E+02  0.29884914765E+02  0.00000000000E+00 0. -1.
</event>
<event>
 5    1  0.1255769E-009  0.9118800E+02  0.7561462E-02  0.1125453E+00
         25   -1    0    0    0    0  0.00000000000E+00  0.00000000000E+00  0.99999998245E-14  0.12509000000E+03  0.12509000000E+03 0.  0.
        -13    1    3    3    0    0 -0.17592768952E+02 -0.14639284562E+02  0.33537996318E+02  0.40603233036E+02  0.10566000000E+00 0.  1.
         23    2    1    0    0    0 -0.20327193876E+02  0.25680831958E+01 -0.19728520436E+02  0.96646997684E+02  0.92366865166E+02 0.  0.
         13    1    3    3    0    0 -0.27344249237E+01  0.17207367758E+02 -0.53266516754E+02  0.56043764648E+02  0.10566000000E+00 0. -1.
         22    1    1    0    0    0  0.20327193876E+02 -0.25680831958E+01  0.19728520436E+02  0.28443002316E+02  0.00000000000E+00 0. -1.
</event>
<event>
 5    1  0.1255769E-009  0.9118800E+02  0.7561462E-02  0.1125453E+00
         25   -1    0    0    0    0  0.00000000000E+00  0.00000000000E+00  0.99999998245E-14  0.12509000000E+03  0.12509000000E+03 0.  0.
        -13    1    3    3    0    0  0.29509930634E+02 -0.32993126848E+02  0.33435762529E+02  0.55473811886E+02  0.10566000000E+00 0. -1.
         23    2    1    0    0    0  0.31315054352E+00 -0.29454343211E+02  0.74819784635E+01  0.94698613079E+02  0.89689413645E+02 0.  0.
         13    1    3    3    0    0 -0.29196780090E+02  0.35387836366E+01 -0.25953784066E+02  0.39224801193E+02  0.10566000000E+00 0.  1.
         22    1    1    0    0    0 -0.31315054352E+00  0.29454343211E+02 -0.74819784635E+01  0.30391386921E+02  0.00000000000E+00 0. -1.
</event>
<event>
 4    1  0.1255769E-009  0.9118800E+02  0.7561462E-02  0.1125453E+00
         25   -1    0    0    0    0  0.00000000000E+00  0.00000000000E+00  0.99999998245E-14  0.12509000000E+03  0.12509000000E+03 0.  0.
        -13    1    1    0    0    0 -0.10039336786E+02 -0.12979429674E+02  0.48873114121E+00  0.16416573940E+02  0.10566000000E+00 0.  1.
         13    1    1    0    0    0  0.49944470301E+02 -0.18427659729E+02  0.15478356576E+02  0.55440233071E+02  0.10566000000E+00 0. -1.
         22    1    1    0    0    0 -0.39905133515E+02  0.31407089403E+02 -0.15967087717E+02  0.53233192988E+02  0.00000000000E+00 0. -1.
</event>
<event>
 5    1  0.1255769E-009  0.9118800E+02  0.7561462E-02  0.1125453E+00
         25   -1    0    0    0    0  0.00000000000E+00  0.00000000000E+00  0.99999998245E-14  0.12509000000E+03  0.12509000000E+03 0.  0.
        -13    1    3    3    0    0  0.56485572781E+01  0.33213496695E+02 -0.50011970849E+02  0.60301334598E+02  0.10566000000E+00 0.  1.
         23    2    1    0    0    0  0.86171893485E+01  0.54237932820E+01 -0.26069626612E+02  0.97102522130E+02  0.92981723400E+02 0.  0.
         13    1    3    3    0    0  0.29686320704E+01 -0.27789703413E+02  0.23942344237E+02  0.36801187532E+02  0.10566000000E+00 0. -1.
         22    1    1    0    0    0 -0.86171893485E+01 -0.54237932820E+01  0.26069626612E+02  0.27987477870E+02  0.00000000000E+00 0.  1.
</event>
<event>
 5    1  0.1255769E-009  0.9118800E+02  0.7561462E-02  0.1125453E+00
         25   -1    0    0    0    0  0.00000000000E+00  0.00000000000E+00  0.99999998245E-14  0.12509000000E+03  0.12509000000E+03 0.  0.
        -13    1    3    3    0    0 -0.43662930580E+02 -0.16772751040E+02  0.34902382622E+02  0.58360638799E+02  0.10566000000E+00 0.  1.
         23    2    1    0    0    0 -0.87132705008E+01 -0.75644112984E+01  0.27519251675E+02  0.95249580870E+02  0.90454585522E+02 0.  0.
         13    1    3    3    0    0  0.34949660080E+02  0.92083397414E+01 -0.73831309468E+01  0.36888942071E+02  0.10566000000E+00 0. -1.
         22    1    1    0    0    0  0.87132705008E+01  0.75644112984E+01 -0.27519251675E+02  0.29840419130E+02  0.00000000000E+00 0.  1.
</event>
<event>
 5    1  0.1255769E-009  0.9118800E+02  0.7561462E-02  0.1125453E+00
         25   -1    0    0    0    0  0.00000000000E+00  0.00000000000E+00  0.99999998245E-14  0.12509000000E+03  0.12509000000E+03 0.  0.
        -13    1    3    3    0    0 -0.23510373624E+02  0.65108038030E+01  0.11817019343E+02  0.27106850505E+02  0.10566000000E+00 0.  1.
         23    2    1    0    0    0  0.25167334372E+02  0.79606601283E+00 -0.25912012048E+02  0.88958838811E+02  0.81290923194E+02 0.  0.
         13    1    3    3    0    0  0.48677707996E+02 -0.57147377902E+01 -0.37729031391E+02  0.61851988306E+02  0.10566000000E+00 0. -1.
         22    1    1    0    0    0 -0.25167334372E+02 -0.79606601283E+00  0.25912012048E+02  0.36131161189E+02  0.00000000000E+00 0. -1.
</event>
<event>
 5    1  0.1255769E-009  0.9118800E+02  0.7561462E-02  0.1125453E+00
         25   -1    0    0    0    0  0.00000000000E+00  0.00000000000E+00  0.99999998245E-14  0.12509000000E+03  0.12509000000E+03 0.  0.
        -13    1    3    3    0    0 -0.50887782630E+02 -0.22951446270E+02  0.29692250848E+00  0.55825035905E+02  0.10566000000E+00 0.  1.
         23    2    1    0    0    0 -0.16617126723E+02 -0.25390592080E+02  0.12480498115E+02  0.92278814409E+02  0.86248511226E+02 0.  0.
         13    1    3    3    0    0  0.34270655907E+02 -0.24391458105E+01  0.12183575606E+02  0.36453778503E+02  0.10566000000E+00 0. -1.
         22    1    1    0    0    0  0.16617126723E+02  0.25390592080E+02 -0.12480498115E+02  0.32811185591E+02  0.00000000000E+00 0.  1.
</event>
<event>
 5    1  0.1255769E-009  0.9118800E+02  0.7561462E-02  0.1125453E+00
         25   -1    0    0    0    0  0.00000000000E+00  0.00000000000E+00  0.99999998245E-14  0.12509000000E+03  0.12509000000E+03 0.  0.
        -13    1    3    3    0    0 -0.39477173857E+02 -0.12489400885E+02  0.42020770745E+02  0.58993124415E+02  0.10566000000E+00 0.  1.
         23    2    1    0    0    0 -0.20470182091E+02 -0.15517056410E+02  0.78172245973E+01  0.98240113690E+02  0.94499754195E+02 0.  0.
         13    1    3    3    0    0  0.19006991766E+02 -0.30276555253E+01 -0.34203546148E+02  0.39246989274E+02  0.10566000000E+00 0. -1.
         22    1    1    0    0    0  0.20470182091E+02  0.15517056410E+02 -0.78172245973E+01  0.26849886310E+02  0.00000000000E+00 0.  1.
</event>
<event>
 5    1  0.1255769E-009  0.9118800E+02  0.7561462E-02  0.1125453E+00
         25   -1    0    0    0    0  0.00000000000E+00  0.00000000000E+00  0.99999998245E-14  0.12509000000E+03  0.12509000000E+03 0.  0.
        -13    1    3    3    0    0 -0.23949126636E+02 -0.19117699782E+02 -0.17325684825E+02  0.35202807136E+02  0.10566000000E+00 0.  1.
         23    2    1    0    0    0  0.10628832963E+02 -0.84166261121E+01  0.28458657396E+02  0.93566883625E+02  0.88096849235E+02 0.  0.
         13    1    3    3    0    0  0.34577959599E+02  0.10701073670E+02  0.45784342220E+02  0.58364076488E+02  0.10566000000E+00 0. -1.
         22    1    1    0    0    0 -0.10628832963E+02  0.84166261121E+01 -0.28458657396E+02  0.31523116375E+02  0.00000000000E+00 0. -1.
</event>
<event>
 5    1  0.1255769E-009  0.9118800E+02  0.7561462E-02  0.1125453E+00
         25   -1    0    0    0    0  0.00000000000E+00  0.00000000000E+00  0.99999998245E-14  0.12509000000E+03  0.12509000000E+03 0.  0.
        -13    1    3    3    0    0 -0.22127887420E+02  0.39559997582E+02 -0.12969876470E+02  0.47147276379E+02  0.10566000000E+00 0.  1.
         23    2    1    0    0    0  0.14394800507E+02  0.78749273293E+01 -0.23302408709E+02  0.96590403271E+02  0.92290189025E+02 0.  0.
         13    1    3    3    0    0  0.36522687927E+02 -0.31685070252E+02 -0.10332532239E+02  0.49443126891E+02  0.10566000000E+00 0. -1.
         22    1    1    0    0    0 -0.14394800507E+02 -0.78749273293E+01  0.23302408709E+02  0.28499596729E+02  0.00000000000E+00 0. -1.
</event>
<event>
 5    1  0.1255769E-009  0.9118800E+02  0.7561462E-02  0.1125453E+00
         25   -1    0    0    0    0  0.00000000000E+00  0.00000000000E+00  0.99999998245E-14  0.12509000000E+03  0.12509000000E+03 0.  0.
        -13    1    3    3    0    0 -0.41756624720E+02  0.69008773650E+01 -0.43798741475E+01  0.42549174822E+02  0.10566000000E+00 0.  1.
         23    2    1    0    0    0 -0.22076141984E+01 -0.28111471401E+02  0.56969722383E+01  0.96322242397E+02  0.91926005586E+02 0.  0.
         13    1    3    3    0    0  0.39549010522E+02 -0.35012348766E+02  0.10076846386E+02  0.53773067576E+02  0.10566000000E+00 0. -1.
         22    1    1    0    0    0  0.22076141984E+01  0.28111471401E+02 -0.56969722383E+01  0.28767757603E+02  0.00000000000E+00 0. -1.
</event>
<event>
 5    1  0.1255769E-009  0.9118800E+02  0.7561462E-02  0.1125453E+00
         25   -1    0    0    0    0  0.00000000000E+00  0.00000000000E+00  0.99999998245E-14  0.12509000000E+03  0.12509000000E+03 0.  0.
        -13    1    3    3    0    0 -0.39811357179E+02 -0.34831941085E+02 -0.21006418871E+02  0.56916509714E+02  0.10566000000E+00 0.  1.
         23    2    1    0    0    0 -0.13550283681E+02 -0.22137003763E+02  0.78770363804E+01  0.97966120750E+02  0.94136369110E+02 0.  0.
         13    1    3    3    0    0  0.26261073498E+02  0.12694937323E+02  0.28883455252E+02  0.41049611036E+02  0.10566000000E+00 0. -1.
         22    1    1    0    0    0  0.13550283681E+02  0.22137003763E+02 -0.78770363804E+01  0.27123879250E+02  0.00000000000E+00 0.  1.
</event>
<event>
 5    1  0.1255769E-009  0.9118800E+02  0.7561462E-02  0.1125453E+00
         25   -1    0    0    0    0  0.00000000000E+00  0.00000000000E+00  0.99999998245E-14  0.12509000000E+03  0.12509000000E+03 0.  0.
        -13    1    3    3    0    0 -0.38479417527E+02  0.48792343430E+01  0.15799033878E+02  0.41881895092E+02  0.10566000000E+00 0.  1.
         23    2    1    0    0    0  0.12447022745E+02 -0.21023480629E+02  0.68678978497E+01  0.99711207006E+02  0.96427390656E+02 0.  0.
         13    1    3    3    0    0  0.50926440272E+02 -0.25902714972E+02 -0.89311360285E+01  0.57829311914E+02  0.10566000000E+00 0. -1.
         22    1    1    0    0    0 -0.12447022745E+02  0.21023480629E+02 -0.68678978497E+01  0.25378792994E+02  0.00000000000E+00 0. -1.
</event>
<event>
 5    1  0.1255769E-009  0.9118800E+02  0.7561462E-02  0.1125453E+00
         25   -1    0    0    0    0  0.00000000000E+00  0.00000000000E+00  0.99999998245E-14  0.12509000000E+03  0.12509000000E+03 0.  0.
        -13    1    3    3    0    0 -0.97978072760E+01 -0.19312284072E+02  0.33654364206E+02  0.40019854294E+02  0.10566000000E+00 0.  1.
         23    2    1    0    0    0 -0.25023035799E+02  0.74250589003E+01 -0.13018520372E+02  0.95922111956E+02  0.91379898605E+02 0.  0.
         13    1    3    3    0    0 -0.15225228523E+02  0.26737342973E+02 -0.46672884579E+02  0.55902257662E+02  0.10566000000E+00 0. -1.
         22    1    1    0    0    0  0.25023035799E+02 -0.74250589003E+01  0.13018520372E+02  0.29167888044E+02  0.00000000000E+00 0. -1.
</event>
<event>
 5    1  0.1255769E-009  0.9118800E+02  0.7561462E-02  0.1125453E+00
         25   -1    0    0    0    0  0.00000000000E+00  0.00000000000E+00  0.99999998245E-14  0.12509000000E+03  0.12509000000E+03 0.  0.
        -13    1    3    3    0    0 -0.43132271455E+02  0.29405110869E+02 -0.28655443548E+02  0.59549970572E+02  0.10566000000E+00 0. -1.
         23    2    1    0    0    0 -0.21950879046E+02  0.52407555745E+01 -0.24214942327E+02  0.91989093037E+02  0.85827287012E+02 0.  0.
         13    1    3    3    0    0  0.21181392409E+02 -0.24164355295E+02  0.44405012209E+01  0.32439122465E+02  0.10566000000E+00 0.  1.
         22    1    1    0    0    0  0.21950879046E+02 -0.52407555745E+01  0.24214942327E+02  0.33100906963E+02  0.00000000000E+00 0. -1.
</event>
<event>
 5    1  0.1255769E-009  0.9118800E+02  0.7561462E-02  0.1125453E+00
         25   -1    0    0    0    0  0.00000000000E+00  0.00000000000E+00  0.99999998245E-14  0.12509000000E+03  0.12509000000E+03 0.  0.
        -13    1    3    3    0    0  0.47016739241E+02  0.17291901713E+01  0.13962950357E+02  0.49076868423E+02  0.10566000000E+00 0.  1.
         23    2    1    0    0    0  0.18104347551E+02  0.73357227082E+01 -0.22071607475E+02  0.95615670755E+02  0.90959443762E+02 0.  0.
         13    1    3    3    0    0 -0.28912391690E+02  0.56065325368E+01 -0.36034557832E+02  0.46538802332E+02  0.10566000000E+00 0. -1.
         22    1    1    0    0    0 -0.18104347551E+02 -0.73357227082E+01  0.22071607475E+02  0.29474329245E+02  0.00000000000E+00 0.  1.
</event>
<event>
 5    1  0.1255769E-009  0.9118800E+02  0.7561462E-02  0.1125453E+00
         25   -1    0    0    0    0  0.00000000000E+00  0.00000000000E+00  0.99999998245E-14  0.12509000000E+03  0.12509000000E+03 0.  0.
        -13    1    3    3    0    0 -0.39666093647E+02 -0.45874343564E+02  0.28062922166E+01  0.60710302443E+02  0.10566000000E+00 0.  1.
         23    2    1    0    0    0 -0.16669733624E+02 -0.24648501229E+02  0.11497553902E+02  0.93189805993E+02  0.87559794218E+02 0.  0.
         13    1    3    3    0    0  0.22996360023E+02  0.21225842336E+02  0.86912616857E+01  0.32479503550E+02  0.10566000000E+00 0. -1.
         22    1    1    0    0    0  0.16669733624E+02  0.24648501229E+02 -0.11497553902E+02  0.31900194007E+02  0.00000000000E+00 0.  1.
</event>
<event>
 5    1  0.1255769E-009  0.9118800E+02  0.7561462E-02  0.1125453E+00
         25   -1    0    0    0    0  0.00000000000E+00  0.00000000000E+00  0.99999998245E-14  0.12509000000E+03  0.12509000000E+03 0.  0.
        -13    1    3    3    0    0  0.50907744169E+02  0.22720058369E+00 -0.33905180427E+01  0.51021140845E+02  0.10566000000E+00 0. -1.
         23    2    1    0    0    0  0.12632171883E+02 -0.24925500280E+02  0.16463681177E+01  0.97097807183E+02  0.92975380080E+02 0.  0.
         13    1    3    3    0    0 -0.38275572286E+02 -0.25152700864E+02  0.50368861604E+01  0.46076666338E+02  0.10566000000E+00 0.  1.
         22    1    1    0    0    0 -0.12632171883E+02  0.24925500280E+02 -0.16463681177E+01  0.27992192817E+02  0.00000000000E+00 0. -1.
</event>
<event>
 5    1  0.1255769E-009  0.9118800E+02  0.7561462E-02  0.1125453E+00
         25   -1    0    0    0    0  0.00000000000E+00  0.00000000000E+00  0.99999998245E-14  0.12509000000E+03  0.12509000000E+03 0.  0.
        -13    1    3    3    0    0 -0.26231405950E+02 -0.50228413064E+02  0.89159603831E+00  0.56672623414E+02  0.10566000000E+00 0.  1.
         23    2    1    0    0    0 -0.21642714372E+02 -0.13623164813E+02 -0.13378899532E+02  0.96228387820E+02  0.91798202405E+02 0.  0.
         13    1    3    3    0    0  0.45886915782E+01  0.36605248251E+02 -0.14270495571E+02  0.39555764406E+02  0.10566000000E+00 0. -1.
         22    1    1    0    0    0  0.21642714372E+02  0.13623164813E+02  0.13378899532E+02  0.28861612180E+02  0.00000000000E+00 0.  1.
</event>
<event>
 5    1  0.1255769E-009  0.9118800E+02  0.7561462E-02  0.1125453E+00
         25   -1    0    0    0    0  0.00000000000E+00  0.00000000000E+00  0.99999998245E-14  0.12509000000E+03  0.12509000000E+03 0.  0.
        -13    1    3    3    0    0 -0.22524780551E+02  0.26725788573E+02 -0.35892684926E+02  0.50099196689E+02  0.10566000000E+00 0. -1.
         23    2    1    0    0    0  0.52747613550E+01  0.27821641963E+02  0.15310320177E+01  0.96731387060E+02  0.92481080847E+02 0.  0.
         13    1    3    3    0    0  0.27799541906E+02  0.10958533898E+01  0.37423716944E+02  0.46632190370E+02  0.10566000000E+00 0.  1.
         22    1    1    0    0    0 -0.52747613550E+01 -0.27821641963E+02 -0.15310320177E+01  0.28358612940E+02  0.00000000000E+00 0. -1.
</event>
<event>
 5    1  0.1255769E-009  0.9118800E+02  0.7561462E-02  0.1125453E+00
         25   -1    0    0    0    0  0.00000000000E+00  0.00000000000E+00  0.99999998245E-14  0.12509000000E+03  0.12509000000E+03 0.  0.
        -13    1    3    3    0    0  0.49381384625E+02  0.25585695011E+02 -0.25849080506E+01  0.55676223385E+02  0.10566000000E+00 0. -1.
         23    2    1    0    0    0  0.19637886940E+02  0.16507209587E+01 -0.19438801757E+02  0.97408986707E+02  0.93393105711E+02 0.  0.
         13    1    3    3    0    0 -0.29743497685E+02 -0.23934974053E+02 -0.16853893707E+02  0.41732763322E+02  0.10566000000E+00 0.  1.
         22    1    1    0    0    0 -0.19637886940E+02 -0.16507209587E+01  0.19438801757E+02  0.27681013293E+02  0.00000000000E+00 0. -1.
</event>
<event>
 5    1  0.1255769E-009  0.9118800E+02  0.7561462E-02  0.1125453E+00
         25   -1    0    0    0    0  0.00000000000E+00  0.00000000000E+00  0.99999998245E-14  0.12509000000E+03  0.12509000000E+03 0.  0.
        -13    1    3    3    0    0 -0.28274956177E+02  0.43414116164E+02  0.86540592142E+00  0.51817166273E+02  0.10566000000E+00 0. -1.
         23    2    1    0    0    0 -0.35879541377E+02  0.13696457594E+02  0.12615791674E+02  0.84666088269E+02  0.74392565913E+02 0.  0.
         13    1    3    3    0    0 -0.76045851996E+01 -0.29717658570E+02  0.11750385753E+02  0.32848921996E+02  0.10566000000E+00 0.  1.
         22    1    1    0    0    0  0.35879541377E+02 -0.13696457594E+02 -0.12615791674E+02  0.40423911731E+02  0.00000000000E+00 0. -1.
</event>
<event>
 5    1  0.1255769E-009  0.9118800E+02  0.7561462E-02  0.1125453E+00
         25   -1    0    0    0    0  0.00000000000E+00  0.00000000000E+00  0.99999998245E-14  0.12509000000E+03  0.12509000000E+03 0.  0.
        -13    1    3    3    0    0 -0.12423346923E+02 -0.66732519073E+01  0.49661561475E+02  0.51625126556E+02  0.10566000000E+00 0.  1.
         23    2    1    0    0    0 -0.25035318729E+02 -0.14071644110E+02  0.87555106400E+01  0.95066054250E+02  0.90200428782E+02 0.  0.
         13    1    3    3    0    0 -0.12611971806E+02 -0.73983922025E+01 -0.40906050835E+02  0.43440927694E+02  0.10566000000E+00 0. -1.
         22    1    1    0    0    0  0.25035318729E+02  0.14071644110E+02 -0.87555106400E+01  0.30023945750E+02  0.00000000000E+00 0.  1.
</event>
<event>
 5    1  0.1255769E-009  0.9118800E+02  0.7561462E-02  0.1125453E+00
         25   -1    0    0    0    0  0.00000000000E+00  0.00000000000E+00  0.99999998245E-14  0.12509000000E+03  0.12509000000E+03 0.  0.
        -13    1    3    3    0    0 -0.45473725752E+02  0.28281557002E+02  0.21519077402E+02  0.57712979966E+02  0.10566000000E+00 0.  1.
         23    2    1    0    0    0 -0.31079571173E+02  0.22513529327E+01  0.88117135981E+00  0.93916536970E+02  0.88591935971E+02 0.  0.
         13    1    3    3    0    0  0.14394154579E+02 -0.26030204069E+02 -0.20637906042E+02  0.36203557004E+02  0.10566000000E+00 0. -1.
         22    1    1    0    0    0  0.31079571173E+02 -0.22513529327E+01 -0.88117135981E+00  0.31173463030E+02  0.00000000000E+00 0.  1.
</event>
<event>
 5    1  0.1255769E-009  0.9118800E+02  0.7561462E-02  0.1125453E+00
         25   -1    0    0    0    0  0.00000000000E+00  0.00000000000E+00  0.99999998245E-14  0.12509000000E+03  0.12509000000E+03 0.  0.
        -13    1    3    3    0    0 -0.26916002837E+01 -0.51806513851E+02  0.30089956456E+02  0.59971461822E+02  0.10566000000E+00 0.  1.
         23    2    1    0    0    0  0.10423361108E+02 -0.20255574627E+02  0.17417691097E+02  0.96414039276E+02  0.92050835119E+02 0.  0.
         13    1    3    3    0    0  0.13114961391E+02  0.31550939224E+02 -0.12672265359E+02  0.36442577455E+02  0.10566000000E+00 0. -1.
         22    1    1    0    0    0 -0.10423361108E+02  0.20255574627E+02 -0.17417691097E+02  0.28675960724E+02  0.00000000000E+00 0.  1.
</event>
<event>
 5    1  0.1255769E-009  0.9118800E+02  0.7561462E-02  0.1125453E+00
         25   -1    0    0    0    0  0.00000000000E+00  0.00000000000E+00  0.99999998245E-14  0.12509000000E+03  0.12509000000E+03 0.  0.
        -13    1    3    3    0    0  0.84264523946E+01  0.27823399485E+02  0.22797458771E+02  0.36944308754E+02  0.10566000000E+00 0. -1.
         23    2    1    0    0    0 -0.24038443614E+02 -0.16901234739E+02  0.34299995654E+01  0.95505149078E+02  0.90807324023E+02 0.  0.
         13    1    3    3    0    0 -0.32464896008E+02 -0.44724634224E+02 -0.19367459205E+02  0.58560840324E+02  0.10566000000E+00 0.  1.
         22    1    1    0    0    0  0.24038443614E+02  0.16901234739E+02 -0.34299995654E+01  0.29584850922E+02  0.00000000000E+00 0.  1.
</event>
<event>
 5    1  0.1255769E-009  0.9118800E+02  0.7561462E-02  0.1125453E+00
         25   -1    0    0    0    0  0.00000000000E+00  0.00000000000E+00  0.99999998245E-14  0.12509000000E+03  0.12509000000E+03 0.  0.
        -13    1    3    3    0    0  0.13644963233E+01  0.50753571487E+02  0.19979026402E+02  0.54561520588E+02  0.10566000000E+00 0.  1.
         23    2    1    0    0    0 -0.20488057791E+02  0.21771935965E+02  0.18435041941E+01  0.95137100050E+02  0.90298901380E+02 0.  0.
         13    1    3    3    0    0 -0.21852554114E+02 -0.28981635522E+02 -0.18135522208E+02  0.40575579462E+02  0.10566000000E+00 0. -1.
         22    1    1    0    0    0  0.20488057791E+02 -0.21771935965E+02 -0.18435041941E+01  0.29952899950E+02  0.00000000000E+00 0.  1.
</event>
<event>
 5    1  0.1255769E-009  0.9118800E+02  0.7561462E-02  0.1125453E+00
         25   -1    0    0    0    0  0.00000000000E+00  0.00000000000E+00  0.99999998245E-14  0.12509000000E+03  0.12509000000E+03 0.  0.
        -13    1    3    3    0    0  0.12638439516E+02  0.34071235170E+02 -0.13083186255E+02  0.38623310915E+02  0.10566000000E+00 0.  1.
         23    2    1    0    0    0 -0.28870252118E+02  0.11579147404E+01 -0.16694113737E+02  0.91720468128E+02  0.85434879390E+02 0.  0.
         13    1    3    3    0    0 -0.41508691634E+02 -0.32913320429E+02 -0.36109274812E+01  0.53097157213E+02  0.10566000000E+00 0. -1.
         22    1    1    0    0    0  0.28870252118E+02 -0.11579147404E+01  0.16694113737E+02  0.33369531872E+02  0.00000000000E+00 0.  1.
</event>
<event>
 5    1  0.1255769E-009  0.9118800E+02  0.7561462E-02  0.1125453E+00
         25   -1    0    0    0    0  0.00000000000E+00  0.00000000000E+00  0.99999998245E-14  0.12509000000E+03  0.12509000000E+03 0.  0.
        -13    1    3    3    0    0  0.10299167454E+02  0.32645715826E+01 -0.38995814026E+02  0.40464984288E+02  0.10566000000E+00 0. -1.
         23    2    1    0    0    0 -0.19561555607E+02  0.20337214587E+02  0.51258178269E+01  0.96410202871E+02  0.92045621592E+02 0.  0.
         13    1    3    3    0    0 -0.29860723061E+02  0.17072643005E+02  0.44121631853E+02  0.55945218583E+02  0.10566000000E+00 0.  1.
         22    1    1    0    0    0  0.19561555607E+02 -0.20337214587E+02 -0.51258178269E+01  0.28679797129E+02  0.00000000000E+00 0.  1.
</event>
<event>
 5    1  0.1255769E-009  0.9118800E+02  0.7561462E-02  0.1125453E+00
         25   -1    0    0    0    0  0.00000000000E+00  0.00000000000E+00  0.99999998245E-14  0.12509000000E+03  0.12509000000E+03 0.  0.
        -13    1    3    3    0    0  0.11657006631E+02 -0.50526180500E+02  0.20889242470E+02  0.55903061942E+02  0.10566000000E+00 0.  1.
         23    2    1    0    0    0 -0.23633139917E+01 -0.13053299098E+02  0.25667348131E+02  0.96197325661E+02  0.91755865392E+02 0.  0.
         13    1    3    3    0    0 -0.14020320622E+02  0.37472881402E+02  0.47781056615E+01  0.40294263719E+02  0.10566000000E+00 0. -1.
         22    1    1    0    0    0  0.23633139917E+01  0.13053299098E+02 -0.25667348131E+02  0.28892674339E+02  0.00000000000E+00 0.  1.
</event>
<event>
 5    1  0.1255769E-009  0.9118800E+02  0.7561462E-02  0.1125453E+00
         25   -1    0    0    0    0  0.00000000000E+00  0.00000000000E+00  0.99999998245E-14  0.12509000000E+03  0.12509000000E+03 0.  0.
        -13    1    3    3    0    0 -0.27854760229E+02  0.83375620751E+01  0.51137376875E+02  0.58825547906E+02  0.10566000000E+00 0.  1.
         23    2    1    0    0    0 -0.20150075332E+02  0.11086157547E+02  0.11353623606E+02  0.99441740917E+02  0.96077191063E+02 0.  0.
         13    1    3    3    0    0  0.77046848972E+01  0.27485954715E+01 -0.39783753269E+02  0.40616193010E+02  0.10566000000E+00 0. -1.
         22    1    1    0    0    0  0.20150075332E+02 -0.11086157547E+02 -0.11353623606E+02  0.25648259083E+02  0.00000000000E+00 0.  1.
</event>
<event>
 5    1  0.1255769E-009  0.9118800E+02  0.7561462E-02  0.1125453E+00
         25   -1    0    0    0    0  0.00000000000E+00  0.00000000000E+00  0.99999998245E-14  0.12509000000E+03  0.12509000000E+03 0.  0.
        -13    1    3    3    0    0  0.47329384989E+02  0.25671191031E+02 -0.93217692399E+01  0.54644187964E+02  0.10566000000E+00 0.  1.
         23    2    1    0    0    0  0.98353833130E+01  0.25016894619E+02  0.94709991637E+01  0.96589480593E+02  0.92288938421E+02 0.  0.
         13    1    3    3    0    0 -0.37494001676E+02 -0.65429641205E+00  0.18792768404E+02  0.41945292630E+02  0.10566000000E+00 0. -1.
         22    1    1    0    0    0 -0.98353833130E+01 -0.25016894619E+02 -0.94709991637E+01  0.28500519407E+02  0.00000000000E+00 0.  1.
</event>
<event>
 5    1  0.1255769E-009  0.9118800E+02  0.7561462E-02  0.1125453E+00
         25   -1    0    0    0    0  0.00000000000E+00  0.00000000000E+00  0.99999998245E-14  0.12509000000E+03  0.12509000000E+03 0.  0.
        -13    1    3    3    0    0  0.37680071812E+02  0.22527741103E+02 -0.23534007049E+02  0.49811119068E+02  0.10566000000E+00 0. -1.
         23    2    1    0    0    0  0.26502590059E+02 -0.32336789224E+01  0.12594085826E+02  0.95569584065E+02  0.90896041945E+02 0.  0.
         13    1    3    3    0    0 -0.11177481753E+02 -0.25761420025E+02  0.36128092875E+02  0.45758464997E+02  0.10566000000E+00 0.  1.
         22    1    1    0    0    0 -0.26502590059E+02  0.32336789224E+01 -0.12594085826E+02  0.29520415935E+02  0.00000000000E+00 0. -1.
</event>
<event>
 5    1  0.1255769E-009  0.9118800E+02  0.7561462E-02  0.1125453E+00
         25   -1    0    0    0    0  0.00000000000E+00  0.00000000000E+00  0.99999998245E-14  0.12509000000E+03  0.12509000000E+03 0.  0.
        -13    1    3    3    0    0  0.40423362243E+02  0.46179800759E+02  0.74386759473E+01  0.61822061411E+02  0.10566000000E+00 0.  1.
         23    2    1    0    0    0  0.21187721587E+02  0.19067301249E+02 -0.23849399134E+01  0.96486338322E+02  0.92149031582E+02 0.  0.
         13    1    3    3    0    0 -0.19235640656E+02 -0.27112499511E+02 -0.98236158607E+01  0.34664276911E+02  0.10566000000E+00 0. -1.
         22    1    1    0    0    0 -0.21187721587E+02 -0.19067301249E+02  0.23849399134E+01  0.28603661678E+02  0.00000000000E+00 0.  1.
</event>
<event>
 5    1  0.1255769E-009  0.9118800E+02  0.7561462E-02  0.1125453E+00
         25   -1    0    0    0    0  0.00000000000E+00  0.00000000000E+00  0.99999998245E-14  0.12509000000E+03  0.12509000000E+03 0.  0.
        -13    1    3    3    0    0  0.32981921616E+02  0.29767221587E+02 -0.25293111943E+02  0.51123842875E+02  0.10566000000E+00 0.  1.
         23    2    1    0    0    0  0.94748511074E+01 -0.76729523658E+01 -0.27105064606E+02  0.95369106191E+02  0.90619726809E+02 0.  0.
         13    1    3    3    0    0 -0.23507070509E+02 -0.37440173952E+02 -0.18119526628E+01  0.44245263317E+02  0.10566000000E+00 0. -1.
         22    1    1    0    0    0 -0.94748511074E+01  0.76729523658E+01  0.27105064606E+02  0.29720893809E+02  0.00000000000E+00 0.  1.
</event>
<event>
 5    1  0.1255769E-009  0.9118800E+02  0.7561462E-02  0.1125453E+00
         25   -1    0    0    0    0  0.00000000000E+00  0.00000000000E+00  0.99999998245E-14  0.12509000000E+03  0.12509000000E+03 0.  0.
        -13    1    3    3    0    0 -0.48120876772E+02 -0.25033848394E+02 -0.16783971786E+02  0.56780500347E+02  0.10566000000E+00 0.  1.
         23    2    1    0    0    0 -0.91395264739E+01 -0.13496613658E+02 -0.21938474193E+02  0.97758952191E+02  0.93860676320E+02 0.  0.
         13    1    3    3    0    0  0.38981350299E+02  0.11537234735E+02 -0.51545024066E+01  0.40978451844E+02  0.10566000000E+00 0. -1.
         22    1    1    0    0    0  0.91395264739E+01  0.13496613658E+02  0.21938474193E+02  0.27331047809E+02  0.00000000000E+00 0.  1.
</event>
<event>
 5    1  0.1255769E-009  0.9118800E+02  0.7561462E-02  0.1125453E+00
         25   -1    0    0    0    0  0.00000000000E+00  0.00000000000E+00  0.99999998245E-14  0.12509000000E+03  0.12509000000E+03 0.  0.
        -13    1    3    3    0    0 -0.78419430671E+01 -0.55423467295E+02 -0.13363970856E+02  0.57548793898E+02  0.10566000000E+00 0.  1.
         23    2    1    0    0    0 -0.19863309004E+02 -0.19573449407E+02 -0.98126148927E+01  0.95527212965E+02  0.90837712650E+02 0.  0.
         13    1    3    3    0    0 -0.12021365937E+02  0.35850017888E+02  0.35513559629E+01  0.37978419067E+02  0.10566000000E+00 0. -1.
         22    1    1    0    0    0  0.19863309004E+02  0.19573449407E+02  0.98126148927E+01  0.29562787035E+02  0.00000000000E+00 0.  1.
</event>
<event>
 5    1  0.1255769E-009  0.9118800E+02  0.7561462E-02  0.1125453E+00
         25   -1    0    0    0    0  0.00000000000E+00  0.00000000000E+00  0.99999998245E-14  0.12509000000E+03  0.12509000000E+03 0.  0.
        -13    1    3    3    0    0  0.94621438191E+01 -0.28891448125E+02 -0.17719833182E+02  0.35188799246E+02  0.10566000000E+00 0.  1.
         23    2    1    0    0    0  0.91871770594E+01  0.28043295015E+02  0.21749749019E+01  0.95500117718E+02  0.90800392900E+02 0.  0.
         13    1    3    3    0    0 -0.27496675973E+00  0.56934743140E+02  0.19894808083E+02  0.60311318472E+02  0.10566000000E+00 0. -1.
         22    1    1    0    0    0 -0.91871770594E+01 -0.28043295015E+02 -0.21749749019E+01  0.29589882282E+02  0.00000000000E+00 0. -1.
</event>
<event>
 5    1  0.1255769E-009  0.9118800E+02  0.7561462E-02  0.1125453E+00
         25   -1    0    0    0    0  0.00000000000E+00  0.00000000000E+00  0.99999998245E-14  0.12509000000E+03  0.12509000000E+03 0.  0.
        -13    1    3    3    0    0 -0.15564993620E+01  0.53012910012E+02  0.27261276238E+02  0.59632035555E+02  0.10566000000E+00 0. -1.
         23    2    1    0    0    0 -0.10154410883E+02  0.18058583209E+02  0.19879051475E+02  0.96377612857E+02  0.92001321103E+02 0.  0.
         13    1    3    3    0    0 -0.85979115208E+01 -0.34954326803E+02 -0.73822247637E+01  0.36745577303E+02  0.10566000000E+00 0.  1.
         22    1    1    0    0    0  0.10154410883E+02 -0.18058583209E+02 -0.19879051475E+02  0.28712387143E+02  0.00000000000E+00 0. -1.
</event>
<event>
 5    1  0.1255769E-009  0.9118800E+02  0.7561462E-02  0.1125453E+00
         25   -1    0    0    0    0  0.00000000000E+00  0.00000000000E+00  0.99999998245E-14  0.12509000000E+03  0.12509000000E+03 0.  0.
        -13    1    3    3    0    0  0.46701923300E+02  0.36756727081E+02 -0.88061844574E+00  0.59438314902E+02  0.10566000000E+00 0.  1.
         23    2    1    0    0    0  0.19610696934E+02  0.17211760978E+02 -0.14178898715E+02  0.95393782750E+02  0.90653783530E+02 0.  0.
         13    1    3    3    0    0 -0.27091226366E+02 -0.19544966103E+02 -0.13298280270E+02  0.35955467847E+02  0.10566000000E+00 0. -1.
         22    1    1    0    0    0 -0.19610696934E+02 -0.17211760978E+02  0.14178898715E+02  0.29696217250E+02  0.00000000000E+00 0.  1.
</event>
<event>
 5    1  0.1255769E-009  0.9118800E+02  0.7561462E-02  0.1125453E+00
         25   -1    0    0    0    0  0.00000000000E+00  0.00000000000E+00  0.99999998245E-14  0.12509000000E+03  0.12509000000E+03 0.  0.
        -13    1    3    3    0    0 -0.56758669981E+02  0.71811829265E+01  0.24888813058E+02  0.62390545644E+02  0.10566000000E+00 0. -1.
         23    2    1    0    0    0 -0.30325816255E+02  0.66137657690E+01  0.11895030398E+02  0.91850132712E+02  0.85624518111E+02 0.  0.
         13    1    3    3    0    0  0.26432853726E+02 -0.56741715745E+00 -0.12993782660E+02  0.29459587068E+02  0.10566000000E+00 0.  1.
         22    1    1    0    0    0  0.30325816255E+02 -0.66137657690E+01 -0.11895030398E+02  0.33239867288E+02  0.00000000000E+00 0. -1.
</event>
<event>
 5    1  0.1255769E-009  0.9118800E+02  0.7561462E-02  0.1125453E+00
         25   -1    0    0    0    0  0.00000000000E+00  0.00000000000E+00  0.99999998245E-14  0.12509000000E+03  0.12509000000E+03 0.  0.
        -13    1    3    3    0    0 -0.30850674243E+02  0.44633959889E+02  0.34602184184E+01  0.54368545614E+02  0.10566000000E+00 0. -1.
         23    2    1    0    0    0  0.20632352273E+00  0.26061798693E+02 -0.15028548713E+02  0.95004834271E+02  0.90115488890E+02 0.  0.
         13    1    3    3    0    0  0.31056997766E+02 -0.18572161196E+02 -0.18488767132E+02  0.40636288657E+02  0.10566000000E+00 0.  1.
         22    1    1    0    0    0 -0.20632352273E+00 -0.26061798693E+02  0.15028548713E+02  0.30085165729E+02  0.00000000000E+00 0. -1.
</event>
<event>
 5    1  0.1255769E-009  0.9118800E+02  0.7561462E-02  0.1125453E+00
         25   -1    0    0    0    0  0.00000000000E+00  0.00000000000E+00  0.99999998245E-14  0.12509000000E+03  0.12509000000E+03 0.  0.
        -13    1    3    3    0    0  0.22198255158E+02  0.12522450598E+02  0.24022109967E+02  0.35023523986E+02  0.10566000000E+00 0.  1.
         23    2    1    0    0    0  0.36167736544E+02 -0.15384337741E+02 -0.13228928111E+02  0.83619678644E+02  0.72611728412E+02 0.  0.
         13    1    3    3    0    0  0.13969481385E+02 -0.27906788339E+02 -0.37251038078E+02  0.48596154658E+02  0.10566000000E+00 0. -1.
         22    1    1    0    0    0 -0.36167736544E+02  0.15384337741E+02  0.13228928111E+02  0.41470321356E+02  0.00000000000E+00 0. -1.
</event>
<event>
 5    1  0.1255769E-009  0.9118800E+02  0.7561462E-02  0.1125453E+00
         25   -1    0    0    0    0  0.00000000000E+00  0.00000000000E+00  0.99999998245E-14  0.12509000000E+03  0.12509000000E+03 0.  0.
        -13    1    3    3    0    0 -0.82203666126E+01  0.40125155435E+02  0.13422882740E+02  0.43102058780E+02  0.10566000000E+00 0. -1.
         23    2    1    0    0    0  0.17369359782E+02  0.10843969110E+02 -0.21521721232E+02  0.95383589747E+02  0.90639717470E+02 0.  0.
         13    1    3    3    0    0  0.25589726395E+02 -0.29281186325E+02 -0.34944603972E+02  0.52281530968E+02  0.10566000000E+00 0.  1.
         22    1    1    0    0    0 -0.17369359782E+02 -0.10843969110E+02  0.21521721232E+02  0.29706410253E+02  0.00000000000E+00 0. -1.
</event>
<event>
 5    1  0.1255769E-009  0.9118800E+02  0.7561462E-02  0.1125453E+00
         25   -1    0    0    0    0  0.00000000000E+00  0.00000000000E+00  0.99999998245E-14  0.12509000000E+03  0.12509000000E+03 0.  0.
        -13    1    3    3    0    0  0.17487536907E+02  0.24002257919E+02 -0.23029964374E+02  0.37580749798E+02  0.10566000000E+00 0.  1.
         23    2    1    0    0    0 -0.11749542415E+02 -0.24677795062E+02 -0.40181527251E+01  0.97464090650E+02  0.93466882364E+02 0.  0.
         13    1    3    3    0    0 -0.29237079322E+02 -0.48680052980E+02  0.19011811649E+02  0.59883340853E+02  0.10566000000E+00 0. -1.
         22    1    1    0    0    0  0.11749542415E+02  0.24677795062E+02  0.40181527251E+01  0.27625909350E+02  0.00000000000E+00 0. -1.
</event>
<event>
 5    1  0.1255769E-009  0.9118800E+02  0.7561462E-02  0.1125453E+00
         25   -1    0    0    0    0  0.00000000000E+00  0.00000000000E+00  0.99999998245E-14  0.12509000000E+03  0.12509000000E+03 0.  0.
        -13    1    3    3    0    0 -0.14581893272E+02 -0.27622664743E+01  0.55191433063E+02  0.57152140599E+02  0.10566000000E+00 0.  1.
         23    2    1    0    0    0  0.75600170644E+01 -0.12834114631E+02  0.25745315922E+02  0.95346267075E+02  0.90588194578E+02 0.  0.
         13    1    3    3    0    0  0.22141910336E+02 -0.10071848157E+02 -0.29446117141E+02  0.38194126477E+02  0.10566000000E+00 0. -1.
         22    1    1    0    0    0 -0.75600170644E+01  0.12834114631E+02 -0.25745315922E+02  0.29743732925E+02  0.00000000000E+00 0.  1.
</event>
<event>
 5    1  0.1255769E-009  0.9118800E+02  0.7561462E-02  0.1125453E+00
         25   -1    0    0    0    0  0.00000000000E+00  0.00000000000E+00  0.99999998245E-14  0.12509000000E+03  0.12509000000E+03 0.  0.
        -13    1    3    3    0    0  0.32197993737E+02 -0.26200066705E+02  0.11432512813E+01  0.41526768277E+02  0.10566000000E+00 0. -1.
         23    2    1    0    0    0  0.33790814135E+01  0.69672839439E+01 -0.29171409073E+02  0.94908344246E+02  0.89981450664E+02 0.  0.
         13    1    3    3    0    0 -0.28818912323E+02  0.33167350649E+02 -0.30314660354E+02  0.53381575969E+02  0.10566000000E+00 0.  1.
         22    1    1    0    0    0 -0.33790814135E+01 -0.69672839439E+01  0.29171409073E+02  0.30181655754E+02  0.00000000000E+00 0.  1.
</event>
<event>
 5    1  0.1255769E-009  0.9118800E+02  0.7561462E-02  0.1125453E+00
         25   -1    0    0    0    0  0.00000000000E+00  0.00000000000E+00  0.99999998245E-14  0.12509000000E+03  0.12509000000E+03 0.  0.
        -13    1    3    3    0    0 -0.15551802216E+02 -0.21398401869E+02 -0.38846082074E+02  0.46997653253E+02  0.10566000000E+00 0. -1.
         23    2    1    0    0    0  0.24108889904E+02 -0.87579018356E+01 -0.10420448316E+02  0.97403809217E+02  0.93386170764E+02 0.  0.
         13    1    3    3    0    0  0.39660692120E+02  0.12640500033E+02  0.28425633758E+02  0.50406155965E+02  0.10566000000E+00 0.  1.
         22    1    1    0    0    0 -0.24108889904E+02  0.87579018356E+01  0.10420448316E+02  0.27686190783E+02  0.00000000000E+00 0.  1.
</event>
<event>
 5    1  0.1255769E-009  0.9118800E+02  0.7561462E-02  0.1125453E+00
         25   -1    0    0    0    0  0.00000000000E+00  0.00000000000E+00  0.99999998245E-14  0.12509000000E+03  0.12509000000E+03 0.  0.
        -13    1    3    3    0    0  0.14075364323E+02  0.36010337498E+02  0.47460601060E+02  0.61215848476E+02  0.10566000000E+00 0.  1.
         23    2    1    0    0    0  0.99310726404E+01  0.22658063591E+02  0.16041133464E+02  0.95605563219E+02  0.90945542530E+02 0.  0.
         13    1    3    3    0    0 -0.41442916830E+01 -0.13352273907E+02 -0.31419467596E+02  0.34389714743E+02  0.10566000000E+00 0. -1.
         22    1    1    0    0    0 -0.99310726404E+01 -0.22658063591E+02 -0.16041133464E+02  0.29484436781E+02  0.00000000000E+00 0.  1.
</event>
<event>
 5    1  0.1255769E-009  0.9118800E+02  0.7561462E-02  0.1125453E+00
         25   -1    0    0    0    0  0.00000000000E+00  0.00000000000E+00  0.99999998245E-14  0.12509000000E+03  0.12509000000E+03 0.  0.
        -13    1    3    3    0    0  0.13176926020E+02 -0.30210161395E+02  0.12934932702E+02  0.35406339530E+02  0.10566000000E+00 0.  1.
         23    2    1    0    0    0 -0.15652434261E+02  0.23196808034E+02  0.57504934806E+01  0.96521507276E+02  0.92196760195E+02 0.  0.
         13    1    3    3    0    0 -0.28829360280E+02  0.53406969429E+02 -0.71844392214E+01  0.61115167747E+02  0.10566000000E+00 0. -1.
         22    1    1    0    0    0  0.15652434261E+02 -0.23196808034E+02 -0.57504934806E+01  0.28568492724E+02  0.00000000000E+00 0. -1.
</event>
<event>
 5    1  0.1255769E-009  0.9118800E+02  0.7561462E-02  0.1125453E+00
         25   -1    0    0    0    0  0.00000000000E+00  0.00000000000E+00  0.99999998245E-14  0.12509000000E+03  0.12509000000E+03 0.  0.
        -13    1    3    3    0    0 -0.32294423215E+02 -0.12914718286E+02 -0.34963921655E+02  0.49317407684E+02  0.10566000000E+00 0. -1.
         23    2    1    0    0    0  0.10830284431E+02 -0.18156358959E+02 -0.21828335759E+02  0.94702096593E+02  0.89694271977E+02 0.  0.
         13    1    3    3    0    0  0.43124707645E+02 -0.52416406727E+01  0.13135585896E+02  0.45384688908E+02  0.10566000000E+00 0.  1.
         22    1    1    0    0    0 -0.10830284431E+02  0.18156358959E+02  0.21828335759E+02  0.30387903407E+02  0.00000000000E+00 0. -1.
</event>
<event>
 5    1  0.1255769E-009  0.9118800E+02  0.7561462E-02  0.1125453E+00
         25   -1    0    0    0    0  0.00000000000E+00  0.00000000000E+00  0.99999998245E-14  0.12509000000E+03  0.12509000000E+03 0.  0.
        -13    1    3    3    0    0 -0.82918620044E+01  0.29443758313E+02  0.33541044838E+02  0.45394963729E+02  0.10566000000E+00 0.  1.
         23    2    1    0    0    0 -0.20897399173E+02  0.15199300500E+02 -0.13355569531E+02  0.96002352014E+02  0.91489673334E+02 0.  0.
         13    1    3    3    0    0 -0.12605537169E+02 -0.14244457813E+02 -0.46896614369E+02  0.50607388285E+02  0.10566000000E+00 0. -1.
         22    1    1    0    0    0  0.20897399173E+02 -0.15199300500E+02  0.13355569531E+02  0.29087647986E+02  0.00000000000E+00 0. -1.
</event>
<event>
 5    1  0.1255769E-009  0.9118800E+02  0.7561462E-02  0.1125453E+00
         25   -1    0    0    0    0  0.00000000000E+00  0.00000000000E+00  0.99999998245E-14  0.12509000000E+03  0.12509000000E+03 0.  0.
        -13    1    3    3    0    0 -0.50444829861E+02  0.55574937872E+01  0.32409394389E+02  0.60215833513E+02  0.10566000000E+00 0. -1.
         23    2    1    0    0    0 -0.26168101367E+02  0.10466012432E+02  0.62866760607E+01  0.96213898441E+02  0.91778456142E+02 0.  0.
         13    1    3    3    0    0  0.24276728494E+02  0.49085186446E+01 -0.26122718328E+02  0.35998064928E+02  0.10566000000E+00 0.  1.
         22    1    1    0    0    0  0.26168101367E+02 -0.10466012432E+02 -0.62866760607E+01  0.28876101559E+02  0.00000000000E+00 0. -1.
</event>
<event>
 5    1  0.1255769E-009  0.9118800E+02  0.7561462E-02  0.1125453E+00
         25   -1    0    0    0    0  0.00000000000E+00  0.00000000000E+00  0.99999998245E-14  0.12509000000E+03  0.12509000000E+03 0.  0.
        -13    1    3    3    0    0  0.14804223398E+02 -0.32676194316E+02 -0.25642692943E+02  0.44096004023E+02  0.10566000000E+00 0. -1.
         23    2    1    0    0    0  0.27090181709E+02  0.74011400985E+01  0.56975095980E+01  0.96434870697E+02  0.92079139065E+02 0.  0.
         13    1    3    3    0    0  0.12285958311E+02  0.40077334414E+02  0.31340202541E+02  0.52338866674E+02  0.10566000000E+00 0.  1.
         22    1    1    0    0    0 -0.27090181709E+02 -0.74011400985E+01 -0.56975095980E+01  0.28655129303E+02  0.00000000000E+00 0.  1.
</event>
<event>
 5    1  0.1255769E-009  0.9118800E+02  0.7561462E-02  0.1125453E+00
         25   -1    0    0    0    0  0.00000000000E+00  0.00000000000E+00  0.99999998245E-14  0.12509000000E+03  0.12509000000E+03 0.  0.
        -13    1    3    3    0    0  0.60704234858E+02  0.52174643275E+01  0.95005750706E+01  0.61664399408E+02  0.10566000000E+00 0. -1.
         23    2    1    0    0    0  0.27570208559E+02  0.76024285904E+01  0.97173678627E+01  0.94885024273E+02  0.89949025969E+02 0.  0.
         13    1    3    3    0    0 -0.33134026298E+02  0.23849642630E+01  0.21679279212E+00  0.33220624865E+02  0.10566000000E+00 0.  1.
         22    1    1    0    0    0 -0.27570208559E+02 -0.76024285904E+01 -0.97173678627E+01  0.30204975727E+02  0.00000000000E+00 0. -1.
</event>
<event>
 5    1  0.1255769E-009  0.9118800E+02  0.7561462E-02  0.1125453E+00
         25   -1    0    0    0    0  0.00000000000E+00  0.00000000000E+00  0.99999998245E-14  0.12509000000E+03  0.12509000000E+03 0.  0.
        -13    1    3    3    0    0 -0.23307818201E+02 -0.56287711934E+02 -0.11218759005E+02  0.61947014631E+02  0.10566000000E+00 0. -1.
         23    2    1    0    0    0 -0.13795329086E+02 -0.23470517630E+02 -0.98356661788E+01  0.96143210340E+02  0.91682060748E+02 0.  0.
         13    1    3    3    0    0  0.95124891152E+01  0.32817194304E+02  0.13830928259E+01  0.34196195709E+02  0.10566000000E+00 0.  1.
         22    1    1    0    0    0  0.13795329086E+02  0.23470517630E+02  0.98356661788E+01  0.28946789660E+02  0.00000000000E+00 0. -1.
</event>
<event>
 5    1  0.1255769E-009  0.9118800E+02  0.7561462E-02  0.1125453E+00
         25   -1    0    0    0    0  0.00000000000E+00  0.00000000000E+00  0.99999998245E-14  0.12509000000E+03  0.12509000000E+03 0.  0.
        -13    1    3    3    0    0 -0.11358835426E+02 -0.44846152195E+02  0.29469345886E+02  0.54851198893E+02  0.10566000000E+00 0. -1.
         23    2    1    0    0    0 -0.20034143934E+02 -0.70379777818E+01  0.22296858868E+02  0.94299579902E+02  0.89131143827E+02 0.  0.
         13    1    3    3    0    0 -0.86753085081E+01  0.37808174413E+02 -0.71724870185E+01  0.39448381009E+02  0.10566000000E+00 0.  1.
         22    1    1    0    0    0  0.20034143934E+02  0.70379777818E+01 -0.22296858868E+02  0.30790420098E+02  0.00000000000E+00 0. -1.
</event>
<event>
 5    1  0.1255769E-009  0.9118800E+02  0.7561462E-02  0.1125453E+00
         25   -1    0    0    0    0  0.00000000000E+00  0.00000000000E+00  0.99999998245E-14  0.12509000000E+03  0.12509000000E+03 0.  0.
        -13    1    3    3    0    0  0.20913915392E+02 -0.30509715625E+02  0.23427083335E+02  0.43784403641E+02  0.10566000000E+00 0.  1.
         23    2    1    0    0    0  0.34519660283E+02  0.83175589760E+01  0.17992345694E+02  0.85284055257E+02  0.75424510897E+02 0.  0.
         13    1    3    3    0    0  0.13605744890E+02  0.38827274601E+02 -0.54347376410E+01  0.41499651616E+02  0.10566000000E+00 0. -1.
         22    1    1    0    0    0 -0.34519660283E+02 -0.83175589760E+01 -0.17992345694E+02  0.39805944743E+02  0.00000000000E+00 0. -1.
</event>
<event>
 5    1  0.1255769E-009  0.9118800E+02  0.7561462E-02  0.1125453E+00
         25   -1    0    0    0    0  0.00000000000E+00  0.00000000000E+00  0.99999998245E-14  0.12509000000E+03  0.12509000000E+03 0.  0.
        -13    1    3    3    0    0  0.59009084421E+01  0.40834176339E+02  0.42462441816E+02  0.59205749778E+02  0.10566000000E+00 0. -1.
         23    2    1    0    0    0  0.54175019837E+01  0.66290413996E+01  0.27034165522E+02  0.96732644286E+02  0.92482781357E+02 0.  0.
         13    1    3    3    0    0 -0.48340645838E+00 -0.34205134939E+02 -0.15428276294E+02  0.37526894508E+02  0.10566000000E+00 0.  1.
         22    1    1    0    0    0 -0.54175019837E+01 -0.66290413996E+01 -0.27034165522E+02  0.28357355714E+02  0.00000000000E+00 0. -1.
</event>
<event>
 5    1  0.1255769E-009  0.9118800E+02  0.7561462E-02  0.1125453E+00
         25   -1    0    0    0    0  0.00000000000E+00  0.00000000000E+00  0.99999998245E-14  0.12509000000E+03  0.12509000000E+03 0.  0.
        -13    1    3    3    0    0  0.79080713099E+01  0.36069464492E+02  0.18671046135E+02  0.41378291269E+02  0.10566000000E+00 0. -1.
         23    2    1    0    0    0 -0.21963783536E+02  0.16474192915E+02 -0.17750348142E+02  0.92396244043E+02  0.86418656751E+02 0.  0.
         13    1    3    3    0    0 -0.29871854846E+02 -0.19595271576E+02 -0.36421394277E+02  0.51017952774E+02  0.10566000000E+00 0.  1.
         22    1    1    0    0    0  0.21963783536E+02 -0.16474192915E+02  0.17750348142E+02  0.32693755957E+02  0.00000000000E+00 0.  1.
</event>
<event>
 5    1  0.1255769E-009  0.9118800E+02  0.7561462E-02  0.1125453E+00
         25   -1    0    0    0    0  0.00000000000E+00  0.00000000000E+00  0.99999998245E-14  0.12509000000E+03  0.12509000000E+03 0.  0.
        -13    1    3    3    0    0  0.32373786397E+02  0.32881844784E+01 -0.20781789733E+02  0.38610466863E+02  0.10566000000E+00 0.  1.
         23    2    1    0    0    0 -0.23578618645E+02 -0.97402166237E+01 -0.12591279205E+02  0.96640687370E+02  0.92358318879E+02 0.  0.
         13    1    3    3    0    0 -0.55952405042E+02 -0.13028401102E+02  0.81905105275E+01  0.58030220507E+02  0.10566000000E+00 0. -1.
         22    1    1    0    0    0  0.23578618645E+02  0.97402166237E+01  0.12591279205E+02  0.28449312630E+02  0.00000000000E+00 0. -1.
</event>
<event>
 4    1  0.1255769E-009  0.9118800E+02  0.7561462E-02  0.1125453E+00
         25   -1    0    0    0    0  0.00000000000E+00  0.00000000000E+00  0.99999998245E-14  0.12509000000E+03  0.12509000000E+03 0.  0.
        -13    1    1    0    0    0 -0.24862083372E+02  0.39907483343E+02 -0.21347900355E+01  0.47066961968E+02  0.10566000000E+00 0.  1.
         13    1    1    0    0    0  0.38753655001E+01  0.15385963559E+02  0.93903834883E+01  0.18437375044E+02  0.10566000000E+00 0. -1.
         22    1    1    0    0    0  0.20986717872E+02 -0.55293446902E+02 -0.72555934528E+01  0.59585662988E+02  0.00000000000E+00 0. -1.
</event>
<event>
 5    1  0.1255769E-009  0.9118800E+02  0.7561462E-02  0.1125453E+00
         25   -1    0    0    0    0  0.00000000000E+00  0.00000000000E+00  0.99999998245E-14  0.12509000000E+03  0.12509000000E+03 0.  0.
        -13    1    3    3    0    0  0.13359764512E+02  0.36412866951E+02 -0.29380088996E+01  0.38897599511E+02  0.10566000000E+00 0.  1.
         23    2    1    0    0    0  0.81203312719E+01 -0.23133283729E+02  0.72222925824E+01  0.99531242084E+02  0.96193648671E+02 0.  0.
         13    1    3    3    0    0 -0.52394332400E+01 -0.59546150680E+02  0.10160301482E+02  0.60633642573E+02  0.10566000000E+00 0. -1.
         22    1    1    0    0    0 -0.81203312719E+01  0.23133283729E+02 -0.72222925824E+01  0.25558757916E+02  0.00000000000E+00 0. -1.
</event>
<event>
 5    1  0.1255769E-009  0.9118800E+02  0.7561462E-02  0.1125453E+00
         25   -1    0    0    0    0  0.00000000000E+00  0.00000000000E+00  0.99999998245E-14  0.12509000000E+03  0.12509000000E+03 0.  0.
        -13    1    3    3    0    0  0.40520264721E+01 -0.16466625996E+02  0.37458694395E+02  0.41118531589E+02  0.10566000000E+00 0. -1.
         23    2    1    0    0    0  0.53475555485E+01 -0.23547768121E+02 -0.16685120444E+02  0.95738901587E+02  0.91128756707E+02 0.  0.
         13    1    3    3    0    0  0.12955290764E+01 -0.70811421251E+01 -0.54143814839E+02  0.54620369998E+02  0.10566000000E+00 0.  1.
         22    1    1    0    0    0 -0.53475555485E+01  0.23547768121E+02  0.16685120444E+02  0.29351098413E+02  0.00000000000E+00 0.  1.
</event>
<event>
 5    1  0.1255769E-009  0.9118800E+02  0.7561462E-02  0.1125453E+00
         25   -1    0    0    0    0  0.00000000000E+00  0.00000000000E+00  0.99999998245E-14  0.12509000000E+03  0.12509000000E+03 0.  0.
        -13    1    3    3    0    0  0.21599055212E+02  0.28725019836E+02  0.14000770483E+01  0.35966892142E+02  0.10566000000E+00 0. -1.
         23    2    1    0    0    0  0.47612098387E+01 -0.20350284250E+02 -0.23605450215E+02  0.93561909858E+02  0.88089786628E+02 0.  0.
         13    1    3    3    0    0 -0.16837845373E+02 -0.49075304085E+02 -0.25005527263E+02  0.57595017715E+02  0.10566000000E+00 0.  1.
         22    1    1    0    0    0 -0.47612098387E+01  0.20350284250E+02  0.23605450215E+02  0.31528090142E+02  0.00000000000E+00 0.  1.
</event>
<event>
 5    1  0.1255769E-009  0.9118800E+02  0.7561462E-02  0.1125453E+00
         25   -1    0    0    0    0  0.00000000000E+00  0.00000000000E+00  0.99999998245E-14  0.12509000000E+03  0.12509000000E+03 0.  0.
        -13    1    3    3    0    0 -0.38788632215E+02  0.34213612542E+02  0.13653535781E+02  0.53493546112E+02  0.10566000000E+00 0.  1.
         23    2    1    0    0    0 -0.26877153562E+02 -0.53233403684E+01  0.12931824128E+02  0.94792287024E+02  0.89819965864E+02 0.  0.
         13    1    3    3    0    0  0.11911478653E+02 -0.39536952911E+02 -0.72171165259E+00  0.41298740912E+02  0.10566000000E+00 0. -1.
         22    1    1    0    0    0  0.26877153562E+02  0.53233403684E+01 -0.12931824128E+02  0.30297712976E+02  0.00000000000E+00 0.  1.
</event>
<event>
 5    1  0.1255769E-009  0.9118800E+02  0.7561462E-02  0.1125453E+00
         25   -1    0    0    0    0  0.00000000000E+00  0.00000000000E+00  0.99999998245E-14  0.12509000000E+03  0.12509000000E+03 0.  0.
        -13    1    3    3    0    0 -0.13754045503E+01 -0.16582290578E+02 -0.52129269369E+02  0.54720526199E+02  0.10566000000E+00 0. -1.
         23    2    1    0    0    0  0.81614200303E+01 -0.25403365416E+02 -0.14092081682E+02  0.94915068061E+02  0.89990797460E+02 0.  0.
         13    1    3    3    0    0  0.95368245805E+01 -0.88210748381E+01  0.38037187687E+02  0.40194541862E+02  0.10566000000E+00 0.  1.
         22    1    1    0    0    0 -0.81614200303E+01  0.25403365416E+02  0.14092081682E+02  0.30174931939E+02  0.00000000000E+00 0. -1.
</event>
<event>
 5    1  0.1255769E-009  0.9118800E+02  0.7561462E-02  0.1125453E+00
         25   -1    0    0    0    0  0.00000000000E+00  0.00000000000E+00  0.99999998245E-14  0.12509000000E+03  0.12509000000E+03 0.  0.
        -13    1    3    3    0    0  0.94334986778E+01  0.41145383621E+02  0.15973222971E+02  0.45134116882E+02  0.10566000000E+00 0.  1.
         23    2    1    0    0    0  0.27338596884E+02  0.93642391756E+01 -0.14584773637E+02  0.92720207338E+02  0.86886324423E+02 0.  0.
         13    1    3    3    0    0  0.17905098207E+02 -0.31781144445E+02 -0.30557996609E+02  0.47586090455E+02  0.10566000000E+00 0. -1.
         22    1    1    0    0    0 -0.27338596884E+02 -0.93642391756E+01  0.14584773637E+02  0.32369792662E+02  0.00000000000E+00 0. -1.
</event>
<event>
 5    1  0.1255769E-009  0.9118800E+02  0.7561462E-02  0.1125453E+00
         25   -1    0    0    0    0  0.00000000000E+00  0.00000000000E+00  0.99999998245E-14  0.12509000000E+03  0.12509000000E+03 0.  0.
        -13    1    3    3    0    0  0.94108378018E+01  0.17425876264E+02 -0.31296756346E+02  0.37036781090E+02  0.10566000000E+00 0. -1.
         23    2    1    0    0    0 -0.16482625962E+02  0.10619947603E+02  0.21351349119E+02  0.96101375422E+02  0.91624963864E+02 0.  0.
         13    1    3    3    0    0 -0.25893463764E+02 -0.68059286602E+01  0.52648105464E+02  0.59064594333E+02  0.10566000000E+00 0.  1.
         22    1    1    0    0    0  0.16482625962E+02 -0.10619947603E+02 -0.21351349119E+02  0.28988624578E+02  0.00000000000E+00 0.  1.
</event>
<event>
 5    1  0.1255769E-009  0.9118800E+02  0.7561462E-02  0.1125453E+00
         25   -1    0    0    0    0  0.00000000000E+00  0.00000000000E+00  0.99999998245E-14  0.12509000000E+03  0.12509000000E+03 0.  0.
        -13    1    3    3    0    0 -0.54059593285E+02  0.13384094429E+02  0.71500150456E+01  0.56148975850E+02  0.10566000000E+00 0. -1.
         23    2    1    0    0    0 -0.24267270735E+02  0.38098336935E+01 -0.16607172480E+02  0.95438466490E+02  0.90715420114E+02 0.  0.
         13    1    3    3    0    0  0.29792322550E+02 -0.95742607359E+01 -0.23757187526E+02  0.39289490640E+02  0.10566000000E+00 0.  1.
         22    1    1    0    0    0  0.24267270735E+02 -0.38098336935E+01  0.16607172480E+02  0.29651533510E+02  0.00000000000E+00 0. -1.
</event>
<event>
 5    1  0.1255769E-009  0.9118800E+02  0.7561462E-02  0.1125453E+00
         25   -1    0    0    0    0  0.00000000000E+00  0.00000000000E+00  0.99999998245E-14  0.12509000000E+03  0.12509000000E+03 0.  0.
        -13    1    3    3    0    0  0.17864383571E+02 -0.42424902054E+02  0.41650291524E+02  0.62078711833E+02  0.10566000000E+00 0.  1.
         23    2    1    0    0    0  0.10696846393E+02 -0.17321078764E+02  0.24127936723E+02  0.93521033865E+02  0.88031722421E+02 0.  0.
         13    1    3    3    0    0 -0.71675371780E+01  0.25103823290E+02 -0.17522354801E+02  0.31442322033E+02  0.10566000000E+00 0. -1.
         22    1    1    0    0    0 -0.10696846393E+02  0.17321078764E+02 -0.24127936723E+02  0.31568966135E+02  0.00000000000E+00 0.  1.
</event>
<event>
 5    1  0.1255769E-009  0.9118800E+02  0.7561462E-02  0.1125453E+00
         25   -1    0    0    0    0  0.00000000000E+00  0.00000000000E+00  0.99999998245E-14  0.12509000000E+03  0.12509000000E+03 0.  0.
        -13    1    3    3    0    0 -0.28478107955E+02  0.33567794001E+02  0.40680602378E+02  0.59939319320E+02  0.10566000000E+00 0.  1.
         23    2    1    0    0    0 -0.17352041093E+02  0.55274686235E+01  0.25620117857E+02  0.93656949265E+02  0.88224642063E+02 0.  0.
         13    1    3    3    0    0  0.11126066862E+02 -0.28040325377E+02 -0.15060484520E+02  0.33717629945E+02  0.10566000000E+00 0. -1.
         22    1    1    0    0    0  0.17352041093E+02 -0.55274686235E+01 -0.25620117857E+02  0.31433050735E+02  0.00000000000E+00 0.  1.
</event>
<event>
 5    1  0.1255769E-009  0.9118800E+02  0.7561462E-02  0.1125453E+00
         25   -1    0    0    0    0  0.00000000000E+00  0.00000000000E+00  0.99999998245E-14  0.12509000000E+03  0.12509000000E+03 0.  0.
        -13    1    3    3    0    0 -0.29616428671E+02  0.46237102308E+01 -0.17203022306E+02  0.34561057334E+02  0.10566000000E+00 0. -1.
         23    2    1    0    0    0  0.28361698688E+02  0.34799171874E+00  0.40060396419E+01  0.96444661735E+02  0.92092439281E+02 0.  0.
         13    1    3    3    0    0  0.57978127360E+02 -0.42757185120E+01  0.21209061947E+02  0.61883604401E+02  0.10566000000E+00 0.  1.
         22    1    1    0    0    0 -0.28361698688E+02 -0.34799171874E+00 -0.40060396419E+01  0.28645338265E+02  0.00000000000E+00 0.  1.
</event>
<event>
 5    1  0.1255769E-009  0.9118800E+02  0.7561462E-02  0.1125453E+00
         25   -1    0    0    0    0  0.00000000000E+00  0.00000000000E+00  0.99999998245E-14  0.12509000000E+03  0.12509000000E+03 0.  0.
        -13    1    3    3    0    0 -0.54235138014E+02  0.22128254998E+02  0.10078978606E+02  0.59436578287E+02  0.10566000000E+00 0. -1.
         23    2    1    0    0    0 -0.18788066962E+02  0.21960740108E+02  0.38241660181E+00  0.96186508710E+02  0.91741117549E+02 0.  0.
         13    1    3    3    0    0  0.35447071052E+02 -0.16751488996E+00 -0.96965620044E+01  0.36749930423E+02  0.10566000000E+00 0.  1.
         22    1    1    0    0    0  0.18788066962E+02 -0.21960740108E+02 -0.38241660181E+00  0.28903491290E+02  0.00000000000E+00 0. -1.
</event>
<event>
 5    1  0.1255769E-009  0.9118800E+02  0.7561462E-02  0.1125453E+00
         25   -1    0    0    0    0  0.00000000000E+00  0.00000000000E+00  0.99999998245E-14  0.12509000000E+03  0.12509000000E+03 0.  0.
        -13    1    3    3    0    0  0.43144439900E+02  0.72027351961E+01 -0.19416679589E+02  0.47857504102E+02  0.10566000000E+00 0.  1.
         23    2    1    0    0    0 -0.54099513151E+01  0.11893632271E+02 -0.24924734588E+02  0.96948065879E+02  0.92773697898E+02 0.  0.
         13    1    3    3    0    0 -0.48554391215E+02  0.46908970744E+01 -0.55080549990E+01  0.49090561777E+02  0.10566000000E+00 0. -1.
         22    1    1    0    0    0  0.54099513151E+01 -0.11893632271E+02  0.24924734588E+02  0.28141934121E+02  0.00000000000E+00 0. -1.
</event>
<event>
 5    1  0.1255769E-009  0.9118800E+02  0.7561462E-02  0.1125453E+00
         25   -1    0    0    0    0  0.00000000000E+00  0.00000000000E+00  0.99999998245E-14  0.12509000000E+03  0.12509000000E+03 0.  0.
        -13    1    3    3    0    0 -0.28365498230E+02 -0.54867917853E+02  0.55041544911E+01  0.62011263333E+02  0.10566000000E+00 0. -1.
         23    2    1    0    0    0 -0.98970156394E+01 -0.26791318853E+02  0.71147506871E+01  0.95656254710E+02  0.91015238852E+02 0.  0.
         13    1    3    3    0    0  0.18468482591E+02  0.28076599000E+02  0.16105961960E+01  0.33644991377E+02  0.10566000000E+00 0.  1.
         22    1    1    0    0    0  0.98970156394E+01  0.26791318853E+02 -0.71147506871E+01  0.29433745290E+02  0.00000000000E+00 0. -1.
</event>
<event>
 5    1  0.1255769E-009  0.9118800E+02  0.7561462E-02  0.1125453E+00
         25   -1    0    0    0    0  0.00000000000E+00  0.00000000000E+00  0.99999998245E-14  0.12509000000E+03  0.12509000000E+03 0.  0.
        -13    1    3    3    0    0 -0.28146988210E+02  0.80871005116E+01  0.30477435044E+02  0.42267473912E+02  0.10566000000E+00 0.  1.
         23    2    1    0    0    0  0.19979665650E+02  0.18983129473E+02  0.88472147689E+01  0.96144888958E+02  0.91684351006E+02 0.  0.
         13    1    3    3    0    0  0.48126653860E+02  0.10896028962E+02 -0.21630220275E+02  0.53877415046E+02  0.10566000000E+00 0. -1.
         22    1    1    0    0    0 -0.19979665650E+02 -0.18983129473E+02 -0.88472147689E+01  0.28945111042E+02  0.00000000000E+00 0. -1.
</event>
<event>
 5    1  0.1255769E-009  0.9118800E+02  0.7561462E-02  0.1125453E+00
         25   -1    0    0    0    0  0.00000000000E+00  0.00000000000E+00  0.99999998245E-14  0.12509000000E+03  0.12509000000E+03 0.  0.
        -13    1    3    3    0    0 -0.25368848222E+02 -0.13140804042E+02  0.55214390355E+02  0.62168313933E+02  0.10566000000E+00 0. -1.
         23    2    1    0    0    0 -0.84653983429E+01 -0.86840982510E+01  0.28767925805E+02  0.93870293296E+02  0.88526616770E+02 0.  0.
         13    1    3    3    0    0  0.16903449880E+02  0.44567057905E+01 -0.26446464549E+02  0.31701979363E+02  0.10566000000E+00 0.  1.
         22    1    1    0    0    0  0.84653983429E+01  0.86840982510E+01 -0.28767925805E+02  0.31219706704E+02  0.00000000000E+00 0. -1.
</event>
<event>
 5    1  0.1255769E-009  0.9118800E+02  0.7561462E-02  0.1125453E+00
         25   -1    0    0    0    0  0.00000000000E+00  0.00000000000E+00  0.99999998245E-14  0.12509000000E+03  0.12509000000E+03 0.  0.
        -13    1    3    3    0    0 -0.29318284704E+02 -0.43974741843E+02 -0.31953753349E+02  0.61760774407E+02  0.10566000000E+00 0.  1.
         23    2    1    0    0    0 -0.13585172664E+02 -0.16583155249E+02 -0.20688032326E+02  0.95298178373E+02  0.90521766252E+02 0.  0.
         13    1    3    3    0    0  0.15733112040E+02  0.27391586594E+02  0.11265721023E+02  0.33537403967E+02  0.10566000000E+00 0. -1.
         22    1    1    0    0    0  0.13585172664E+02  0.16583155249E+02  0.20688032326E+02  0.29791821627E+02  0.00000000000E+00 0.  1.
</event>
<event>
 5    1  0.1255769E-009  0.9118800E+02  0.7561462E-02  0.1125453E+00
         25   -1    0    0    0    0  0.00000000000E+00  0.00000000000E+00  0.99999998245E-14  0.12509000000E+03  0.12509000000E+03 0.  0.
        -13    1    3    3    0    0  0.41992603491E+01  0.31401852610E+02 -0.17765378352E+02  0.36322582051E+02  0.10566000000E+00 0.  1.
         23    2    1    0    0    0  0.54796310369E+01 -0.27500381281E+02 -0.49777701874E+01  0.96610612314E+02  0.92317576272E+02 0.  0.
         13    1    3    3    0    0  0.12803706879E+01 -0.58902233891E+02  0.12787608164E+02  0.60288030264E+02  0.10566000000E+00 0. -1.
         22    1    1    0    0    0 -0.54796310369E+01  0.27500381281E+02  0.49777701874E+01  0.28479387686E+02  0.00000000000E+00 0. -1.
</event>
<event>
 5    1  0.1255769E-009  0.9118800E+02  0.7561462E-02  0.1125453E+00
         25   -1    0    0    0    0  0.00000000000E+00  0.00000000000E+00  0.99999998245E-14  0.12509000000E+03  0.12509000000E+03 0.  0.
        -13    1    3    3    0    0 -0.54349114159E+02  0.82550679196E+01  0.63486223316E+01  0.55337948333E+02  0.10566000000E+00 0. -1.
         23    2    1    0    0    0 -0.23198545759E+02  0.41234643132E+01 -0.18284323097E+02  0.95265648299E+02  0.90476802504E+02 0.  0.
         13    1    3    3    0    0  0.31150568400E+02 -0.41316036064E+01 -0.24632945429E+02  0.39927699966E+02  0.10566000000E+00 0.  1.
         22    1    1    0    0    0  0.23198545759E+02 -0.41234643132E+01  0.18284323097E+02  0.29824351701E+02  0.00000000000E+00 0. -1.
</event>
<event>
 5    1  0.1255769E-009  0.9118800E+02  0.7561462E-02  0.1125453E+00
         25   -1    0    0    0    0  0.00000000000E+00  0.00000000000E+00  0.99999998245E-14  0.12509000000E+03  0.12509000000E+03 0.  0.
        -13    1    3    3    0    0  0.39181887808E+01  0.10609394563E+02  0.33337466843E+02  0.35203825302E+02  0.10566000000E+00 0. -1.
         23    2    1    0    0    0  0.20899602414E+02 -0.65564085722E+00 -0.22338525114E+02  0.94492076047E+02  0.89400891972E+02 0.  0.
         13    1    3    3    0    0  0.16981413633E+02 -0.11265035420E+02 -0.55675991957E+02  0.59288250745E+02  0.10566000000E+00 0.  1.
         22    1    1    0    0    0 -0.20899602414E+02  0.65564085722E+00  0.22338525114E+02  0.30597923953E+02  0.00000000000E+00 0.  1.
</event>
<event>
 5    1  0.1255769E-009  0.9118800E+02  0.7561462E-02  0.1125453E+00
         25   -1    0    0    0    0  0.00000000000E+00  0.00000000000E+00  0.99999998245E-14  0.12509000000E+03  0.12509000000E+03 0.  0.
        -13    1    3    3    0    0 -0.31889737774E+02 -0.40500673143E+02 -0.67372356094E+01  0.51987127330E+02  0.10566000000E+00 0.  1.
         23    2    1    0    0    0 -0.93044604616E+01 -0.15663762978E+02  0.22244325839E+02  0.96336974296E+02  0.91946050102E+02 0.  0.
         13    1    3    3    0    0  0.22585277312E+02  0.24836910165E+02  0.28981561449E+02  0.44349846966E+02  0.10566000000E+00 0. -1.
         22    1    1    0    0    0  0.93044604616E+01  0.15663762978E+02 -0.22244325839E+02  0.28753025704E+02  0.00000000000E+00 0. -1.
</event>
<event>
 5    1  0.1255769E-009  0.9118800E+02  0.7561462E-02  0.1125453E+00
         25   -1    0    0    0    0  0.00000000000E+00  0.00000000000E+00  0.99999998245E-14  0.12509000000E+03  0.12509000000E+03 0.  0.
        -13    1    3    3    0    0 -0.91441933205E+01  0.73467517964E+01 -0.37364012116E+02  0.39162119438E+02  0.10566000000E+00 0.  1.
         23    2    1    0    0    0 -0.33031896743E+01 -0.26919534722E+02  0.84610119029E+01  0.96679418625E+02  0.92410761557E+02 0.  0.
         13    1    3    3    0    0  0.58410036463E+01 -0.34266286518E+02  0.45825024019E+02  0.57517299187E+02  0.10566000000E+00 0. -1.
         22    1    1    0    0    0  0.33031896743E+01  0.26919534722E+02 -0.84610119029E+01  0.28410581375E+02  0.00000000000E+00 0. -1.
</event>
<event>
 5    1  0.1255769E-009  0.9118800E+02  0.7561462E-02  0.1125453E+00
         25   -1    0    0    0    0  0.00000000000E+00  0.00000000000E+00  0.99999998245E-14  0.12509000000E+03  0.12509000000E+03 0.  0.
        -13    1    3    3    0    0  0.36817077753E+02  0.24746178298E+02  0.28442949671E+02  0.52696139371E+02  0.10566000000E+00 0. -1.
         23    2    1    0    0    0  0.28107709766E+02 -0.85938385330E+01  0.29698480190E+01  0.95548209156E+02  0.90866621301E+02 0.  0.
         13    1    3    3    0    0 -0.87093679864E+01 -0.33340016831E+02 -0.25473101652E+02  0.42852069785E+02  0.10566000000E+00 0.  1.
         22    1    1    0    0    0 -0.28107709766E+02  0.85938385330E+01 -0.29698480190E+01  0.29541790844E+02  0.00000000000E+00 0. -1.
</event>
<event>
 5    1  0.1255769E-009  0.9118800E+02  0.7561462E-02  0.1125453E+00
         25   -1    0    0    0    0  0.00000000000E+00  0.00000000000E+00  0.99999998245E-14  0.12509000000E+03  0.12509000000E+03 0.  0.
        -13    1    3    3    0    0  0.22134761865E+02 -0.33821575749E+02  0.38856988330E+02  0.56068916300E+02  0.10566000000E+00 0.  1.
         23    2    1    0    0    0  0.22451271911E+02  0.20687608241E+00  0.20255491117E+02  0.94851161919E+02  0.89901922053E+02 0.  0.
         13    1    3    3    0    0  0.31651004523E+00  0.34028451831E+02 -0.18601497213E+02  0.38782245619E+02  0.10566000000E+00 0. -1.
         22    1    1    0    0    0 -0.22451271911E+02 -0.20687608241E+00 -0.20255491117E+02  0.30238838081E+02  0.00000000000E+00 0.  1.
</event>
<event>
 5    1  0.1255769E-009  0.9118800E+02  0.7561462E-02  0.1125453E+00
         25   -1    0    0    0    0  0.00000000000E+00  0.00000000000E+00  0.99999998245E-14  0.12509000000E+03  0.12509000000E+03 0.  0.
        -13    1    3    3    0    0 -0.25495848733E+02 -0.44844442742E+02  0.14387254575E+02  0.53554333211E+02  0.10566000000E+00 0. -1.
         23    2    1    0    0    0 -0.16681721658E+02 -0.43842446928E+01  0.23485360334E+02  0.95951304267E+02  0.91419851244E+02 0.  0.
         13    1    3    3    0    0  0.88141270744E+01  0.40460198049E+02  0.90981057594E+01  0.42396971056E+02  0.10566000000E+00 0.  1.
         22    1    1    0    0    0  0.16681721658E+02  0.43842446928E+01 -0.23485360334E+02  0.29138695733E+02  0.00000000000E+00 0.  1.
</event>
<event>
 5    1  0.1255769E-009  0.9118800E+02  0.7561462E-02  0.1125453E+00
         25   -1    0    0    0    0  0.00000000000E+00  0.00000000000E+00  0.99999998245E-14  0.12509000000E+03  0.12509000000E+03 0.  0.
        -13    1    3    3    0    0  0.52185230801E+02 -0.28196522232E+02 -0.10806718278E+02  0.60292109796E+02  0.10566000000E+00 0.  1.
         23    2    1    0    0    0  0.20647992433E+02 -0.22979621831E+02 -0.11110192136E+02  0.92259541881E+02  0.86220554903E+02 0.  0.
         13    1    3    3    0    0 -0.31537238368E+02  0.52169004010E+01 -0.30347385811E+00  0.31967432085E+02  0.10566000000E+00 0. -1.
         22    1    1    0    0    0 -0.20647992433E+02  0.22979621831E+02  0.11110192136E+02  0.32830458119E+02  0.00000000000E+00 0.  1.
</event>
<event>
 5    1  0.1255769E-009  0.9118800E+02  0.7561462E-02  0.1125453E+00
         25   -1    0    0    0    0  0.00000000000E+00  0.00000000000E+00  0.99999998245E-14  0.12509000000E+03  0.12509000000E+03 0.  0.
        -13    1    3    3    0    0  0.14098273179E+01  0.30909001051E+02 -0.47284962855E+02  0.56508696988E+02  0.10566000000E+00 0. -1.
         23    2    1    0    0    0  0.78749169883E+01 -0.47182934243E+01 -0.23576571509E+02  0.99789183126E+02  0.96528491827E+02 0.  0.
         13    1    3    3    0    0  0.64650896704E+01 -0.35627294475E+02  0.23708391346E+02  0.43280486138E+02  0.10566000000E+00 0.  1.
         22    1    1    0    0    0 -0.78749169883E+01  0.47182934243E+01  0.23576571509E+02  0.25300816874E+02  0.00000000000E+00 0. -1.
</event>
<event>
 5    1  0.1255769E-009  0.9118800E+02  0.7561462E-02  0.1125453E+00
         25   -1    0    0    0    0  0.00000000000E+00  0.00000000000E+00  0.99999998245E-14  0.12509000000E+03  0.12509000000E+03 0.  0.
        -13    1    3    3    0    0  0.55865405895E+02  0.18823792404E+02 -0.14279620278E+01  0.58968881419E+02  0.10566000000E+00 0.  1.
         23    2    1    0    0    0  0.19417785113E+02  0.19564046889E+02  0.75436153062E+01  0.96511888773E+02  0.92183709154E+02 0.  0.
         13    1    3    3    0    0 -0.36447620781E+02  0.74025448555E+00  0.89715773340E+01  0.37543007354E+02  0.10566000000E+00 0. -1.
         22    1    1    0    0    0 -0.19417785113E+02 -0.19564046889E+02 -0.75436153062E+01  0.28578111227E+02  0.00000000000E+00 0. -1.
</event>
<event>
 5    1  0.1255769E-009  0.9118800E+02  0.7561462E-02  0.1125453E+00
         25   -1    0    0    0    0  0.00000000000E+00  0.00000000000E+00  0.99999998245E-14  0.12509000000E+03  0.12509000000E+03 0.  0.
        -13    1    3    3    0    0  0.17190794419E+02  0.40889378623E+02  0.64743732606E+01  0.44826257596E+02  0.10566000000E+00 0.  1.
         23    2    1    0    0    0 -0.11408818519E+02  0.16830402305E+02 -0.24418133696E+02  0.93314713456E+02  0.87738058518E+02 0.  0.
         13    1    3    3    0    0 -0.28599612937E+02 -0.24058976318E+02 -0.30892506957E+02  0.48488455860E+02  0.10566000000E+00 0. -1.
         22    1    1    0    0    0  0.11408818519E+02 -0.16830402305E+02  0.24418133696E+02  0.31775286544E+02  0.00000000000E+00 0.  1.
</event>
<event>
 5    1  0.1255769E-009  0.9118800E+02  0.7561462E-02  0.1125453E+00
         25   -1    0    0    0    0  0.00000000000E+00  0.00000000000E+00  0.99999998245E-14  0.12509000000E+03  0.12509000000E+03 0.  0.
        -13    1    3    3    0    0  0.14235714113E+02  0.82095307776E+01  0.57530646026E+02  0.59831750335E+02  0.10566000000E+00 0. -1.
         23    2    1    0    0    0  0.15565458868E+02 -0.53591961485E+01  0.24423006116E+02  0.95636855502E+02  0.90988572960E+02 0.  0.
         13    1    3    3    0    0  0.13297447552E+01 -0.13568726926E+02 -0.33107639911E+02  0.35805105167E+02  0.10566000000E+00 0.  1.
         22    1    1    0    0    0 -0.15565458868E+02  0.53591961485E+01 -0.24423006116E+02  0.29453144498E+02  0.00000000000E+00 0. -1.
</event>
<event>
 5    1  0.1255769E-009  0.9118800E+02  0.7561462E-02  0.1125453E+00
         25   -1    0    0    0    0  0.00000000000E+00  0.00000000000E+00  0.99999998245E-14  0.12509000000E+03  0.12509000000E+03 0.  0.
        -13    1    3    3    0    0  0.15657093982E+02  0.11726314357E+02  0.41621805580E+02  0.45989530375E+02  0.10566000000E+00 0. -1.
         23    2    1    0    0    0 -0.95973402328E+01 -0.21330875318E+02  0.25183088126E+02  0.90719909675E+02  0.83957125383E+02 0.  0.
         13    1    3    3    0    0 -0.25254434215E+02 -0.33057189675E+02 -0.16438717454E+02  0.44730379300E+02  0.10566000000E+00 0.  1.
         22    1    1    0    0    0  0.95973402328E+01  0.21330875318E+02 -0.25183088126E+02  0.34370090325E+02  0.00000000000E+00 0.  1.
</event>
<event>
 5    1  0.1255769E-009  0.9118800E+02  0.7561462E-02  0.1125453E+00
         25   -1    0    0    0    0  0.00000000000E+00  0.00000000000E+00  0.99999998245E-14  0.12509000000E+03  0.12509000000E+03 0.  0.
        -13    1    3    3    0    0  0.33886135531E+02 -0.11482746335E+02  0.71623178561E+01  0.36488814803E+02  0.10566000000E+00 0.  1.
         23    2    1    0    0    0 -0.16763027791E+02  0.10007347933E+02  0.24116715959E+02  0.94061592016E+02  0.88796514518E+02 0.  0.
         13    1    3    3    0    0 -0.50649163323E+02  0.21490094268E+02  0.16954398102E+02  0.57572777213E+02  0.10566000000E+00 0. -1.
         22    1    1    0    0    0  0.16763027791E+02 -0.10007347933E+02 -0.24116715959E+02  0.31028407984E+02  0.00000000000E+00 0. -1.
</event>
<event>
 5    1  0.1255769E-009  0.9118800E+02  0.7561462E-02  0.1125453E+00
         25   -1    0    0    0    0  0.00000000000E+00  0.00000000000E+00  0.99999998245E-14  0.12509000000E+03  0.12509000000E+03 0.  0.
        -13    1    3    3    0    0 -0.24337166325E+02  0.21476742825E+02 -0.40519051773E+02  0.51916787917E+02  0.10566000000E+00 0.  1.
         23    2    1    0    0    0 -0.25861105784E+01 -0.13900296058E+02 -0.25225611122E+02  0.96172225969E+02  0.91721640811E+02 0.  0.
         13    1    3    3    0    0  0.21751055747E+02 -0.35377038883E+02  0.15293440651E+02  0.44255438052E+02  0.10566000000E+00 0. -1.
         22    1    1    0    0    0  0.25861105784E+01  0.13900296058E+02  0.25225611122E+02  0.28917774031E+02  0.00000000000E+00 0.  1.
</event>
<event>
 5    1  0.1255769E-009  0.9118800E+02  0.7561462E-02  0.1125453E+00
         25   -1    0    0    0    0  0.00000000000E+00  0.00000000000E+00  0.99999998245E-14  0.12509000000E+03  0.12509000000E+03 0.  0.
        -13    1    3    3    0    0 -0.28253852083E+01 -0.12122249502E+02 -0.33029208950E+02  0.35296905565E+02  0.10566000000E+00 0. -1.
         23    2    1    0    0    0 -0.13206756396E+02 -0.61881162182E+01  0.25866907239E+02  0.95394746390E+02  0.90655113214E+02 0.  0.
         13    1    3    3    0    0 -0.10381371188E+02  0.59341332839E+01  0.58896116189E+02  0.60097840825E+02  0.10566000000E+00 0.  1.
         22    1    1    0    0    0  0.13206756396E+02  0.61881162182E+01 -0.25866907239E+02  0.29695253610E+02  0.00000000000E+00 0.  1.
</event>
<event>
 5    1  0.1255769E-009  0.9118800E+02  0.7561462E-02  0.1125453E+00
         25   -1    0    0    0    0  0.00000000000E+00  0.00000000000E+00  0.99999998245E-14  0.12509000000E+03  0.12509000000E+03 0.  0.
        -13    1    3    3    0    0  0.29475961082E+01  0.20248666459E+02  0.95489952140E+01  0.22580772569E+02  0.10566000000E+00 0.  1.
         23    2    1    0    0    0 -0.18053744271E+02 -0.17376189936E+02 -0.33344472884E+02  0.83380006824E+02  0.72197659291E+02 0.  0.
         13    1    3    3    0    0 -0.21001340379E+02 -0.37624856395E+02 -0.42893468098E+02  0.60799234254E+02  0.10566000000E+00 0. -1.
         22    1    1    0    0    0  0.18053744271E+02  0.17376189936E+02  0.33344472884E+02  0.41709993176E+02  0.00000000000E+00 0. -1.
</event>
<event>
 5    1  0.1255769E-009  0.9118800E+02  0.7561462E-02  0.1125453E+00
         25   -1    0    0    0    0  0.00000000000E+00  0.00000000000E+00  0.99999998245E-14  0.12509000000E+03  0.12509000000E+03 0.  0.
        -13    1    3    3    0    0 -0.19050176890E+02 -0.22833156823E+02  0.11300035079E+02  0.31811385491E+02  0.10566000000E+00 0. -1.
         23    2    1    0    0    0  0.25410724097E+02  0.14642287839E+02 -0.10540583044E+02  0.93925831743E+02  0.88605059028E+02 0.  0.
         13    1    3    3    0    0  0.44460900986E+02  0.37475444662E+02 -0.21840618123E+02  0.62114446252E+02  0.10566000000E+00 0.  1.
         22    1    1    0    0    0 -0.25410724097E+02 -0.14642287839E+02  0.10540583044E+02  0.31164168257E+02  0.00000000000E+00 0.  1.
</event>
<event>
 5    1  0.1255769E-009  0.9118800E+02  0.7561462E-02  0.1125453E+00
         25   -1    0    0    0    0  0.00000000000E+00  0.00000000000E+00  0.99999998245E-14  0.12509000000E+03  0.12509000000E+03 0.  0.
        -13    1    3    3    0    0  0.40571366934E+02  0.30296426412E+02 -0.23327571129E+02  0.55750300511E+02  0.10566000000E+00 0.  1.
         23    2    1    0    0    0  0.72094818333E+01  0.36415435630E+01 -0.25333626646E+02  0.98499962263E+02  0.94843093892E+02 0.  0.
         13    1    3    3    0    0 -0.33361885101E+02 -0.26654882849E+02 -0.20060555169E+01  0.42749661752E+02  0.10566000000E+00 0. -1.
         22    1    1    0    0    0 -0.72094818333E+01 -0.36415435630E+01  0.25333626646E+02  0.26590037737E+02  0.00000000000E+00 0.  1.
</event>
<event>
 5    1  0.1255769E-009  0.9118800E+02  0.7561462E-02  0.1125453E+00
         25   -1    0    0    0    0  0.00000000000E+00  0.00000000000E+00  0.99999998245E-14  0.12509000000E+03  0.12509000000E+03 0.  0.
        -13    1    3    3    0    0  0.18278916217E+01  0.40237387309E+02 -0.41739891016E+02  0.58005328990E+02  0.10566000000E+00 0. -1.
         23    2    1    0    0    0 -0.21305723569E+01  0.33583168032E+01 -0.26807050417E+02  0.97989528005E+02  0.94167467929E+02 0.  0.
         13    1    3    3    0    0 -0.39584639786E+01 -0.36879070506E+02  0.14932840599E+02  0.39984199014E+02  0.10566000000E+00 0.  1.
         22    1    1    0    0    0  0.21305723569E+01 -0.33583168032E+01  0.26807050417E+02  0.27100471995E+02  0.00000000000E+00 0. -1.
</event>
<event>
 5    1  0.1255769E-009  0.9118800E+02  0.7561462E-02  0.1125453E+00
         25   -1    0    0    0    0  0.00000000000E+00  0.00000000000E+00  0.99999998245E-14  0.12509000000E+03  0.12509000000E+03 0.  0.
        -13    1    3    3    0    0  0.27806309501E+01  0.16059319641E+02  0.26873583494E+02  0.31429831524E+02  0.10566000000E+00 0. -1.
         23    2    1    0    0    0 -0.38708323534E+01 -0.62696819266E+00 -0.31932121756E+02  0.92918011687E+02  0.87170637624E+02 0.  0.
         13    1    3    3    0    0 -0.66514633035E+01 -0.16686287834E+02 -0.58805705249E+02  0.61488180162E+02  0.10566000000E+00 0.  1.
         22    1    1    0    0    0  0.38708323534E+01  0.62696819266E+00  0.31932121756E+02  0.32171988313E+02  0.00000000000E+00 0.  1.
</event>
<event>
 5    1  0.1255769E-009  0.9118800E+02  0.7561462E-02  0.1125453E+00
         25   -1    0    0    0    0  0.00000000000E+00  0.00000000000E+00  0.99999998245E-14  0.12509000000E+03  0.12509000000E+03 0.  0.
        -13    1    3    3    0    0 -0.32121477773E+02 -0.28325961787E+02 -0.39830544023E+02  0.58486176544E+02  0.10566000000E+00 0.  1.
         23    2    1    0    0    0 -0.19006657306E+02 -0.22042179322E+02 -0.59126923513E+01  0.95390326230E+02  0.90649013873E+02 0.  0.
         13    1    3    3    0    0  0.13114820468E+02  0.62837824643E+01  0.33917851672E+02  0.36904149686E+02  0.10566000000E+00 0. -1.
         22    1    1    0    0    0  0.19006657306E+02  0.22042179322E+02  0.59126923513E+01  0.29699673770E+02  0.00000000000E+00 0.  1.
</event>
<event>
 5    1  0.1255769E-009  0.9118800E+02  0.7561462E-02  0.1125453E+00
         25   -1    0    0    0    0  0.00000000000E+00  0.00000000000E+00  0.99999998245E-14  0.12509000000E+03  0.12509000000E+03 0.  0.
        -13    1    3    3    0    0 -0.49822634304E+02 -0.15563850149E+02 -0.12326221855E+02  0.53632781297E+02  0.10566000000E+00 0.  1.
         23    2    1    0    0    0 -0.75662152735E+01 -0.22261199177E+02 -0.16117095865E+02  0.96584397367E+02  0.92282048273E+02 0.  0.
         13    1    3    3    0    0  0.42256419030E+02 -0.66973490272E+01 -0.37908740096E+01  0.42951616070E+02  0.10566000000E+00 0. -1.
         22    1    1    0    0    0  0.75662152735E+01  0.22261199177E+02  0.16117095865E+02  0.28505602633E+02  0.00000000000E+00 0.  1.
</event>
<event>
 5    1  0.1255769E-009  0.9118800E+02  0.7561462E-02  0.1125453E+00
         25   -1    0    0    0    0  0.00000000000E+00  0.00000000000E+00  0.99999998245E-14  0.12509000000E+03  0.12509000000E+03 0.  0.
        -13    1    3    3    0    0  0.53366527825E+02 -0.22444130792E+02  0.12264832895E+02  0.59179072222E+02  0.10566000000E+00 0.  1.
         23    2    1    0    0    0  0.29181586996E+02  0.89629119297E+00 -0.22875901165E+01  0.95805167304E+02  0.91219672528E+02 0.  0.
         13    1    3    3    0    0 -0.24184940829E+02  0.23340421985E+02 -0.14552423012E+02  0.36626095081E+02  0.10566000000E+00 0. -1.
         22    1    1    0    0    0 -0.29181586996E+02 -0.89629119297E+00  0.22875901165E+01  0.29284832696E+02  0.00000000000E+00 0.  1.
</event>
<event>
 5    1  0.1255769E-009  0.9118800E+02  0.7561462E-02  0.1125453E+00
         25   -1    0    0    0    0  0.00000000000E+00  0.00000000000E+00  0.99999998245E-14  0.12509000000E+03  0.12509000000E+03 0.  0.
        -13    1    3    3    0    0  0.19590217663E+02  0.45336835953E+02 -0.28441878655E+02  0.56992604325E+02  0.10566000000E+00 0.  1.
         23    2    1    0    0    0  0.88458297068E+01  0.30530173634E+02  0.27834205136E+01  0.93182514435E+02  0.87549376705E+02 0.  0.
         13    1    3    3    0    0 -0.10744387956E+02 -0.14806662319E+02  0.31225299169E+02  0.36189910110E+02  0.10566000000E+00 0. -1.
         22    1    1    0    0    0 -0.88458297068E+01 -0.30530173634E+02 -0.27834205136E+01  0.31907485565E+02  0.00000000000E+00 0.  1.
</event>
<event>
 5    1  0.1255769E-009  0.9118800E+02  0.7561462E-02  0.1125453E+00
         25   -1    0    0    0    0  0.00000000000E+00  0.00000000000E+00  0.99999998245E-14  0.12509000000E+03  0.12509000000E+03 0.  0.
        -13    1    3    3    0    0  0.65259403054E+01  0.39135867070E+02 -0.46115312672E+02  0.60834506779E+02  0.10566000000E+00 0.  1.
         23    2    1    0    0    0  0.12493414426E+02  0.21373382198E+02 -0.18600106044E+02  0.94124360729E+02  0.88884894482E+02 0.  0.
         13    1    3    3    0    0  0.59674741202E+01 -0.17762484872E+02  0.27515206628E+02  0.33289853950E+02  0.10566000000E+00 0. -1.
         22    1    1    0    0    0 -0.12493414426E+02 -0.21373382198E+02  0.18600106044E+02  0.30965639271E+02  0.00000000000E+00 0.  1.
</event>
<event>
 5    1  0.1255769E-009  0.9118800E+02  0.7561462E-02  0.1125453E+00
         25   -1    0    0    0    0  0.00000000000E+00  0.00000000000E+00  0.99999998245E-14  0.12509000000E+03  0.12509000000E+03 0.  0.
        -13    1    3    3    0    0 -0.26597230973E+02  0.91159066574E+01 -0.14852183183E+02  0.31797970988E+02  0.10566000000E+00 0.  1.
         23    2    1    0    0    0  0.56947974466E+01 -0.32481075721E+02  0.10821569989E+02  0.90383266144E+02  0.83454043784E+02 0.  0.
         13    1    3    3    0    0  0.32292028420E+02 -0.41596982378E+02  0.25673753173E+02  0.58585295155E+02  0.10566000000E+00 0. -1.
         22    1    1    0    0    0 -0.56947974466E+01  0.32481075721E+02 -0.10821569989E+02  0.34706733856E+02  0.00000000000E+00 0. -1.
</event>
<event>
 5    1  0.1255769E-009  0.9118800E+02  0.7561462E-02  0.1125453E+00
         25   -1    0    0    0    0  0.00000000000E+00  0.00000000000E+00  0.99999998245E-14  0.12509000000E+03  0.12509000000E+03 0.  0.
        -13    1    3    3    0    0  0.57250708769E+02 -0.15608795686E+02  0.74616288753E+01  0.59807735510E+02  0.10566000000E+00 0. -1.
         23    2    1    0    0    0  0.21009123444E+02 -0.17824998908E+02  0.88726307042E+01  0.96144578435E+02  0.91683927342E+02 0.  0.
         13    1    3    3    0    0 -0.36241585325E+02 -0.22162032218E+01  0.14110018289E+01  0.36336842925E+02  0.10566000000E+00 0.  1.
         22    1    1    0    0    0 -0.21009123444E+02  0.17824998908E+02 -0.88726307042E+01  0.28945421565E+02  0.00000000000E+00 0. -1.
</event>
<event>
 5    1  0.1255769E-009  0.9118800E+02  0.7561462E-02  0.1125453E+00
         25   -1    0    0    0    0  0.00000000000E+00  0.00000000000E+00  0.99999998245E-14  0.12509000000E+03  0.12509000000E+03 0.  0.
        -13    1    3    3    0    0 -0.26795172667E+02  0.44027439722E+02 -0.33905003247E+02  0.61692439860E+02  0.10566000000E+00 0. -1.
         23    2    1    0    0    0 -0.18382623160E+02  0.17726029182E+02 -0.12348872744E+02  0.96724041478E+02  0.92471144673E+02 0.  0.
         13    1    3    3    0    0  0.84125495063E+01 -0.26301410540E+02  0.21556130503E+02  0.35031601618E+02  0.10566000000E+00 0.  1.
         22    1    1    0    0    0  0.18382623160E+02 -0.17726029182E+02  0.12348872744E+02  0.28365958522E+02  0.00000000000E+00 0. -1.
</event>
<event>
 5    1  0.1255769E-009  0.9118800E+02  0.7561462E-02  0.1125453E+00
         25   -1    0    0    0    0  0.00000000000E+00  0.00000000000E+00  0.99999998245E-14  0.12509000000E+03  0.12509000000E+03 0.  0.
        -13    1    3    3    0    0 -0.23520132071E+02  0.16346445573E+02  0.31398912942E+02  0.42500656389E+02  0.10566000000E+00 0.  1.
         23    2    1    0    0    0  0.17708468200E+02  0.23687857819E+02 -0.10771440819E+01  0.95494988707E+02  0.90793326708E+02 0.  0.
         13    1    3    3    0    0  0.41228600271E+02  0.73414122455E+01 -0.32476057024E+02  0.52994332319E+02  0.10566000000E+00 0. -1.
         22    1    1    0    0    0 -0.17708468200E+02 -0.23687857819E+02  0.10771440819E+01  0.29595011293E+02  0.00000000000E+00 0. -1.
</event>
<event>
 5    1  0.1255769E-009  0.9118800E+02  0.7561462E-02  0.1125453E+00
         25   -1    0    0    0    0  0.00000000000E+00  0.00000000000E+00  0.99999998245E-14  0.12509000000E+03  0.12509000000E+03 0.  0.
        -13    1    3    3    0    0  0.14529861271E+02 -0.26855492460E+02 -0.15959421372E+02  0.34453572216E+02  0.10566000000E+00 0.  1.
         23    2    1    0    0    0 -0.71543641265E+01  0.15805678572E+02  0.23082065823E+02  0.96214644352E+02  0.91779472781E+02 0.  0.
         13    1    3    3    0    0 -0.21684225398E+02  0.42661171032E+02  0.39041487195E+02  0.61761072136E+02  0.10566000000E+00 0. -1.
         22    1    1    0    0    0  0.71543641265E+01 -0.15805678572E+02 -0.23082065823E+02  0.28875355648E+02  0.00000000000E+00 0. -1.
</event>
<event>
 5    1  0.1255769E-009  0.9118800E+02  0.7561462E-02  0.1125453E+00
         25   -1    0    0    0    0  0.00000000000E+00  0.00000000000E+00  0.99999998245E-14  0.12509000000E+03  0.12509000000E+03 0.  0.
        -13    1    3    3    0    0 -0.73860998465E+01  0.15369036001E+02 -0.30007624830E+02  0.34514206503E+02  0.10566000000E+00 0.  1.
         23    2    1    0    0    0  0.18093977834E+02 -0.14068634873E+02  0.17728233247E+02  0.96113996564E+02  0.91642193123E+02 0.  0.
         13    1    3    3    0    0  0.25480077681E+02 -0.29437670874E+02  0.47735858078E+02  0.61599790061E+02  0.10566000000E+00 0. -1.
         22    1    1    0    0    0 -0.18093977834E+02  0.14068634873E+02 -0.17728233247E+02  0.28976003436E+02  0.00000000000E+00 0. -1.
</event>
<event>
 5    1  0.1255769E-009  0.9118800E+02  0.7561462E-02  0.1125453E+00
         25   -1    0    0    0    0  0.00000000000E+00  0.00000000000E+00  0.99999998245E-14  0.12509000000E+03  0.12509000000E+03 0.  0.
        -13    1    3    3    0    0 -0.45920107376E+02 -0.12033056798E+02 -0.40665590336E+02  0.62507216533E+02  0.10566000000E+00 0.  1.
         23    2    1    0    0    0 -0.21039794895E+02 -0.56514497767E+01 -0.20676046457E+02  0.95054841421E+02  0.90184877483E+02 0.  0.
         13    1    3    3    0    0  0.24880312481E+02  0.63816070215E+01  0.19989543879E+02  0.32547624888E+02  0.10566000000E+00 0. -1.
         22    1    1    0    0    0  0.21039794895E+02  0.56514497767E+01  0.20676046457E+02  0.30035158579E+02  0.00000000000E+00 0.  1.
</event>
<event>
 5    1  0.1255769E-009  0.9118800E+02  0.7561462E-02  0.1125453E+00
         25   -1    0    0    0    0  0.00000000000E+00  0.00000000000E+00  0.99999998245E-14  0.12509000000E+03  0.12509000000E+03 0.  0.
        -13    1    3    3    0    0 -0.30595470953E+02  0.13880910587E+02  0.53218694482E+01  0.34016113535E+02  0.10566000000E+00 0. -1.
         23    2    1    0    0    0  0.28578013080E+02 -0.45450325107E+01  0.12464005884E+01  0.96125993604E+02  0.91658567410E+02 0.  0.
         13    1    3    3    0    0  0.59173484033E+02 -0.18425943098E+02 -0.40754688597E+01  0.62109880068E+02  0.10566000000E+00 0.  1.
         22    1    1    0    0    0 -0.28578013080E+02  0.45450325107E+01 -0.12464005884E+01  0.28964006396E+02  0.00000000000E+00 0.  1.
</event>
<event>
 5    1  0.1255769E-009  0.9118800E+02  0.7561462E-02  0.1125453E+00
         25   -1    0    0    0    0  0.00000000000E+00  0.00000000000E+00  0.99999998245E-14  0.12509000000E+03  0.12509000000E+03 0.  0.
        -13    1    3    3    0    0  0.51802253727E+02  0.17126719148E+02 -0.13098372006E+02  0.56110395768E+02  0.10566000000E+00 0. -1.
         23    2    1    0    0    0  0.21932388706E+02 -0.10018203759E+02 -0.15302067056E+02  0.96532210571E+02  0.92211280983E+02 0.  0.
         13    1    3    3    0    0 -0.29869865021E+02 -0.27144922907E+02 -0.22036950500E+01  0.40421814802E+02  0.10566000000E+00 0.  1.
         22    1    1    0    0    0 -0.21932388706E+02  0.10018203759E+02  0.15302067056E+02  0.28557789429E+02  0.00000000000E+00 0. -1.
</event>
<event>
 5    1  0.1255769E-009  0.9118800E+02  0.7561462E-02  0.1125453E+00
         25   -1    0    0    0    0  0.00000000000E+00  0.00000000000E+00  0.99999998245E-14  0.12509000000E+03  0.12509000000E+03 0.  0.
        -13    1    3    3    0    0 -0.54859554606E+02 -0.16712381399E+02 -0.21822480915E+02  0.61360461707E+02  0.10566000000E+00 0.  1.
         23    2    1    0    0    0 -0.25996538432E+02 -0.13186868273E+02 -0.34967773542E+01  0.95731169009E+02  0.91118141787E+02 0.  0.
         13    1    3    3    0    0  0.28863016174E+02  0.35255131258E+01  0.18325703561E+02  0.34370707302E+02  0.10566000000E+00 0. -1.
         22    1    1    0    0    0  0.25996538432E+02  0.13186868273E+02  0.34967773542E+01  0.29358830991E+02  0.00000000000E+00 0.  1.
</event>
<event>
 5    1  0.1255769E-009  0.9118800E+02  0.7561462E-02  0.1125453E+00
         25   -1    0    0    0    0  0.00000000000E+00  0.00000000000E+00  0.99999998245E-14  0.12509000000E+03  0.12509000000E+03 0.  0.
        -13    1    3    3    0    0  0.25155907292E+02  0.25311591740E+02 -0.46992345992E+02  0.59006678385E+02  0.10566000000E+00 0. -1.
         23    2    1    0    0    0  0.56722042452E+01 -0.11461279140E+01 -0.27017628848E+02  0.97459585983E+02  0.93460853416E+02 0.  0.
         13    1    3    3    0    0 -0.19483703047E+02 -0.26457719654E+02  0.19974717144E+02  0.38452907598E+02  0.10566000000E+00 0.  1.
         22    1    1    0    0    0 -0.56722042452E+01  0.11461279140E+01  0.27017628848E+02  0.27630414017E+02  0.00000000000E+00 0. -1.
</event>
<event>
 5    1  0.1255769E-009  0.9118800E+02  0.7561462E-02  0.1125453E+00
         25   -1    0    0    0    0  0.00000000000E+00  0.00000000000E+00  0.99999998245E-14  0.12509000000E+03  0.12509000000E+03 0.  0.
        -13    1    3    3    0    0  0.39213417254E+00  0.35284960165E+02 -0.21145977023E+02  0.41138129410E+02  0.10566000000E+00 0. -1.
         23    2    1    0    0    0 -0.29792268923E+02 -0.19028715514E+01  0.35506651707E+01  0.95026609790E+02  0.90145710588E+02 0.  0.
         13    1    3    3    0    0 -0.30184403096E+02 -0.37187831716E+02  0.24696642194E+02  0.53888480380E+02  0.10566000000E+00 0.  1.
         22    1    1    0    0    0  0.29792268923E+02  0.19028715514E+01 -0.35506651707E+01  0.30063390210E+02  0.00000000000E+00 0. -1.
</event>
<event>
 5    1  0.1255769E-009  0.9118800E+02  0.7561462E-02  0.1125453E+00
         25   -1    0    0    0    0  0.00000000000E+00  0.00000000000E+00  0.99999998245E-14  0.12509000000E+03  0.12509000000E+03 0.  0.
        -13    1    3    3    0    0  0.12567808743E+02 -0.45509858489E+02 -0.39906802091E+02  0.61819584708E+02  0.10566000000E+00 0.  1.
         23    2    1    0    0    0  0.10121411316E+02 -0.24752560444E+02 -0.14667647295E+02  0.94589637827E+02  0.89537296651E+02 0.  0.
         13    1    3    3    0    0 -0.24463974271E+01  0.20757298045E+02  0.25239154797E+02  0.32770053119E+02  0.10566000000E+00 0. -1.
         22    1    1    0    0    0 -0.10121411316E+02  0.24752560444E+02  0.14667647295E+02  0.30500362173E+02  0.00000000000E+00 0.  1.
</event>
<event>
 5    1  0.1255769E-009  0.9118800E+02  0.7561462E-02  0.1125453E+00
         25   -1    0    0    0    0  0.00000000000E+00  0.00000000000E+00  0.99999998245E-14  0.12509000000E+03  0.12509000000E+03 0.  0.
        -13    1    3    3    0    0  0.28940814530E+02 -0.21457791996E+02  0.16869946388E+02  0.39782079359E+02  0.10566000000E+00 0.  1.
         23    2    1    0    0    0 -0.37749229852E+01  0.24077469361E+02  0.16144196383E+02  0.95856292551E+02  0.91289753918E+02 0.  0.
         13    1    3    3    0    0 -0.32715737515E+02  0.45535261357E+02 -0.72575000513E+00  0.56074213192E+02  0.10566000000E+00 0. -1.
         22    1    1    0    0    0  0.37749229852E+01 -0.24077469361E+02 -0.16144196383E+02  0.29233707449E+02  0.00000000000E+00 0. -1.
</event>
<event>
 5    1  0.1255769E-009  0.9118800E+02  0.7561462E-02  0.1125453E+00
         25   -1    0    0    0    0  0.00000000000E+00  0.00000000000E+00  0.99999998245E-14  0.12509000000E+03  0.12509000000E+03 0.  0.
        -13    1    3    3    0    0  0.33382258843E+02 -0.25568990866E+02 -0.33677847858E+02  0.53873528748E+02  0.10566000000E+00 0.  1.
         23    2    1    0    0    0  0.45769514105E+01 -0.29092475244E+02 -0.40217781522E+01  0.95366351174E+02  0.90615923747E+02 0.  0.
         13    1    3    3    0    0 -0.28805307432E+02 -0.35234843785E+01  0.29656069706E+02  0.41492822426E+02  0.10566000000E+00 0. -1.
         22    1    1    0    0    0 -0.45769514105E+01  0.29092475244E+02  0.40217781522E+01  0.29723648826E+02  0.00000000000E+00 0.  1.
</event>
<event>
 5    1  0.1255769E-009  0.9118800E+02  0.7561462E-02  0.1125453E+00
         25   -1    0    0    0    0  0.00000000000E+00  0.00000000000E+00  0.99999998245E-14  0.12509000000E+03  0.12509000000E+03 0.  0.
        -13    1    3    3    0    0 -0.86965923556E+00 -0.33653029035E+02 -0.19281089613E+02  0.38795028691E+02  0.10566000000E+00 0.  1.
         23    2    1    0    0    0  0.19110252269E+01  0.24739831436E+02 -0.11400052595E+02  0.97782995842E+02  0.93892714307E+02 0.  0.
         13    1    3    3    0    0  0.27806844625E+01  0.58392860471E+02  0.78810370184E+01  0.58987967151E+02  0.10566000000E+00 0. -1.
         22    1    1    0    0    0 -0.19110252269E+01 -0.24739831436E+02  0.11400052595E+02  0.27307004158E+02  0.00000000000E+00 0. -1.
</event>
<event>
 5    1  0.1255769E-009  0.9118800E+02  0.7561462E-02  0.1125453E+00
         25   -1    0    0    0    0  0.00000000000E+00  0.00000000000E+00  0.99999998245E-14  0.12509000000E+03  0.12509000000E+03 0.  0.
        -13    1    3    3    0    0 -0.27345193610E+02  0.80837489052E+01 -0.38925180046E+02  0.48252330675E+02  0.10566000000E+00 0. -1.
         23    2    1    0    0    0 -0.73000612023E+01  0.27876167152E+02 -0.34252660771E-01  0.96273810767E+02  0.91860077715E+02 0.  0.
         13    1    3    3    0    0  0.20045132408E+02  0.19792418247E+02  0.38890927386E+02  0.48021480092E+02  0.10566000000E+00 0.  1.
         22    1    1    0    0    0  0.73000612023E+01 -0.27876167152E+02  0.34252660771E-01  0.28816189233E+02  0.00000000000E+00 0.  1.
</event>
<event>
 5    1  0.1255769E-009  0.9118800E+02  0.7561462E-02  0.1125453E+00
         25   -1    0    0    0    0  0.00000000000E+00  0.00000000000E+00  0.99999998245E-14  0.12509000000E+03  0.12509000000E+03 0.  0.
        -13    1    3    3    0    0 -0.16464995557E+02  0.27603558572E+02 -0.13320634901E+02  0.34792283667E+02  0.10566000000E+00 0.  1.
         23    2    1    0    0    0  0.12115295045E+01 -0.29190984691E+02  0.54481360764E+00  0.95868805417E+02  0.91306898093E+02 0.  0.
         13    1    3    3    0    0  0.17676525062E+02 -0.56794543263E+02  0.13865448508E+02  0.61076521750E+02  0.10566000000E+00 0. -1.
         22    1    1    0    0    0 -0.12115295045E+01  0.29190984691E+02 -0.54481360764E+00  0.29221194583E+02  0.00000000000E+00 0. -1.
</event>
<event>
 5    1  0.1255769E-009  0.9118800E+02  0.7561462E-02  0.1125453E+00
         25   -1    0    0    0    0  0.00000000000E+00  0.00000000000E+00  0.99999998245E-14  0.12509000000E+03  0.12509000000E+03 0.  0.
        -13    1    3    3    0    0  0.32580742754E+02 -0.16857303189E+02 -0.19613754466E+02  0.41597884532E+02  0.10566000000E+00 0. -1.
         23    2    1    0    0    0 -0.22068256131E+02 -0.12989060741E+02 -0.11642015083E+02  0.96960653353E+02  0.92790668474E+02 0.  0.
         13    1    3    3    0    0 -0.54648998885E+02  0.38682424478E+01  0.79717393834E+01  0.55362768821E+02  0.10566000000E+00 0.  1.
         22    1    1    0    0    0  0.22068256131E+02  0.12989060741E+02  0.11642015083E+02  0.28129346647E+02  0.00000000000E+00 0.  1.
</event>
<event>
 5    1  0.1255769E-009  0.9118800E+02  0.7561462E-02  0.1125453E+00
         25   -1    0    0    0    0  0.00000000000E+00  0.00000000000E+00  0.99999998245E-14  0.12509000000E+03  0.12509000000E+03 0.  0.
        -13    1    3    3    0    0 -0.57160783082E+02  0.11371474283E+02 -0.66693240451E+01  0.58661372275E+02  0.10566000000E+00 0.  1.
         23    2    1    0    0    0 -0.34411271593E+02 -0.21962283175E+01  0.90211890199E+01  0.89448158258E+02  0.82040429868E+02 0.  0.
         13    1    3    3    0    0  0.22749511489E+02 -0.13567702601E+02  0.15690513065E+02  0.30786785983E+02  0.10566000000E+00 0. -1.
         22    1    1    0    0    0  0.34411271593E+02  0.21962283175E+01 -0.90211890199E+01  0.35641841742E+02  0.00000000000E+00 0.  1.
</event>
<event>
 5    1  0.1255769E-009  0.9118800E+02  0.7561462E-02  0.1125453E+00
         25   -1    0    0    0    0  0.00000000000E+00  0.00000000000E+00  0.99999998245E-14  0.12509000000E+03  0.12509000000E+03 0.  0.
        -13    1    3    3    0    0 -0.23415378124E+02  0.45233791747E+02 -0.36062398768E+02  0.62409002695E+02  0.10566000000E+00 0. -1.
         23    2    1    0    0    0 -0.89905807075E+01  0.19433672377E+02 -0.18505624880E+02  0.96788828369E+02  0.92558743408E+02 0.  0.
         13    1    3    3    0    0  0.14424797416E+02 -0.25800119370E+02  0.17556773888E+02  0.34379825674E+02  0.10566000000E+00 0.  1.
         22    1    1    0    0    0  0.89905807075E+01 -0.19433672377E+02  0.18505624880E+02  0.28301171631E+02  0.00000000000E+00 0. -1.
</event>
<event>
 5    1  0.1255769E-009  0.9118800E+02  0.7561462E-02  0.1125453E+00
         25   -1    0    0    0    0  0.00000000000E+00  0.00000000000E+00  0.99999998245E-14  0.12509000000E+03  0.12509000000E+03 0.  0.
        -13    1    3    3    0    0 -0.35560280100E+02  0.16412593449E+02  0.27425111052E+02  0.47812703592E+02  0.10566000000E+00 0.  1.
         23    2    1    0    0    0 -0.23058009803E+02 -0.21197580297E+02  0.49362607599E+01  0.93382336938E+02  0.87834417828E+02 0.  0.
         13    1    3    3    0    0  0.12502270297E+02 -0.37610173746E+02 -0.22488850292E+02  0.45569633346E+02  0.10566000000E+00 0. -1.
         22    1    1    0    0    0  0.23058009803E+02  0.21197580297E+02 -0.49362607599E+01  0.31707663062E+02  0.00000000000E+00 0.  1.
</event>
<event>
 5    1  0.1255769E-009  0.9118800E+02  0.7561462E-02  0.1125453E+00
         25   -1    0    0    0    0  0.00000000000E+00  0.00000000000E+00  0.99999998245E-14  0.12509000000E+03  0.12509000000E+03 0.  0.
        -13    1    3    3    0    0 -0.13837861888E+02  0.26295769961E+02 -0.66489219138E+01  0.30449519965E+02  0.10566000000E+00 0.  1.
         23    2    1    0    0    0  0.12003672879E+01 -0.26037346165E+02  0.21092189305E+02  0.91559942938E+02  0.85199521267E+02 0.  0.
         13    1    3    3    0    0  0.15038229175E+02 -0.52333116126E+02  0.27741111219E+02  0.61110422972E+02  0.10566000000E+00 0. -1.
         22    1    1    0    0    0 -0.12003672879E+01  0.26037346165E+02 -0.21092189305E+02  0.33530057062E+02  0.00000000000E+00 0. -1.
</event>
<event>
 5    1  0.1255769E-009  0.9118800E+02  0.7561462E-02  0.1125453E+00
         25   -1    0    0    0    0  0.00000000000E+00  0.00000000000E+00  0.99999998245E-14  0.12509000000E+03  0.12509000000E+03 0.  0.
        -13    1    3    3    0    0 -0.52037794479E+01  0.14393670124E+02  0.36596382310E+02  0.39668166360E+02  0.10566000000E+00 0. -1.
         23    2    1    0    0    0  0.80522201670E+01  0.20877237093E+02 -0.18093337544E+02  0.96313861591E+02  0.91914600542E+02 0.  0.
         13    1    3    3    0    0  0.13255999615E+02  0.64835669694E+01 -0.54689719854E+02  0.56645695231E+02  0.10566000000E+00 0.  1.
         22    1    1    0    0    0 -0.80522201670E+01 -0.20877237093E+02  0.18093337544E+02  0.28776138409E+02  0.00000000000E+00 0.  1.
</event>
<event>
 5    1  0.1255769E-009  0.9118800E+02  0.7561462E-02  0.1125453E+00
         25   -1    0    0    0    0  0.00000000000E+00  0.00000000000E+00  0.99999998245E-14  0.12509000000E+03  0.12509000000E+03 0.  0.
        -13    1    3    3    0    0 -0.36417333449E+02  0.34838034917E+01  0.43938244582E+02  0.57174640911E+02  0.10566000000E+00 0.  1.
         23    2    1    0    0    0 -0.10136463746E+01  0.57188015631E+01  0.28742477714E+02  0.95766593045E+02  0.91166760105E+02 0.  0.
         13    1    3    3    0    0  0.35403687074E+02  0.22349980714E+01 -0.15195766868E+02  0.38591952135E+02  0.10566000000E+00 0. -1.
         22    1    1    0    0    0  0.10136463746E+01 -0.57188015631E+01 -0.28742477714E+02  0.29323406955E+02  0.00000000000E+00 0. -1.
</event>
<event>
 5    1  0.1255769E-009  0.9118800E+02  0.7561462E-02  0.1125453E+00
         25   -1    0    0    0    0  0.00000000000E+00  0.00000000000E+00  0.99999998245E-14  0.12509000000E+03  0.12509000000E+03 0.  0.
        -13    1    3    3    0    0 -0.19984376454E+02  0.26399005489E+02  0.24223425138E+02  0.41025215204E+02  0.10566000000E+00 0.  1.
         23    2    1    0    0    0  0.27733677390E+02  0.65465842695E+01  0.12223344578E+02  0.94083149469E+02  0.88826877882E+02 0.  0.
         13    1    3    3    0    0  0.47718053844E+02 -0.19852421220E+02 -0.12000080561E+02  0.53057934265E+02  0.10566000000E+00 0. -1.
         22    1    1    0    0    0 -0.27733677390E+02 -0.65465842695E+01 -0.12223344578E+02  0.31006850531E+02  0.00000000000E+00 0. -1.
</event>
<event>
 5    1  0.1255769E-009  0.9118800E+02  0.7561462E-02  0.1125453E+00
         25   -1    0    0    0    0  0.00000000000E+00  0.00000000000E+00  0.99999998245E-14  0.12509000000E+03  0.12509000000E+03 0.  0.
        -13    1    3    3    0    0 -0.36598392133E+02  0.10943735839E+02  0.62929759534E+01  0.38714601525E+02  0.10566000000E+00 0.  1.
         23    2    1    0    0    0 -0.13190608941E+02 -0.23903929610E+02 -0.22576290787E+02  0.89662906967E+02  0.82367214139E+02 0.  0.
         13    1    3    3    0    0  0.23407783192E+02 -0.34847665449E+02 -0.28869266740E+02  0.50948305442E+02  0.10566000000E+00 0. -1.
         22    1    1    0    0    0  0.13190608941E+02  0.23903929610E+02  0.22576290787E+02  0.35427093033E+02  0.00000000000E+00 0. -1.
</event>
<event>
 5    1  0.1255769E-009  0.9118800E+02  0.7561462E-02  0.1125453E+00
         25   -1    0    0    0    0  0.00000000000E+00  0.00000000000E+00  0.99999998245E-14  0.12509000000E+03  0.12509000000E+03 0.  0.
        -13    1    3    3    0    0  0.90348207361E+01  0.38930907073E+02 -0.66286574931E+01  0.40511649873E+02  0.10566000000E+00 0.  1.
         23    2    1    0    0    0  0.13676424489E+02 -0.14369264306E+02 -0.21294318001E+02  0.95987279807E+02  0.91469063415E+02 0.  0.
         13    1    3    3    0    0  0.46416037533E+01 -0.53300171379E+02 -0.14665660508E+02  0.55475629934E+02  0.10566000000E+00 0. -1.
         22    1    1    0    0    0 -0.13676424489E+02  0.14369264306E+02  0.21294318001E+02  0.29102720193E+02  0.00000000000E+00 0.  1.
</event>
<event>
 5    1  0.1255769E-009  0.9118800E+02  0.7561462E-02  0.1125453E+00
         25   -1    0    0    0    0  0.00000000000E+00  0.00000000000E+00  0.99999998245E-14  0.12509000000E+03  0.12509000000E+03 0.  0.
        -13    1    3    3    0    0  0.34389332811E+02  0.17948893280E+02  0.39960024149E+02  0.55692043194E+02  0.10566000000E+00 0.  1.
         23    2    1    0    0    0  0.26900053433E+02 -0.78091541400E+01  0.11474088810E+02  0.94820370384E+02  0.89859068339E+02 0.  0.
         13    1    3    3    0    0 -0.74892793782E+01 -0.25758047420E+02 -0.28485935339E+02  0.39128327190E+02  0.10566000000E+00 0. -1.
         22    1    1    0    0    0 -0.26900053433E+02  0.78091541400E+01 -0.11474088810E+02  0.30269629616E+02  0.00000000000E+00 0.  1.
</event>
<event>
 5    1  0.1255769E-009  0.9118800E+02  0.7561462E-02  0.1125453E+00
         25   -1    0    0    0    0  0.00000000000E+00  0.00000000000E+00  0.99999998245E-14  0.12509000000E+03  0.12509000000E+03 0.  0.
        -13    1    3    3    0    0 -0.14582578432E+02 -0.29576194889E+02  0.91468097269E+01  0.34221019711E+02  0.10566000000E+00 0.  1.
         23    2    1    0    0    0  0.19461541191E+02  0.17807196355E+02 -0.11772397313E+02  0.96203373924E+02  0.91764110568E+02 0.  0.
         13    1    3    3    0    0  0.34044119623E+02  0.47383391244E+02 -0.20919207040E+02  0.61982354214E+02  0.10566000000E+00 0. -1.
         22    1    1    0    0    0 -0.19461541191E+02 -0.17807196355E+02  0.11772397313E+02  0.28886626076E+02  0.00000000000E+00 0. -1.
</event>
<event>
 5    1  0.1255769E-009  0.9118800E+02  0.7561462E-02  0.1125453E+00
         25   -1    0    0    0    0  0.00000000000E+00  0.00000000000E+00  0.99999998245E-14  0.12509000000E+03  0.12509000000E+03 0.  0.
        -13    1    3    3    0    0  0.44668372577E+02 -0.30718029922E+01 -0.26536787183E+02  0.52047206652E+02  0.10566000000E+00 0.  1.
         23    2    1    0    0    0  0.19179239703E+02 -0.26131351821E+02 -0.58869824644E+01  0.92145389726E+02  0.86054781980E+02 0.  0.
         13    1    3    3    0    0 -0.25489132874E+02 -0.23059548829E+02  0.20649804718E+02  0.40098183074E+02  0.10566000000E+00 0. -1.
         22    1    1    0    0    0 -0.19179239703E+02  0.26131351821E+02  0.58869824644E+01  0.32944610274E+02  0.00000000000E+00 0.  1.
</event>
<event>
 5    1  0.1255769E-009  0.9118800E+02  0.7561462E-02  0.1125453E+00
         25   -1    0    0    0    0  0.00000000000E+00  0.00000000000E+00  0.99999998245E-14  0.12509000000E+03  0.12509000000E+03 0.  0.
        -13    1    3    3    0    0  0.28570901780E+02  0.33162516101E+02 -0.16977476405E+02  0.46949917697E+02  0.10566000000E+00 0.  1.
         23    2    1    0    0    0  0.12475076000E+02  0.73674435121E+01  0.23444141592E+02  0.97530346155E+02  0.93555512403E+02 0.  0.
         13    1    3    3    0    0 -0.16095825780E+02 -0.25795072589E+02  0.40421617997E+02  0.50580428457E+02  0.10566000000E+00 0. -1.
         22    1    1    0    0    0 -0.12475076000E+02 -0.73674435121E+01 -0.23444141592E+02  0.27559653845E+02  0.00000000000E+00 0. -1.
</event>
<event>
 5    1  0.1255769E-009  0.9118800E+02  0.7561462E-02  0.1125453E+00
         25   -1    0    0    0    0  0.00000000000E+00  0.00000000000E+00  0.99999998245E-14  0.12509000000E+03  0.12509000000E+03 0.  0.
        -13    1    3    3    0    0 -0.11042011070E+02 -0.13939251648E+02 -0.53626960262E+02  0.56498590920E+02  0.10566000000E+00 0.  1.
         23    2    1    0    0    0 -0.22811218062E+02 -0.75820756869E+01 -0.16575324127E+02  0.95891011814E+02  0.91337315679E+02 0.  0.
         13    1    3    3    0    0 -0.11769206993E+02  0.63571759615E+01  0.37051636136E+02  0.39392420893E+02  0.10566000000E+00 0. -1.
         22    1    1    0    0    0  0.22811218062E+02  0.75820756869E+01  0.16575324127E+02  0.29198988186E+02  0.00000000000E+00 0.  1.
</event>
<event>
 5    1  0.1255769E-009  0.9118800E+02  0.7561462E-02  0.1125453E+00
         25   -1    0    0    0    0  0.00000000000E+00  0.00000000000E+00  0.99999998245E-14  0.12509000000E+03  0.12509000000E+03 0.  0.
        -13    1    3    3    0    0  0.38564948018E+02  0.34763194027E+02 -0.34578442528E+02  0.62381204912E+02  0.10566000000E+00 0.  1.
         23    2    1    0    0    0  0.13847733824E+02  0.16048402480E+02 -0.16084019937E+02  0.98481605618E+02  0.94818879943E+02 0.  0.
         13    1    3    3    0    0 -0.24717214194E+02 -0.18714791547E+02  0.18494422591E+02  0.36100400706E+02  0.10566000000E+00 0. -1.
         22    1    1    0    0    0 -0.13847733824E+02 -0.16048402480E+02  0.16084019937E+02  0.26608394382E+02  0.00000000000E+00 0.  1.
</event>
<event>
 5    1  0.1255769E-009  0.9118800E+02  0.7561462E-02  0.1125453E+00
         25   -1    0    0    0    0  0.00000000000E+00  0.00000000000E+00  0.99999998245E-14  0.12509000000E+03  0.12509000000E+03 0.  0.
        -13    1    3    3    0    0  0.28265679806E+02  0.52155153332E+02 -0.17528076224E+02  0.61857524151E+02  0.10566000000E+00 0.  1.
         23    2    1    0    0    0  0.13524336947E+02  0.29259926377E+02 -0.30131054644E+01  0.92715167398E+02  0.86879068133E+02 0.  0.
         13    1    3    3    0    0 -0.14741342858E+02 -0.22895226955E+02  0.14514970759E+02  0.30857643247E+02  0.10566000000E+00 0. -1.
         22    1    1    0    0    0 -0.13524336947E+02 -0.29259926377E+02  0.30131054644E+01  0.32374832602E+02  0.00000000000E+00 0.  1.
</event>
<event>
 5    1  0.1255769E-009  0.9118800E+02  0.7561462E-02  0.1125453E+00
         25   -1    0    0    0    0  0.00000000000E+00  0.00000000000E+00  0.99999998245E-14  0.12509000000E+03  0.12509000000E+03 0.  0.
        -13    1    3    3    0    0 -0.15495785044E+02 -0.44347521771E+02  0.13882677089E+02  0.48985323604E+02  0.10566000000E+00 0. -1.
         23    2    1    0    0    0  0.89790628628E+01 -0.61040748122E+01  0.26785371353E+02  0.96187761026E+02  0.91742825079E+02 0.  0.
         13    1    3    3    0    0  0.24474847907E+02  0.38243446959E+02  0.12902694263E+02  0.47202437422E+02  0.10566000000E+00 0.  1.
         22    1    1    0    0    0 -0.89790628628E+01  0.61040748122E+01 -0.26785371353E+02  0.28902238974E+02  0.00000000000E+00 0. -1.
</event>
<event>
 5    1  0.1255769E-009  0.9118800E+02  0.7561462E-02  0.1125453E+00
         25   -1    0    0    0    0  0.00000000000E+00  0.00000000000E+00  0.99999998245E-14  0.12509000000E+03  0.12509000000E+03 0.  0.
        -13    1    3    3    0    0 -0.44396064015E+02  0.15223483470E+02  0.79792948531E+01  0.47607197559E+02  0.10566000000E+00 0.  1.
         23    2    1    0    0    0 -0.65894448987E+01  0.25443258507E+02 -0.16748774430E+02  0.93924287551E+02  0.88602878957E+02 0.  0.
         13    1    3    3    0    0  0.37806619117E+02  0.10219775037E+02 -0.24728069284E+02  0.46317089992E+02  0.10566000000E+00 0. -1.
         22    1    1    0    0    0  0.65894448987E+01 -0.25443258507E+02  0.16748774430E+02  0.31165712449E+02  0.00000000000E+00 0.  1.
</event>
<event>
 5    1  0.1255769E-009  0.9118800E+02  0.7561462E-02  0.1125453E+00
         25   -1    0    0    0    0  0.00000000000E+00  0.00000000000E+00  0.99999998245E-14  0.12509000000E+03  0.12509000000E+03 0.  0.
        -13    1    3    3    0    0  0.31125850224E+02  0.21920916648E+02  0.46691988501E+02  0.60245315943E+02  0.10566000000E+00 0.  1.
         23    2    1    0    0    0  0.12780927014E+02  0.20866084823E+02  0.16541436792E+02  0.95554178997E+02  0.90874839210E+02 0.  0.
         13    1    3    3    0    0 -0.18344923210E+02 -0.10548318248E+01 -0.30150551709E+02  0.35308863054E+02  0.10566000000E+00 0. -1.
         22    1    1    0    0    0 -0.12780927014E+02 -0.20866084823E+02 -0.16541436792E+02  0.29535821003E+02  0.00000000000E+00 0.  1.
</event>
<event>
 5    1  0.1255769E-009  0.9118800E+02  0.7561462E-02  0.1125453E+00
         25   -1    0    0    0    0  0.00000000000E+00  0.00000000000E+00  0.99999998245E-14  0.12509000000E+03  0.12509000000E+03 0.  0.
        -13    1    3    3    0    0  0.35018241214E+02 -0.23530381256E+02 -0.61316608473E+00  0.42194113292E+02  0.10566000000E+00 0. -1.
         23    2    1    0    0    0 -0.16575859086E+02 -0.17948327762E+02  0.15041807254E+02  0.96399277817E+02  0.92030773246E+02 0.  0.
         13    1    3    3    0    0 -0.51594100300E+02  0.55820534934E+01  0.15654973339E+02  0.54205164526E+02  0.10566000000E+00 0.  1.
         22    1    1    0    0    0  0.16575859086E+02  0.17948327762E+02 -0.15041807254E+02  0.28690722183E+02  0.00000000000E+00 0.  1.
</event>
<event>
 5    1  0.1255769E-009  0.9118800E+02  0.7561462E-02  0.1125453E+00
         25   -1    0    0    0    0  0.00000000000E+00  0.00000000000E+00  0.99999998245E-14  0.12509000000E+03  0.12509000000E+03 0.  0.
        -13    1    3    3    0    0 -0.38957712425E+02  0.32978858632E+02 -0.28927203952E+01  0.51124235636E+02  0.10566000000E+00 0.  1.
         23    2    1    0    0    0 -0.12833569043E+02  0.70322348529E+01  0.24180421645E+02  0.96826143003E+02  0.92609159139E+02 0.  0.
         13    1    3    3    0    0  0.26124143382E+02 -0.25946623779E+02  0.27073142041E+02  0.45701907367E+02  0.10566000000E+00 0. -1.
         22    1    1    0    0    0  0.12833569043E+02 -0.70322348529E+01 -0.24180421645E+02  0.28263856997E+02  0.00000000000E+00 0. -1.
</event>
<event>
 5    1  0.1255769E-009  0.9118800E+02  0.7561462E-02  0.1125453E+00
         25   -1    0    0    0    0  0.00000000000E+00  0.00000000000E+00  0.99999998245E-14  0.12509000000E+03  0.12509000000E+03 0.  0.
        -13    1    3    3    0    0 -0.31825700488E+02  0.51133375600E+01  0.12823958408E+02  0.34691303029E+02  0.10566000000E+00 0.  1.
         23    2    1    0    0    0  0.22851097251E+02 -0.17356735702E+02 -0.39129043822E+01  0.96128996210E+02  0.91662665093E+02 0.  0.
         13    1    3    3    0    0  0.54676797739E+02 -0.22470073262E+02 -0.16736862790E+02  0.61437693182E+02  0.10566000000E+00 0. -1.
         22    1    1    0    0    0 -0.22851097251E+02  0.17356735702E+02  0.39129043822E+01  0.28961003790E+02  0.00000000000E+00 0. -1.
</event>
<event>
 5    1  0.1255769E-009  0.9118800E+02  0.7561462E-02  0.1125453E+00
         25   -1    0    0    0    0  0.00000000000E+00  0.00000000000E+00  0.99999998245E-14  0.12509000000E+03  0.12509000000E+03 0.  0.
        -13    1    3    3    0    0 -0.48220923938E+00 -0.10288111333E+02  0.37621284099E+02  0.39005768059E+02  0.10566000000E+00 0.  1.
         23    2    1    0    0    0  0.41861696816E+01 -0.19946445523E+02 -0.19354895439E+02  0.96983120361E+02  0.92820951039E+02 0.  0.
         13    1    3    3    0    0  0.46683789209E+01 -0.96583341899E+01 -0.56976179539E+02  0.57977352302E+02  0.10566000000E+00 0. -1.
         22    1    1    0    0    0 -0.41861696816E+01  0.19946445523E+02  0.19354895439E+02  0.28106879639E+02  0.00000000000E+00 0. -1.
</event>
<event>
 5    1  0.1255769E-009  0.9118800E+02  0.7561462E-02  0.1125453E+00
         25   -1    0    0    0    0  0.00000000000E+00  0.00000000000E+00  0.99999998245E-14  0.12509000000E+03  0.12509000000E+03 0.  0.
        -13    1    3    3    0    0  0.30392117906E+02 -0.45568695019E+02 -0.25688928205E+02  0.60498917287E+02  0.10566000000E+00 0. -1.
         23    2    1    0    0    0  0.21365741889E+02 -0.12135575620E+02 -0.12108582830E+02  0.97696845741E+02  0.93777869285E+02 0.  0.
         13    1    3    3    0    0 -0.90263760162E+01  0.33433119399E+02  0.13580345376E+02  0.37197928455E+02  0.10566000000E+00 0.  1.
         22    1    1    0    0    0 -0.21365741889E+02  0.12135575620E+02  0.12108582830E+02  0.27393154259E+02  0.00000000000E+00 0. -1.
</event>
<event>
 5    1  0.1255769E-009  0.9118800E+02  0.7561462E-02  0.1125453E+00
         25   -1    0    0    0    0  0.00000000000E+00  0.00000000000E+00  0.99999998245E-14  0.12509000000E+03  0.12509000000E+03 0.  0.
        -13    1    3    3    0    0  0.13855495201E+02 -0.58252945703E+02  0.14145546689E+02  0.61526320266E+02  0.10566000000E+00 0.  1.
         23    2    1    0    0    0  0.14741918185E+01 -0.27986343755E+02  0.12865995094E+02  0.94252644276E+02  0.89065248246E+02 0.  0.
         13    1    3    3    0    0 -0.12381303382E+02  0.30266601948E+02 -0.12795515946E+01  0.32726324011E+02  0.10566000000E+00 0. -1.
         22    1    1    0    0    0 -0.14741918185E+01  0.27986343755E+02 -0.12865995094E+02  0.30837355724E+02  0.00000000000E+00 0. -1.
</event>
<event>
 5    1  0.1255769E-009  0.9118800E+02  0.7561462E-02  0.1125453E+00
         25   -1    0    0    0    0  0.00000000000E+00  0.00000000000E+00  0.99999998245E-14  0.12509000000E+03  0.12509000000E+03 0.  0.
        -13    1    3    3    0    0  0.13872138878E+02  0.26768386967E+02 -0.50045216783E+02  0.58425316984E+02  0.10566000000E+00 0. -1.
         23    2    1    0    0    0  0.33731183183E+01  0.26709305581E+02 -0.16641646438E+02  0.93440208090E+02  0.87916796802E+02 0.  0.
         13    1    3    3    0    0 -0.10499020559E+02 -0.59081386364E-01  0.33403570345E+02  0.35014891106E+02  0.10566000000E+00 0.  1.
         22    1    1    0    0    0 -0.33731183183E+01 -0.26709305581E+02  0.16641646438E+02  0.31649791910E+02  0.00000000000E+00 0. -1.
</event>
<event>
 5    1  0.1255769E-009  0.9118800E+02  0.7561462E-02  0.1125453E+00
         25   -1    0    0    0    0  0.00000000000E+00  0.00000000000E+00  0.99999998245E-14  0.12509000000E+03  0.12509000000E+03 0.  0.
        -13    1    3    3    0    0  0.15818099492E+02  0.34469552545E+02 -0.59559090059E+01  0.38390706432E+02  0.10566000000E+00 0.  1.
         23    2    1    0    0    0  0.12757083503E+02 -0.18234312914E+02  0.18098883318E+02  0.96405458444E+02  0.92039173690E+02 0.  0.
         13    1    3    3    0    0 -0.30610159888E+01 -0.52703865459E+02  0.24054792324E+02  0.58014752012E+02  0.10566000000E+00 0. -1.
         22    1    1    0    0    0 -0.12757083503E+02  0.18234312914E+02 -0.18098883318E+02  0.28684541556E+02  0.00000000000E+00 0. -1.
</event>
<event>
 5    1  0.1255769E-009  0.9118800E+02  0.7561462E-02  0.1125453E+00
         25   -1    0    0    0    0  0.00000000000E+00  0.00000000000E+00  0.99999998245E-14  0.12509000000E+03  0.12509000000E+03 0.  0.
        -13    1    3    3    0    0  0.39813016874E+02 -0.17589215113E+02 -0.16736038845E+02  0.46632209482E+02  0.10566000000E+00 0. -1.
         23    2    1    0    0    0  0.21172893054E+02  0.22767061355E+02 -0.38606907059E+00  0.93996921472E+02  0.88705364629E+02 0.  0.
         13    1    3    3    0    0 -0.18640123819E+02  0.40356276467E+02  0.16349969775E+02  0.47364711991E+02  0.10566000000E+00 0.  1.
         22    1    1    0    0    0 -0.21172893054E+02 -0.22767061355E+02  0.38606907059E+00  0.31093078528E+02  0.00000000000E+00 0.  1.
</event>
<event>
 5    1  0.1255769E-009  0.9118800E+02  0.7561462E-02  0.1125453E+00
         25   -1    0    0    0    0  0.00000000000E+00  0.00000000000E+00  0.99999998245E-14  0.12509000000E+03  0.12509000000E+03 0.  0.
        -13    1    3    3    0    0 -0.39565511333E+01  0.26319217196E+02 -0.21573994053E+02  0.34260821271E+02  0.10566000000E+00 0. -1.
         23    2    1    0    0    0 -0.10688763019E+01 -0.11744361347E+02  0.26757423983E+02  0.95849065367E+02  0.91279850315E+02 0.  0.
         13    1    3    3    0    0  0.28876748315E+01 -0.38063578543E+02  0.48331418036E+02  0.61588244096E+02  0.10566000000E+00 0.  1.
         22    1    1    0    0    0  0.10688763019E+01  0.11744361347E+02 -0.26757423983E+02  0.29240934633E+02  0.00000000000E+00 0.  1.
</event>
<event>
 5    1  0.1255769E-009  0.9118800E+02  0.7561462E-02  0.1125453E+00
         25   -1    0    0    0    0  0.00000000000E+00  0.00000000000E+00  0.99999998245E-14  0.12509000000E+03  0.12509000000E+03 0.  0.
        -13    1    3    3    0    0 -0.43764536779E+02 -0.55496275926E+01  0.24777967908E+02  0.50597350756E+02  0.10566000000E+00 0.  1.
         23    2    1    0    0    0  0.16262970805E+00 -0.13979018271E+02  0.26249016082E+02  0.95350291771E+02  0.90593751967E+02 0.  0.
         13    1    3    3    0    0  0.43927166487E+02 -0.84293906783E+01  0.14710481739E+01  0.44752941015E+02  0.10566000000E+00 0. -1.
         22    1    1    0    0    0 -0.16262970805E+00  0.13979018271E+02 -0.26249016082E+02  0.29739708229E+02  0.00000000000E+00 0.  1.
</event>
<event>
 5    1  0.1255769E-009  0.9118800E+02  0.7561462E-02  0.1125453E+00
         25   -1    0    0    0    0  0.00000000000E+00  0.00000000000E+00  0.99999998245E-14  0.12509000000E+03  0.12509000000E+03 0.  0.
        -13    1    3    3    0    0 -0.40340206663E+02  0.70541030891E+00  0.42128041263E+02  0.58331920095E+02  0.10566000000E+00 0.  1.
         23    2    1    0    0    0 -0.99197785107E+01  0.13041886437E+02  0.24564228010E+02  0.95562146958E+02  0.90885806515E+02 0.  0.
         13    1    3    3    0    0  0.30420428153E+02  0.12336476128E+02 -0.17563813253E+02  0.37230226863E+02  0.10566000000E+00 0. -1.
         22    1    1    0    0    0  0.99197785107E+01 -0.13041886437E+02 -0.24564228010E+02  0.29527853042E+02  0.00000000000E+00 0.  1.
</event>
<event>
 5    1  0.1255769E-009  0.9118800E+02  0.7561462E-02  0.1125453E+00
         25   -1    0    0    0    0  0.00000000000E+00  0.00000000000E+00  0.99999998245E-14  0.12509000000E+03  0.12509000000E+03 0.  0.
        -13    1    3    3    0    0 -0.14896010100E+02  0.29134454574E+02  0.24979356240E+02  0.41166575792E+02  0.10566000000E+00 0.  1.
         23    2    1    0    0    0  0.25132877133E+02  0.12849510019E+02 -0.82521901398E+01  0.95681326742E+02  0.91049690962E+02 0.  0.
         13    1    3    3    0    0  0.40028887233E+02 -0.16284944555E+02 -0.33231546380E+02  0.54514750950E+02  0.10566000000E+00 0. -1.
         22    1    1    0    0    0 -0.25132877133E+02 -0.12849510019E+02  0.82521901398E+01  0.29408673258E+02  0.00000000000E+00 0. -1.
</event>
<event>
 5    1  0.1255769E-009  0.9118800E+02  0.7561462E-02  0.1125453E+00
         25   -1    0    0    0    0  0.00000000000E+00  0.00000000000E+00  0.99999998245E-14  0.12509000000E+03  0.12509000000E+03 0.  0.
        -13    1    3    3    0    0  0.70596861898E+01 -0.54956109778E+01  0.52162282532E+02  0.52924056837E+02  0.10566000000E+00 0.  1.
         23    2    1    0    0    0  0.81230607768E+00  0.21598717091E+02  0.27674432489E+02  0.89975350141E+02  0.82840358512E+02 0.  0.
         13    1    3    3    0    0 -0.62473801121E+01  0.27094328069E+02 -0.24487850043E+02  0.37051293304E+02  0.10566000000E+00 0. -1.
         22    1    1    0    0    0 -0.81230607768E+00 -0.21598717091E+02 -0.27674432489E+02  0.35114649859E+02  0.00000000000E+00 0.  1.
</event>
<event>
 5    1  0.1255769E-009  0.9118800E+02  0.7561462E-02  0.1125453E+00
         25   -1    0    0    0    0  0.00000000000E+00  0.00000000000E+00  0.99999998245E-14  0.12509000000E+03  0.12509000000E+03 0.  0.
        -13    1    3    3    0    0 -0.30884048089E+02 -0.27186300986E+01  0.74906765324E+01  0.31895717188E+02  0.10566000000E+00 0.  1.
         23    2    1    0    0    0  0.30908351371E+02 -0.28943737645E+01  0.40388609543E+01  0.93784793056E+02  0.88405720555E+02 0.  0.
         13    1    3    3    0    0  0.61792399461E+02 -0.17574366592E+00 -0.34518155781E+01  0.61889075868E+02  0.10566000000E+00 0. -1.
         22    1    1    0    0    0 -0.30908351371E+02  0.28943737645E+01 -0.40388609543E+01  0.31305206944E+02  0.00000000000E+00 0. -1.
</event>
<event>
 5    1  0.1255769E-009  0.9118800E+02  0.7561462E-02  0.1125453E+00
         25   -1    0    0    0    0  0.00000000000E+00  0.00000000000E+00  0.99999998245E-14  0.12509000000E+03  0.12509000000E+03 0.  0.
        -13    1    3    3    0    0 -0.12922624387E+02  0.29295733118E+01  0.60068031012E+02  0.61512243777E+02  0.10566000000E+00 0.  1.
         23    2    1    0    0    0 -0.18510825016E+01  0.82271508584E+01  0.27943962759E+02  0.95901345143E+02  0.91351466479E+02 0.  0.
         13    1    3    3    0    0  0.11071541885E+02  0.52975775466E+01 -0.32124068253E+02  0.34389101365E+02  0.10566000000E+00 0. -1.
         22    1    1    0    0    0  0.18510825016E+01 -0.82271508584E+01 -0.27943962759E+02  0.29188654857E+02  0.00000000000E+00 0.  1.
</event>
<event>
 5    1  0.1255769E-009  0.9118800E+02  0.7561462E-02  0.1125453E+00
         25   -1    0    0    0    0  0.00000000000E+00  0.00000000000E+00  0.99999998245E-14  0.12509000000E+03  0.12509000000E+03 0.  0.
        -13    1    3    3    0    0 -0.18971910076E+02  0.34115539135E+02 -0.17408503528E+02  0.42741906152E+02  0.10566000000E+00 0.  1.
         23    2    1    0    0    0  0.92835859691E+01  0.17094578188E+02  0.23040413146E+02  0.94935892323E+02  0.90019739176E+02 0.  0.
         13    1    3    3    0    0  0.28255496045E+02 -0.17020960946E+02  0.40448916674E+02  0.52193986171E+02  0.10566000000E+00 0. -1.
         22    1    1    0    0    0 -0.92835859691E+01 -0.17094578188E+02 -0.23040413146E+02  0.30154107677E+02  0.00000000000E+00 0.  1.
</event>
<event>
 5    1  0.1255769E-009  0.9118800E+02  0.7561462E-02  0.1125453E+00
         25   -1    0    0    0    0  0.00000000000E+00  0.00000000000E+00  0.99999998245E-14  0.12509000000E+03  0.12509000000E+03 0.  0.
        -13    1    3    3    0    0  0.12032726633E+02 -0.17361606626E+02 -0.34730302066E+02  0.40649931617E+02  0.10566000000E+00 0. -1.
         23    2    1    0    0    0 -0.26048559142E+02 -0.11646637182E+02  0.51589585834E+01  0.96093682222E+02  0.91614460203E+02 0.  0.
         13    1    3    3    0    0 -0.38081285774E+02  0.57149694438E+01  0.39889260649E+02  0.55443750605E+02  0.10566000000E+00 0.  1.
         22    1    1    0    0    0  0.26048559142E+02  0.11646637182E+02 -0.51589585834E+01  0.28996317778E+02  0.00000000000E+00 0.  1.
</event>
<event>
 5    1  0.1255769E-009  0.9118800E+02  0.7561462E-02  0.1125453E+00
         25   -1    0    0    0    0  0.00000000000E+00  0.00000000000E+00  0.99999998245E-14  0.12509000000E+03  0.12509000000E+03 0.  0.
        -13    1    3    3    0    0 -0.85727978790E+01  0.51511118613E+02  0.10786870849E+02  0.53322190043E+02  0.10566000000E+00 0.  1.
         23    2    1    0    0    0 -0.23896087552E+02  0.14523128446E+02 -0.55808574023E+01  0.96575262941E+02  0.92269665561E+02 0.  0.
         13    1    3    3    0    0 -0.15323289673E+02 -0.36987990167E+02 -0.16367728251E+02  0.43253072898E+02  0.10566000000E+00 0. -1.
         22    1    1    0    0    0  0.23896087552E+02 -0.14523128446E+02  0.55808574023E+01  0.28514737059E+02  0.00000000000E+00 0.  1.
</event>
<event>
 5    1  0.1255769E-009  0.9118800E+02  0.7561462E-02  0.1125453E+00
         25   -1    0    0    0    0  0.00000000000E+00  0.00000000000E+00  0.99999998245E-14  0.12509000000E+03  0.12509000000E+03 0.  0.
        -13    1    3    3    0    0  0.32504330485E+02  0.32781779548E+02  0.17002248890E+02  0.49196180766E+02  0.10566000000E+00 0.  1.
         23    2    1    0    0    0 -0.48739634275E+01  0.33051430047E+02 -0.29210238536E+01  0.91553677482E+02  0.85190321824E+02 0.  0.
         13    1    3    3    0    0 -0.37378293913E+02  0.26965049977E+00 -0.19923272744E+02  0.42357496716E+02  0.10566000000E+00 0. -1.
         22    1    1    0    0    0  0.48739634275E+01 -0.33051430047E+02  0.29210238536E+01  0.33536322518E+02  0.00000000000E+00 0.  1.
</event>
<event>
 5    1  0.1255769E-009  0.9118800E+02  0.7561462E-02  0.1125453E+00
         25   -1    0    0    0    0  0.00000000000E+00  0.00000000000E+00  0.99999998245E-14  0.12509000000E+03  0.12509000000E+03 0.  0.
        -13    1    3    3    0    0 -0.18059831620E+02  0.26688145952E+02  0.18520242375E+02  0.37167528761E+02  0.10566000000E+00 0. -1.
         23    2    1    0    0    0 -0.23397046105E+01 -0.64317342030E+01 -0.27924936428E+02  0.96338591391E+02  0.91948250087E+02 0.  0.
         13    1    3    3    0    0  0.15720127009E+02 -0.33119880155E+02 -0.46445178803E+02  0.59171062630E+02  0.10566000000E+00 0.  1.
         22    1    1    0    0    0  0.23397046105E+01  0.64317342030E+01  0.27924936428E+02  0.28751408609E+02  0.00000000000E+00 0.  1.
</event>
<event>
 5    1  0.1255769E-009  0.9118800E+02  0.7561462E-02  0.1125453E+00
         25   -1    0    0    0    0  0.00000000000E+00  0.00000000000E+00  0.99999998245E-14  0.12509000000E+03  0.12509000000E+03 0.  0.
        -13    1    3    3    0    0 -0.52811132537E+02 -0.49533193634E+01 -0.29454975011E+02  0.60672545764E+02  0.10566000000E+00 0.  1.
         23    2    1    0    0    0 -0.30130253246E+02 -0.79694506860E+01 -0.27305524484E+02  0.83654073894E+02  0.72670957794E+02 0.  0.
         13    1    3    3    0    0  0.22680879291E+02 -0.30161313225E+01  0.21494505270E+01  0.22981528129E+02  0.10566000000E+00 0. -1.
         22    1    1    0    0    0  0.30130253246E+02  0.79694506860E+01  0.27305524484E+02  0.41435926106E+02  0.00000000000E+00 0.  1.
</event>
<event>
 5    1  0.1255769E-009  0.9118800E+02  0.7561462E-02  0.1125453E+00
         25   -1    0    0    0    0  0.00000000000E+00  0.00000000000E+00  0.99999998245E-14  0.12509000000E+03  0.12509000000E+03 0.  0.
        -13    1    3    3    0    0  0.14982807379E+01  0.22020251988E+01  0.36617931689E+02  0.36714817791E+02  0.10566000000E+00 0. -1.
         23    2    1    0    0    0  0.21145889938E+02 -0.15252364303E+02 -0.15267137934E+02  0.94876281613E+02  0.89936866934E+02 0.  0.
         13    1    3    3    0    0  0.19647609200E+02 -0.17454389501E+02 -0.51885069623E+02  0.58161463823E+02  0.10566000000E+00 0.  1.
         22    1    1    0    0    0 -0.21145889938E+02  0.15252364303E+02  0.15267137934E+02  0.30213718387E+02  0.00000000000E+00 0.  1.
</event>
<event>
 5    1  0.1255769E-009  0.9118800E+02  0.7561462E-02  0.1125453E+00
         25   -1    0    0    0    0  0.00000000000E+00  0.00000000000E+00  0.99999998245E-14  0.12509000000E+03  0.12509000000E+03 0.  0.
        -13    1    3    3    0    0 -0.55990519928E+02  0.11947088096E+01  0.21292579923E+01  0.56043827087E+02  0.10566000000E+00 0. -1.
         23    2    1    0    0    0 -0.20532292247E+02 -0.14321843130E+02 -0.12105104089E+02  0.97283098688E+02  0.93224339793E+02 0.  0.
         13    1    3    3    0    0  0.35458227680E+02 -0.15516551939E+02 -0.14234362081E+02  0.41239271601E+02  0.10566000000E+00 0.  1.
         22    1    1    0    0    0  0.20532292247E+02  0.14321843130E+02  0.12105104089E+02  0.27806901312E+02  0.00000000000E+00 0. -1.
</event>
<event>
 5    1  0.1255769E-009  0.9118800E+02  0.7561462E-02  0.1125453E+00
         25   -1    0    0    0    0  0.00000000000E+00  0.00000000000E+00  0.99999998245E-14  0.12509000000E+03  0.12509000000E+03 0.  0.
        -13    1    3    3    0    0  0.22350006355E+02  0.39785972445E+02 -0.16262479337E+01  0.45662919682E+02  0.10566000000E+00 0.  1.
         23    2    1    0    0    0 -0.21864376137E+02  0.20952193651E+02 -0.69631915561E+01  0.94016998869E+02  0.88733672735E+02 0.  0.
         13    1    3    3    0    0 -0.44214382491E+02 -0.18833778794E+02 -0.53369436224E+01  0.48354079187E+02  0.10566000000E+00 0. -1.
         22    1    1    0    0    0  0.21864376137E+02 -0.20952193651E+02  0.69631915561E+01  0.31073001131E+02  0.00000000000E+00 0.  1.
</event>
<event>
 5    1  0.1255769E-009  0.9118800E+02  0.7561462E-02  0.1125453E+00
         25   -1    0    0    0    0  0.00000000000E+00  0.00000000000E+00  0.99999998245E-14  0.12509000000E+03  0.12509000000E+03 0.  0.
        -13    1    3    3    0    0  0.34935801573E+02  0.52569729120E+01  0.36332715259E+02  0.50677641597E+02  0.10566000000E+00 0. -1.
         23    2    1    0    0    0 -0.76319658286E+01  0.15770129520E+02  0.22332450694E+02  0.96705457702E+02  0.92446002119E+02 0.  0.
         13    1    3    3    0    0 -0.42567767402E+02  0.10513156608E+02 -0.14000264565E+02  0.46027816105E+02  0.10566000000E+00 0.  1.
         22    1    1    0    0    0  0.76319658286E+01 -0.15770129520E+02 -0.22332450694E+02  0.28384542298E+02  0.00000000000E+00 0. -1.
</event>
<event>
 5    1  0.1255769E-009  0.9118800E+02  0.7561462E-02  0.1125453E+00
         25   -1    0    0    0    0  0.00000000000E+00  0.00000000000E+00  0.99999998245E-14  0.12509000000E+03  0.12509000000E+03 0.  0.
        -13    1    3    3    0    0 -0.27890035577E+02 -0.45672563123E+02 -0.14280831841E+02  0.55387637870E+02  0.10566000000E+00 0.  1.
         23    2    1    0    0    0 -0.26099927458E+02 -0.10967985383E+02  0.67216618358E+01  0.95992170966E+02  0.91475752154E+02 0.  0.
         13    1    3    3    0    0  0.17901081193E+01  0.34704577740E+02  0.21002493677E+02  0.40604533095E+02  0.10566000000E+00 0. -1.
         22    1    1    0    0    0  0.26099927458E+02  0.10967985383E+02 -0.67216618358E+01  0.29097829034E+02  0.00000000000E+00 0.  1.
</event>
<event>
 5    1  0.1255769E-009  0.9118800E+02  0.7561462E-02  0.1125453E+00
         25   -1    0    0    0    0  0.00000000000E+00  0.00000000000E+00  0.99999998245E-14  0.12509000000E+03  0.12509000000E+03 0.  0.
        -13    1    3    3    0    0 -0.22863885628E+02  0.13030588293E+02 -0.19883325876E+02  0.32983500560E+02  0.10566000000E+00 0.  1.
         23    2    1    0    0    0  0.12487548473E+02 -0.10606023480E+02  0.25246950269E+02  0.94992905476E+02  0.90098928916E+02 0.  0.
         13    1    3    3    0    0  0.35351434100E+02 -0.23636611773E+02  0.45130276145E+02  0.62009404916E+02  0.10566000000E+00 0. -1.
         22    1    1    0    0    0 -0.12487548473E+02  0.10606023480E+02 -0.25246950269E+02  0.30097094524E+02  0.00000000000E+00 0. -1.
</event>
<event>
 5    1  0.1255769E-009  0.9118800E+02  0.7561462E-02  0.1125453E+00
         25   -1    0    0    0    0  0.00000000000E+00  0.00000000000E+00  0.99999998245E-14  0.12509000000E+03  0.12509000000E+03 0.  0.
        -13    1    3    3    0    0  0.30775536754E+02  0.45477351056E-01 -0.16070817253E+02  0.34719131065E+02  0.10566000000E+00 0. -1.
         23    2    1    0    0    0 -0.16354650614E+02 -0.12159032787E+02  0.20936470349E+02  0.95872668402E+02  0.91312190209E+02 0.  0.
         13    1    3    3    0    0 -0.47130187368E+02 -0.12204510138E+02  0.37007287603E+02  0.61153537337E+02  0.10566000000E+00 0.  1.
         22    1    1    0    0    0  0.16354650614E+02  0.12159032787E+02 -0.20936470349E+02  0.29217331598E+02  0.00000000000E+00 0.  1.
</event>
<event>
 5    1  0.1255769E-009  0.9118800E+02  0.7561462E-02  0.1125453E+00
         25   -1    0    0    0    0  0.00000000000E+00  0.00000000000E+00  0.99999998245E-14  0.12509000000E+03  0.12509000000E+03 0.  0.
        -13    1    3    3    0    0 -0.26913769615E+02 -0.12755398022E+02  0.13154808174E+02  0.32559350665E+02  0.10566000000E+00 0. -1.
         23    2    1    0    0    0  0.24977319215E+02  0.11453351760E+02 -0.12005455812E+02  0.95103724624E+02  0.90252654954E+02 0.  0.
         13    1    3    3    0    0  0.51891088830E+02  0.24208749782E+02 -0.25160263987E+02  0.62544373958E+02  0.10566000000E+00 0.  1.
         22    1    1    0    0    0 -0.24977319215E+02 -0.11453351760E+02  0.12005455812E+02  0.29986275376E+02  0.00000000000E+00 0.  1.
</event>
<event>
 5    1  0.1255769E-009  0.9118800E+02  0.7561462E-02  0.1125453E+00
         25   -1    0    0    0    0  0.00000000000E+00  0.00000000000E+00  0.99999998245E-14  0.12509000000E+03  0.12509000000E+03 0.  0.
        -13    1    3    3    0    0  0.36295357822E+02  0.33665485842E+02 -0.12473374418E+02  0.51052073120E+02  0.10566000000E+00 0.  1.
         23    2    1    0    0    0  0.13629645126E+02  0.18037674027E+02  0.20890053050E+02  0.94308199744E+02  0.89143240417E+02 0.  0.
         13    1    3    3    0    0 -0.22665712696E+02 -0.15627811815E+02  0.33363427467E+02  0.43256126624E+02  0.10566000000E+00 0. -1.
         22    1    1    0    0    0 -0.13629645126E+02 -0.18037674027E+02 -0.20890053050E+02  0.30781800256E+02  0.00000000000E+00 0.  1.
</event>
<event>
 5    1  0.1255769E-009  0.9118800E+02  0.7561462E-02  0.1125453E+00
         25   -1    0    0    0    0  0.00000000000E+00  0.00000000000E+00  0.99999998245E-14  0.12509000000E+03  0.12509000000E+03 0.  0.
        -13    1    3    3    0    0 -0.30069722381E+02 -0.21483355494E+02 -0.32481825067E+01  0.37098310218E+02  0.10566000000E+00 0. -1.
         23    2    1    0    0    0  0.25377504998E+02 -0.47166888996E+01 -0.13555274190E+02  0.95935062641E+02  0.91397625086E+02 0.  0.
         13    1    3    3    0    0  0.55447227379E+02  0.16766666594E+02 -0.10307091683E+02  0.58836752423E+02  0.10566000000E+00 0.  1.
         22    1    1    0    0    0 -0.25377504998E+02  0.47166888996E+01  0.13555274190E+02  0.29154937359E+02  0.00000000000E+00 0.  1.
</event>
<event>
 5    1  0.1255769E-009  0.9118800E+02  0.7561462E-02  0.1125453E+00
         25   -1    0    0    0    0  0.00000000000E+00  0.00000000000E+00  0.99999998245E-14  0.12509000000E+03  0.12509000000E+03 0.  0.
        -13    1    3    3    0    0  0.15474534035E+01 -0.27254231815E+02 -0.54781293208E+02  0.61206119085E+02  0.10566000000E+00 0.  1.
         23    2    1    0    0    0  0.21426811437E+01 -0.21424791212E+02 -0.22761179603E+02  0.93758162233E+02  0.88368031139E+02 0.  0.
         13    1    3    3    0    0  0.59522774022E+00  0.58294406030E+01  0.32020113605E+02  0.32552043148E+02  0.10566000000E+00 0. -1.
         22    1    1    0    0    0 -0.21426811437E+01  0.21424791212E+02  0.22761179603E+02  0.31331837767E+02  0.00000000000E+00 0.  1.
</event>
<event>
 5    1  0.1255769E-009  0.9118800E+02  0.7561462E-02  0.1125453E+00
         25   -1    0    0    0    0  0.00000000000E+00  0.00000000000E+00  0.99999998245E-14  0.12509000000E+03  0.12509000000E+03 0.  0.
        -13    1    3    3    0    0 -0.24329951497E+02 -0.40234233300E+02  0.39575584725E+02  0.61457124399E+02  0.10566000000E+00 0.  1.
         23    2    1    0    0    0 -0.75885589188E+01 -0.14586932092E+02  0.24473153781E+02  0.95606104900E+02  0.90946287576E+02 0.  0.
         13    1    3    3    0    0  0.16741392579E+02  0.25647301208E+02 -0.15102430944E+02  0.34148980500E+02  0.10566000000E+00 0. -1.
         22    1    1    0    0    0  0.75885589188E+01  0.14586932092E+02 -0.24473153781E+02  0.29483895100E+02  0.00000000000E+00 0.  1.
</event>
<event>
 5    1  0.1255769E-009  0.9118800E+02  0.7561462E-02  0.1125453E+00
         25   -1    0    0    0    0  0.00000000000E+00  0.00000000000E+00  0.99999998245E-14  0.12509000000E+03  0.12509000000E+03 0.  0.
        -13    1    3    3    0    0 -0.52759738911E+02  0.92927667664E+00  0.25523872101E+02  0.58616830485E+02  0.10566000000E+00 0.  1.
         23    2    1    0    0    0 -0.21724427519E+02 -0.14865302866E+02  0.81500259130E+01  0.97533677627E+02  0.93559966699E+02 0.  0.
         13    1    3    3    0    0  0.31035311391E+02 -0.15794579543E+02 -0.17373846188E+02  0.38916847142E+02  0.10566000000E+00 0. -1.
         22    1    1    0    0    0  0.21724427519E+02  0.14865302866E+02 -0.81500259130E+01  0.27556322373E+02  0.00000000000E+00 0.  1.
</event>
<event>
 5    1  0.1255769E-009  0.9118800E+02  0.7561462E-02  0.1125453E+00
         25   -1    0    0    0    0  0.00000000000E+00  0.00000000000E+00  0.99999998245E-14  0.12509000000E+03  0.12509000000E+03 0.  0.
        -13    1    3    3    0    0 -0.33426412755E+02 -0.48341979639E+01 -0.49356634739E+01  0.34133070146E+02  0.10566000000E+00 0. -1.
         23    2    1    0    0    0  0.22585039456E+02  0.10892888875E+02  0.15284185013E+02  0.95724282798E+02  0.91108687678E+02 0.  0.
         13    1    3    3    0    0  0.56011452211E+02  0.15727086839E+02  0.20219848487E+02  0.61591212653E+02  0.10566000000E+00 0.  1.
         22    1    1    0    0    0 -0.22585039456E+02 -0.10892888875E+02 -0.15284185013E+02  0.29365717202E+02  0.00000000000E+00 0.  1.
</event>
<event>
 5    1  0.1255769E-009  0.9118800E+02  0.7561462E-02  0.1125453E+00
         25   -1    0    0    0    0  0.00000000000E+00  0.00000000000E+00  0.99999998245E-14  0.12509000000E+03  0.12509000000E+03 0.  0.
        -13    1    3    3    0    0 -0.20386727412E+02 -0.18670206148E+02  0.17917719476E+02  0.32943149325E+02  0.10566000000E+00 0.  1.
         23    2    1    0    0    0  0.21311047517E+02  0.23050057523E+02  0.55603228512E+01  0.93209236391E+02  0.87587548546E+02 0.  0.
         13    1    3    3    0    0  0.41697774929E+02  0.41720263671E+02 -0.12357396625E+02  0.60266087066E+02  0.10566000000E+00 0. -1.
         22    1    1    0    0    0 -0.21311047517E+02 -0.23050057523E+02 -0.55603228512E+01  0.31880763609E+02  0.00000000000E+00 0. -1.
</event>
<event>
 5    1  0.1255769E-009  0.9118800E+02  0.7561462E-02  0.1125453E+00
         25   -1    0    0    0    0  0.00000000000E+00  0.00000000000E+00  0.99999998245E-14  0.12509000000E+03  0.12509000000E+03 0.  0.
        -13    1    3    3    0    0 -0.16333839378E+01  0.33013792724E+02 -0.39033161548E+02  0.51148580797E+02  0.10566000000E+00 0.  1.
         23    2    1    0    0    0 -0.25134304660E+02  0.12283729843E+02 -0.64001983870E+01  0.96391814883E+02  0.92020628923E+02 0.  0.
         13    1    3    3    0    0 -0.23500920723E+02 -0.20730062881E+02  0.32632963161E+02  0.45243234086E+02  0.10566000000E+00 0. -1.
         22    1    1    0    0    0  0.25134304660E+02 -0.12283729843E+02  0.64001983870E+01  0.28698185117E+02  0.00000000000E+00 0. -1.
</event>
<event>
 5    1  0.1255769E-009  0.9118800E+02  0.7561462E-02  0.1125453E+00
         25   -1    0    0    0    0  0.00000000000E+00  0.00000000000E+00  0.99999998245E-14  0.12509000000E+03  0.12509000000E+03 0.  0.
        -13    1    3    3    0    0 -0.28489056296E+02 -0.24519261443E+00 -0.14641142632E+02  0.32032181781E+02  0.10566000000E+00 0.  1.
         23    2    1    0    0    0  0.30634353236E+02  0.29997790361E+00  0.43803855037E+01  0.94142603307E+02  0.88910564026E+02 0.  0.
         13    1    3    3    0    0  0.59123409532E+02  0.54517051803E+00  0.19021528135E+02  0.62110421526E+02  0.10566000000E+00 0. -1.
         22    1    1    0    0    0 -0.30634353236E+02 -0.29997790361E+00 -0.43803855037E+01  0.30947396693E+02  0.00000000000E+00 0. -1.
</event>
<event>
 5    1  0.1255769E-009  0.9118800E+02  0.7561462E-02  0.1125453E+00
         25   -1    0    0    0    0  0.00000000000E+00  0.00000000000E+00  0.99999998245E-14  0.12509000000E+03  0.12509000000E+03 0.  0.
        -13    1    3    3    0    0 -0.29802420309E+01 -0.41930503918E+02  0.13258962676E+02  0.44077888523E+02  0.10566000000E+00 0. -1.
         23    2    1    0    0    0  0.25767005588E+02  0.34095941157E+00  0.15083644550E+02  0.95230811076E+02  0.90428624975E+02 0.  0.
         13    1    3    3    0    0  0.28747247619E+02  0.42271463330E+02  0.18246818735E+01  0.51152922553E+02  0.10566000000E+00 0.  1.
         22    1    1    0    0    0 -0.25767005588E+02 -0.34095941157E+00 -0.15083644550E+02  0.29859188924E+02  0.00000000000E+00 0.  1.
</event>
<event>
 5    1  0.1255769E-009  0.9118800E+02  0.7561462E-02  0.1125453E+00
         25   -1    0    0    0    0  0.00000000000E+00  0.00000000000E+00  0.99999998245E-14  0.12509000000E+03  0.12509000000E+03 0.  0.
        -13    1    3    3    0    0  0.17954768609E+02 -0.44638378149E+02 -0.86219344089E+00  0.48121856376E+02  0.10566000000E+00 0.  1.
         23    2    1    0    0    0 -0.14454994404E+02 -0.14431830560E+02 -0.20109557064E+02  0.96426104908E+02  0.92067229924E+02 0.  0.
         13    1    3    3    0    0 -0.32409763013E+02  0.30206547588E+02 -0.19247363623E+02  0.48304248532E+02  0.10566000000E+00 0. -1.
         22    1    1    0    0    0  0.14454994404E+02  0.14431830560E+02  0.20109557064E+02  0.28663895092E+02  0.00000000000E+00 0. -1.
</event>
<event>
 5    1  0.1255769E-009  0.9118800E+02  0.7561462E-02  0.1125453E+00
         25   -1    0    0    0    0  0.00000000000E+00  0.00000000000E+00  0.99999998245E-14  0.12509000000E+03  0.12509000000E+03 0.  0.
        -13    1    3    3    0    0  0.30709767256E+01 -0.13582541578E+02 -0.30341174041E+02  0.33384342738E+02  0.10566000000E+00 0.  1.
         23    2    1    0    0    0 -0.19490621723E+02  0.96589386287E+00  0.24097113728E+02  0.94082127191E+02  0.88825438252E+02 0.  0.
         13    1    3    3    0    0 -0.22561598449E+02  0.14548435441E+02  0.54438287769E+02  0.60697784454E+02  0.10566000000E+00 0. -1.
         22    1    1    0    0    0  0.19490621723E+02 -0.96589386287E+00 -0.24097113728E+02  0.31007872809E+02  0.00000000000E+00 0. -1.
</event>
<event>
 5    1  0.1255769E-009  0.9118800E+02  0.7561462E-02  0.1125453E+00
         25   -1    0    0    0    0  0.00000000000E+00  0.00000000000E+00  0.99999998245E-14  0.12509000000E+03  0.12509000000E+03 0.  0.
        -13    1    3    3    0    0  0.18190064161E+02 -0.28240108216E+02 -0.27172636409E+01  0.33701288284E+02  0.10566000000E+00 0.  1.
         23    2    1    0    0    0 -0.98603992433E+01  0.26242130486E+02 -0.98097907876E+01  0.95389682140E+02  0.90648125065E+02 0.  0.
         13    1    3    3    0    0 -0.28050463405E+02  0.54482238702E+02 -0.70925271466E+01  0.61688393856E+02  0.10566000000E+00 0. -1.
         22    1    1    0    0    0  0.98603992433E+01 -0.26242130486E+02  0.98097907876E+01  0.29700317860E+02  0.00000000000E+00 0. -1.
</event>
<event>
 5    1  0.1255769E-009  0.9118800E+02  0.7561462E-02  0.1125453E+00
         25   -1    0    0    0    0  0.00000000000E+00  0.00000000000E+00  0.99999998245E-14  0.12509000000E+03  0.12509000000E+03 0.  0.
        -13    1    3    3    0    0 -0.39918473221E+02  0.10744725206E+02  0.31836960459E+02  0.52177934411E+02  0.10566000000E+00 0. -1.
         23    2    1    0    0    0 -0.11816021309E+02 -0.19772404803E+02  0.17819944027E+02  0.95967555797E+02  0.91442085547E+02 0.  0.
         13    1    3    3    0    0  0.28102451912E+02 -0.30517130008E+02 -0.14017016432E+02  0.43789621386E+02  0.10566000000E+00 0.  1.
         22    1    1    0    0    0  0.11816021309E+02  0.19772404803E+02 -0.17819944027E+02  0.29122444203E+02  0.00000000000E+00 0. -1.
</event>
<event>
 5    1  0.1255769E-009  0.9118800E+02  0.7561462E-02  0.1125453E+00
         25   -1    0    0    0    0  0.00000000000E+00  0.00000000000E+00  0.99999998245E-14  0.12509000000E+03  0.12509000000E+03 0.  0.
        -13    1    3    3    0    0  0.28302322979E+02 -0.49997989874E+02 -0.52390846820E+01  0.57691244134E+02  0.10566000000E+00 0.  1.
         23    2    1    0    0    0  0.25913792810E+02 -0.12517220015E+02  0.30444641391E+01  0.96150853216E+02  0.91692488010E+02 0.  0.
         13    1    3    3    0    0 -0.23885301692E+01  0.37480769859E+02  0.82835488211E+01  0.38459609081E+02  0.10566000000E+00 0. -1.
         22    1    1    0    0    0 -0.25913792810E+02  0.12517220015E+02 -0.30444641391E+01  0.28939146784E+02  0.00000000000E+00 0. -1.
</event>
<event>
 5    1  0.1255769E-009  0.9118800E+02  0.7561462E-02  0.1125453E+00
         25   -1    0    0    0    0  0.00000000000E+00  0.00000000000E+00  0.99999998245E-14  0.12509000000E+03  0.12509000000E+03 0.  0.
        -13    1    3    3    0    0 -0.23639603893E+02  0.17681841986E+01  0.57616820962E+02  0.62303022153E+02  0.10566000000E+00 0. -1.
         23    2    1    0    0    0 -0.72685144738E+01 -0.11551308591E+00  0.27630025366E+02  0.96519684152E+02  0.92194286597E+02 0.  0.
         13    1    3    3    0    0  0.16371089419E+02 -0.18836972845E+01 -0.29986795596E+02  0.34216661999E+02  0.10566000000E+00 0.  1.
         22    1    1    0    0    0  0.72685144738E+01  0.11551308591E+00 -0.27630025366E+02  0.28570315848E+02  0.00000000000E+00 0. -1.
</event>
<event>
 5    1  0.1255769E-009  0.9118800E+02  0.7561462E-02  0.1125453E+00
         25   -1    0    0    0    0  0.00000000000E+00  0.00000000000E+00  0.99999998245E-14  0.12509000000E+03  0.12509000000E+03 0.  0.
        -13    1    3    3    0    0 -0.17500613359E+02 -0.32225778362E+02  0.38260443345E+02  0.52996650347E+02  0.10566000000E+00 0. -1.
         23    2    1    0    0    0 -0.26624954375E+02  0.83289187609E-01  0.10845938325E+02  0.96340573732E+02  0.91950946903E+02 0.  0.
         13    1    3    3    0    0 -0.91243410168E+01  0.32309067550E+02 -0.27414505020E+02  0.43343923386E+02  0.10566000000E+00 0.  1.
         22    1    1    0    0    0  0.26624954375E+02 -0.83289187609E-01 -0.10845938325E+02  0.28749426268E+02  0.00000000000E+00 0. -1.
</event>
<event>
 5    1  0.1255769E-009  0.9118800E+02  0.7561462E-02  0.1125453E+00
         25   -1    0    0    0    0  0.00000000000E+00  0.00000000000E+00  0.99999998245E-14  0.12509000000E+03  0.12509000000E+03 0.  0.
        -13    1    3    3    0    0 -0.26268827816E+02 -0.44170342802E+02 -0.11587382777E+02  0.52681582187E+02  0.10566000000E+00 0.  1.
         23    2    1    0    0    0 -0.16258842415E+02 -0.17670960566E+02 -0.30147823317E+02  0.86547762717E+02  0.77492007179E+02 0.  0.
         13    1    3    3    0    0  0.10009985401E+02  0.26499382236E+02 -0.18560440540E+02  0.33866180530E+02  0.10566000000E+00 0. -1.
         22    1    1    0    0    0  0.16258842415E+02  0.17670960566E+02  0.30147823317E+02  0.38542237283E+02  0.00000000000E+00 0.  1.
</event>
<event>
 5    1  0.1255769E-009  0.9118800E+02  0.7561462E-02  0.1125453E+00
         25   -1    0    0    0    0  0.00000000000E+00  0.00000000000E+00  0.99999998245E-14  0.12509000000E+03  0.12509000000E+03 0.  0.
        -13    1    3    3    0    0  0.26609080357E+02  0.38796712969E+02  0.16440607085E+02  0.49835056135E+02  0.10566000000E+00 0.  1.
         23    2    1    0    0    0  0.28439020321E+02 -0.37497706011E+01 -0.21970708433E+01  0.96320818978E+02  0.91924068621E+02 0.  0.
         13    1    3    3    0    0  0.18299399639E+01 -0.42546483570E+02 -0.18637677929E+02  0.46485762842E+02  0.10566000000E+00 0. -1.
         22    1    1    0    0    0 -0.28439020321E+02  0.37497706011E+01  0.21970708433E+01  0.28769181022E+02  0.00000000000E+00 0.  1.
</event>
<event>
 5    1  0.1255769E-009  0.9118800E+02  0.7561462E-02  0.1125453E+00
         25   -1    0    0    0    0  0.00000000000E+00  0.00000000000E+00  0.99999998245E-14  0.12509000000E+03  0.12509000000E+03 0.  0.
        -13    1    3    3    0    0  0.20212771506E+02 -0.54282959712E+02  0.22249458141E+02  0.62050345677E+02  0.10566000000E+00 0. -1.
         23    2    1    0    0    0  0.14161269806E+02 -0.22594996031E+02  0.11436435588E+02  0.96075047525E+02  0.91589012932E+02 0.  0.
         13    1    3    3    0    0 -0.60515016994E+01  0.31687963681E+02 -0.10813022553E+02  0.34024701848E+02  0.10566000000E+00 0.  1.
         22    1    1    0    0    0 -0.14161269806E+02  0.22594996031E+02 -0.11436435588E+02  0.29014952475E+02  0.00000000000E+00 0. -1.
</event>
<event>
 5    1  0.1255769E-009  0.9118800E+02  0.7561462E-02  0.1125453E+00
         25   -1    0    0    0    0  0.00000000000E+00  0.00000000000E+00  0.99999998245E-14  0.12509000000E+03  0.12509000000E+03 0.  0.
        -13    1    3    3    0    0  0.25824935208E+02  0.10431091762E+02 -0.17972108314E+02  0.33147289409E+02  0.10566000000E+00 0.  1.
         23    2    1    0    0    0 -0.13563494182E+02  0.20614118405E+01  0.27786572999E+02  0.94101107922E+02  0.88852164182E+02 0.  0.
         13    1    3    3    0    0 -0.39388429391E+02 -0.83696799213E+01  0.45758681312E+02  0.60953818513E+02  0.10566000000E+00 0. -1.
         22    1    1    0    0    0  0.13563494182E+02 -0.20614118405E+01 -0.27786572999E+02  0.30988892078E+02  0.00000000000E+00 0. -1.
</event>
<event>
 5    1  0.1255769E-009  0.9118800E+02  0.7561462E-02  0.1125453E+00
         25   -1    0    0    0    0  0.00000000000E+00  0.00000000000E+00  0.99999998245E-14  0.12509000000E+03  0.12509000000E+03 0.  0.
        -13    1    3    3    0    0 -0.13444614276E+02  0.28988485639E+02 -0.17757333659E+02  0.36557133577E+02  0.10566000000E+00 0. -1.
         23    2    1    0    0    0  0.24458406886E+02 -0.14159695613E+02  0.50936645420E+00  0.96823940823E+02  0.92606184540E+02 0.  0.
         13    1    3    3    0    0  0.37903021162E+02 -0.43148181252E+02  0.18266700113E+02  0.60266807245E+02  0.10566000000E+00 0.  1.
         22    1    1    0    0    0 -0.24458406886E+02  0.14159695613E+02 -0.50936645420E+00  0.28266059177E+02  0.00000000000E+00 0.  1.
</event>
<event>
 5    1  0.1255769E-009  0.9118800E+02  0.7561462E-02  0.1125453E+00
         25   -1    0    0    0    0  0.00000000000E+00  0.00000000000E+00  0.99999998245E-14  0.12509000000E+03  0.12509000000E+03 0.  0.
        -13    1    3    3    0    0  0.46288040275E+02 -0.27084095230E+02 -0.25312758754E+02  0.59303269781E+02  0.10566000000E+00 0. -1.
         23    2    1    0    0    0  0.20020556208E+02 -0.20831018847E+02 -0.17150586512E+00  0.96197381023E+02  0.91755940867E+02 0.  0.
         13    1    3    3    0    0 -0.26267484067E+02  0.62530763834E+01  0.25141252889E+02  0.36894111242E+02  0.10566000000E+00 0.  1.
         22    1    1    0    0    0 -0.20020556208E+02  0.20831018847E+02  0.17150586512E+00  0.28892618977E+02  0.00000000000E+00 0. -1.
</event>
<event>
 5    1  0.1255769E-009  0.9118800E+02  0.7561462E-02  0.1125453E+00
         25   -1    0    0    0    0  0.00000000000E+00  0.00000000000E+00  0.99999998245E-14  0.12509000000E+03  0.12509000000E+03 0.  0.
        -13    1    3    3    0    0  0.47195213332E+01 -0.10882434661E+02  0.32859976882E+02  0.34935519324E+02  0.10566000000E+00 0.  1.
         23    2    1    0    0    0 -0.51136259931E+01 -0.86619485098E+01 -0.27331971672E+02  0.95965865708E+02  0.91439773528E+02 0.  0.
         13    1    3    3    0    0 -0.98331473263E+01  0.22204861513E+01 -0.60191948553E+02  0.61030346384E+02  0.10566000000E+00 0. -1.
         22    1    1    0    0    0  0.51136259931E+01  0.86619485098E+01  0.27331971672E+02  0.29124134292E+02  0.00000000000E+00 0. -1.
</event>
<event>
 5    1  0.1255769E-009  0.9118800E+02  0.7561462E-02  0.1125453E+00
         25   -1    0    0    0    0  0.00000000000E+00  0.00000000000E+00  0.99999998245E-14  0.12509000000E+03  0.12509000000E+03 0.  0.
        -13    1    3    3    0    0  0.49551908570E+02  0.25757761191E+01  0.12797537132E+02  0.51242700810E+02  0.10566000000E+00 0.  1.
         23    2    1    0    0    0  0.16910287447E+02  0.86118745715E+01 -0.19727767617E+02  0.97716527069E+02  0.93804118471E+02 0.  0.
         13    1    3    3    0    0 -0.32641621124E+02  0.60360984524E+01 -0.32525304749E+02  0.46473826259E+02  0.10566000000E+00 0. -1.
         22    1    1    0    0    0 -0.16910287447E+02 -0.86118745715E+01  0.19727767617E+02  0.27373472931E+02  0.00000000000E+00 0.  1.
</event>
<event>
 5    1  0.1255769E-009  0.9118800E+02  0.7561462E-02  0.1125453E+00
         25   -1    0    0    0    0  0.00000000000E+00  0.00000000000E+00  0.99999998245E-14  0.12509000000E+03  0.12509000000E+03 0.  0.
        -13    1    3    3    0    0 -0.59418668502E+02 -0.32461900414E+01 -0.16291088602E+02  0.61697055426E+02  0.10566000000E+00 0.  1.
         23    2    1    0    0    0 -0.20457670383E+02  0.57746188549E+01 -0.63235860486E+01  0.10291230307E+03  0.10049423806E+03 0.  0.
         13    1    3    3    0    0  0.38960998118E+02  0.90208088963E+01  0.99675025535E+01  0.41215247648E+02  0.10566000000E+00 0. -1.
         22    1    1    0    0    0  0.20457670383E+02 -0.57746188549E+01  0.63235860486E+01  0.22177696926E+02  0.00000000000E+00 0.  1.
</event>
<event>
 5    1  0.1255769E-009  0.9118800E+02  0.7561462E-02  0.1125453E+00
         25   -1    0    0    0    0  0.00000000000E+00  0.00000000000E+00  0.99999998245E-14  0.12509000000E+03  0.12509000000E+03 0.  0.
        -13    1    3    3    0    0  0.26530245445E+02  0.33843917859E+02 -0.74739226486E+01  0.43647856571E+02  0.10566000000E+00 0. -1.
         23    2    1    0    0    0  0.20297781726E+02 -0.11712257544E+02  0.17378287048E+02  0.95914980197E+02  0.91370135415E+02 0.  0.
         13    1    3    3    0    0 -0.62324637189E+01 -0.45556175403E+02  0.24852209696E+02  0.52267123627E+02  0.10566000000E+00 0.  1.
         22    1    1    0    0    0 -0.20297781726E+02  0.11712257544E+02 -0.17378287048E+02  0.29175019803E+02  0.00000000000E+00 0. -1.
</event>
<event>
 5    1  0.1255769E-009  0.9118800E+02  0.7561462E-02  0.1125453E+00
         25   -1    0    0    0    0  0.00000000000E+00  0.00000000000E+00  0.99999998245E-14  0.12509000000E+03  0.12509000000E+03 0.  0.
        -13    1    3    3    0    0  0.28427752556E+02 -0.21237744063E+02 -0.22779453907E+02  0.42167446835E+02  0.10566000000E+00 0. -1.
         23    2    1    0    0    0  0.11896744080E+02  0.22332178173E+02  0.86190530934E+01  0.98358992202E+02  0.94656983732E+02 0.  0.
         13    1    3    3    0    0 -0.16531008476E+02  0.43569922236E+02  0.31398507001E+02  0.56191545367E+02  0.10566000000E+00 0.  1.
         22    1    1    0    0    0 -0.11896744080E+02 -0.22332178173E+02 -0.86190530934E+01  0.26731007798E+02  0.00000000000E+00 0.  1.
</event>
<event>
 5    1  0.1255769E-009  0.9118800E+02  0.7561462E-02  0.1125453E+00
         25   -1    0    0    0    0  0.00000000000E+00  0.00000000000E+00  0.99999998245E-14  0.12509000000E+03  0.12509000000E+03 0.  0.
        -13    1    3    3    0    0 -0.36023930897E+02  0.49654587924E+02 -0.71132762889E+01  0.61756874620E+02  0.10566000000E+00 0.  1.
         23    2    1    0    0    0 -0.10933345229E+02  0.26987341514E+02 -0.34648078399E+01  0.95766638438E+02  0.91166822389E+02 0.  0.
         13    1    3    3    0    0  0.25090585667E+02 -0.22667246410E+02  0.36484684490E+01  0.34009763819E+02  0.10566000000E+00 0. -1.
         22    1    1    0    0    0  0.10933345229E+02 -0.26987341514E+02  0.34648078399E+01  0.29323361562E+02  0.00000000000E+00 0.  1.
</event>
<event>
 5    1  0.1255769E-009  0.9118800E+02  0.7561462E-02  0.1125453E+00
         25   -1    0    0    0    0  0.00000000000E+00  0.00000000000E+00  0.99999998245E-14  0.12509000000E+03  0.12509000000E+03 0.  0.
        -13    1    3    3    0    0  0.51138981015E+02 -0.10298185848E+02 -0.20400137047E+02  0.56012719685E+02  0.10566000000E+00 0.  1.
         23    2    1    0    0    0  0.13842670500E+02 -0.62187659768E+01 -0.27009447451E+02  0.94109315236E+02  0.88863718050E+02 0.  0.
         13    1    3    3    0    0 -0.37296310515E+02  0.40794198711E+01 -0.66093104037E+01  0.38096595550E+02  0.10566000000E+00 0. -1.
         22    1    1    0    0    0 -0.13842670500E+02  0.62187659768E+01  0.27009447451E+02  0.30980684764E+02  0.00000000000E+00 0. -1.
</event>
<event>
 5    1  0.1255769E-009  0.9118800E+02  0.7561462E-02  0.1125453E+00
         25   -1    0    0    0    0  0.00000000000E+00  0.00000000000E+00  0.99999998245E-14  0.12509000000E+03  0.12509000000E+03 0.  0.
        -13    1    3    3    0    0 -0.14980036767E+02 -0.27783266423E+02 -0.16602531061E+02  0.35664640701E+02  0.10566000000E+00 0.  1.
         23    2    1    0    0    0  0.24719727925E+02  0.14813635093E+02  0.20574088352E+00  0.96270717173E+02  0.91855864931E+02 0.  0.
         13    1    3    3    0    0  0.39699764693E+02  0.42596901517E+02  0.16808271944E+02  0.60606076471E+02  0.10566000000E+00 0. -1.
         22    1    1    0    0    0 -0.24719727925E+02 -0.14813635093E+02 -0.20574088352E+00  0.28819282827E+02  0.00000000000E+00 0. -1.
</event>
<event>
 5    1  0.1255769E-009  0.9118800E+02  0.7561462E-02  0.1125453E+00
         25   -1    0    0    0    0  0.00000000000E+00  0.00000000000E+00  0.99999998245E-14  0.12509000000E+03  0.12509000000E+03 0.  0.
        -13    1    3    3    0    0 -0.27038009277E+02 -0.42362728760E+02 -0.23016388593E+02  0.55275854055E+02  0.10566000000E+00 0. -1.
         23    2    1    0    0    0 -0.27198403327E+02 -0.99098622206E+01  0.17346659726E+01  0.96090558991E+02  0.91610195658E+02 0.  0.
         13    1    3    3    0    0 -0.16039405032E+00  0.32452866539E+02  0.24751054566E+02  0.40814704936E+02  0.10566000000E+00 0.  1.
         22    1    1    0    0    0  0.27198403327E+02  0.99098622206E+01 -0.17346659726E+01  0.28999441009E+02  0.00000000000E+00 0. -1.
</event>
<event>
 5    1  0.1255769E-009  0.9118800E+02  0.7561462E-02  0.1125453E+00
         25   -1    0    0    0    0  0.00000000000E+00  0.00000000000E+00  0.99999998245E-14  0.12509000000E+03  0.12509000000E+03 0.  0.
        -13    1    3    3    0    0 -0.47695502620E+01 -0.14919765248E+02 -0.10165819618E+02  0.18673592512E+02  0.10566000000E+00 0.  1.
         23    2    1    0    0    0 -0.66540308449E+01  0.25495319860E+02  0.36267717323E+02  0.80261049744E+02  0.66574779946E+02 0.  0.
         13    1    3    3    0    0 -0.18844805830E+01  0.40415085108E+02  0.46433536941E+02  0.61587457232E+02  0.10566000000E+00 0. -1.
         22    1    1    0    0    0  0.66540308449E+01 -0.25495319860E+02 -0.36267717323E+02  0.44828950256E+02  0.00000000000E+00 0. -1.
</event>
<event>
 5    1  0.1255769E-009  0.9118800E+02  0.7561462E-02  0.1125453E+00
         25   -1    0    0    0    0  0.00000000000E+00  0.00000000000E+00  0.99999998245E-14  0.12509000000E+03  0.12509000000E+03 0.  0.
        -13    1    3    3    0    0 -0.19072282161E+02 -0.40370028969E+02  0.40707452517E+02  0.60420187357E+02  0.10566000000E+00 0. -1.
         23    2    1    0    0    0 -0.18486112352E+02 -0.16159815523E+02  0.12698301611E+02  0.97447227863E+02  0.93444311580E+02 0.  0.
         13    1    3    3    0    0  0.58616980960E+00  0.24210213446E+02 -0.28009150905E+02  0.37027040506E+02  0.10566000000E+00 0.  1.
         22    1    1    0    0    0  0.18486112352E+02  0.16159815523E+02 -0.12698301611E+02  0.27642772137E+02  0.00000000000E+00 0. -1.
</event>
<event>
 5    1  0.1255769E-009  0.9118800E+02  0.7561462E-02  0.1125453E+00
         25   -1    0    0    0    0  0.00000000000E+00  0.00000000000E+00  0.99999998245E-14  0.12509000000E+03  0.12509000000E+03 0.  0.
        -13    1    3    3    0    0 -0.12913128976E+02  0.10093413643E+02 -0.28378531880E+02  0.32771605615E+02  0.10566000000E+00 0. -1.
         23    2    1    0    0    0 -0.38284795671E+01 -0.12651543734E+02  0.27937627005E+02  0.94183207586E+02  0.88967672633E+02 0.  0.
         13    1    3    3    0    0  0.90846494086E+01 -0.22744957377E+02  0.56316158885E+02  0.61411601970E+02  0.10566000000E+00 0.  1.
         22    1    1    0    0    0  0.38284795671E+01  0.12651543734E+02 -0.27937627005E+02  0.30906792414E+02  0.00000000000E+00 0.  1.
</event>
<event>
 5    1  0.1255769E-009  0.9118800E+02  0.7561462E-02  0.1125453E+00
         25   -1    0    0    0    0  0.00000000000E+00  0.00000000000E+00  0.99999998245E-14  0.12509000000E+03  0.12509000000E+03 0.  0.
        -13    1    3    3    0    0 -0.11819636816E+02  0.20996324307E+02 -0.28461419578E+02  0.37290924061E+02  0.10566000000E+00 0. -1.
         23    2    1    0    0    0 -0.11469813571E+02 -0.27535772450E+02  0.29700959664E+01  0.95113394825E+02  0.90266056840E+02 0.  0.
         13    1    3    3    0    0  0.34982324527E+00 -0.48532096756E+02  0.31431515544E+02  0.57822470765E+02  0.10566000000E+00 0.  1.
         22    1    1    0    0    0  0.11469813571E+02  0.27535772450E+02 -0.29700959664E+01  0.29976605175E+02  0.00000000000E+00 0.  1.
</event>
<event>
 5    1  0.1255769E-009  0.9118800E+02  0.7561462E-02  0.1125453E+00
         25   -1    0    0    0    0  0.00000000000E+00  0.00000000000E+00  0.99999998245E-14  0.12509000000E+03  0.12509000000E+03 0.  0.
        -13    1    3    3    0    0 -0.18300894542E+02 -0.56408902892E+02 -0.77502838266E+01  0.59807734701E+02  0.10566000000E+00 0. -1.
         23    2    1    0    0    0 -0.12062454064E+02 -0.21736021207E+02 -0.15385279918E+02  0.95855358663E+02  0.91288474247E+02 0.  0.
         13    1    3    3    0    0  0.62384404781E+01  0.34672881686E+02 -0.76349960912E+01  0.36047623963E+02  0.10566000000E+00 0.  1.
         22    1    1    0    0    0  0.12062454064E+02  0.21736021207E+02  0.15385279918E+02  0.29234641337E+02  0.00000000000E+00 0. -1.
</event>
<event>
 5    1  0.1255769E-009  0.9118800E+02  0.7561462E-02  0.1125453E+00
         25   -1    0    0    0    0  0.00000000000E+00  0.00000000000E+00  0.99999998245E-14  0.12509000000E+03  0.12509000000E+03 0.  0.
        -13    1    3    3    0    0 -0.36874832061E+02  0.40424430309E+00 -0.98347470257E+01  0.38166085286E+02  0.10566000000E+00 0.  1.
         23    2    1    0    0    0  0.59503239889E+01  0.13141672899E+02  0.25943556211E+02  0.95405356983E+02  0.90669753006E+02 0.  0.
         13    1    3    3    0    0  0.42825156050E+02  0.12737428596E+02  0.35778303236E+02  0.57239271697E+02  0.10566000000E+00 0. -1.
         22    1    1    0    0    0 -0.59503239889E+01 -0.13141672899E+02 -0.25943556211E+02  0.29684643017E+02  0.00000000000E+00 0.  1.
</event>
<event>
 5    1  0.1255769E-009  0.9118800E+02  0.7561462E-02  0.1125453E+00
         25   -1    0    0    0    0  0.00000000000E+00  0.00000000000E+00  0.99999998245E-14  0.12509000000E+03  0.12509000000E+03 0.  0.
        -13    1    3    3    0    0 -0.32144376226E+02  0.14624981992E+02 -0.26345849676E+02  0.44059800050E+02  0.10566000000E+00 0. -1.
         23    2    1    0    0    0 -0.12058383801E+02 -0.26175046141E+02 -0.71423611662E+00  0.96262100430E+02  0.91844129837E+02 0.  0.
         13    1    3    3    0    0  0.20085992425E+02 -0.40800028133E+02  0.25631613559E+02  0.52202300380E+02  0.10566000000E+00 0.  1.
         22    1    1    0    0    0  0.12058383801E+02  0.26175046141E+02  0.71423611662E+00  0.28827899570E+02  0.00000000000E+00 0. -1.
</event>
<event>
 5    1  0.1255769E-009  0.9118800E+02  0.7561462E-02  0.1125453E+00
         25   -1    0    0    0    0  0.00000000000E+00  0.00000000000E+00  0.99999998245E-14  0.12509000000E+03  0.12509000000E+03 0.  0.
        -13    1    3    3    0    0  0.28758957175E+02  0.25956135703E+02  0.43439140623E+02  0.58204541923E+02  0.10566000000E+00 0.  1.
         23    2    1    0    0    0  0.21800094207E+02 -0.18567342689E+01  0.22492121361E+02  0.93711869194E+02  0.88302476380E+02 0.  0.
         13    1    3    3    0    0 -0.69588629681E+01 -0.27812869972E+02 -0.20947019261E+02  0.35507327270E+02  0.10566000000E+00 0. -1.
         22    1    1    0    0    0 -0.21800094207E+02  0.18567342689E+01 -0.22492121361E+02  0.31378130806E+02  0.00000000000E+00 0.  1.
</event>
<event>
 5    1  0.1255769E-009  0.9118800E+02  0.7561462E-02  0.1125453E+00
         25   -1    0    0    0    0  0.00000000000E+00  0.00000000000E+00  0.99999998245E-14  0.12509000000E+03  0.12509000000E+03 0.  0.
        -13    1    3    3    0    0  0.90347073170E+01 -0.50285696711E+02  0.17368925157E+02  0.53962653337E+02  0.10566000000E+00 0.  1.
         23    2    1    0    0    0 -0.21220511308E+01 -0.27348329619E+02 -0.13918873770E+02  0.94330135225E+02  0.89174016006E+02 0.  0.
         13    1    3    3    0    0 -0.11156758448E+02  0.22937367092E+02 -0.31287798927E+02  0.40367481888E+02  0.10566000000E+00 0. -1.
         22    1    1    0    0    0  0.21220511308E+01  0.27348329619E+02  0.13918873770E+02  0.30759864775E+02  0.00000000000E+00 0.  1.
</event>
<event>
 5    1  0.1255769E-009  0.9118800E+02  0.7561462E-02  0.1125453E+00
         25   -1    0    0    0    0  0.00000000000E+00  0.00000000000E+00  0.99999998245E-14  0.12509000000E+03  0.12509000000E+03 0.  0.
        -13    1    3    3    0    0 -0.24817113945E+02 -0.22328922782E+02  0.73173914032E+01  0.34176385388E+02  0.10566000000E+00 0.  1.
         23    2    1    0    0    0  0.19054536525E+02  0.19171760008E+02 -0.87691784494E+01  0.96672923537E+02  0.92401969192E+02 0.  0.
         13    1    3    3    0    0  0.43871650470E+02  0.41500682791E+02 -0.16086569853E+02  0.62496538150E+02  0.10566000000E+00 0. -1.
         22    1    1    0    0    0 -0.19054536525E+02 -0.19171760008E+02  0.87691784494E+01  0.28417076463E+02  0.00000000000E+00 0. -1.
</event>
<event>
 5    1  0.1255769E-009  0.9118800E+02  0.7561462E-02  0.1125453E+00
         25   -1    0    0    0    0  0.00000000000E+00  0.00000000000E+00  0.99999998245E-14  0.12509000000E+03  0.12509000000E+03 0.  0.
        -13    1    3    3    0    0  0.44461536463E+02 -0.21325649605E+00  0.10439718897E+02  0.45671354235E+02  0.10566000000E+00 0. -1.
         23    2    1    0    0    0  0.80120966378E+01  0.81685359211E+00 -0.26389923689E+02  0.97498533663E+02  0.93512967292E+02 0.  0.
         13    1    3    3    0    0 -0.36449439825E+02  0.10301100882E+01 -0.36829642586E+02  0.51827179428E+02  0.10566000000E+00 0.  1.
         22    1    1    0    0    0 -0.80120966378E+01 -0.81685359211E+00  0.26389923689E+02  0.27591466337E+02  0.00000000000E+00 0.  1.
</event>
<event>
 5    1  0.1255769E-009  0.9118800E+02  0.7561462E-02  0.1125453E+00
         25   -1    0    0    0    0  0.00000000000E+00  0.00000000000E+00  0.99999998245E-14  0.12509000000E+03  0.12509000000E+03 0.  0.
        -13    1    3    3    0    0  0.34683060635E+02  0.40495216217E+02 -0.17404935716E+02  0.56086720200E+02  0.10566000000E+00 0.  1.
         23    2    1    0    0    0  0.20968553152E+02  0.16807056577E+02  0.11468228499E+02  0.95872237645E+02  0.91311600107E+02 0.  0.
         13    1    3    3    0    0 -0.13714507482E+02 -0.23688159640E+02  0.28873164215E+02  0.39785517446E+02  0.10566000000E+00 0. -1.
         22    1    1    0    0    0 -0.20968553152E+02 -0.16807056577E+02 -0.11468228499E+02  0.29217762355E+02  0.00000000000E+00 0.  1.
</event>
<event>
 5    1  0.1255769E-009  0.9118800E+02  0.7561462E-02  0.1125453E+00
         25   -1    0    0    0    0  0.00000000000E+00  0.00000000000E+00  0.99999998245E-14  0.12509000000E+03  0.12509000000E+03 0.  0.
        -13    1    3    3    0    0 -0.30671170309E+02  0.10489048696E+02  0.13567958391E+02  0.35140311462E+02  0.10566000000E+00 0.  1.
         23    2    1    0    0    0  0.22519324812E+02 -0.15083673774E+02  0.14872741330E+02  0.94173408351E+02  0.88953893682E+02 0.  0.
         13    1    3    3    0    0  0.53190495121E+02 -0.25572722470E+02  0.13047829391E+01  0.59033096889E+02  0.10566000000E+00 0. -1.
         22    1    1    0    0    0 -0.22519324812E+02  0.15083673774E+02 -0.14872741330E+02  0.30916591649E+02  0.00000000000E+00 0. -1.
</event>
<event>
 5    1  0.1255769E-009  0.9118800E+02  0.7561462E-02  0.1125453E+00
         25   -1    0    0    0    0  0.00000000000E+00  0.00000000000E+00  0.99999998245E-14  0.12509000000E+03  0.12509000000E+03 0.  0.
        -13    1    3    3    0    0  0.71645610623E+00  0.23743054308E+02  0.22382785846E+02  0.32638109680E+02  0.10566000000E+00 0. -1.
         23    2    1    0    0    0  0.91107288294E+01 -0.24945607894E+02 -0.14995759144E+02  0.94591450439E+02  0.89539828964E+02 0.  0.
         13    1    3    3    0    0  0.83942727232E+01 -0.48688662202E+02 -0.37378544991E+02  0.61953340759E+02  0.10566000000E+00 0.  1.
         22    1    1    0    0    0 -0.91107288294E+01  0.24945607894E+02  0.14995759144E+02  0.30498549561E+02  0.00000000000E+00 0.  1.
</event>
<event>
 5    1  0.1255769E-009  0.9118800E+02  0.7561462E-02  0.1125453E+00
         25   -1    0    0    0    0  0.00000000000E+00  0.00000000000E+00  0.99999998245E-14  0.12509000000E+03  0.12509000000E+03 0.  0.
        -13    1    3    3    0    0 -0.26866348488E+02 -0.25474436756E+02  0.60969998301E+01  0.37522422365E+02  0.10566000000E+00 0.  1.
         23    2    1    0    0    0  0.20410376555E+02 -0.52318251688E+01  0.25072459989E+02  0.92339676099E+02  0.86336736482E+02 0.  0.
         13    1    3    3    0    0  0.47276725043E+02  0.20242611588E+02  0.18975460159E+02  0.54817253734E+02  0.10566000000E+00 0. -1.
         22    1    1    0    0    0 -0.20410376555E+02  0.52318251688E+01 -0.25072459989E+02  0.32750323901E+02  0.00000000000E+00 0. -1.
</event>
<event>
 5    1  0.1255769E-009  0.9118800E+02  0.7561462E-02  0.1125453E+00
         25   -1    0    0    0    0  0.00000000000E+00  0.00000000000E+00  0.99999998245E-14  0.12509000000E+03  0.12509000000E+03 0.  0.
        -13    1    3    3    0    0  0.48151321955E+02  0.15647589100E+02 -0.81209259666E+00  0.50636622212E+02  0.10566000000E+00 0.  1.
         23    2    1    0    0    0  0.44664383984E+02  0.10160110385E+02  0.21941119963E+02  0.74300751286E+02  0.54231484000E+02 0.  0.
         13    1    3    3    0    0 -0.34869379710E+01 -0.54874787144E+01  0.22753212559E+02  0.23664129075E+02  0.10566000000E+00 0. -1.
         22    1    1    0    0    0 -0.44664383984E+02 -0.10160110385E+02 -0.21941119963E+02  0.50789248714E+02  0.00000000000E+00 0.  1.
</event>
<event>
 5    1  0.1255769E-009  0.9118800E+02  0.7561462E-02  0.1125453E+00
         25   -1    0    0    0    0  0.00000000000E+00  0.00000000000E+00  0.99999998245E-14  0.12509000000E+03  0.12509000000E+03 0.  0.
        -13    1    3    3    0    0 -0.14486786542E+02 -0.22031051124E+02 -0.56135045841E+02  0.62019260989E+02  0.10566000000E+00 0.  1.
         23    2    1    0    0    0 -0.36610978398E+01 -0.53702388687E+01 -0.27232059152E+02  0.97093068944E+02  0.92969004987E+02 0.  0.
         13    1    3    3    0    0  0.10825688703E+02  0.16660812255E+02  0.28902986689E+02  0.35073807955E+02  0.10566000000E+00 0. -1.
         22    1    1    0    0    0  0.36610978398E+01  0.53702388687E+01  0.27232059152E+02  0.27996931056E+02  0.00000000000E+00 0.  1.
</event>
<event>
 5    1  0.1255769E-009  0.9118800E+02  0.7561462E-02  0.1125453E+00
         25   -1    0    0    0    0  0.00000000000E+00  0.00000000000E+00  0.99999998245E-14  0.12509000000E+03  0.12509000000E+03 0.  0.
        -13    1    3    3    0    0  0.31824801219E+02  0.28828715788E+02  0.39768351661E+02  0.58527308024E+02  0.10566000000E+00 0. -1.
         23    2    1    0    0    0  0.24571899537E+02  0.12985429606E+02  0.58073364338E+01  0.96697663264E+02  0.92435454753E+02 0.  0.
         13    1    3    3    0    0 -0.72529016828E+01 -0.15843286182E+02 -0.33961015227E+02  0.38170355240E+02  0.10566000000E+00 0.  1.
         22    1    1    0    0    0 -0.24571899537E+02 -0.12985429606E+02 -0.58073364338E+01  0.28392336736E+02  0.00000000000E+00 0. -1.
</event>
<event>
 5    1  0.1255769E-009  0.9118800E+02  0.7561462E-02  0.1125453E+00
         25   -1    0    0    0    0  0.00000000000E+00  0.00000000000E+00  0.99999998245E-14  0.12509000000E+03  0.12509000000E+03 0.  0.
        -13    1    3    3    0    0 -0.45500763790E+02  0.34563350232E+02 -0.22881817256E+02  0.61551063433E+02  0.10566000000E+00 0.  1.
         23    2    1    0    0    0 -0.25237360196E+02  0.94379150864E+01 -0.11748528882E+02  0.95695671946E+02  0.91069397206E+02 0.  0.
         13    1    3    3    0    0  0.20263403594E+02 -0.25125435145E+02  0.11133288373E+02  0.34144608513E+02  0.10566000000E+00 0. -1.
         22    1    1    0    0    0  0.25237360196E+02 -0.94379150864E+01  0.11748528882E+02  0.29394328054E+02  0.00000000000E+00 0.  1.
</event>
<event>
 5    1  0.1255769E-009  0.9118800E+02  0.7561462E-02  0.1125453E+00
         25   -1    0    0    0    0  0.00000000000E+00  0.00000000000E+00  0.99999998245E-14  0.12509000000E+03  0.12509000000E+03 0.  0.
        -13    1    3    3    0    0 -0.43654658127E+02 -0.28262475336E+02  0.22169280984E+02  0.56533042300E+02  0.10566000000E+00 0.  1.
         23    2    1    0    0    0 -0.24660185000E+02 -0.11508159746E+02 -0.87524955617E+01  0.96503838251E+02  0.92172784236E+02 0.  0.
         13    1    3    3    0    0  0.18994473127E+02  0.16754315590E+02 -0.30921776545E+02  0.39970795952E+02  0.10566000000E+00 0. -1.
         22    1    1    0    0    0  0.24660185000E+02  0.11508159746E+02  0.87524955617E+01  0.28586161749E+02  0.00000000000E+00 0.  1.
</event>
<event>
 5    1  0.1255769E-009  0.9118800E+02  0.7561462E-02  0.1125453E+00
         25   -1    0    0    0    0  0.00000000000E+00  0.00000000000E+00  0.99999998245E-14  0.12509000000E+03  0.12509000000E+03 0.  0.
        -13    1    3    3    0    0  0.21005364887E+02  0.16889618632E+01  0.31911029267E+02  0.38241376794E+02  0.10566000000E+00 0.  1.
         23    2    1    0    0    0 -0.12852573547E+02 -0.25267064053E+02 -0.63864105980E+01  0.96031448540E+02  0.91529447151E+02 0.  0.
         13    1    3    3    0    0 -0.33857938434E+02 -0.26956025916E+02 -0.38297439865E+02  0.57790071746E+02  0.10566000000E+00 0. -1.
         22    1    1    0    0    0  0.12852573547E+02  0.25267064053E+02  0.63864105980E+01  0.29058551460E+02  0.00000000000E+00 0. -1.
</event>
<event>
 5    1  0.1255769E-009  0.9118800E+02  0.7561462E-02  0.1125453E+00
         25   -1    0    0    0    0  0.00000000000E+00  0.00000000000E+00  0.99999998245E-14  0.12509000000E+03  0.12509000000E+03 0.  0.
        -13    1    3    3    0    0  0.69123164088E+01  0.34570753212E+02 -0.17693741643E+02  0.39446124691E+02  0.10566000000E+00 0. -1.
         23    2    1    0    0    0  0.12180112359E+01  0.18342085788E+01  0.28586068417E+02  0.96419262653E+02  0.92057933012E+02 0.  0.
         13    1    3    3    0    0 -0.56943051728E+01 -0.32736544633E+02  0.46279810060E+02  0.56973137962E+02  0.10566000000E+00 0.  1.
         22    1    1    0    0    0 -0.12180112359E+01 -0.18342085788E+01 -0.28586068417E+02  0.28670737347E+02  0.00000000000E+00 0. -1.
</event>
<event>
 5    1  0.1255769E-009  0.9118800E+02  0.7561462E-02  0.1125453E+00
         25   -1    0    0    0    0  0.00000000000E+00  0.00000000000E+00  0.99999998245E-14  0.12509000000E+03  0.12509000000E+03 0.  0.
        -13    1    3    3    0    0  0.48632944232E+02  0.96054704430E+01 -0.29706095271E+02  0.57791795156E+02  0.10566000000E+00 0.  1.
         23    2    1    0    0    0  0.12853393249E+02 -0.39960168449E+01 -0.25442576846E+02  0.96306279164E+02  0.91904280756E+02 0.  0.
         13    1    3    3    0    0 -0.35779550983E+02 -0.13601487288E+02  0.42635184250E+01  0.38514484008E+02  0.10566000000E+00 0. -1.
         22    1    1    0    0    0 -0.12853393249E+02  0.39960168449E+01  0.25442576846E+02  0.28783720836E+02  0.00000000000E+00 0.  1.
</event>
<event>
 5    1  0.1255769E-009  0.9118800E+02  0.7561462E-02  0.1125453E+00
         25   -1    0    0    0    0  0.00000000000E+00  0.00000000000E+00  0.99999998245E-14  0.12509000000E+03  0.12509000000E+03 0.  0.
        -13    1    3    3    0    0 -0.46099168422E+01  0.20220846738E+01  0.42484688070E+02  0.42782006079E+02  0.10566000000E+00 0. -1.
         23    2    1    0    0    0  0.41123142833E+01  0.30062898015E+02 -0.38426233946E+00  0.94744710030E+02  0.89753682126E+02 0.  0.
         13    1    3    3    0    0  0.87222311255E+01  0.28040813341E+02 -0.42868950409E+02  0.51962703951E+02  0.10566000000E+00 0.  1.
         22    1    1    0    0    0 -0.41123142833E+01 -0.30062898015E+02  0.38426233946E+00  0.30345289970E+02  0.00000000000E+00 0. -1.
</event>
<event>
 5    1  0.1255769E-009  0.9118800E+02  0.7561462E-02  0.1125453E+00
         25   -1    0    0    0    0  0.00000000000E+00  0.00000000000E+00  0.99999998245E-14  0.12509000000E+03  0.12509000000E+03 0.  0.
        -13    1    3    3    0    0 -0.46609631809E+02  0.36678510581E+02 -0.18625443288E+02  0.62166624627E+02  0.10566000000E+00 0.  1.
         23    2    1    0    0    0 -0.28500942185E+02  0.16359255895E+02 -0.93101827534E+01  0.90934349490E+02  0.84276019456E+02 0.  0.
         13    1    3    3    0    0  0.18108689624E+02 -0.20319254686E+02  0.93152605349E+01  0.28767724863E+02  0.10566000000E+00 0. -1.
         22    1    1    0    0    0  0.28500942185E+02 -0.16359255895E+02  0.93101827534E+01  0.34155650510E+02  0.00000000000E+00 0.  1.
</event>
<event>
 5    1  0.1255769E-009  0.9118800E+02  0.7561462E-02  0.1125453E+00
         25   -1    0    0    0    0  0.00000000000E+00  0.00000000000E+00  0.99999998245E-14  0.12509000000E+03  0.12509000000E+03 0.  0.
        -13    1    3    3    0    0 -0.31040672026E+02 -0.29839737654E+02  0.87235005273E+01  0.43932264778E+02  0.10566000000E+00 0.  1.
         23    2    1    0    0    0  0.17124151779E+02 -0.13674394242E+02  0.19371484541E+02  0.95841409515E+02  0.91269358125E+02 0.  0.
         13    1    3    3    0    0  0.48164823804E+02  0.16165343412E+02  0.10647984013E+02  0.51909144737E+02  0.10566000000E+00 0. -1.
         22    1    1    0    0    0 -0.17124151779E+02  0.13674394242E+02 -0.19371484541E+02  0.29248590485E+02  0.00000000000E+00 0. -1.
</event>
<event>
 5    1  0.1255769E-009  0.9118800E+02  0.7561462E-02  0.1125453E+00
         25   -1    0    0    0    0  0.00000000000E+00  0.00000000000E+00  0.99999998245E-14  0.12509000000E+03  0.12509000000E+03 0.  0.
        -13    1    3    3    0    0 -0.20706620429E-01  0.57695887125E+02  0.23989860996E+01  0.57745840701E+02  0.10566000000E+00 0.  1.
         23    2    1    0    0    0  0.16496663196E+02  0.19872453130E+02  0.34572498282E+01  0.99032239805E+02  0.95542543689E+02 0.  0.
         13    1    3    3    0    0  0.16517369816E+02 -0.37823433995E+02  0.10582637285E+01  0.41286399104E+02  0.10566000000E+00 0. -1.
         22    1    1    0    0    0 -0.16496663196E+02 -0.19872453130E+02 -0.34572498282E+01  0.26057760195E+02  0.00000000000E+00 0. -1.
</event>
<event>
 5    1  0.1255769E-009  0.9118800E+02  0.7561462E-02  0.1125453E+00
         25   -1    0    0    0    0  0.00000000000E+00  0.00000000000E+00  0.99999998245E-14  0.12509000000E+03  0.12509000000E+03 0.  0.
        -13    1    3    3    0    0  0.21588498686E+02  0.25663680179E+02  0.87288975956E+01  0.34653896940E+02  0.10566000000E+00 0.  1.
         23    2    1    0    0    0 -0.13733647531E+02  0.39960241898E+02 -0.15807043768E+02  0.79975737956E+02  0.66036520364E+02 0.  0.
         13    1    3    3    0    0 -0.35322146217E+02  0.14296561719E+02 -0.24535941364E+02  0.45321841016E+02  0.10566000000E+00 0. -1.
         22    1    1    0    0    0  0.13733647531E+02 -0.39960241898E+02  0.15807043768E+02  0.45114262044E+02  0.00000000000E+00 0. -1.
</event>
<event>
 5    1  0.1255769E-009  0.9118800E+02  0.7561462E-02  0.1125453E+00
         25   -1    0    0    0    0  0.00000000000E+00  0.00000000000E+00  0.99999998245E-14  0.12509000000E+03  0.12509000000E+03 0.  0.
        -13    1    3    3    0    0  0.92648271961E+01 -0.73408622651E+01 -0.28453040026E+02  0.30810906065E+02  0.10566000000E+00 0.  1.
         23    2    1    0    0    0 -0.21828304676E+02  0.11131463833E+02  0.21506736937E+02  0.92487483137E+02  0.86550623518E+02 0.  0.
         13    1    3    3    0    0 -0.31093131872E+02  0.18472326098E+02  0.49959776964E+02  0.61676577072E+02  0.10566000000E+00 0. -1.
         22    1    1    0    0    0  0.21828304676E+02 -0.11131463833E+02 -0.21506736937E+02  0.32602516863E+02  0.00000000000E+00 0. -1.
</event>
<event>
 5    1  0.1255769E-009  0.9118800E+02  0.7561462E-02  0.1125453E+00
         25   -1    0    0    0    0  0.00000000000E+00  0.00000000000E+00  0.99999998245E-14  0.12509000000E+03  0.12509000000E+03 0.  0.
        -13    1    3    3    0    0 -0.17113097490E+02 -0.17631606004E+02 -0.55519935358E+02  0.60714133628E+02  0.10566000000E+00 0. -1.
         23    2    1    0    0    0 -0.15984809478E+02 -0.18368194332E+02 -0.29195962837E+02  0.87072780967E+02  0.78334923516E+02 0.  0.
         13    1    3    3    0    0  0.11282880124E+01 -0.73658832792E+00  0.26323972521E+02  0.26358647339E+02  0.10566000000E+00 0.  1.
         22    1    1    0    0    0  0.15984809478E+02  0.18368194332E+02  0.29195962837E+02  0.38017219033E+02  0.00000000000E+00 0. -1.
</event>
<event>
 5    1  0.1255769E-009  0.9118800E+02  0.7561462E-02  0.1125453E+00
         25   -1    0    0    0    0  0.00000000000E+00  0.00000000000E+00  0.99999998245E-14  0.12509000000E+03  0.12509000000E+03 0.  0.
        -13    1    3    3    0    0 -0.49619362730E+02  0.16658162382E+02  0.31962480990E+02  0.61328516097E+02  0.10566000000E+00 0. -1.
         23    2    1    0    0    0 -0.18116189105E+02  0.73416131517E+01  0.22005563440E+02  0.95656338765E+02  0.91015354376E+02 0.  0.
         13    1    3    3    0    0  0.31503173624E+02 -0.93165492298E+01 -0.99569175496E+01  0.34327822667E+02  0.10566000000E+00 0.  1.
         22    1    1    0    0    0  0.18116189105E+02 -0.73416131517E+01 -0.22005563440E+02  0.29433661235E+02  0.00000000000E+00 0. -1.
</event>
<event>
 5    1  0.1255769E-009  0.9118800E+02  0.7561462E-02  0.1125453E+00
         25   -1    0    0    0    0  0.00000000000E+00  0.00000000000E+00  0.99999998245E-14  0.12509000000E+03  0.12509000000E+03 0.  0.
        -13    1    3    3    0    0  0.31272608869E+02  0.20829133682E+01 -0.14220729190E+02  0.34417363297E+02  0.10566000000E+00 0.  1.
         23    2    1    0    0    0 -0.14944415075E+02 -0.23310801909E+02  0.13819954588E+02  0.94142945659E+02  0.88911045686E+02 0.  0.
         13    1    3    3    0    0 -0.46217023944E+02 -0.25393715277E+02  0.28040683778E+02  0.59725582363E+02  0.10566000000E+00 0. -1.
         22    1    1    0    0    0  0.14944415075E+02  0.23310801909E+02 -0.13819954588E+02  0.30947054341E+02  0.00000000000E+00 0. -1.
</event>
<event>
 5    1  0.1255769E-009  0.9118800E+02  0.7561462E-02  0.1125453E+00
         25   -1    0    0    0    0  0.00000000000E+00  0.00000000000E+00  0.99999998245E-14  0.12509000000E+03  0.12509000000E+03 0.  0.
        -13    1    3    3    0    0 -0.14440099218E+02  0.41331042318E+02 -0.17888209462E+02  0.47294510531E+02  0.10566000000E+00 0.  1.
         23    2    1    0    0    0 -0.27224904279E+02 -0.49438831492E+01 -0.76343018479E+01  0.96385994037E+02  0.92012715905E+02 0.  0.
         13    1    3    3    0    0 -0.12784805061E+02 -0.46274925468E+02  0.10253907614E+02  0.49091483506E+02  0.10566000000E+00 0. -1.
         22    1    1    0    0    0  0.27224904279E+02  0.49438831492E+01  0.76343018479E+01  0.28704005963E+02  0.00000000000E+00 0. -1.
</event>
<event>
 5    1  0.1255769E-009  0.9118800E+02  0.7561462E-02  0.1125453E+00
         25   -1    0    0    0    0  0.00000000000E+00  0.00000000000E+00  0.99999998245E-14  0.12509000000E+03  0.12509000000E+03 0.  0.
        -13    1    3    3    0    0  0.26074310805E+02 -0.43686679580E+02  0.26168577231E+02  0.57211897845E+02  0.10566000000E+00 0.  1.
         23    2    1    0    0    0  0.26119809872E+02 -0.13213630035E+02  0.26633204172E+01  0.95697181794E+02  0.91071471062E+02 0.  0.
         13    1    3    3    0    0  0.45499066855E-01  0.30473049545E+02 -0.23505256814E+02  0.38485283950E+02  0.10566000000E+00 0. -1.
         22    1    1    0    0    0 -0.26119809872E+02  0.13213630035E+02 -0.26633204172E+01  0.29392818206E+02  0.00000000000E+00 0.  1.
</event>
<event>
 5    1  0.1255769E-009  0.9118800E+02  0.7561462E-02  0.1125453E+00
         25   -1    0    0    0    0  0.00000000000E+00  0.00000000000E+00  0.99999998245E-14  0.12509000000E+03  0.12509000000E+03 0.  0.
        -13    1    3    3    0    0 -0.30276677625E+02  0.48038988813E+02 -0.56834313369E+01  0.57067803620E+02  0.10566000000E+00 0.  1.
         23    2    1    0    0    0  0.20310580849E+01  0.27237865531E+02 -0.10570496204E+02  0.95802427454E+02  0.91215915281E+02 0.  0.
         13    1    3    3    0    0  0.32307735710E+02 -0.20801123282E+02 -0.48870648675E+01  0.38734623834E+02  0.10566000000E+00 0. -1.
         22    1    1    0    0    0 -0.20310580849E+01 -0.27237865531E+02  0.10570496204E+02  0.29287572546E+02  0.00000000000E+00 0.  1.
</event>
<event>
 5    1  0.1255769E-009  0.9118800E+02  0.7561462E-02  0.1125453E+00
         25   -1    0    0    0    0  0.00000000000E+00  0.00000000000E+00  0.99999998245E-14  0.12509000000E+03  0.12509000000E+03 0.  0.
        -13    1    3    3    0    0 -0.36227133900E+02 -0.46155122607E+02 -0.93809561693E+01  0.59419812152E+02  0.10566000000E+00 0.  1.
         23    2    1    0    0    0 -0.43986998515E+01 -0.28022023404E+02 -0.41010449420E+01  0.96429907089E+02  0.92072395731E+02 0.  0.
         13    1    3    3    0    0  0.31828434048E+02  0.18133099203E+02  0.52799112274E+01  0.37010094938E+02  0.10566000000E+00 0. -1.
         22    1    1    0    0    0  0.43986998515E+01  0.28022023404E+02  0.41010449420E+01  0.28660092911E+02  0.00000000000E+00 0.  1.
</event>
<event>
 5    1  0.1255769E-009  0.9118800E+02  0.7561462E-02  0.1125453E+00
         25   -1    0    0    0    0  0.00000000000E+00  0.00000000000E+00  0.99999998245E-14  0.12509000000E+03  0.12509000000E+03 0.  0.
        -13    1    3    3    0    0 -0.43951189132E+02  0.30028486226E+02  0.65509285993E+00  0.53233986530E+02  0.10566000000E+00 0.  1.
         23    2    1    0    0    0 -0.25093906306E+02 -0.57387434415E+01  0.13967466238E+02  0.95803016149E+02  0.91216722590E+02 0.  0.
         13    1    3    3    0    0  0.18857282826E+02 -0.35767229668E+02  0.13312373378E+02  0.42569029619E+02  0.10566000000E+00 0. -1.
         22    1    1    0    0    0  0.25093906306E+02  0.57387434415E+01 -0.13967466238E+02  0.29286983851E+02  0.00000000000E+00 0.  1.
</event>
<event>
 5    1  0.1255769E-009  0.9118800E+02  0.7561462E-02  0.1125453E+00
         25   -1    0    0    0    0  0.00000000000E+00  0.00000000000E+00  0.99999998245E-14  0.12509000000E+03  0.12509000000E+03 0.  0.
        -13    1    3    3    0    0 -0.48342642215E+02 -0.18133296377E+02 -0.28147477552E+02  0.58805774805E+02  0.10566000000E+00 0. -1.
         23    2    1    0    0    0 -0.12906034016E+02 -0.12047367039E+02 -0.24423166523E+02  0.94953712412E+02  0.90044498283E+02 0.  0.
         13    1    3    3    0    0  0.35436608199E+02  0.60859293376E+01  0.37243110288E+01  0.36147937607E+02  0.10566000000E+00 0.  1.
         22    1    1    0    0    0  0.12906034016E+02  0.12047367039E+02  0.24423166523E+02  0.30136287588E+02  0.00000000000E+00 0. -1.
</event>
<event>
 5    1  0.1255769E-009  0.9118800E+02  0.7561462E-02  0.1125453E+00
         25   -1    0    0    0    0  0.00000000000E+00  0.00000000000E+00  0.99999998245E-14  0.12509000000E+03  0.12509000000E+03 0.  0.
        -13    1    3    3    0    0 -0.33345016751E+02 -0.33906233910E+02 -0.27380661386E+02  0.54874717512E+02  0.10566000000E+00 0.  1.
         23    2    1    0    0    0  0.52402367356E+01 -0.20252366161E+02 -0.19367683268E+02  0.96581657864E+02  0.92278334751E+02 0.  0.
         13    1    3    3    0    0  0.38585253487E+02  0.13653867748E+02  0.80129781176E+01  0.41706940352E+02  0.10566000000E+00 0. -1.
         22    1    1    0    0    0 -0.52402367356E+01  0.20252366161E+02  0.19367683268E+02  0.28508342136E+02  0.00000000000E+00 0.  1.
</event>
<event>
 5    1  0.1255769E-009  0.9118800E+02  0.7561462E-02  0.1125453E+00
         25   -1    0    0    0    0  0.00000000000E+00  0.00000000000E+00  0.99999998245E-14  0.12509000000E+03  0.12509000000E+03 0.  0.
        -13    1    3    3    0    0  0.45501043340E+01  0.47159936946E+02 -0.33579341672E+01  0.47497894565E+02  0.10566000000E+00 0. -1.
         23    2    1    0    0    0 -0.24190124809E+01  0.83020480214E+01 -0.29169878726E+02  0.94665380896E+02  0.89643052674E+02 0.  0.
         13    1    3    3    0    0 -0.69691168149E+01 -0.38857888925E+02 -0.25811944559E+02  0.47167486331E+02  0.10566000000E+00 0.  1.
         22    1    1    0    0    0  0.24190124809E+01 -0.83020480214E+01  0.29169878726E+02  0.30424619104E+02  0.00000000000E+00 0. -1.
</event>
<event>
 5    1  0.1255769E-009  0.9118800E+02  0.7561462E-02  0.1125453E+00
         25   -1    0    0    0    0  0.00000000000E+00  0.00000000000E+00  0.99999998245E-14  0.12509000000E+03  0.12509000000E+03 0.  0.
        -13    1    3    3    0    0 -0.16577791389E+01 -0.84440264279E+01 -0.32408614293E+02  0.33531764917E+02  0.10566000000E+00 0. -1.
         23    2    1    0    0    0  0.22141842222E+01 -0.11088479187E+02  0.28400409288E+02  0.94521384883E+02  0.89441891583E+02 0.  0.
         13    1    3    3    0    0  0.38719633612E+01 -0.26444527595E+01  0.60809023581E+02  0.60989619966E+02  0.10566000000E+00 0.  1.
         22    1    1    0    0    0 -0.22141842222E+01  0.11088479187E+02 -0.28400409288E+02  0.30568615117E+02  0.00000000000E+00 0.  1.
</event>
<event>
 5    1  0.1255769E-009  0.9118800E+02  0.7561462E-02  0.1125453E+00
         25   -1    0    0    0    0  0.00000000000E+00  0.00000000000E+00  0.99999998245E-14  0.12509000000E+03  0.12509000000E+03 0.  0.
        -13    1    3    3    0    0 -0.27217202062E+02 -0.36070300359E+02  0.29377142775E+00  0.45187831567E+02  0.10566000000E+00 0.  1.
         23    2    1    0    0    0 -0.15068453818E+02  0.18128073134E+02  0.52092826185E+01  0.10094829415E+03  0.98019060035E+02 0.  0.
         13    1    3    3    0    0  0.12148748243E+02  0.54198373492E+02  0.49155111907E+01  0.55760462582E+02  0.10566000000E+00 0. -1.
         22    1    1    0    0    0  0.15068453818E+02 -0.18128073134E+02 -0.52092826185E+01  0.24141705851E+02  0.00000000000E+00 0. -1.
</event>
<event>
 5    1  0.1255769E-009  0.9118800E+02  0.7561462E-02  0.1125453E+00
         25   -1    0    0    0    0  0.00000000000E+00  0.00000000000E+00  0.99999998245E-14  0.12509000000E+03  0.12509000000E+03 0.  0.
        -13    1    3    3    0    0  0.43559331565E+02  0.89580917107E+00 -0.14476407926E+02  0.45910732851E+02  0.10566000000E+00 0. -1.
         23    2    1    0    0    0  0.23730285185E+02  0.24162627758E+02  0.14700854075E+02  0.88170166229E+02  0.80068121542E+02 0.  0.
         13    1    3    3    0    0 -0.19829046381E+02  0.23266818587E+02  0.29177262001E+02  0.42259433378E+02  0.10566000000E+00 0.  1.
         22    1    1    0    0    0 -0.23730285185E+02 -0.24162627758E+02 -0.14700854075E+02  0.36919833771E+02  0.00000000000E+00 0. -1.
</event>
<event>
 5    1  0.1255769E-009  0.9118800E+02  0.7561462E-02  0.1125453E+00
         25   -1    0    0    0    0  0.00000000000E+00  0.00000000000E+00  0.99999998245E-14  0.12509000000E+03  0.12509000000E+03 0.  0.
        -13    1    3    3    0    0  0.63509660706E+01 -0.35779835056E+02 -0.84153932769E+01  0.37300956753E+02  0.10566000000E+00 0. -1.
         23    2    1    0    0    0 -0.31429938018E+02 -0.44630145643E+01 -0.19798622811E+02  0.87676834296E+02  0.79293646051E+02 0.  0.
         13    1    3    3    0    0 -0.37780904089E+02  0.31316820492E+02 -0.11383229534E+02  0.50375877542E+02  0.10566000000E+00 0.  1.
         22    1    1    0    0    0  0.31429938018E+02  0.44630145643E+01  0.19798622811E+02  0.37413165704E+02  0.00000000000E+00 0.  1.
</event>
<event>
 5    1  0.1255769E-009  0.9118800E+02  0.7561462E-02  0.1125453E+00
         25   -1    0    0    0    0  0.00000000000E+00  0.00000000000E+00  0.99999998245E-14  0.12509000000E+03  0.12509000000E+03 0.  0.
        -13    1    3    3    0    0  0.55207103577E+02  0.16711008222E+02 -0.13258646072E+02  0.59185175009E+02  0.10566000000E+00 0.  1.
         23    2    1    0    0    0  0.18844789838E+02  0.15649718584E+02 -0.16263343451E+02  0.95687004642E+02  0.91057491297E+02 0.  0.
         13    1    3    3    0    0 -0.36362313739E+02 -0.10612896382E+01 -0.30046973792E+01  0.36501829633E+02  0.10566000000E+00 0. -1.
         22    1    1    0    0    0 -0.18844789838E+02 -0.15649718584E+02  0.16263343451E+02  0.29402995358E+02  0.00000000000E+00 0.  1.
</event>
<event>
 5    1  0.1255769E-009  0.9118800E+02  0.7561462E-02  0.1125453E+00
         25   -1    0    0    0    0  0.00000000000E+00  0.00000000000E+00  0.99999998245E-14  0.12509000000E+03  0.12509000000E+03 0.  0.
        -13    1    3    3    0    0 -0.52082598174E+01  0.19098517091E+02  0.29430029417E+02  0.35468537056E+02  0.10566000000E+00 0.  1.
         23    2    1    0    0    0 -0.18143377476E+02 -0.60452197905E+01 -0.23085258529E+02  0.95112408537E+02  0.90264690039E+02 0.  0.
         13    1    3    3    0    0 -0.12935117659E+02 -0.25143736881E+02 -0.52515287946E+02  0.59643871481E+02  0.10566000000E+00 0. -1.
         22    1    1    0    0    0  0.18143377476E+02  0.60452197905E+01  0.23085258529E+02  0.29977591463E+02  0.00000000000E+00 0. -1.
</event>
<event>
 5    1  0.1255769E-009  0.9118800E+02  0.7561462E-02  0.1125453E+00
         25   -1    0    0    0    0  0.00000000000E+00  0.00000000000E+00  0.99999998245E-14  0.12509000000E+03  0.12509000000E+03 0.  0.
        -13    1    3    3    0    0  0.37654284797E+02  0.21966192994E+02 -0.16307714865E+02  0.46543651837E+02  0.10566000000E+00 0.  1.
         23    2    1    0    0    0 -0.63840455659E+01  0.27183651155E+02  0.65127665253E+01  0.96417311676E+02  0.92055281951E+02 0.  0.
         13    1    3    3    0    0 -0.44038330362E+02  0.52174581612E+01  0.22820481390E+02  0.49873659839E+02  0.10566000000E+00 0. -1.
         22    1    1    0    0    0  0.63840455659E+01 -0.27183651155E+02 -0.65127665253E+01  0.28672688324E+02  0.00000000000E+00 0. -1.
</event>
<event>
 5    1  0.1255769E-009  0.9118800E+02  0.7561462E-02  0.1125453E+00
         25   -1    0    0    0    0  0.00000000000E+00  0.00000000000E+00  0.99999998245E-14  0.12509000000E+03  0.12509000000E+03 0.  0.
        -13    1    3    3    0    0 -0.45100705960E+02 -0.14628186924E+02  0.28500917442E+02  0.55320619934E+02  0.10566000000E+00 0.  1.
         23    2    1    0    0    0 -0.55607270323E+01 -0.19233225938E+02  0.21451030866E+02  0.95747447446E+02  0.91140486625E+02 0.  0.
         13    1    3    3    0    0  0.39539978928E+02 -0.46050390143E+01 -0.70498865756E+01  0.40426827512E+02  0.10566000000E+00 0. -1.
         22    1    1    0    0    0  0.55607270323E+01  0.19233225938E+02 -0.21451030866E+02  0.29342552554E+02  0.00000000000E+00 0.  1.
</event>
<event>
 5    1  0.1255769E-009  0.9118800E+02  0.7561462E-02  0.1125453E+00
         25   -1    0    0    0    0  0.00000000000E+00  0.00000000000E+00  0.99999998245E-14  0.12509000000E+03  0.12509000000E+03 0.  0.
        -13    1    3    3    0    0  0.20669070981E+02 -0.37863805574E+02 -0.20039153881E+01  0.43184547105E+02  0.10566000000E+00 0.  1.
         23    2    1    0    0    0  0.67401505339E+01  0.17067147707E+02  0.13930189186E+02  0.10205161180E+03  0.99417121967E+02 0.  0.
         13    1    3    3    0    0 -0.13928920447E+02  0.54930953281E+02  0.15934104574E+02  0.58867064695E+02  0.10566000000E+00 0. -1.
         22    1    1    0    0    0 -0.67401505339E+01 -0.17067147707E+02 -0.13930189186E+02  0.23038388200E+02  0.00000000000E+00 0. -1.
</event>
<event>
 5    1  0.1255769E-009  0.9118800E+02  0.7561462E-02  0.1125453E+00
         25   -1    0    0    0    0  0.00000000000E+00  0.00000000000E+00  0.99999998245E-14  0.12509000000E+03  0.12509000000E+03 0.  0.
        -13    1    3    3    0    0  0.16905013000E+02  0.27642137799E+02  0.22240198145E+02  0.39300188603E+02  0.10566000000E+00 0.  1.
         23    2    1    0    0    0 -0.27782104011E+02 -0.18184559682E+00 -0.19608087344E+01  0.97238193201E+02  0.93164065363E+02 0.  0.
         13    1    3    3    0    0 -0.44687117011E+02 -0.27823983396E+02 -0.24201006879E+02  0.57938004598E+02  0.10566000000E+00 0. -1.
         22    1    1    0    0    0  0.27782104011E+02  0.18184559682E+00  0.19608087344E+01  0.27851806799E+02  0.00000000000E+00 0. -1.
</event>
<event>
 5    1  0.1255769E-009  0.9118800E+02  0.7561462E-02  0.1125453E+00
         25   -1    0    0    0    0  0.00000000000E+00  0.00000000000E+00  0.99999998245E-14  0.12509000000E+03  0.12509000000E+03 0.  0.
        -13    1    3    3    0    0 -0.39869688263E+02 -0.19185189209E+02  0.24736817407E+02  0.50691072455E+02  0.10566000000E+00 0.  1.
         23    2    1    0    0    0 -0.25812504375E+02  0.58642068081E+00 -0.13484699199E+02  0.95961553701E+02  0.91433874494E+02 0.  0.
         13    1    3    3    0    0  0.14057183889E+02  0.19771609890E+02 -0.38221516606E+02  0.45270481246E+02  0.10566000000E+00 0. -1.
         22    1    1    0    0    0  0.25812504375E+02 -0.58642068081E+00  0.13484699199E+02  0.29128446299E+02  0.00000000000E+00 0.  1.
</event>
<event>
 5    1  0.1255769E-009  0.9118800E+02  0.7561462E-02  0.1125453E+00
         25   -1    0    0    0    0  0.00000000000E+00  0.00000000000E+00  0.99999998245E-14  0.12509000000E+03  0.12509000000E+03 0.  0.
        -13    1    3    3    0    0  0.32429103867E+02  0.14209862507E+02  0.29458672757E+01  0.35528246060E+02  0.10566000000E+00 0.  1.
         23    2    1    0    0    0 -0.12202991595E+02 -0.13628713317E+02  0.26276649788E+02  0.93072549217E+02  0.87392117855E+02 0.  0.
         13    1    3    3    0    0 -0.44632095462E+02 -0.27838575823E+02  0.23330782512E+02  0.57544303157E+02  0.10566000000E+00 0. -1.
         22    1    1    0    0    0  0.12202991595E+02  0.13628713317E+02 -0.26276649788E+02  0.32017450783E+02  0.00000000000E+00 0. -1.
</event>
<event>
 5    1  0.1255769E-009  0.9118800E+02  0.7561462E-02  0.1125453E+00
         25   -1    0    0    0    0  0.00000000000E+00  0.00000000000E+00  0.99999998245E-14  0.12509000000E+03  0.12509000000E+03 0.  0.
        -13    1    3    3    0    0 -0.13908444529E+02 -0.32925288089E+02 -0.17183753773E+02  0.39658693658E+02  0.10566000000E+00 0. -1.
         23    2    1    0    0    0  0.11660059458E+02 -0.13108261359E+02  0.26067135377E+02  0.93669003052E+02  0.88241730965E+02 0.  0.
         13    1    3    3    0    0  0.25568503987E+02  0.19817026730E+02  0.43250889150E+02  0.54010309394E+02  0.10566000000E+00 0.  1.
         22    1    1    0    0    0 -0.11660059458E+02  0.13108261359E+02 -0.26067135377E+02  0.31420996948E+02  0.00000000000E+00 0. -1.
</event>
<event>
 5    1  0.1255769E-009  0.9118800E+02  0.7561462E-02  0.1125453E+00
         25   -1    0    0    0    0  0.00000000000E+00  0.00000000000E+00  0.99999998245E-14  0.12509000000E+03  0.12509000000E+03 0.  0.
        -13    1    3    3    0    0 -0.98959152201E-03  0.20280992001E+02 -0.57699519559E+01  0.21086065236E+02  0.10566000000E+00 0.  1.
         23    2    1    0    0    0 -0.99299268147E+00 -0.40911670928E+02 -0.11572985023E+02  0.82561364530E+02  0.70765062553E+02 0.  0.
         13    1    3    3    0    0 -0.99200308995E+00 -0.61192662929E+02 -0.58030330666E+01  0.61475299294E+02  0.10566000000E+00 0. -1.
         22    1    1    0    0    0  0.99299268147E+00  0.40911670928E+02  0.11572985023E+02  0.42528635470E+02  0.00000000000E+00 0. -1.
</event>
<event>
 5    1  0.1255769E-009  0.9118800E+02  0.7561462E-02  0.1125453E+00
         25   -1    0    0    0    0  0.00000000000E+00  0.00000000000E+00  0.99999998245E-14  0.12509000000E+03  0.12509000000E+03 0.  0.
        -13    1    3    3    0    0  0.43973325009E+02  0.34798466406E+02 -0.38580716519E+01  0.56209273767E+02  0.10566000000E+00 0. -1.
         23    2    1    0    0    0  0.25388472170E+02  0.57256856110E+01  0.14502896028E+02  0.95295839699E+02  0.90518534433E+02 0.  0.
         13    1    3    3    0    0 -0.18584852839E+02 -0.29072780795E+02  0.18360967680E+02  0.39086565932E+02  0.10566000000E+00 0.  1.
         22    1    1    0    0    0 -0.25388472170E+02 -0.57256856110E+01 -0.14502896028E+02  0.29794160301E+02  0.00000000000E+00 0. -1.
</event>
<event>
 5    1  0.1255769E-009  0.9118800E+02  0.7561462E-02  0.1125453E+00
         25   -1    0    0    0    0  0.00000000000E+00  0.00000000000E+00  0.99999998245E-14  0.12509000000E+03  0.12509000000E+03 0.  0.
        -13    1    3    3    0    0  0.33497536990E+02  0.19536687663E+01 -0.29145509054E+02  0.44445175983E+02  0.10566000000E+00 0. -1.
         23    2    1    0    0    0 -0.48973871953E+00  0.28258838943E+02  0.78120271499E+00  0.96816123363E+02  0.92595624319E+02 0.  0.
         13    1    3    3    0    0 -0.33987275710E+02  0.26305170176E+02  0.29926711769E+02  0.52370947380E+02  0.10566000000E+00 0.  1.
         22    1    1    0    0    0  0.48973871953E+00 -0.28258838943E+02 -0.78120271499E+00  0.28273876637E+02  0.00000000000E+00 0.  1.
</event>
<event>
 5    1  0.1255769E-009  0.9118800E+02  0.7561462E-02  0.1125453E+00
         25   -1    0    0    0    0  0.00000000000E+00  0.00000000000E+00  0.99999998245E-14  0.12509000000E+03  0.12509000000E+03 0.  0.
        -13    1    3    3    0    0 -0.39179176379E+02 -0.24203727233E+02 -0.84486925141E+01  0.46821147390E+02  0.10566000000E+00 0.  1.
         23    2    1    0    0    0  0.46458469159E+01 -0.84417053675E+01 -0.26593747262E+02  0.96804426353E+02  0.92579821155E+02 0.  0.
         13    1    3    3    0    0  0.43825023295E+02  0.15762021866E+02 -0.18145054748E+02  0.49983278963E+02  0.10566000000E+00 0. -1.
         22    1    1    0    0    0 -0.46458469159E+01  0.84417053675E+01  0.26593747262E+02  0.28285573647E+02  0.00000000000E+00 0. -1.
</event>
<event>
 5    1  0.1255769E-009  0.9118800E+02  0.7561462E-02  0.1125453E+00
         25   -1    0    0    0    0  0.00000000000E+00  0.00000000000E+00  0.99999998245E-14  0.12509000000E+03  0.12509000000E+03 0.  0.
        -13    1    3    3    0    0  0.49195539776E+02  0.40837245965E+01 -0.22017223189E+02  0.54052263796E+02  0.10566000000E+00 0.  1.
         23    2    1    0    0    0  0.28927397344E+02 -0.45848333180E+01  0.11043681413E+02  0.93788595673E+02  0.88411100918E+02 0.  0.
         13    1    3    3    0    0 -0.20268142432E+02 -0.86685579145E+01  0.33060904602E+02  0.39736331878E+02  0.10566000000E+00 0. -1.
         22    1    1    0    0    0 -0.28927397344E+02  0.45848333180E+01 -0.11043681413E+02  0.31301404327E+02  0.00000000000E+00 0.  1.
</event>
<event>
 5    1  0.1255769E-009  0.9118800E+02  0.7561462E-02  0.1125453E+00
         25   -1    0    0    0    0  0.00000000000E+00  0.00000000000E+00  0.99999998245E-14  0.12509000000E+03  0.12509000000E+03 0.  0.
        -13    1    3    3    0    0  0.36523179583E+02 -0.95601779514E+01  0.31973260556E+02  0.49473631400E+02  0.10566000000E+00 0.  1.
         23    2    1    0    0    0  0.15122298591E+02 -0.24072927992E+02 -0.65935776012E+01  0.95906699255E+02  0.91358797714E+02 0.  0.
         13    1    3    3    0    0 -0.21400880992E+02 -0.14512750041E+02 -0.38566838157E+02  0.46433067855E+02  0.10566000000E+00 0. -1.
         22    1    1    0    0    0 -0.15122298591E+02  0.24072927992E+02  0.65935776012E+01  0.29183300745E+02  0.00000000000E+00 0. -1.
</event>
<event>
 5    1  0.1255769E-009  0.9118800E+02  0.7561462E-02  0.1125453E+00
         25   -1    0    0    0    0  0.00000000000E+00  0.00000000000E+00  0.99999998245E-14  0.12509000000E+03  0.12509000000E+03 0.  0.
        -13    1    3    3    0    0 -0.14667264962E+02 -0.32841717561E+02  0.25020688901E+02  0.43814987286E+02  0.10566000000E+00 0.  1.
         23    2    1    0    0    0  0.21745011647E+02 -0.16902675217E+02 -0.89798403914E+01  0.96121335991E+02  0.91652210766E+02 0.  0.
         13    1    3    3    0    0  0.36412276609E+02  0.15939042344E+02 -0.34000529292E+02  0.52306348705E+02  0.10566000000E+00 0. -1.
         22    1    1    0    0    0 -0.21745011647E+02  0.16902675217E+02  0.89798403914E+01  0.28968664009E+02  0.00000000000E+00 0. -1.
</event>
<event>
 5    1  0.1255769E-009  0.9118800E+02  0.7561462E-02  0.1125453E+00
         25   -1    0    0    0    0  0.00000000000E+00  0.00000000000E+00  0.99999998245E-14  0.12509000000E+03  0.12509000000E+03 0.  0.
        -13    1    3    3    0    0 -0.15784865373E+02 -0.47598620296E+02 -0.33219950544E+02  0.60152862834E+02  0.10566000000E+00 0.  1.
         23    2    1    0    0    0  0.25727372517E+01 -0.27405726556E+02 -0.10620289134E+02  0.95586044904E+02  0.90918692325E+02 0.  0.
         13    1    3    3    0    0  0.18357602624E+02  0.20192893740E+02  0.22599661410E+02  0.35433182070E+02  0.10566000000E+00 0. -1.
         22    1    1    0    0    0 -0.25727372517E+01  0.27405726556E+02  0.10620289134E+02  0.29503955096E+02  0.00000000000E+00 0.  1.
</event>
<event>
 5    1  0.1255769E-009  0.9118800E+02  0.7561462E-02  0.1125453E+00
         25   -1    0    0    0    0  0.00000000000E+00  0.00000000000E+00  0.99999998245E-14  0.12509000000E+03  0.12509000000E+03 0.  0.
        -13    1    3    3    0    0  0.90072200232E+01 -0.31306081785E+02 -0.32875873124E+02  0.46282123622E+02  0.10566000000E+00 0. -1.
         23    2    1    0    0    0  0.10506941727E+02 -0.23131778638E+02  0.15474818748E+02  0.95341974474E+02  0.90582266884E+02 0.  0.
         13    1    3    3    0    0  0.14997217034E+01  0.81743031465E+01  0.48350691872E+02  0.49059850852E+02  0.10566000000E+00 0.  1.
         22    1    1    0    0    0 -0.10506941727E+02  0.23131778638E+02 -0.15474818748E+02  0.29748025526E+02  0.00000000000E+00 0. -1.
</event>
<event>
 5    1  0.1255769E-009  0.9118800E+02  0.7561462E-02  0.1125453E+00
         25   -1    0    0    0    0  0.00000000000E+00  0.00000000000E+00  0.99999998245E-14  0.12509000000E+03  0.12509000000E+03 0.  0.
        -13    1    3    3    0    0 -0.49286788387E+02 -0.28434362648E+02  0.25708423255E+02  0.62439047711E+02  0.10566000000E+00 0. -1.
         23    2    1    0    0    0 -0.21353939212E+02 -0.14956207244E+02  0.13020730577E+02  0.95948650001E+02  0.91416219334E+02 0.  0.
         13    1    3    3    0    0  0.27932849175E+02  0.13478155404E+02 -0.12687692679E+02  0.33509602290E+02  0.10566000000E+00 0.  1.
         22    1    1    0    0    0  0.21353939212E+02  0.14956207244E+02 -0.13020730577E+02  0.29141349999E+02  0.00000000000E+00 0. -1.
</event>
<event>
 5    1  0.1255769E-009  0.9118800E+02  0.7561462E-02  0.1125453E+00
         25   -1    0    0    0    0  0.00000000000E+00  0.00000000000E+00  0.99999998245E-14  0.12509000000E+03  0.12509000000E+03 0.  0.
        -13    1    3    3    0    0  0.18389396329E+02 -0.31866620733E+02  0.14886489775E+02  0.39689673167E+02  0.10566000000E+00 0.  1.
         23    2    1    0    0    0  0.13512869464E+02  0.17391881696E+02 -0.15849593861E+02  0.97955431354E+02  0.94122163788E+02 0.  0.
         13    1    3    3    0    0 -0.48765268652E+01  0.49258502429E+02 -0.30736083635E+02  0.58265758187E+02  0.10566000000E+00 0. -1.
         22    1    1    0    0    0 -0.13512869464E+02 -0.17391881696E+02  0.15849593861E+02  0.27134568646E+02  0.00000000000E+00 0. -1.
</event>
<event>
 5    1  0.1255769E-009  0.9118800E+02  0.7561462E-02  0.1125453E+00
         25   -1    0    0    0    0  0.00000000000E+00  0.00000000000E+00  0.99999998245E-14  0.12509000000E+03  0.12509000000E+03 0.  0.
        -13    1    3    3    0    0 -0.28832850630E+02 -0.37287035532E+02  0.22030225467E+02  0.52028821748E+02  0.10566000000E+00 0.  1.
         23    2    1    0    0    0 -0.81719026579E+01  0.75041775147E+00  0.28170277843E+02  0.95748771778E+02  0.91142304247E+02 0.  0.
         13    1    3    3    0    0  0.20660947973E+02  0.38037453284E+02  0.61400523757E+01  0.43719950030E+02  0.10566000000E+00 0. -1.
         22    1    1    0    0    0  0.81719026579E+01 -0.75041775147E+00 -0.28170277843E+02  0.29341228222E+02  0.00000000000E+00 0.  1.
</event>
<event>
 5    1  0.1255769E-009  0.9118800E+02  0.7561462E-02  0.1125453E+00
         25   -1    0    0    0    0  0.00000000000E+00  0.00000000000E+00  0.99999998245E-14  0.12509000000E+03  0.12509000000E+03 0.  0.
        -13    1    3    3    0    0  0.46373348246E+02  0.22058646755E+02 -0.19779650880E+02  0.55030146985E+02  0.10566000000E+00 0. -1.
         23    2    1    0    0    0  0.24387614269E+02  0.11041568850E+02  0.12446294307E+02  0.95567428730E+02  0.90893075753E+02 0.  0.
         13    1    3    3    0    0 -0.21985733977E+02 -0.11017077905E+02  0.32225945187E+02  0.40537281746E+02  0.10566000000E+00 0.  1.
         22    1    1    0    0    0 -0.24387614269E+02 -0.11041568850E+02 -0.12446294307E+02  0.29522571270E+02  0.00000000000E+00 0. -1.
</event>
<event>
 5    1  0.1255769E-009  0.9118800E+02  0.7561462E-02  0.1125453E+00
         25   -1    0    0    0    0  0.00000000000E+00  0.00000000000E+00  0.99999998245E-14  0.12509000000E+03  0.12509000000E+03 0.  0.
        -13    1    3    3    0    0  0.10409901303E+02  0.53668924135E+02 -0.24667269338E+02  0.59976702173E+02  0.10566000000E+00 0. -1.
         23    2    1    0    0    0 -0.27105619832E+01  0.29113024042E+02 -0.21717709340E+01  0.95770520058E+02  0.91172148203E+02 0.  0.
         13    1    3    3    0    0 -0.13120463287E+02 -0.24555900093E+02  0.22495498404E+02  0.35793817884E+02  0.10566000000E+00 0.  1.
         22    1    1    0    0    0  0.27105619832E+01 -0.29113024042E+02  0.21717709340E+01  0.29319479942E+02  0.00000000000E+00 0. -1.
</event>
<event>
 5    1  0.1255769E-009  0.9118800E+02  0.7561462E-02  0.1125453E+00
         25   -1    0    0    0    0  0.00000000000E+00  0.00000000000E+00  0.99999998245E-14  0.12509000000E+03  0.12509000000E+03 0.  0.
        -13    1    3    3    0    0 -0.28474124683E+02  0.77436640876E+01  0.23439128902E+02  0.37684798496E+02  0.10566000000E+00 0. -1.
         23    2    1    0    0    0  0.22870344285E+02 -0.13007798385E+02  0.17741191251E+02  0.93356652658E+02  0.87797831761E+02 0.  0.
         13    1    3    3    0    0  0.51344468968E+02 -0.20751462472E+02 -0.56979376506E+01  0.55671854162E+02  0.10566000000E+00 0.  1.
         22    1    1    0    0    0 -0.22870344285E+02  0.13007798385E+02 -0.17741191251E+02  0.31733347342E+02  0.00000000000E+00 0.  1.
</event>
<event>
 5    1  0.1255769E-009  0.9118800E+02  0.7561462E-02  0.1125453E+00
         25   -1    0    0    0    0  0.00000000000E+00  0.00000000000E+00  0.99999998245E-14  0.12509000000E+03  0.12509000000E+03 0.  0.
        -13    1    3    3    0    0  0.20066750797E+02  0.11947954180E+02 -0.29005822895E+02  0.37239455185E+02  0.10566000000E+00 0.  1.
         23    2    1    0    0    0 -0.18850791212E+02 -0.22417253478E+02 -0.20758969474E+01  0.95726843988E+02  0.91112204062E+02 0.  0.
         13    1    3    3    0    0 -0.38917542010E+02 -0.34365207658E+02  0.26929925947E+02  0.58487388803E+02  0.10566000000E+00 0. -1.
         22    1    1    0    0    0  0.18850791212E+02  0.22417253478E+02  0.20758969474E+01  0.29363156012E+02  0.00000000000E+00 0. -1.
</event>
<event>
 5    1  0.1255769E-009  0.9118800E+02  0.7561462E-02  0.1125453E+00
         25   -1    0    0    0    0  0.00000000000E+00  0.00000000000E+00  0.99999998245E-14  0.12509000000E+03  0.12509000000E+03 0.  0.
        -13    1    3    3    0    0  0.22302288002E+02  0.15301707266E+02 -0.28680001797E+02  0.39421922359E+02  0.10566000000E+00 0.  1.
         23    2    1    0    0    0  0.48257950664E+01 -0.28361117134E+02  0.30571240103E+01  0.96159267718E+02  0.91703966642E+02 0.  0.
         13    1    3    3    0    0 -0.17476492935E+02 -0.43662824400E+02  0.31737125807E+02  0.56737345360E+02  0.10566000000E+00 0. -1.
         22    1    1    0    0    0 -0.48257950664E+01  0.28361117134E+02 -0.30571240103E+01  0.28930732282E+02  0.00000000000E+00 0. -1.
</event>
<event>
 5    1  0.1255769E-009  0.9118800E+02  0.7561462E-02  0.1125453E+00
         25   -1    0    0    0    0  0.00000000000E+00  0.00000000000E+00  0.99999998245E-14  0.12509000000E+03  0.12509000000E+03 0.  0.
        -13    1    3    3    0    0 -0.18868085709E+02  0.27193298888E+02  0.26334496925E+02  0.42296537152E+02  0.10566000000E+00 0. -1.
         23    2    1    0    0    0  0.14712049633E+02  0.20955712939E+02 -0.14605451560E+02  0.95612796529E+02  0.90955490960E+02 0.  0.
         13    1    3    3    0    0  0.33580135342E+02 -0.62375859493E+01 -0.40939948485E+02  0.53316259377E+02  0.10566000000E+00 0.  1.
         22    1    1    0    0    0 -0.14712049633E+02 -0.20955712939E+02  0.14605451560E+02  0.29477203471E+02  0.00000000000E+00 0.  1.
</event>
<event>
 5    1  0.1255769E-009  0.9118800E+02  0.7561462E-02  0.1125453E+00
         25   -1    0    0    0    0  0.00000000000E+00  0.00000000000E+00  0.99999998245E-14  0.12509000000E+03  0.12509000000E+03 0.  0.
        -13    1    3    3    0    0 -0.11441373363E+02 -0.41285953314E+02  0.32222730982E+02  0.53607373760E+02  0.10566000000E+00 0.  1.
         23    2    1    0    0    0 -0.24805660182E+02 -0.74492192174E+01  0.21196439370E+02  0.91622094688E+02  0.85290723699E+02 0.  0.
         13    1    3    3    0    0 -0.13364286819E+02  0.33836734096E+02 -0.11026291612E+02  0.38014720928E+02  0.10566000000E+00 0. -1.
         22    1    1    0    0    0  0.24805660182E+02  0.74492192174E+01 -0.21196439370E+02  0.33467905312E+02  0.00000000000E+00 0.  1.
</event>
<event>
 5    1  0.1255769E-009  0.9118800E+02  0.7561462E-02  0.1125453E+00
         25   -1    0    0    0    0  0.00000000000E+00  0.00000000000E+00  0.99999998245E-14  0.12509000000E+03  0.12509000000E+03 0.  0.
        -13    1    3    3    0    0 -0.42815280480E+01  0.35513976882E+02  0.69294918390E+01  0.36436287648E+02  0.10566000000E+00 0.  1.
         23    2    1    0    0    0 -0.11385412733E+02 -0.23702692304E+02  0.11784125491E+02  0.96274884883E+02  0.91861540375E+02 0.  0.
         13    1    3    3    0    0 -0.71038846853E+01 -0.59216669186E+02  0.48546336525E+01  0.59838597235E+02  0.10566000000E+00 0. -1.
         22    1    1    0    0    0  0.11385412733E+02  0.23702692304E+02 -0.11784125491E+02  0.28815115117E+02  0.00000000000E+00 0. -1.
</event>
<event>
 5    1  0.1255769E-009  0.9118800E+02  0.7561462E-02  0.1125453E+00
         25   -1    0    0    0    0  0.00000000000E+00  0.00000000000E+00  0.99999998245E-14  0.12509000000E+03  0.12509000000E+03 0.  0.
        -13    1    3    3    0    0  0.14110880919E+02  0.17508203134E+02  0.22421393753E+02  0.31755065725E+02  0.10566000000E+00 0.  1.
         23    2    1    0    0    0 -0.16937324487E+02 -0.17226611299E+02 -0.19202547788E+02  0.94229557048E+02  0.89032816884E+02 0.  0.
         13    1    3    3    0    0 -0.31048205406E+02 -0.34734814434E+02 -0.41623941541E+02  0.62474491324E+02  0.10566000000E+00 0. -1.
         22    1    1    0    0    0  0.16937324487E+02  0.17226611299E+02  0.19202547788E+02  0.30860442952E+02  0.00000000000E+00 0. -1.
</event>
<event>
 5    1  0.1255769E-009  0.9118800E+02  0.7561462E-02  0.1125453E+00
         25   -1    0    0    0    0  0.00000000000E+00  0.00000000000E+00  0.99999998245E-14  0.12509000000E+03  0.12509000000E+03 0.  0.
        -13    1    3    3    0    0 -0.16603394360E+02 -0.14843356182E+02  0.52030121156E+02  0.56596312588E+02  0.10566000000E+00 0.  1.
         23    2    1    0    0    0 -0.16632080376E+02  0.10184922457E+02  0.21948204788E+02  0.95728759623E+02  0.91114834041E+02 0.  0.
         13    1    3    3    0    0 -0.28686016057E-01  0.25028278639E+02 -0.30081916368E+02  0.39132447035E+02  0.10566000000E+00 0. -1.
         22    1    1    0    0    0  0.16632080376E+02 -0.10184922457E+02 -0.21948204788E+02  0.29361240377E+02  0.00000000000E+00 0.  1.
</event>
<event>
 5    1  0.1255769E-009  0.9118800E+02  0.7561462E-02  0.1125453E+00
         25   -1    0    0    0    0  0.00000000000E+00  0.00000000000E+00  0.99999998245E-14  0.12509000000E+03  0.12509000000E+03 0.  0.
        -13    1    3    3    0    0  0.25496285905E+02 -0.26241473111E+02 -0.10717196573E+01  0.36603760094E+02  0.10566000000E+00 0. -1.
         23    2    1    0    0    0 -0.96046746993E+01  0.17740982130E+02  0.19991158856E+02  0.96688615255E+02  0.92423209555E+02 0.  0.
         13    1    3    3    0    0 -0.35100960604E+02  0.43982455242E+02  0.21062878513E+02  0.60084855161E+02  0.10566000000E+00 0.  1.
         22    1    1    0    0    0  0.96046746993E+01 -0.17740982130E+02 -0.19991158856E+02  0.28401384745E+02  0.00000000000E+00 0.  1.
</event>
<event>
 5    1  0.1255769E-009  0.9118800E+02  0.7561462E-02  0.1125453E+00
         25   -1    0    0    0    0  0.00000000000E+00  0.00000000000E+00  0.99999998245E-14  0.12509000000E+03  0.12509000000E+03 0.  0.
        -13    1    3    3    0    0  0.42593720392E+02  0.18159117479E+02  0.32770352079E+02  0.56726410990E+02  0.10566000000E+00 0.  1.
         23    2    1    0    0    0  0.17834259819E+02  0.22417086700E+02  0.21080513620E+01  0.96366656184E+02  0.91986422608E+02 0.  0.
         13    1    3    3    0    0 -0.24759460573E+02  0.42579692211E+01 -0.30662300717E+02  0.39640245194E+02  0.10566000000E+00 0. -1.
         22    1    1    0    0    0 -0.17834259819E+02 -0.22417086700E+02 -0.21080513620E+01  0.28723343816E+02  0.00000000000E+00 0.  1.
</event>
<event>
 5    1  0.1255769E-009  0.9118800E+02  0.7561462E-02  0.1125453E+00
         25   -1    0    0    0    0  0.00000000000E+00  0.00000000000E+00  0.99999998245E-14  0.12509000000E+03  0.12509000000E+03 0.  0.
        -13    1    3    3    0    0 -0.46722522015E+02 -0.51257442007E+01  0.22503926288E+01  0.47056803420E+02  0.10566000000E+00 0. -1.
         23    2    1    0    0    0  0.12858746139E+01 -0.25672050483E+02  0.23637957291E+01  0.99277305841E+02  0.95862861814E+02 0.  0.
         13    1    3    3    0    0  0.48008396629E+02 -0.20546306282E+02  0.11340310035E+00  0.52220502421E+02  0.10566000000E+00 0.  1.
         22    1    1    0    0    0 -0.12858746139E+01  0.25672050483E+02 -0.23637957291E+01  0.25812694159E+02  0.00000000000E+00 0. -1.
</event>
<event>
 5    1  0.1255769E-009  0.9118800E+02  0.7561462E-02  0.1125453E+00
         25   -1    0    0    0    0  0.00000000000E+00  0.00000000000E+00  0.99999998245E-14  0.12509000000E+03  0.12509000000E+03 0.  0.
        -13    1    3    3    0    0  0.80226596514E+01 -0.26233770851E+01 -0.37204649103E+02  0.38150258900E+02  0.10566000000E+00 0. -1.
         23    2    1    0    0    0  0.16125944012E+02 -0.77396716683E+01  0.21209210311E+02  0.97345105157E+02  0.93307504030E+02 0.  0.
         13    1    3    3    0    0  0.81032843608E+01 -0.51162945831E+01  0.58413859414E+02  0.59194846257E+02  0.10566000000E+00 0.  1.
         22    1    1    0    0    0 -0.16125944012E+02  0.77396716683E+01 -0.21209210311E+02  0.27744894843E+02  0.00000000000E+00 0.  1.
</event>
<event>
 5    1  0.1255769E-009  0.9118800E+02  0.7561462E-02  0.1125453E+00
         25   -1    0    0    0    0  0.00000000000E+00  0.00000000000E+00  0.99999998245E-14  0.12509000000E+03  0.12509000000E+03 0.  0.
        -13    1    3    3    0    0 -0.21895897670E+01  0.58099746091E+02 -0.44801882949E+01  0.58313446566E+02  0.10566000000E+00 0.  1.
         23    2    1    0    0    0  0.66021059344E+01  0.20425424821E+02  0.12151091352E+02  0.10042352877E+03  0.97347061218E+02 0.  0.
         13    1    3    3    0    0  0.87916957014E+01 -0.37674321271E+02  0.16631279647E+02  0.42110082204E+02  0.10566000000E+00 0. -1.
         22    1    1    0    0    0 -0.66021059344E+01 -0.20425424821E+02 -0.12151091352E+02  0.24666471230E+02  0.00000000000E+00 0.  1.
</event>
<event>
 5    1  0.1255769E-009  0.9118800E+02  0.7561462E-02  0.1125453E+00
         25   -1    0    0    0    0  0.00000000000E+00  0.00000000000E+00  0.99999998245E-14  0.12509000000E+03  0.12509000000E+03 0.  0.
        -13    1    3    3    0    0  0.46295079559E+02  0.82222828622E+01 -0.35407378731E+02  0.58860291873E+02  0.10566000000E+00 0.  1.
         23    2    1    0    0    0  0.10495634788E+02  0.82974549699E+01 -0.25959242617E+02  0.95885747128E+02  0.91330105203E+02 0.  0.
         13    1    3    3    0    0 -0.35799444771E+02  0.75172107667E-01  0.94481361134E+01  0.37025455254E+02  0.10566000000E+00 0. -1.
         22    1    1    0    0    0 -0.10495634788E+02 -0.82974549699E+01  0.25959242617E+02  0.29204252872E+02  0.00000000000E+00 0.  1.
</event>
<event>
 5    1  0.1255769E-009  0.9118800E+02  0.7561462E-02  0.1125453E+00
         25   -1    0    0    0    0  0.00000000000E+00  0.00000000000E+00  0.99999998245E-14  0.12509000000E+03  0.12509000000E+03 0.  0.
        -13    1    3    3    0    0 -0.21453560474E+02  0.17397151990E+01 -0.30409766874E+02  0.37256502135E+02  0.10566000000E+00 0.  1.
         23    2    1    0    0    0 -0.12300210446E+02 -0.11074434533E+02  0.25137507671E+02  0.94992947501E+02  0.90098987263E+02 0.  0.
         13    1    3    3    0    0  0.91533500281E+01 -0.12814149732E+02  0.55547274545E+02  0.57736445366E+02  0.10566000000E+00 0. -1.
         22    1    1    0    0    0  0.12300210446E+02  0.11074434533E+02 -0.25137507671E+02  0.30097052499E+02  0.00000000000E+00 0. -1.
</event>
<event>
 5    1  0.1255769E-009  0.9118800E+02  0.7561462E-02  0.1125453E+00
         25   -1    0    0    0    0  0.00000000000E+00  0.00000000000E+00  0.99999998245E-14  0.12509000000E+03  0.12509000000E+03 0.  0.
        -13    1    3    3    0    0 -0.15349676981E+02  0.74381269004E+01  0.49301317306E+02  0.52168662694E+02  0.10566000000E+00 0. -1.
         23    2    1    0    0    0 -0.21465737452E+02  0.18690092294E+02  0.78330508714E+01  0.95569598237E+02  0.90896061449E+02 0.  0.
         13    1    3    3    0    0 -0.61160604703E+01  0.11251965393E+02 -0.41468266434E+02  0.43400935543E+02  0.10566000000E+00 0.  1.
         22    1    1    0    0    0  0.21465737452E+02 -0.18690092294E+02 -0.78330508714E+01  0.29520401763E+02  0.00000000000E+00 0.  1.
</event>
<event>
 5    1  0.1255769E-009  0.9118800E+02  0.7561462E-02  0.1125453E+00
         25   -1    0    0    0    0  0.00000000000E+00  0.00000000000E+00  0.99999998245E-14  0.12509000000E+03  0.12509000000E+03 0.  0.
        -13    1    3    3    0    0 -0.15646431166E+02  0.26510145341E+02 -0.23406502110E+02  0.38671360453E+02  0.10566000000E+00 0. -1.
         23    2    1    0    0    0 -0.97532127187E+01 -0.12622697408E+02  0.21365629224E+02  0.98426396337E+02  0.94746016991E+02 0.  0.
         13    1    3    3    0    0  0.58932184478E+01 -0.39132842749E+02  0.44772131333E+02  0.59755035884E+02  0.10566000000E+00 0.  1.
         22    1    1    0    0    0  0.97532127187E+01  0.12622697408E+02 -0.21365629224E+02  0.26663603663E+02  0.00000000000E+00 0.  1.
</event>
<event>
 5    1  0.1255769E-009  0.9118800E+02  0.7561462E-02  0.1125453E+00
         25   -1    0    0    0    0  0.00000000000E+00  0.00000000000E+00  0.99999998245E-14  0.12509000000E+03  0.12509000000E+03 0.  0.
        -13    1    3    3    0    0  0.10001276696E+02  0.36731758011E+02 -0.40676388447E+02  0.55712003404E+02  0.10566000000E+00 0.  1.
         23    2    1    0    0    0  0.17181945586E+02  0.21571084968E+02 -0.25150358588E+01  0.97397828432E+02  0.93378159208E+02 0.  0.
         13    1    3    3    0    0  0.71806688900E+01 -0.15160673043E+02  0.38161352589E+02  0.41685825028E+02  0.10566000000E+00 0. -1.
         22    1    1    0    0    0 -0.17181945586E+02 -0.21571084968E+02  0.25150358588E+01  0.27692171568E+02  0.00000000000E+00 0.  1.
</event>
<event>
 5    1  0.1255769E-009  0.9118800E+02  0.7561462E-02  0.1125453E+00
         25   -1    0    0    0    0  0.00000000000E+00  0.00000000000E+00  0.99999998245E-14  0.12509000000E+03  0.12509000000E+03 0.  0.
        -13    1    3    3    0    0  0.21262236047E+01 -0.34285924590E+02 -0.48381904641E+02  0.59336879868E+02  0.10566000000E+00 0.  1.
         23    2    1    0    0    0  0.26989922267E+01 -0.32574077194E+01 -0.28686947465E+02  0.96092823949E+02  0.91613288313E+02 0.  0.
         13    1    3    3    0    0  0.57276862204E+00  0.31028516871E+02  0.19694957176E+02  0.36755944081E+02  0.10566000000E+00 0. -1.
         22    1    1    0    0    0 -0.26989922267E+01  0.32574077194E+01  0.28686947465E+02  0.28997176051E+02  0.00000000000E+00 0.  1.
</event>
<event>
 5    1  0.1255769E-009  0.9118800E+02  0.7561462E-02  0.1125453E+00
         25   -1    0    0    0    0  0.00000000000E+00  0.00000000000E+00  0.99999998245E-14  0.12509000000E+03  0.12509000000E+03 0.  0.
        -13    1    3    3    0    0  0.26072147893E+02 -0.24347173682E+02 -0.27021081935E+02  0.44751444614E+02  0.10566000000E+00 0.  1.
         23    2    1    0    0    0 -0.36184876903E+00 -0.29680594646E+02  0.12735044464E+02  0.92790619347E+02  0.86987637329E+02 0.  0.
         13    1    3    3    0    0 -0.26433996662E+02 -0.53334209642E+01  0.39756126399E+02  0.48039174733E+02  0.10566000000E+00 0. -1.
         22    1    1    0    0    0  0.36184876903E+00  0.29680594646E+02 -0.12735044464E+02  0.32299380653E+02  0.00000000000E+00 0. -1.
</event>
<event>
 5    1  0.1255769E-009  0.9118800E+02  0.7561462E-02  0.1125453E+00
         25   -1    0    0    0    0  0.00000000000E+00  0.00000000000E+00  0.99999998245E-14  0.12509000000E+03  0.12509000000E+03 0.  0.
        -13    1    3    3    0    0 -0.40187288693E+02  0.93466476110E+01  0.25211686041E+02  0.48353058550E+02  0.10566000000E+00 0.  1.
         23    2    1    0    0    0 -0.24411056637E+02  0.34436897610E+02  0.19735515703E+02  0.78492895120E+02  0.63165215120E+02 0.  0.
         13    1    3    3    0    0  0.15776232056E+02  0.25090249999E+02 -0.54761703375E+01  0.30139836570E+02  0.10566000000E+00 0. -1.
         22    1    1    0    0    0  0.24411056637E+02 -0.34436897610E+02 -0.19735515703E+02  0.46597104880E+02  0.00000000000E+00 0.  1.
</event>
<event>
 5    1  0.1255769E-009  0.9118800E+02  0.7561462E-02  0.1125453E+00
         25   -1    0    0    0    0  0.00000000000E+00  0.00000000000E+00  0.99999998245E-14  0.12509000000E+03  0.12509000000E+03 0.  0.
        -13    1    3    3    0    0  0.31644062618E+02 -0.51902511707E+01 -0.11222840532E+02  0.33974236118E+02  0.10566000000E+00 0.  1.
         23    2    1    0    0    0  0.78268183526E+01  0.21822816492E+02  0.28998876578E+02  0.87962796390E+02  0.79743490648E+02 0.  0.
         13    1    3    3    0    0 -0.23817244265E+02  0.27013067663E+02  0.40221717110E+02  0.53988560272E+02  0.10566000000E+00 0. -1.
         22    1    1    0    0    0 -0.78268183526E+01 -0.21822816492E+02 -0.28998876578E+02  0.37127203610E+02  0.00000000000E+00 0. -1.
</event>
<event>
 5    1  0.1255769E-009  0.9118800E+02  0.7561462E-02  0.1125453E+00
         25   -1    0    0    0    0  0.00000000000E+00  0.00000000000E+00  0.99999998245E-14  0.12509000000E+03  0.12509000000E+03 0.  0.
        -13    1    3    3    0    0  0.32901395795E+02 -0.14753793437E+02 -0.14871326351E+02  0.39004407155E+02  0.10566000000E+00 0.  1.
         23    2    1    0    0    0 -0.20205286307E+02 -0.21163073660E+02  0.36306214537E+01  0.95605924745E+02  0.90946039786E+02 0.  0.
         13    1    3    3    0    0 -0.53106682102E+02 -0.64092802235E+01  0.18501947805E+02  0.56601517590E+02  0.10566000000E+00 0. -1.
         22    1    1    0    0    0  0.20205286307E+02  0.21163073660E+02 -0.36306214537E+01  0.29484075255E+02  0.00000000000E+00 0.  1.
</event>
<event>
 5    1  0.1255769E-009  0.9118800E+02  0.7561462E-02  0.1125453E+00
         25   -1    0    0    0    0  0.00000000000E+00  0.00000000000E+00  0.99999998245E-14  0.12509000000E+03  0.12509000000E+03 0.  0.
        -13    1    3    3    0    0  0.10415223909E+02 -0.21761517968E+02 -0.30195972629E+02  0.38650336097E+02  0.10566000000E+00 0.  1.
         23    2    1    0    0    0  0.20636039558E+02 -0.63745275893E+01  0.22145654381E+02  0.94156026143E+02  0.88929446869E+02 0.  0.
         13    1    3    3    0    0  0.10220815649E+02  0.15386990379E+02  0.52341627010E+02  0.55505690046E+02  0.10566000000E+00 0. -1.
         22    1    1    0    0    0 -0.20636039558E+02  0.63745275893E+01 -0.22145654381E+02  0.30933973857E+02  0.00000000000E+00 0. -1.
</event>
<event>
 5    1  0.1255769E-009  0.9118800E+02  0.7561462E-02  0.1125453E+00
         25   -1    0    0    0    0  0.00000000000E+00  0.00000000000E+00  0.99999998245E-14  0.12509000000E+03  0.12509000000E+03 0.  0.
        -13    1    3    3    0    0  0.51091187273E+02  0.14098906934E+02  0.62672175375E+01  0.53370195553E+02  0.10566000000E+00 0.  1.
         23    2    1    0    0    0  0.14418799977E+02 -0.44257920384E+01 -0.18404721736E+02  0.10129455485E+03  0.98459959533E+02 0.  0.
         13    1    3    3    0    0 -0.36672387296E+02 -0.18524698972E+02 -0.24671939273E+02  0.47924359292E+02  0.10566000000E+00 0. -1.
         22    1    1    0    0    0 -0.14418799977E+02  0.44257920384E+01  0.18404721736E+02  0.23795445155E+02  0.00000000000E+00 0.  1.
</event>
<event>
 5    1  0.1255769E-009  0.9118800E+02  0.7561462E-02  0.1125453E+00
         25   -1    0    0    0    0  0.00000000000E+00  0.00000000000E+00  0.99999998245E-14  0.12509000000E+03  0.12509000000E+03 0.  0.
        -13    1    3    3    0    0 -0.21648397480E+02  0.22771131079E+01 -0.43641492445E+02  0.48769143774E+02  0.10566000000E+00 0.  1.
         23    2    1    0    0    0 -0.16959995718E+02  0.29526956230E+02 -0.17568317570E+02  0.86773836554E+02  0.77856087297E+02 0.  0.
         13    1    3    3    0    0  0.46884017624E+01  0.27249843122E+02  0.26073174875E+02  0.38004692780E+02  0.10566000000E+00 0. -1.
         22    1    1    0    0    0  0.16959995718E+02 -0.29526956230E+02  0.17568317570E+02  0.38316163446E+02  0.00000000000E+00 0.  1.
</event>
<event>
 5    1  0.1255769E-009  0.9118800E+02  0.7561462E-02  0.1125453E+00
         25   -1    0    0    0    0  0.00000000000E+00  0.00000000000E+00  0.99999998245E-14  0.12509000000E+03  0.12509000000E+03 0.  0.
        -13    1    3    3    0    0  0.17516634476E+02  0.53461255611E+02 -0.26299725198E+02  0.62101731412E+02  0.10566000000E+00 0.  1.
         23    2    1    0    0    0  0.47252029164E+01  0.22338457032E+02 -0.15698237663E+02  0.97381357469E+02  0.93356091990E+02 0.  0.
         13    1    3    3    0    0 -0.12791431559E+02 -0.31122798579E+02  0.10601487535E+02  0.35279626057E+02  0.10566000000E+00 0. -1.
         22    1    1    0    0    0 -0.47252029164E+01 -0.22338457032E+02  0.15698237663E+02  0.27708642531E+02  0.00000000000E+00 0.  1.
</event>
<event>
 5    1  0.1255769E-009  0.9118800E+02  0.7561462E-02  0.1125453E+00
         25   -1    0    0    0    0  0.00000000000E+00  0.00000000000E+00  0.99999998245E-14  0.12509000000E+03  0.12509000000E+03 0.  0.
        -13    1    3    3    0    0 -0.59480730780E+01  0.23569711707E+02  0.29691504389E+02  0.38373265175E+02  0.10566000000E+00 0.  1.
         23    2    1    0    0    0 -0.20332676200E+02 -0.20942804658E+02 -0.34426259063E+01  0.95698326663E+02  0.91073043567E+02 0.  0.
         13    1    3    3    0    0 -0.14384603122E+02 -0.44512516365E+02 -0.33134130295E+02  0.57325061488E+02  0.10566000000E+00 0. -1.
         22    1    1    0    0    0  0.20332676200E+02  0.20942804658E+02  0.34426259063E+01  0.29391673337E+02  0.00000000000E+00 0. -1.
</event>
<event>
 5    1  0.1255769E-009  0.9118800E+02  0.7561462E-02  0.1125453E+00
         25   -1    0    0    0    0  0.00000000000E+00  0.00000000000E+00  0.99999998245E-14  0.12509000000E+03  0.12509000000E+03 0.  0.
        -13    1    3    3    0    0  0.46973678884E+01 -0.27024536214E+02 -0.41698680845E+02  0.49911741814E+02  0.10566000000E+00 0. -1.
         23    2    1    0    0    0 -0.17228827841E+02  0.77500667989E+01 -0.23680348919E+02  0.94797179579E+02  0.89826779342E+02 0.  0.
         13    1    3    3    0    0 -0.21926195729E+02  0.34774603013E+02  0.18018331927E+02  0.44885437765E+02  0.10566000000E+00 0.  1.
         22    1    1    0    0    0  0.17228827841E+02 -0.77500667989E+01  0.23680348919E+02  0.30292820421E+02  0.00000000000E+00 0.  1.
</event>
<event>
 5    1  0.1255769E-009  0.9118800E+02  0.7561462E-02  0.1125453E+00
         25   -1    0    0    0    0  0.00000000000E+00  0.00000000000E+00  0.99999998245E-14  0.12509000000E+03  0.12509000000E+03 0.  0.
        -13    1    3    3    0    0 -0.26403862755E+02 -0.17797698771E+02  0.24535000953E+02  0.40198252272E+02  0.10566000000E+00 0.  1.
         23    2    1    0    0    0  0.90221275098E+01 -0.21512413045E+02 -0.17961325560E+02  0.95648669940E+02  0.91004813859E+02 0.  0.
         13    1    3    3    0    0  0.35425990265E+02 -0.37147142739E+01 -0.42496326513E+02  0.55450417668E+02  0.10566000000E+00 0. -1.
         22    1    1    0    0    0 -0.90221275098E+01  0.21512413045E+02  0.17961325560E+02  0.29441330060E+02  0.00000000000E+00 0. -1.
</event>
<event>
 5    1  0.1255769E-009  0.9118800E+02  0.7561462E-02  0.1125453E+00
         25   -1    0    0    0    0  0.00000000000E+00  0.00000000000E+00  0.99999998245E-14  0.12509000000E+03  0.12509000000E+03 0.  0.
        -13    1    3    3    0    0  0.14188122583E+02 -0.27955377442E+02  0.25190546628E+02  0.40216672585E+02  0.10566000000E+00 0.  1.
         23    2    1    0    0    0 -0.28352496680E+02  0.16629849370E+01  0.32548785776E+01  0.96502873151E+02  0.92171474465E+02 0.  0.
         13    1    3    3    0    0 -0.42540619263E+02  0.29618362379E+02 -0.21935668050E+02  0.56286200566E+02  0.10566000000E+00 0. -1.
         22    1    1    0    0    0  0.28352496680E+02 -0.16629849370E+01 -0.32548785776E+01  0.28587126849E+02  0.00000000000E+00 0. -1.
</event>
<event>
 5    1  0.1255769E-009  0.9118800E+02  0.7561462E-02  0.1125453E+00
         25   -1    0    0    0    0  0.00000000000E+00  0.00000000000E+00  0.99999998245E-14  0.12509000000E+03  0.12509000000E+03 0.  0.
        -13    1    3    3    0    0  0.35460914084E+02 -0.37964321996E+02  0.34204994358E+02  0.62199348673E+02  0.10566000000E+00 0.  1.
         23    2    1    0    0    0  0.13224747275E+02 -0.18213233225E+02  0.19167469840E+02  0.95526378688E+02  0.90836563785E+02 0.  0.
         13    1    3    3    0    0 -0.22236166809E+02  0.19751088771E+02 -0.15037524518E+02  0.33327030015E+02  0.10566000000E+00 0. -1.
         22    1    1    0    0    0 -0.13224747275E+02  0.18213233225E+02 -0.19167469840E+02  0.29563621312E+02  0.00000000000E+00 0.  1.
</event>
<event>
 5    1  0.1255769E-009  0.9118800E+02  0.7561462E-02  0.1125453E+00
         25   -1    0    0    0    0  0.00000000000E+00  0.00000000000E+00  0.99999998245E-14  0.12509000000E+03  0.12509000000E+03 0.  0.
        -13    1    3    3    0    0  0.42274424305E+02 -0.70865514388E+01 -0.23300814984E+02  0.48788167670E+02  0.10566000000E+00 0. -1.
         23    2    1    0    0    0  0.62328428578E+01  0.22480129222E+02 -0.17835304900E+02  0.95725009948E+02  0.91109686031E+02 0.  0.
         13    1    3    3    0    0 -0.36041581447E+02  0.29566680661E+02  0.54655100844E+01  0.46936842278E+02  0.10566000000E+00 0.  1.
         22    1    1    0    0    0 -0.62328428578E+01 -0.22480129222E+02  0.17835304900E+02  0.29364990052E+02  0.00000000000E+00 0.  1.
</event>
<event>
 5    1  0.1255769E-009  0.9118800E+02  0.7561462E-02  0.1125453E+00
         25   -1    0    0    0    0  0.00000000000E+00  0.00000000000E+00  0.99999998245E-14  0.12509000000E+03  0.12509000000E+03 0.  0.
        -13    1    3    3    0    0  0.50000821965E+02 -0.40577094613E+01 -0.16930175094E+01  0.50193870896E+02  0.10566000000E+00 0.  1.
         23    2    1    0    0    0  0.22548223246E+02  0.18588461693E+02  0.17902121208E+02  0.90819907741E+02  0.84105983252E+02 0.  0.
         13    1    3    3    0    0 -0.27452598719E+02  0.22646171154E+02  0.19595138718E+02  0.40626036845E+02  0.10566000000E+00 0. -1.
         22    1    1    0    0    0 -0.22548223246E+02 -0.18588461693E+02 -0.17902121208E+02  0.34270092259E+02  0.00000000000E+00 0.  1.
</event>
<event>
 5    1  0.1255769E-009  0.9118800E+02  0.7561462E-02  0.1125453E+00
         25   -1    0    0    0    0  0.00000000000E+00  0.00000000000E+00  0.99999998245E-14  0.12509000000E+03  0.12509000000E+03 0.  0.
        -13    1    3    3    0    0  0.48756173110E+01  0.29242618341E+02 -0.72870420921E+01  0.30528912822E+02  0.10566000000E+00 0. -1.
         23    2    1    0    0    0  0.45778338112E+02  0.35558825615E+01 -0.18095144615E+01  0.79138124264E+02  0.64430333138E+02 0.  0.
         13    1    3    3    0    0  0.40902720801E+02 -0.25686735780E+02  0.54775276306E+01  0.48609211441E+02  0.10566000000E+00 0.  1.
         22    1    1    0    0    0 -0.45778338112E+02 -0.35558825615E+01  0.18095144615E+01  0.45951875736E+02  0.00000000000E+00 0.  1.
</event>
<event>
 5    1  0.1255769E-009  0.9118800E+02  0.7561462E-02  0.1125453E+00
         25   -1    0    0    0    0  0.00000000000E+00  0.00000000000E+00  0.99999998245E-14  0.12509000000E+03  0.12509000000E+03 0.  0.
        -13    1    3    3    0    0  0.62144320843E+01 -0.28416216988E+02  0.45504429872E+02  0.54007081536E+02  0.10566000000E+00 0. -1.
         23    2    1    0    0    0  0.24387945013E+02 -0.61068882729E+01  0.15625435652E+02  0.95488983368E+02  0.90785052509E+02 0.  0.
         13    1    3    3    0    0  0.18173512929E+02  0.22309328715E+02 -0.29878994220E+02  0.41481901832E+02  0.10566000000E+00 0.  1.
         22    1    1    0    0    0 -0.24387945013E+02  0.61068882729E+01 -0.15625435652E+02  0.29601016632E+02  0.00000000000E+00 0. -1.
</event>
<event>
 5    1  0.1255769E-009  0.9118800E+02  0.7561462E-02  0.1125453E+00
         25   -1    0    0    0    0  0.00000000000E+00  0.00000000000E+00  0.99999998245E-14  0.12509000000E+03  0.12509000000E+03 0.  0.
        -13    1    3    3    0    0 -0.56310912244E+02  0.13172716991E+02  0.14172381578E+02  0.59542479578E+02  0.10566000000E+00 0. -1.
         23    2    1    0    0    0 -0.22668688326E+02  0.18240847058E+02  0.11520291639E+01  0.95970846458E+02  0.91446586961E+02 0.  0.
         13    1    3    3    0    0  0.33642223918E+02  0.50681300676E+01 -0.13020352414E+02  0.36428366880E+02  0.10566000000E+00 0.  1.
         22    1    1    0    0    0  0.22668688326E+02 -0.18240847058E+02 -0.11520291639E+01  0.29119153542E+02  0.00000000000E+00 0. -1.
</event>
<event>
 5    1  0.1255769E-009  0.9118800E+02  0.7561462E-02  0.1125453E+00
         25   -1    0    0    0    0  0.00000000000E+00  0.00000000000E+00  0.99999998245E-14  0.12509000000E+03  0.12509000000E+03 0.  0.
        -13    1    3    3    0    0  0.26789915073E+02  0.23008716029E+02  0.38880412768E+02  0.52524263192E+02  0.10566000000E+00 0.  1.
         23    2    1    0    0    0  0.29387985053E+02  0.78238003028E+01 -0.35545334109E+00  0.94676321109E+02  0.89658317601E+02 0.  0.
         13    1    3    3    0    0  0.25980699799E+01 -0.15184915726E+02 -0.39235866109E+02  0.42152057916E+02  0.10566000000E+00 0. -1.
         22    1    1    0    0    0 -0.29387985053E+02 -0.78238003028E+01  0.35545334109E+00  0.30413678891E+02  0.00000000000E+00 0. -1.
</event>
<event>
 5    1  0.1255769E-009  0.9118800E+02  0.7561462E-02  0.1125453E+00
         25   -1    0    0    0    0  0.00000000000E+00  0.00000000000E+00  0.99999998245E-14  0.12509000000E+03  0.12509000000E+03 0.  0.
        -13    1    3    3    0    0  0.44161286495E+02  0.27215047921E+02 -0.21405806209E+02  0.56116822448E+02  0.10566000000E+00 0.  1.
         23    2    1    0    0    0  0.16119120059E+02  0.22890023400E+02  0.69640965801E+01  0.96240773946E+02  0.91815078968E+02 0.  0.
         13    1    3    3    0    0 -0.28042166436E+02 -0.43250245216E+01  0.28369902789E+02  0.40123951498E+02  0.10566000000E+00 0. -1.
         22    1    1    0    0    0 -0.16119120059E+02 -0.22890023400E+02 -0.69640965801E+01  0.28849226054E+02  0.00000000000E+00 0.  1.
</event>
<event>
 5    1  0.1255769E-009  0.9118800E+02  0.7561462E-02  0.1125453E+00
         25   -1    0    0    0    0  0.00000000000E+00  0.00000000000E+00  0.99999998245E-14  0.12509000000E+03  0.12509000000E+03 0.  0.
        -13    1    3    3    0    0  0.28214794417E+02  0.13136612970E+02  0.27165811516E+02  0.41311471817E+02  0.10566000000E+00 0. -1.
         23    2    1    0    0    0  0.19400406439E+02 -0.93742189349E+01 -0.20873462570E+02  0.95090780172E+02  0.90234712187E+02 0.  0.
         13    1    3    3    0    0 -0.88143879773E+01 -0.22510831905E+02 -0.48039274086E+02  0.53779308355E+02  0.10566000000E+00 0.  1.
         22    1    1    0    0    0 -0.19400406439E+02  0.93742189349E+01  0.20873462570E+02  0.29999219828E+02  0.00000000000E+00 0.  1.
</event>
<event>
 5    1  0.1255769E-009  0.9118800E+02  0.7561462E-02  0.1125453E+00
         25   -1    0    0    0    0  0.00000000000E+00  0.00000000000E+00  0.99999998245E-14  0.12509000000E+03  0.12509000000E+03 0.  0.
        -13    1    3    3    0    0 -0.29206019451E+01 -0.21590043576E+02  0.33159945331E+02  0.39676857685E+02  0.10566000000E+00 0.  1.
         23    2    1    0    0    0  0.24373216577E+02  0.41354373389E+01 -0.11354180450E+02  0.97885718315E+02  0.94029468297E+02 0.  0.
         13    1    3    3    0    0  0.27293818522E+02  0.25725480915E+02 -0.44514125781E+02  0.58208860630E+02  0.10566000000E+00 0. -1.
         22    1    1    0    0    0 -0.24373216577E+02 -0.41354373389E+01  0.11354180450E+02  0.27204281685E+02  0.00000000000E+00 0. -1.
</event>
<event>
 5    1  0.1255769E-009  0.9118800E+02  0.7561462E-02  0.1125453E+00
         25   -1    0    0    0    0  0.00000000000E+00  0.00000000000E+00  0.99999998245E-14  0.12509000000E+03  0.12509000000E+03 0.  0.
        -13    1    3    3    0    0 -0.34811224330E+02  0.38085422358E+02  0.21707257820E+01  0.51643430850E+02  0.10566000000E+00 0.  1.
         23    2    1    0    0    0 -0.11248436782E+02  0.97289420850E+01  0.25711797164E+02  0.95386866200E+02  0.90644239122E+02 0.  0.
         13    1    3    3    0    0  0.23562787547E+02 -0.28356480273E+02  0.23541071382E+02  0.43743435351E+02  0.10566000000E+00 0. -1.
         22    1    1    0    0    0  0.11248436782E+02 -0.97289420850E+01 -0.25711797164E+02  0.29703133800E+02  0.00000000000E+00 0.  1.
</event>
<event>
 5    1  0.1255769E-009  0.9118800E+02  0.7561462E-02  0.1125453E+00
         25   -1    0    0    0    0  0.00000000000E+00  0.00000000000E+00  0.99999998245E-14  0.12509000000E+03  0.12509000000E+03 0.  0.
        -13    1    3    3    0    0  0.21526088766E+02 -0.32833668526E+02  0.42227296789E+02  0.57659154040E+02  0.10566000000E+00 0.  1.
         23    2    1    0    0    0 -0.14328280927E+01 -0.26180465847E+02  0.11841300313E+02  0.96320464352E+02  0.91923586046E+02 0.  0.
         13    1    3    3    0    0 -0.22958916858E+02  0.66532026798E+01 -0.30385996476E+02  0.38661310313E+02  0.10566000000E+00 0. -1.
         22    1    1    0    0    0  0.14328280927E+01  0.26180465847E+02 -0.11841300313E+02  0.28769535648E+02  0.00000000000E+00 0.  1.
</event>
<event>
 5    1  0.1255769E-009  0.9118800E+02  0.7561462E-02  0.1125453E+00
         25   -1    0    0    0    0  0.00000000000E+00  0.00000000000E+00  0.99999998245E-14  0.12509000000E+03  0.12509000000E+03 0.  0.
        -13    1    3    3    0    0 -0.38031955438E+02 -0.16905213954E+02 -0.28286924636E+02  0.50322730080E+02  0.10566000000E+00 0. -1.
         23    2    1    0    0    0  0.13151774202E+02 -0.11933114669E+02 -0.63641061881E+01  0.10622547674E+03  0.10453698709E+03 0.  0.
         13    1    3    3    0    0  0.51183729640E+02  0.49720992856E+01  0.21922818448E+02  0.55902746658E+02  0.10566000000E+00 0.  1.
         22    1    1    0    0    0 -0.13151774202E+02  0.11933114669E+02  0.63641061881E+01  0.18864523263E+02  0.00000000000E+00 0.  1.
</event>
<event>
 5    1  0.1255769E-009  0.9118800E+02  0.7561462E-02  0.1125453E+00
         25   -1    0    0    0    0  0.00000000000E+00  0.00000000000E+00  0.99999998245E-14  0.12509000000E+03  0.12509000000E+03 0.  0.
        -13    1    3    3    0    0  0.59760014925E+02  0.72847455475E+00 -0.13256193849E+02  0.61217055617E+02  0.10566000000E+00 0.  1.
         23    2    1    0    0    0  0.27735979927E+02 -0.83681065908E+01 -0.34986237424E+01  0.95908667636E+02  0.91361492814E+02 0.  0.
         13    1    3    3    0    0 -0.32024034998E+02 -0.90965811456E+01  0.97575701064E+01  0.34691612019E+02  0.10566000000E+00 0. -1.
         22    1    1    0    0    0 -0.27735979927E+02  0.83681065908E+01  0.34986237424E+01  0.29181332364E+02  0.00000000000E+00 0.  1.
</event>
<event>
 5    1  0.1255769E-009  0.9118800E+02  0.7561462E-02  0.1125453E+00
         25   -1    0    0    0    0  0.00000000000E+00  0.00000000000E+00  0.99999998245E-14  0.12509000000E+03  0.12509000000E+03 0.  0.
        -13    1    3    3    0    0  0.40309345357E+02  0.38570204136E+02 -0.43050326841E+01  0.55955772184E+02  0.10566000000E+00 0.  1.
         23    2    1    0    0    0  0.41341896563E+01  0.26439631040E+02  0.97371047886E+01  0.96612696347E+02  0.92320400087E+02 0.  0.
         13    1    3    3    0    0 -0.36175155701E+02 -0.12130573096E+02  0.14042137473E+02  0.40656924164E+02  0.10566000000E+00 0. -1.
         22    1    1    0    0    0 -0.41341896563E+01 -0.26439631040E+02 -0.97371047886E+01  0.28477303653E+02  0.00000000000E+00 0.  1.
</event>
<event>
 5    1  0.1255769E-009  0.9118800E+02  0.7561462E-02  0.1125453E+00
         25   -1    0    0    0    0  0.00000000000E+00  0.00000000000E+00  0.99999998245E-14  0.12509000000E+03  0.12509000000E+03 0.  0.
        -13    1    3    3    0    0  0.31952974908E+02 -0.22076624557E+02  0.18699652467E+00  0.38838332727E+02  0.10566000000E+00 0. -1.
         23    2    1    0    0    0 -0.21430095871E+02 -0.23553885236E+02  0.64229265137E+01  0.92604795618E+02  0.86720007309E+02 0.  0.
         13    1    3    3    0    0 -0.53383070779E+02 -0.14772606795E+01  0.62359299890E+01  0.53766462890E+02  0.10566000000E+00 0.  1.
         22    1    1    0    0    0  0.21430095871E+02  0.23553885236E+02 -0.64229265137E+01  0.32485204382E+02  0.00000000000E+00 0.  1.
</event>
<event>
 5    1  0.1255769E-009  0.9118800E+02  0.7561462E-02  0.1125453E+00
         25   -1    0    0    0    0  0.00000000000E+00  0.00000000000E+00  0.99999998245E-14  0.12509000000E+03  0.12509000000E+03 0.  0.
        -13    1    3    3    0    0 -0.37006848312E+02 -0.54540986030E+01  0.47371698527E+02  0.60360110992E+02  0.10566000000E+00 0. -1.
         23    2    1    0    0    0 -0.23679899945E+02  0.63940885178E+01  0.18212997079E+02  0.94539463311E+02  0.89467171808E+02 0.  0.
         13    1    3    3    0    0  0.13326948367E+02  0.11848187121E+02 -0.29158701448E+02  0.34179352320E+02  0.10566000000E+00 0.  1.
         22    1    1    0    0    0  0.23679899945E+02 -0.63940885178E+01 -0.18212997079E+02  0.30550536689E+02  0.00000000000E+00 0. -1.
</event>
<event>
 5    1  0.1255769E-009  0.9118800E+02  0.7561462E-02  0.1125453E+00
         25   -1    0    0    0    0  0.00000000000E+00  0.00000000000E+00  0.99999998245E-14  0.12509000000E+03  0.12509000000E+03 0.  0.
        -13    1    3    3    0    0 -0.17187976505E+02  0.66578070631E+01 -0.80995675663E+01  0.20133730157E+02  0.10566000000E+00 0.  1.
         23    2    1    0    0    0  0.25867912391E+02  0.16370843552E+02  0.32740177811E+02  0.80267319880E+02  0.66586560112E+02 0.  0.
         13    1    3    3    0    0  0.43055888896E+02  0.97130364894E+01  0.40839745377E+02  0.60133589723E+02  0.10566000000E+00 0. -1.
         22    1    1    0    0    0 -0.25867912391E+02 -0.16370843552E+02 -0.32740177811E+02  0.44822680120E+02  0.00000000000E+00 0. -1.
</event>
<event>
 5    1  0.1255769E-009  0.9118800E+02  0.7561462E-02  0.1125453E+00
         25   -1    0    0    0    0  0.00000000000E+00  0.00000000000E+00  0.99999998245E-14  0.12509000000E+03  0.12509000000E+03 0.  0.
        -13    1    3    3    0    0  0.51278121455E+01  0.38376584436E+02  0.62764231172E+01  0.39223224518E+02  0.10566000000E+00 0.  1.
         23    2    1    0    0    0  0.18736926542E+02 -0.14929784979E+02  0.17561752915E+02  0.95385016223E+02  0.90641686098E+02 0.  0.
         13    1    3    3    0    0  0.13609114396E+02 -0.53306369415E+02  0.11285329798E+02  0.56161791705E+02  0.10566000000E+00 0. -1.
         22    1    1    0    0    0 -0.18736926542E+02  0.14929784979E+02 -0.17561752915E+02  0.29704983777E+02  0.00000000000E+00 0. -1.
</event>
<event>
 5    1  0.1255769E-009  0.9118800E+02  0.7561462E-02  0.1125453E+00
         25   -1    0    0    0    0  0.00000000000E+00  0.00000000000E+00  0.99999998245E-14  0.12509000000E+03  0.12509000000E+03 0.  0.
        -13    1    3    3    0    0  0.16182953481E+02 -0.29218820854E+02  0.24072326940E+02  0.41171781159E+02  0.10566000000E+00 0.  1.
         23    2    1    0    0    0  0.84147143260E+01 -0.96211818433E+01 -0.26338919060E+02  0.95813504060E+02  0.91231104048E+02 0.  0.
         13    1    3    3    0    0 -0.77682391552E+01  0.19597639010E+02 -0.50411246000E+02  0.54641722902E+02  0.10566000000E+00 0. -1.
         22    1    1    0    0    0 -0.84147143260E+01  0.96211818433E+01  0.26338919060E+02  0.29276495940E+02  0.00000000000E+00 0. -1.
</event>
<event>
 5    1  0.1255769E-009  0.9118800E+02  0.7561462E-02  0.1125453E+00
         25   -1    0    0    0    0  0.00000000000E+00  0.00000000000E+00  0.99999998245E-14  0.12509000000E+03  0.12509000000E+03 0.  0.
        -13    1    3    3    0    0  0.75288254319E+01  0.23096513029E+02 -0.32432743016E+02  0.40521921352E+02  0.10566000000E+00 0. -1.
         23    2    1    0    0    0  0.19764296349E+02 -0.14874338619E+02  0.96771549545E+01  0.98528360602E+02  0.94880541500E+02 0.  0.
         13    1    3    3    0    0  0.12235470917E+02 -0.37970851647E+02  0.42109897970E+02  0.58006439250E+02  0.10566000000E+00 0.  1.
         22    1    1    0    0    0 -0.19764296349E+02  0.14874338619E+02 -0.96771549545E+01  0.26561639398E+02  0.00000000000E+00 0.  1.
</event>
<event>
 5    1  0.1255769E-009  0.9118800E+02  0.7561462E-02  0.1125453E+00
         25   -1    0    0    0    0  0.00000000000E+00  0.00000000000E+00  0.99999998245E-14  0.12509000000E+03  0.12509000000E+03 0.  0.
        -13    1    3    3    0    0 -0.42549265429E+02 -0.36896294336E+02 -0.31323351068E+01  0.56405666484E+02  0.10566000000E+00 0.  1.
         23    2    1    0    0    0 -0.10387822993E+02 -0.23974494106E+02  0.14409021763E+02  0.95252051975E+02  0.90458002758E+02 0.  0.
         13    1    3    3    0    0  0.32161442437E+02  0.12921800230E+02  0.17541356870E+02  0.38846385490E+02  0.10566000000E+00 0. -1.
         22    1    1    0    0    0  0.10387822993E+02  0.23974494106E+02 -0.14409021763E+02  0.29837948025E+02  0.00000000000E+00 0.  1.
</event>
<event>
 5    1  0.1255769E-009  0.9118800E+02  0.7561462E-02  0.1125453E+00
         25   -1    0    0    0    0  0.00000000000E+00  0.00000000000E+00  0.99999998245E-14  0.12509000000E+03  0.12509000000E+03 0.  0.
        -13    1    3    3    0    0  0.24678591936E+02  0.24570039074E+02 -0.21161573015E+02  0.40749761429E+02  0.10566000000E+00 0.  1.
         23    2    1    0    0    0  0.45968964036E+01 -0.26258063132E+02 -0.10544102812E+02  0.96423025271E+02  0.92063045585E+02 0.  0.
         13    1    3    3    0    0 -0.20081695532E+02 -0.50828102206E+02  0.10617470203E+02  0.55673263842E+02  0.10566000000E+00 0. -1.
         22    1    1    0    0    0 -0.45968964036E+01  0.26258063132E+02  0.10544102812E+02  0.28666974729E+02  0.00000000000E+00 0. -1.
</event>
<event>
 5    1  0.1255769E-009  0.9118800E+02  0.7561462E-02  0.1125453E+00
         25   -1    0    0    0    0  0.00000000000E+00  0.00000000000E+00  0.99999998245E-14  0.12509000000E+03  0.12509000000E+03 0.  0.
        -13    1    3    3    0    0  0.21723042109E+02 -0.17700075606E+02  0.53393963387E+02  0.60300163558E+02  0.10566000000E+00 0.  1.
         23    2    1    0    0    0  0.64021267510E+01 -0.17811352055E+02  0.17562519169E+02  0.99269977372E+02  0.95853298529E+02 0.  0.
         13    1    3    3    0    0 -0.15320915358E+02 -0.11127644849E+00 -0.35831444218E+02  0.38969813813E+02  0.10566000000E+00 0. -1.
         22    1    1    0    0    0 -0.64021267510E+01  0.17811352055E+02 -0.17562519169E+02  0.25820022628E+02  0.00000000000E+00 0.  1.
</event>
<event>
 5    1  0.1255769E-009  0.9118800E+02  0.7561462E-02  0.1125453E+00
         25   -1    0    0    0    0  0.00000000000E+00  0.00000000000E+00  0.99999998245E-14  0.12509000000E+03  0.12509000000E+03 0.  0.
        -13    1    3    3    0    0  0.41437680343E+02 -0.35006004663E+02 -0.17448590902E+02  0.56982156884E+02  0.10566000000E+00 0. -1.
         23    2    1    0    0    0  0.15932041388E+02 -0.23664252110E+02  0.87356184630E+01  0.95254822764E+02  0.90461834268E+02 0.  0.
         13    1    3    3    0    0 -0.25505638955E+02  0.11341752553E+02  0.26184209365E+02  0.38272665880E+02  0.10566000000E+00 0.  1.
         22    1    1    0    0    0 -0.15932041388E+02  0.23664252110E+02 -0.87356184630E+01  0.29835177236E+02  0.00000000000E+00 0. -1.
</event>
<event>
 5    1  0.1255769E-009  0.9118800E+02  0.7561462E-02  0.1125453E+00
         25   -1    0    0    0    0  0.00000000000E+00  0.00000000000E+00  0.99999998245E-14  0.12509000000E+03  0.12509000000E+03 0.  0.
        -13    1    3    3    0    0 -0.31715890980E+01  0.61029975361E+02 -0.65983553831E+01  0.61467603888E+02  0.10566000000E+00 0.  1.
         23    2    1    0    0    0  0.39999374185E+01  0.28785653619E+02  0.30185479751E+01  0.95871427388E+02  0.91310490109E+02 0.  0.
         13    1    3    3    0    0  0.71715265165E+01 -0.32244321742E+02  0.96169033582E+01  0.34403823500E+02  0.10566000000E+00 0. -1.
         22    1    1    0    0    0 -0.39999374185E+01 -0.28785653619E+02 -0.30185479751E+01  0.29218572612E+02  0.00000000000E+00 0.  1.
</event>
<event>
 5    1  0.1255769E-009  0.9118800E+02  0.7561462E-02  0.1125453E+00
         25   -1    0    0    0    0  0.00000000000E+00  0.00000000000E+00  0.99999998245E-14  0.12509000000E+03  0.12509000000E+03 0.  0.
        -13    1    3    3    0    0 -0.14123144936E+02  0.21795886873E+02  0.44153270173E+02  0.51225446201E+02  0.10566000000E+00 0. -1.
         23    2    1    0    0    0  0.30255850044E+01  0.35992173003E+02  0.21166039244E+02  0.83226031013E+02  0.71930385365E+02 0.  0.
         13    1    3    3    0    0  0.17148729941E+02  0.14196286130E+02 -0.22987230929E+02  0.32000584812E+02  0.10566000000E+00 0.  1.
         22    1    1    0    0    0 -0.30255850044E+01 -0.35992173003E+02 -0.21166039244E+02  0.41863968987E+02  0.00000000000E+00 0. -1.
</event>
<event>
 5    1  0.1255769E-009  0.9118800E+02  0.7561462E-02  0.1125453E+00
         25   -1    0    0    0    0  0.00000000000E+00  0.00000000000E+00  0.99999998245E-14  0.12509000000E+03  0.12509000000E+03 0.  0.
        -13    1    3    3    0    0 -0.46738850597E+01  0.61107898437E+02  0.11958986938E+02  0.62442365311E+02  0.10566000000E+00 0. -1.
         23    2    1    0    0    0  0.15244370134E+00  0.28613364417E+02  0.65543228492E+01  0.95735153545E+02  0.91123611726E+02 0.  0.
         13    1    3    3    0    0  0.48263287610E+01 -0.32494534020E+02 -0.54046640889E+01  0.33292788235E+02  0.10566000000E+00 0.  1.
         22    1    1    0    0    0 -0.15244370134E+00 -0.28613364417E+02 -0.65543228492E+01  0.29354846455E+02  0.00000000000E+00 0. -1.
</event>
<event>
 5    1  0.1255769E-009  0.9118800E+02  0.7561462E-02  0.1125453E+00
         25   -1    0    0    0    0  0.00000000000E+00  0.00000000000E+00  0.99999998245E-14  0.12509000000E+03  0.12509000000E+03 0.  0.
        -13    1    3    3    0    0  0.27771941158E+02  0.60318765302E+01 -0.23800605849E+02  0.37069451749E+02  0.10566000000E+00 0.  1.
         23    2    1    0    0    0 -0.15487086578E+02 -0.25107720393E+02  0.35273005265E+00  0.95587934098E+02  0.90921291525E+02 0.  0.
         13    1    3    3    0    0 -0.43259027736E+02 -0.31139596923E+02  0.24153335901E+02  0.58518482349E+02  0.10566000000E+00 0. -1.
         22    1    1    0    0    0  0.15487086578E+02  0.25107720393E+02 -0.35273005265E+00  0.29502065902E+02  0.00000000000E+00 0. -1.
</event>
<event>
 5    1  0.1255769E-009  0.9118800E+02  0.7561462E-02  0.1125453E+00
         25   -1    0    0    0    0  0.00000000000E+00  0.00000000000E+00  0.99999998245E-14  0.12509000000E+03  0.12509000000E+03 0.  0.
        -13    1    3    3    0    0  0.21536935909E+02  0.11539710215E+02 -0.29219100385E+02  0.38088994625E+02  0.10566000000E+00 0. -1.
         23    2    1    0    0    0 -0.18242190935E+01  0.43262842069E+01  0.26100384718E+02  0.98570675107E+02  0.94936312328E+02 0.  0.
         13    1    3    3    0    0 -0.23361155002E+02 -0.72134260085E+01  0.55319485103E+02  0.60481680482E+02  0.10566000000E+00 0.  1.
         22    1    1    0    0    0  0.18242190935E+01 -0.43262842069E+01 -0.26100384718E+02  0.26519324893E+02  0.00000000000E+00 0.  1.
</event>
<event>
 5    1  0.1255769E-009  0.9118800E+02  0.7561462E-02  0.1125453E+00
         25   -1    0    0    0    0  0.00000000000E+00  0.00000000000E+00  0.99999998245E-14  0.12509000000E+03  0.12509000000E+03 0.  0.
        -13    1    3    3    0    0 -0.59973795759E+01  0.14741778450E+02  0.29218124300E+02  0.33271587657E+02  0.10566000000E+00 0.  1.
         23    2    1    0    0    0 -0.85629501679E+01 -0.13394397225E+02 -0.25607594028E+02  0.94948950508E+02  0.90037882794E+02 0.  0.
         13    1    3    3    0    0 -0.25655705920E+01 -0.28136175674E+02 -0.54825718327E+02  0.61677362850E+02  0.10566000000E+00 0. -1.
         22    1    1    0    0    0  0.85629501679E+01  0.13394397225E+02  0.25607594028E+02  0.30141049492E+02  0.00000000000E+00 0. -1.
</event>
<event>
 5    1  0.1255769E-009  0.9118800E+02  0.7561462E-02  0.1125453E+00
         25   -1    0    0    0    0  0.00000000000E+00  0.00000000000E+00  0.99999998245E-14  0.12509000000E+03  0.12509000000E+03 0.  0.
        -13    1    3    3    0    0  0.10265054539E+02 -0.59716452246E+02  0.10120207761E+02  0.61431716423E+02  0.10566000000E+00 0. -1.
         23    2    1    0    0    0  0.66113880588E+01 -0.25762490845E+02  0.12574700691E+02  0.95669947585E+02  0.91034056193E+02 0.  0.
         13    1    3    3    0    0 -0.36536664804E+01  0.33953961401E+02  0.24544929294E+01  0.34238231162E+02  0.10566000000E+00 0.  1.
         22    1    1    0    0    0 -0.66113880588E+01  0.25762490845E+02 -0.12574700691E+02  0.29420052415E+02  0.00000000000E+00 0. -1.
</event>
<event>
 5    1  0.1255769E-009  0.9118800E+02  0.7561462E-02  0.1125453E+00
         25   -1    0    0    0    0  0.00000000000E+00  0.00000000000E+00  0.99999998245E-14  0.12509000000E+03  0.12509000000E+03 0.  0.
        -13    1    3    3    0    0 -0.58114072940E+01 -0.27487414331E+02 -0.20961531691E+02  0.35053207787E+02  0.10566000000E+00 0. -1.
         23    2    1    0    0    0  0.24985451103E+02  0.15970049508E+02  0.61285604872E+01  0.94810064370E+02  0.89844720513E+02 0.  0.
         13    1    3    3    0    0  0.30796858397E+02  0.43457463839E+02  0.27090092178E+02  0.59756856583E+02  0.10566000000E+00 0.  1.
         22    1    1    0    0    0 -0.24985451103E+02 -0.15970049508E+02 -0.61285604872E+01  0.30279935630E+02  0.00000000000E+00 0.  1.
</event>
<event>
 5    1  0.1255769E-009  0.9118800E+02  0.7561462E-02  0.1125453E+00
         25   -1    0    0    0    0  0.00000000000E+00  0.00000000000E+00  0.99999998245E-14  0.12509000000E+03  0.12509000000E+03 0.  0.
        -13    1    3    3    0    0 -0.36307568390E+02  0.17780882065E+02  0.41087901022E+02  0.57642224661E+02  0.10566000000E+00 0.  1.
         23    2    1    0    0    0 -0.46347708254E+01  0.17207425231E+00  0.28817000041E+02  0.95902156614E+02  0.91352577641E+02 0.  0.
         13    1    3    3    0    0  0.31672797565E+02 -0.17608807812E+02 -0.12270900981E+02  0.38259931953E+02  0.10566000000E+00 0. -1.
         22    1    1    0    0    0  0.46347708254E+01 -0.17207425231E+00 -0.28817000041E+02  0.29187843386E+02  0.00000000000E+00 0.  1.
</event>
<event>
 5    1  0.1255769E-009  0.9118800E+02  0.7561462E-02  0.1125453E+00
         25   -1    0    0    0    0  0.00000000000E+00  0.00000000000E+00  0.99999998245E-14  0.12509000000E+03  0.12509000000E+03 0.  0.
        -13    1    3    3    0    0  0.95255332708E+01 -0.17781973629E+02  0.51500840621E+02  0.55310777602E+02  0.10566000000E+00 0. -1.
         23    2    1    0    0    0  0.24604300948E+01  0.12495985337E+02  0.28145122902E+02  0.94197423077E+02  0.88987657601E+02 0.  0.
         13    1    3    3    0    0 -0.70651031760E+01  0.30277958966E+02 -0.23355717719E+02  0.38886645475E+02  0.10566000000E+00 0.  1.
         22    1    1    0    0    0 -0.24604300948E+01 -0.12495985337E+02 -0.28145122902E+02  0.30892576923E+02  0.00000000000E+00 0. -1.
</event>
<event>
 5    1  0.1255769E-009  0.9118800E+02  0.7561462E-02  0.1125453E+00
         25   -1    0    0    0    0  0.00000000000E+00  0.00000000000E+00  0.99999998245E-14  0.12509000000E+03  0.12509000000E+03 0.  0.
        -13    1    3    3    0    0  0.62745919282E+01 -0.62553929151E+01  0.57175048313E+02  0.57857564397E+02  0.10566000000E+00 0.  1.
         23    2    1    0    0    0 -0.61564516384E+00  0.13970028165E+02  0.21470132078E+02  0.99467602038E+02  0.96110855671E+02 0.  0.
         13    1    3    3    0    0 -0.68902370921E+01  0.20225421080E+02 -0.35704916235E+02  0.41610037640E+02  0.10566000000E+00 0. -1.
         22    1    1    0    0    0  0.61564516384E+00 -0.13970028165E+02 -0.21470132078E+02  0.25622397962E+02  0.00000000000E+00 0.  1.
</event>
<event>
 5    1  0.1255769E-009  0.9118800E+02  0.7561462E-02  0.1125453E+00
         25   -1    0    0    0    0  0.00000000000E+00  0.00000000000E+00  0.99999998245E-14  0.12509000000E+03  0.12509000000E+03 0.  0.
        -13    1    3    3    0    0 -0.40109921019E+02 -0.52567773629E+01 -0.23593935939E+02  0.46830806629E+02  0.10566000000E+00 0.  1.
         23    2    1    0    0    0 -0.40884696455E+01 -0.30382584455E+02 -0.11002792277E+02  0.92518870758E+02  0.86595975577E+02 0.  0.
         13    1    3    3    0    0  0.36021451373E+02 -0.25125807092E+02  0.12591143663E+02  0.45688064129E+02  0.10566000000E+00 0. -1.
         22    1    1    0    0    0  0.40884696455E+01  0.30382584455E+02  0.11002792277E+02  0.32571129242E+02  0.00000000000E+00 0.  1.
</event>
<event>
 5    1  0.1255769E-009  0.9118800E+02  0.7561462E-02  0.1125453E+00
         25   -1    0    0    0    0  0.00000000000E+00  0.00000000000E+00  0.99999998245E-14  0.12509000000E+03  0.12509000000E+03 0.  0.
        -13    1    3    3    0    0  0.27254711732E+02  0.24379922402E+02 -0.31694118318E+02  0.48391406550E+02  0.10566000000E+00 0.  1.
         23    2    1    0    0    0  0.11759666850E+02 -0.16673750951E+02  0.31770839072E+01  0.10444060298E+03  0.10237891362E+03 0.  0.
         13    1    3    3    0    0 -0.15495044882E+02 -0.41053673353E+02  0.34871202225E+02  0.56049196429E+02  0.10566000000E+00 0. -1.
         22    1    1    0    0    0 -0.11759666850E+02  0.16673750951E+02 -0.31770839072E+01  0.20649397021E+02  0.00000000000E+00 0. -1.
</event>
<event>
 5    1  0.1255769E-009  0.9118800E+02  0.7561462E-02  0.1125453E+00
         25   -1    0    0    0    0  0.00000000000E+00  0.00000000000E+00  0.99999998245E-14  0.12509000000E+03  0.12509000000E+03 0.  0.
        -13    1    3    3    0    0 -0.31433687387E+01 -0.99529918741E+01  0.53018706623E+02  0.54036443538E+02  0.10566000000E+00 0. -1.
         23    2    1    0    0    0 -0.73277954005E+01  0.17656406440E+02  0.25269309321E+02  0.93404305004E+02  0.87865698233E+02 0.  0.
         13    1    3    3    0    0 -0.41844266618E+01  0.27609398314E+02 -0.27749397302E+02  0.39367861466E+02  0.10566000000E+00 0.  1.
         22    1    1    0    0    0  0.73277954005E+01 -0.17656406440E+02 -0.25269309321E+02  0.31685694996E+02  0.00000000000E+00 0.  1.
</event>
<event>
 5    1  0.1255769E-009  0.9118800E+02  0.7561462E-02  0.1125453E+00
         25   -1    0    0    0    0  0.00000000000E+00  0.00000000000E+00  0.99999998245E-14  0.12509000000E+03  0.12509000000E+03 0.  0.
        -13    1    3    3    0    0  0.46718829960E+02 -0.35362575786E+01  0.16339812960E+02  0.49620105220E+02  0.10566000000E+00 0.  1.
         23    2    1    0    0    0  0.15455029889E+02  0.26123554990E+02  0.97109407089E+01  0.93221513315E+02  0.87605080338E+02 0.  0.
         13    1    3    3    0    0 -0.31263800071E+02  0.29659812568E+02 -0.66288722515E+01  0.43601408094E+02  0.10566000000E+00 0. -1.
         22    1    1    0    0    0 -0.15455029889E+02 -0.26123554990E+02 -0.97109407089E+01  0.31868486685E+02  0.00000000000E+00 0.  1.
</event>
<event>
 5    1  0.1255769E-009  0.9118800E+02  0.7561462E-02  0.1125453E+00
         25   -1    0    0    0    0  0.00000000000E+00  0.00000000000E+00  0.99999998245E-14  0.12509000000E+03  0.12509000000E+03 0.  0.
        -13    1    3    3    0    0 -0.34266003760E+02  0.43461537459E+02  0.11529458592E+02  0.56533209987E+02  0.10566000000E+00 0.  1.
         23    2    1    0    0    0 -0.19146743961E+02  0.17319537653E+02 -0.13679953922E+02  0.95871763775E+02  0.91310950938E+02 0.  0.
         13    1    3    3    0    0  0.15119259799E+02 -0.26141999807E+02 -0.25209412514E+02  0.39338553787E+02  0.10566000000E+00 0. -1.
         22    1    1    0    0    0  0.19146743961E+02 -0.17319537653E+02  0.13679953922E+02  0.29218236225E+02  0.00000000000E+00 0. -1.
</event>
<event>
 5    1  0.1255769E-009  0.9118800E+02  0.7561462E-02  0.1125453E+00
         25   -1    0    0    0    0  0.00000000000E+00  0.00000000000E+00  0.99999998245E-14  0.12509000000E+03  0.12509000000E+03 0.  0.
        -13    1    3    3    0    0  0.32919463026E+02  0.12727268133E+02  0.31588768593E+01  0.35435350528E+02  0.10566000000E+00 0. -1.
         23    2    1    0    0    0 -0.69902794838E+01 -0.21965227783E+02 -0.21305736602E+02  0.93700994744E+02  0.88287070203E+02 0.  0.
         13    1    3    3    0    0 -0.39909742510E+02 -0.34692495916E+02 -0.24464613461E+02  0.58265644216E+02  0.10566000000E+00 0.  1.
         22    1    1    0    0    0  0.69902794838E+01  0.21965227783E+02  0.21305736602E+02  0.31389005256E+02  0.00000000000E+00 0.  1.
</event>
<event>
 5    1  0.1255769E-009  0.9118800E+02  0.7561462E-02  0.1125453E+00
         25   -1    0    0    0    0  0.00000000000E+00  0.00000000000E+00  0.99999998245E-14  0.12509000000E+03  0.12509000000E+03 0.  0.
        -13    1    3    3    0    0  0.35756492658E+02  0.15884086153E+02  0.43105613570E+02  0.58214569013E+02  0.10566000000E+00 0.  1.
         23    2    1    0    0    0  0.10110121128E+02  0.22228253126E+02  0.17158041662E+02  0.95245265457E+02  0.90448617524E+02 0.  0.
         13    1    3    3    0    0 -0.25646371530E+02  0.63441669734E+01 -0.25947571907E+02  0.37030696444E+02  0.10566000000E+00 0. -1.
         22    1    1    0    0    0 -0.10110121128E+02 -0.22228253126E+02 -0.17158041662E+02  0.29844734543E+02  0.00000000000E+00 0.  1.
</event>
<event>
 5    1  0.1255769E-009  0.9118800E+02  0.7561462E-02  0.1125453E+00
         25   -1    0    0    0    0  0.00000000000E+00  0.00000000000E+00  0.99999998245E-14  0.12509000000E+03  0.12509000000E+03 0.  0.
        -13    1    3    3    0    0 -0.25847570213E+02 -0.11483094528E+02 -0.28181892864E+01  0.28423787586E+02  0.10566000000E+00 0. -1.
         23    2    1    0    0    0  0.15132853199E+02  0.11030521922E+02  0.32880241240E+02  0.87251052818E+02  0.78619083524E+02 0.  0.
         13    1    3    3    0    0  0.40980423411E+02  0.22513616451E+02  0.35698430526E+02  0.58827265232E+02  0.10566000000E+00 0.  1.
         22    1    1    0    0    0 -0.15132853199E+02 -0.11030521922E+02 -0.32880241240E+02  0.37838947182E+02  0.00000000000E+00 0.  1.
</event>
<event>
 5    1  0.1255769E-009  0.9118800E+02  0.7561462E-02  0.1125453E+00
         25   -1    0    0    0    0  0.00000000000E+00  0.00000000000E+00  0.99999998245E-14  0.12509000000E+03  0.12509000000E+03 0.  0.
        -13    1    3    3    0    0  0.35082727587E+01  0.33513840503E+02  0.40162640920E+02  0.52426466338E+02  0.10566000000E+00 0. -1.
         23    2    1    0    0    0 -0.19900355480E+02  0.18804766720E+02  0.48337088748E+01  0.97286976043E+02  0.93229542349E+02 0.  0.
         13    1    3    3    0    0 -0.23408628239E+02 -0.14709073783E+02 -0.35328932045E+02  0.44860509705E+02  0.10566000000E+00 0.  1.
         22    1    1    0    0    0  0.19900355480E+02 -0.18804766720E+02 -0.48337088748E+01  0.27803023957E+02  0.00000000000E+00 0. -1.
</event>
<event>
 5    1  0.1255769E-009  0.9118800E+02  0.7561462E-02  0.1125453E+00
         25   -1    0    0    0    0  0.00000000000E+00  0.00000000000E+00  0.99999998245E-14  0.12509000000E+03  0.12509000000E+03 0.  0.
        -13    1    3    3    0    0 -0.13974925416E+02 -0.30804007718E+02  0.27264733835E+02  0.43446085060E+02  0.10566000000E+00 0. -1.
         23    2    1    0    0    0 -0.27014882157E+02  0.13397707066E+02  0.53973770841E+01  0.94456128355E+02  0.89350579695E+02 0.  0.
         13    1    3    3    0    0 -0.13039956741E+02  0.44201714784E+02 -0.21867356751E+02  0.51010043295E+02  0.10566000000E+00 0.  1.
         22    1    1    0    0    0  0.27014882157E+02 -0.13397707066E+02 -0.53973770841E+01  0.30633871645E+02  0.00000000000E+00 0.  1.
</event>
<event>
 5    1  0.1255769E-009  0.9118800E+02  0.7561462E-02  0.1125453E+00
         25   -1    0    0    0    0  0.00000000000E+00  0.00000000000E+00  0.99999998245E-14  0.12509000000E+03  0.12509000000E+03 0.  0.
        -13    1    3    3    0    0 -0.53237219536E+02  0.11606605968E+02  0.11732421317E+02  0.55736664055E+02  0.10566000000E+00 0.  1.
         23    2    1    0    0    0 -0.26116068408E+02 -0.91773714298E+01 -0.93327366357E+01  0.95877448784E+02  0.91318738694E+02 0.  0.
         13    1    3    3    0    0  0.27121151128E+02 -0.20783977398E+02 -0.21065157953E+02  0.40140784728E+02  0.10566000000E+00 0. -1.
         22    1    1    0    0    0  0.26116068408E+02  0.91773714298E+01  0.93327366357E+01  0.29212551216E+02  0.00000000000E+00 0.  1.
</event>
<event>
 5    1  0.1255769E-009  0.9118800E+02  0.7561462E-02  0.1125453E+00
         25   -1    0    0    0    0  0.00000000000E+00  0.00000000000E+00  0.99999998245E-14  0.12509000000E+03  0.12509000000E+03 0.  0.
        -13    1    3    3    0    0  0.14884419181E+02 -0.39344603066E+02 -0.72574161371E+01  0.42687527192E+02  0.10566000000E+00 0.  1.
         23    2    1    0    0    0  0.25707493772E+02  0.10757650948E+02  0.78722935848E+01  0.96131835413E+02  0.91666539608E+02 0.  0.
         13    1    3    3    0    0  0.10823074591E+02  0.50102254014E+02  0.15129709722E+02  0.53444308221E+02  0.10566000000E+00 0. -1.
         22    1    1    0    0    0 -0.25707493772E+02 -0.10757650948E+02 -0.78722935848E+01  0.28958164587E+02  0.00000000000E+00 0. -1.
</event>
<event>
 5    1  0.1255769E-009  0.9118800E+02  0.7561462E-02  0.1125453E+00
         25   -1    0    0    0    0  0.00000000000E+00  0.00000000000E+00  0.99999998245E-14  0.12509000000E+03  0.12509000000E+03 0.  0.
        -13    1    3    3    0    0 -0.88461020088E+01  0.42524334047E+02  0.43412912266E+02  0.61410623042E+02  0.10566000000E+00 0.  1.
         23    2    1    0    0    0 -0.13018431085E+02  0.21353409515E+02  0.23318126768E+02  0.90896686592E+02  0.84220098264E+02 0.  0.
         13    1    3    3    0    0 -0.41723290765E+01 -0.21170924532E+02 -0.20094785498E+02  0.29486063551E+02  0.10566000000E+00 0. -1.
         22    1    1    0    0    0  0.13018431085E+02 -0.21353409515E+02 -0.23318126768E+02  0.34193313408E+02  0.00000000000E+00 0.  1.
</event>
<event>
 5    1  0.1255769E-009  0.9118800E+02  0.7561462E-02  0.1125453E+00
         25   -1    0    0    0    0  0.00000000000E+00  0.00000000000E+00  0.99999998245E-14  0.12509000000E+03  0.12509000000E+03 0.  0.
        -13    1    3    3    0    0  0.23552443228E+02 -0.36621313745E+02  0.14031026680E+02  0.45746246580E+02  0.10566000000E+00 0. -1.
         23    2    1    0    0    0 -0.18930050707E+02 -0.21750720750E+02 -0.69854739373E+01  0.95421202938E+02  0.90691611801E+02 0.  0.
         13    1    3    3    0    0 -0.42482493935E+02  0.14870592995E+02 -0.21016500617E+02  0.49674956358E+02  0.10566000000E+00 0.  1.
         22    1    1    0    0    0  0.18930050707E+02  0.21750720750E+02  0.69854739373E+01  0.29668797062E+02  0.00000000000E+00 0. -1.
</event>
<event>
 5    1  0.1255769E-009  0.9118800E+02  0.7561462E-02  0.1125453E+00
         25   -1    0    0    0    0  0.00000000000E+00  0.00000000000E+00  0.99999998245E-14  0.12509000000E+03  0.12509000000E+03 0.  0.
        -13    1    3    3    0    0  0.62132674380E+01  0.46304340743E+02  0.28328448258E+02  0.54637064422E+02  0.10566000000E+00 0.  1.
         23    2    1    0    0    0  0.23268332100E+02  0.12043824016E+02  0.12657540738E+02  0.95992194014E+02  0.91475783672E+02 0.  0.
         13    1    3    3    0    0  0.17055064662E+02 -0.34260516727E+02 -0.15670907520E+02  0.41355129592E+02  0.10566000000E+00 0. -1.
         22    1    1    0    0    0 -0.23268332100E+02 -0.12043824016E+02 -0.12657540738E+02  0.29097805986E+02  0.00000000000E+00 0.  1.
</event>
<event>
 5    1  0.1255769E-009  0.9118800E+02  0.7561462E-02  0.1125453E+00
         25   -1    0    0    0    0  0.00000000000E+00  0.00000000000E+00  0.99999998245E-14  0.12509000000E+03  0.12509000000E+03 0.  0.
        -13    1    3    3    0    0  0.15239201916E+02 -0.28452929401E+02 -0.80788076876E+01  0.33272823208E+02  0.10566000000E+00 0.  1.
         23    2    1    0    0    0  0.20784315404E+01  0.30246817143E+02  0.36186935268E+01  0.94556661371E+02  0.89491214328E+02 0.  0.
         13    1    3    3    0    0 -0.13160770375E+02  0.58699746545E+02  0.11697501214E+02  0.61283838163E+02  0.10566000000E+00 0. -1.
         22    1    1    0    0    0 -0.20784315404E+01 -0.30246817143E+02 -0.36186935268E+01  0.30533338629E+02  0.00000000000E+00 0. -1.
</event>
<event>
 5    1  0.1255769E-009  0.9118800E+02  0.7561462E-02  0.1125453E+00
         25   -1    0    0    0    0  0.00000000000E+00  0.00000000000E+00  0.99999998245E-14  0.12509000000E+03  0.12509000000E+03 0.  0.
        -13    1    3    3    0    0 -0.46579932158E+02 -0.19590058933E+02 -0.21826679735E+02  0.55044305801E+02  0.10566000000E+00 0. -1.
         23    2    1    0    0    0 -0.71592880037E+01 -0.14162448426E+02 -0.25552214891E+02  0.95011003408E+02  0.90124051910E+02 0.  0.
         13    1    3    3    0    0  0.39420644154E+02  0.54276105073E+01 -0.37255351563E+01  0.39966697607E+02  0.10566000000E+00 0.  1.
         22    1    1    0    0    0  0.71592880037E+01  0.14162448426E+02  0.25552214891E+02  0.30078996592E+02  0.00000000000E+00 0. -1.
</event>
<event>
 5    1  0.1255769E-009  0.9118800E+02  0.7561462E-02  0.1125453E+00
         25   -1    0    0    0    0  0.00000000000E+00  0.00000000000E+00  0.99999998245E-14  0.12509000000E+03  0.12509000000E+03 0.  0.
        -13    1    3    3    0    0  0.23583077858E+02  0.45517904832E+02  0.20916258691E+02  0.55367339319E+02  0.10566000000E+00 0.  1.
         23    2    1    0    0    0  0.18112783047E+02  0.72680047271E+01  0.24031334031E+02  0.94131934529E+02  0.88895552647E+02 0.  0.
         13    1    3    3    0    0 -0.54702948112E+01 -0.38249900105E+02  0.31150753402E+01  0.38764595210E+02  0.10566000000E+00 0. -1.
         22    1    1    0    0    0 -0.18112783047E+02 -0.72680047271E+01 -0.24031334031E+02  0.30958065471E+02  0.00000000000E+00 0.  1.
</event>
<event>
 5    1  0.1255769E-009  0.9118800E+02  0.7561462E-02  0.1125453E+00
         25   -1    0    0    0    0  0.00000000000E+00  0.00000000000E+00  0.99999998245E-14  0.12509000000E+03  0.12509000000E+03 0.  0.
        -13    1    3    3    0    0  0.87191787672E+01  0.43722140888E+02  0.31726076213E+02  0.54719327099E+02  0.10566000000E+00 0. -1.
         23    2    1    0    0    0  0.11660180305E+02  0.29598462618E+01  0.26585015206E+02  0.95909809320E+02  0.91363055967E+02 0.  0.
         13    1    3    3    0    0  0.29410015379E+01 -0.40762294627E+02 -0.51410610071E+01  0.41190482221E+02  0.10566000000E+00 0.  1.
         22    1    1    0    0    0 -0.11660180305E+02 -0.29598462618E+01 -0.26585015206E+02  0.29180190680E+02  0.00000000000E+00 0. -1.
</event>
<event>
 5    1  0.1255769E-009  0.9118800E+02  0.7561462E-02  0.1125453E+00
         25   -1    0    0    0    0  0.00000000000E+00  0.00000000000E+00  0.99999998245E-14  0.12509000000E+03  0.12509000000E+03 0.  0.
        -13    1    3    3    0    0 -0.26174389071E+02  0.94609963287E+01 -0.18836869473E+02  0.33607259787E+02  0.10566000000E+00 0.  1.
         23    2    1    0    0    0  0.21127816436E+02 -0.89077874419E+01  0.17689900646E+02  0.96130271249E+02  0.91664405094E+02 0.  0.
         13    1    3    3    0    0  0.47302205507E+02 -0.18368783771E+02  0.36526770119E+02  0.62523011463E+02  0.10566000000E+00 0. -1.
         22    1    1    0    0    0 -0.21127816436E+02  0.89077874419E+01 -0.17689900646E+02  0.28959728751E+02  0.00000000000E+00 0. -1.
</event>
<event>
 5    1  0.1255769E-009  0.9118800E+02  0.7561462E-02  0.1125453E+00
         25   -1    0    0    0    0  0.00000000000E+00  0.00000000000E+00  0.99999998245E-14  0.12509000000E+03  0.12509000000E+03 0.  0.
        -13    1    3    3    0    0  0.41574596724E+01 -0.19334403976E+02 -0.31193403039E+02  0.36934309324E+02  0.10566000000E+00 0. -1.
         23    2    1    0    0    0 -0.23321035829E+02 -0.10452122377E+02  0.17897889159E+02  0.93889807522E+02  0.88554186496E+02 0.  0.
         13    1    3    3    0    0 -0.27478495501E+02  0.88822815992E+01  0.49091292197E+02  0.56955498199E+02  0.10566000000E+00 0.  1.
         22    1    1    0    0    0  0.23321035829E+02  0.10452122377E+02 -0.17897889159E+02  0.31200192478E+02  0.00000000000E+00 0.  1.
</event>
<event>
 5    1  0.1255769E-009  0.9118800E+02  0.7561462E-02  0.1125453E+00
         25   -1    0    0    0    0  0.00000000000E+00  0.00000000000E+00  0.99999998245E-14  0.12509000000E+03  0.12509000000E+03 0.  0.
        -13    1    3    3    0    0 -0.34734191532E+02  0.27891743577E+02  0.39310430090E+02  0.59411568731E+02  0.10566000000E+00 0. -1.
         23    2    1    0    0    0 -0.98278013893E+01  0.75175947705E+01  0.29575965251E+02  0.93030093079E+02  0.87331326490E+02 0.  0.
         13    1    3    3    0    0  0.24906390143E+02 -0.20374148807E+02 -0.97344648399E+01  0.33618524348E+02  0.10566000000E+00 0.  1.
         22    1    1    0    0    0  0.98278013893E+01 -0.75175947705E+01 -0.29575965251E+02  0.32059906921E+02  0.00000000000E+00 0. -1.
</event>
<event>
 5    1  0.1255769E-009  0.9118800E+02  0.7561462E-02  0.1125453E+00
         25   -1    0    0    0    0  0.00000000000E+00  0.00000000000E+00  0.99999998245E-14  0.12509000000E+03  0.12509000000E+03 0.  0.
        -13    1    3    3    0    0 -0.14316207684E+01 -0.15755410352E+02 -0.36346618034E+02  0.39640513366E+02  0.10566000000E+00 0.  1.
         23    2    1    0    0    0 -0.90944621531E+00  0.29194459301E+02 -0.27673972085E+01  0.95750572030E+02  0.91144775004E+02 0.  0.
         13    1    3    3    0    0  0.52217455304E+00  0.44949869653E+02  0.33579220825E+02  0.56110058664E+02  0.10566000000E+00 0. -1.
         22    1    1    0    0    0  0.90944621531E+00 -0.29194459301E+02  0.27673972085E+01  0.29339427970E+02  0.00000000000E+00 0. -1.
</event>
<event>
 5    1  0.1255769E-009  0.9118800E+02  0.7561462E-02  0.1125453E+00
         25   -1    0    0    0    0  0.00000000000E+00  0.00000000000E+00  0.99999998245E-14  0.12509000000E+03  0.12509000000E+03 0.  0.
        -13    1    3    3    0    0 -0.40731722472E+02 -0.21125743250E+02  0.36992360744E+01  0.46033311362E+02  0.10566000000E+00 0. -1.
         23    2    1    0    0    0 -0.18975514527E+02  0.15662690938E+02  0.21579415138E+02  0.92362928688E+02  0.86370419699E+02 0.  0.
         13    1    3    3    0    0  0.21756207945E+02  0.36788434188E+02  0.17880179064E+02  0.46329617325E+02  0.10566000000E+00 0.  1.
         22    1    1    0    0    0  0.18975514527E+02 -0.15662690938E+02 -0.21579415138E+02  0.32727071312E+02  0.00000000000E+00 0.  1.
</event>
<event>
 5    1  0.1255769E-009  0.9118800E+02  0.7561462E-02  0.1125453E+00
         25   -1    0    0    0    0  0.00000000000E+00  0.00000000000E+00  0.99999998245E-14  0.12509000000E+03  0.12509000000E+03 0.  0.
        -13    1    3    3    0    0  0.35046569241E+01  0.91088878017E+01 -0.41189936434E+02  0.42330562064E+02  0.10566000000E+00 0.  1.
         23    2    1    0    0    0 -0.23260726306E+02 -0.84711075358E+01  0.62416804713E+01  0.99560024946E+02  0.96231070559E+02 0.  0.
         13    1    3    3    0    0 -0.26765383230E+02 -0.17579995337E+02  0.47431616906E+02  0.57229462882E+02  0.10566000000E+00 0. -1.
         22    1    1    0    0    0  0.23260726306E+02  0.84711075358E+01 -0.62416804713E+01  0.25529975054E+02  0.00000000000E+00 0. -1.
</event>
<event>
 5    1  0.1255769E-009  0.9118800E+02  0.7561462E-02  0.1125453E+00
         25   -1    0    0    0    0  0.00000000000E+00  0.00000000000E+00  0.99999998245E-14  0.12509000000E+03  0.12509000000E+03 0.  0.
        -13    1    3    3    0    0  0.38681130753E+02 -0.26072199182E+02  0.38391907968E+02  0.60414726747E+02  0.10566000000E+00 0. -1.
         23    2    1    0    0    0  0.14403874080E+02 -0.22763985366E+02  0.15163216768E+02  0.94177320385E+02  0.88959394748E+02 0.  0.
         13    1    3    3    0    0 -0.24277256673E+02  0.33082138157E+01 -0.23228691201E+02  0.33762593638E+02  0.10566000000E+00 0.  1.
         22    1    1    0    0    0 -0.14403874080E+02  0.22763985366E+02 -0.15163216768E+02  0.30912679615E+02  0.00000000000E+00 0. -1.
</event>
<event>
 5    1  0.1255769E-009  0.9118800E+02  0.7561462E-02  0.1125453E+00
         25   -1    0    0    0    0  0.00000000000E+00  0.00000000000E+00  0.99999998245E-14  0.12509000000E+03  0.12509000000E+03 0.  0.
        -13    1    3    3    0    0  0.89563429142E+01 -0.26897978406E+02  0.28313794878E+02  0.40067436468E+02  0.10566000000E+00 0.  1.
         23    2    1    0    0    0 -0.26157634961E+02  0.97980076355E+01  0.24857218708E+01  0.97047146479E+02  0.92907195664E+02 0.  0.
         13    1    3    3    0    0 -0.35113977875E+02  0.36695986041E+02 -0.25828073007E+02  0.56979710012E+02  0.10566000000E+00 0. -1.
         22    1    1    0    0    0  0.26157634961E+02 -0.97980076355E+01 -0.24857218708E+01  0.28042853521E+02  0.00000000000E+00 0. -1.
</event>
<event>
 5    1  0.1255769E-009  0.9118800E+02  0.7561462E-02  0.1125453E+00
         25   -1    0    0    0    0  0.00000000000E+00  0.00000000000E+00  0.99999998245E-14  0.12509000000E+03  0.12509000000E+03 0.  0.
        -13    1    3    3    0    0  0.12372645076E+02 -0.57113929331E+02 -0.12772992358E+02  0.59818423313E+02  0.10566000000E+00 0.  1.
         23    2    1    0    0    0  0.15001163136E+02 -0.21877313035E+02 -0.13841917108E+02  0.95169264877E+02  0.90343447947E+02 0.  0.
         13    1    3    3    0    0  0.26285180601E+01  0.35236616296E+02 -0.10689247494E+01  0.35350841565E+02  0.10566000000E+00 0. -1.
         22    1    1    0    0    0 -0.15001163136E+02  0.21877313035E+02  0.13841917108E+02  0.29920735123E+02  0.00000000000E+00 0.  1.
</event>
<event>
 5    1  0.1255769E-009  0.9118800E+02  0.7561462E-02  0.1125453E+00
         25   -1    0    0    0    0  0.00000000000E+00  0.00000000000E+00  0.99999998245E-14  0.12509000000E+03  0.12509000000E+03 0.  0.
        -13    1    3    3    0    0 -0.58772416580E+02  0.12235309247E+02 -0.96778367259E+01  0.60807659310E+02  0.10566000000E+00 0.  1.
         23    2    1    0    0    0 -0.24218632407E+02  0.15611037135E+02 -0.36447998512E+01  0.96046391373E+02  0.91549866705E+02 0.  0.
         13    1    3    3    0    0  0.34553784173E+02  0.33757278888E+01  0.60330368747E+01  0.35238732063E+02  0.10566000000E+00 0. -1.
         22    1    1    0    0    0  0.24218632407E+02 -0.15611037135E+02  0.36447998512E+01  0.29043608627E+02  0.00000000000E+00 0.  1.
</event>
<event>
 5    1  0.1255769E-009  0.9118800E+02  0.7561462E-02  0.1125453E+00
         25   -1    0    0    0    0  0.00000000000E+00  0.00000000000E+00  0.99999998245E-14  0.12509000000E+03  0.12509000000E+03 0.  0.
        -13    1    3    3    0    0 -0.21874512514E+02  0.20869181460E+02  0.37302858309E+02  0.48015949794E+02  0.10566000000E+00 0. -1.
         23    2    1    0    0    0 -0.17914274074E+02 -0.19732357424E+02  0.14722553121E+02  0.94642656675E+02  0.89611337157E+02 0.  0.
         13    1    3    3    0    0  0.39602384399E+01 -0.40601538884E+02 -0.22580305188E+02  0.46626706882E+02  0.10566000000E+00 0.  1.
         22    1    1    0    0    0  0.17914274074E+02  0.19732357424E+02 -0.14722553121E+02  0.30447343325E+02  0.00000000000E+00 0. -1.
</event>
<event>
 5    1  0.1255769E-009  0.9118800E+02  0.7561462E-02  0.1125453E+00
         25   -1    0    0    0    0  0.00000000000E+00  0.00000000000E+00  0.99999998245E-14  0.12509000000E+03  0.12509000000E+03 0.  0.
        -13    1    3    3    0    0  0.11170579463E+02  0.29390730535E+02  0.47328106873E+02  0.56820399076E+02  0.10566000000E+00 0. -1.
         23    2    1    0    0    0  0.23455909710E+02  0.13230507271E+02  0.17246573718E+02  0.93110782874E+02  0.87446827041E+02 0.  0.
         13    1    3    3    0    0  0.12285330248E+02 -0.16160223264E+02 -0.30081533156E+02  0.36290383799E+02  0.10566000000E+00 0.  1.
         22    1    1    0    0    0 -0.23455909710E+02 -0.13230507271E+02 -0.17246573718E+02  0.31979217126E+02  0.00000000000E+00 0. -1.
</event>
<event>
 5    1  0.1255769E-009  0.9118800E+02  0.7561462E-02  0.1125453E+00
         25   -1    0    0    0    0  0.00000000000E+00  0.00000000000E+00  0.99999998245E-14  0.12509000000E+03  0.12509000000E+03 0.  0.
        -13    1    3    3    0    0 -0.32155326046E+02 -0.71957909273E+01 -0.45173032587E+02  0.55913848350E+02  0.10566000000E+00 0.  1.
         23    2    1    0    0    0 -0.81888150701E+01 -0.22243293646E+02 -0.16431480221E+02  0.96248808160E+02  0.91826024228E+02 0.  0.
         13    1    3    3    0    0  0.23966510976E+02 -0.15047502719E+02  0.28741552366E+02  0.40334959810E+02  0.10566000000E+00 0. -1.
         22    1    1    0    0    0  0.81888150701E+01  0.22243293646E+02  0.16431480221E+02  0.28841191840E+02  0.00000000000E+00 0.  1.
</event>
<event>
 5    1  0.1255769E-009  0.9118800E+02  0.7561462E-02  0.1125453E+00
         25   -1    0    0    0    0  0.00000000000E+00  0.00000000000E+00  0.99999998245E-14  0.12509000000E+03  0.12509000000E+03 0.  0.
        -13    1    3    3    0    0  0.34250569328E+02 -0.34908942867E+02  0.17909976297E+02  0.52081803025E+02  0.10566000000E+00 0.  1.
         23    2    1    0    0    0 -0.78442720700E+01 -0.25718556671E+02  0.15925879575E+01  0.98154649660E+02  0.94386557051E+02 0.  0.
         13    1    3    3    0    0 -0.42094841398E+02  0.91903861962E+01 -0.16317388340E+02  0.46072846635E+02  0.10566000000E+00 0. -1.
         22    1    1    0    0    0  0.78442720700E+01  0.25718556671E+02 -0.15925879575E+01  0.26935350340E+02  0.00000000000E+00 0.  1.
</event>
<event>
 5    1  0.1255769E-009  0.9118800E+02  0.7561462E-02  0.1125453E+00
         25   -1    0    0    0    0  0.00000000000E+00  0.00000000000E+00  0.99999998245E-14  0.12509000000E+03  0.12509000000E+03 0.  0.
        -13    1    3    3    0    0  0.41174842353E+02  0.22900157935E+01  0.10722888126E+02  0.42609896843E+02  0.10566000000E+00 0. -1.
         23    2    1    0    0    0  0.11295105809E+02  0.24280483775E+02 -0.20711458698E+02  0.91236110578E+02  0.84722736290E+02 0.  0.
         13    1    3    3    0    0 -0.29879736545E+02  0.21990467982E+02 -0.31434346823E+02  0.48626213736E+02  0.10566000000E+00 0.  1.
         22    1    1    0    0    0 -0.11295105809E+02 -0.24280483775E+02  0.20711458698E+02  0.33853889422E+02  0.00000000000E+00 0. -1.
</event>
<event>
 5    1  0.1255769E-009  0.9118800E+02  0.7561462E-02  0.1125453E+00
         25   -1    0    0    0    0  0.00000000000E+00  0.00000000000E+00  0.99999998245E-14  0.12509000000E+03  0.12509000000E+03 0.  0.
        -13    1    3    3    0    0  0.46142998236E+02  0.75885724444E+01  0.34908501974E+02  0.58355611487E+02  0.10566000000E+00 0.  1.
         23    2    1    0    0    0  0.27809263035E+02  0.70794056399E+01  0.16375466042E+01  0.96347093856E+02  0.91959816446E+02 0.  0.
         13    1    3    3    0    0 -0.18333735202E+02 -0.50916680446E+00 -0.33270955370E+02  0.37991482368E+02  0.10566000000E+00 0. -1.
         22    1    1    0    0    0 -0.27809263035E+02 -0.70794056399E+01 -0.16375466042E+01  0.28742906144E+02  0.00000000000E+00 0.  1.
</event>
<event>
 5    1  0.1255769E-009  0.9118800E+02  0.7561462E-02  0.1125453E+00
         25   -1    0    0    0    0  0.00000000000E+00  0.00000000000E+00  0.99999998245E-14  0.12509000000E+03  0.12509000000E+03 0.  0.
        -13    1    3    3    0    0  0.30606736326E+02  0.21617754171E+02  0.48376430803E+01  0.37782450404E+02  0.10566000000E+00 0.  1.
         23    2    1    0    0    0  0.18124392520E+01 -0.24971630060E+02 -0.14846584821E+02  0.95981782522E+02  0.91461545206E+02 0.  0.
         13    1    3    3    0    0 -0.28794297074E+02 -0.46589384230E+02 -0.19684227902E+02  0.58199332119E+02  0.10566000000E+00 0. -1.
         22    1    1    0    0    0 -0.18124392520E+01  0.24971630060E+02  0.14846584821E+02  0.29108217478E+02  0.00000000000E+00 0. -1.
</event>
<event>
 5    1  0.1255769E-009  0.9118800E+02  0.7561462E-02  0.1125453E+00
         25   -1    0    0    0    0  0.00000000000E+00  0.00000000000E+00  0.99999998245E-14  0.12509000000E+03  0.12509000000E+03 0.  0.
        -13    1    3    3    0    0  0.18967903923E+01  0.43107199223E+02 -0.47679781106E+01  0.43411671448E+02  0.10566000000E+00 0. -1.
         23    2    1    0    0    0 -0.84343094984E+01  0.83671445128E+01  0.29498096432E+02  0.93289302254E+02  0.87701821748E+02 0.  0.
         13    1    3    3    0    0 -0.10331099891E+02 -0.34740054710E+02  0.34266074543E+02  0.49877630806E+02  0.10566000000E+00 0.  1.
         22    1    1    0    0    0  0.84343094984E+01 -0.83671445128E+01 -0.29498096432E+02  0.31800697746E+02  0.00000000000E+00 0.  1.
</event>
<event>
 5    1  0.1255769E-009  0.9118800E+02  0.7561462E-02  0.1125453E+00
         25   -1    0    0    0    0  0.00000000000E+00  0.00000000000E+00  0.99999998245E-14  0.12509000000E+03  0.12509000000E+03 0.  0.
        -13    1    3    3    0    0 -0.44766565738E+02  0.39756375634E+02  0.11361545058E+02  0.60940222200E+02  0.10566000000E+00 0.  1.
         23    2    1    0    0    0 -0.24084771889E+02  0.17421870674E+02 -0.41026316718E+01  0.95082844164E+02  0.90223710038E+02 0.  0.
         13    1    3    3    0    0  0.20681793850E+02 -0.22334504960E+02 -0.15464176730E+02  0.34142621965E+02  0.10566000000E+00 0. -1.
         22    1    1    0    0    0  0.24084771889E+02 -0.17421870674E+02  0.41026316718E+01  0.30007155836E+02  0.00000000000E+00 0.  1.
</event>
<event>
 5    1  0.1255769E-009  0.9118800E+02  0.7561462E-02  0.1125453E+00
         25   -1    0    0    0    0  0.00000000000E+00  0.00000000000E+00  0.99999998245E-14  0.12509000000E+03  0.12509000000E+03 0.  0.
        -13    1    3    3    0    0  0.16222242159E+01  0.45856339221E+02  0.38240960240E+02  0.59731211793E+02  0.10566000000E+00 0. -1.
         23    2    1    0    0    0  0.11328883282E+02  0.24462204254E+02  0.10313117903E+02  0.96226468784E+02  0.91795587369E+02 0.  0.
         13    1    3    3    0    0  0.97066590662E+01 -0.21394134967E+02 -0.27927842337E+02  0.36495256991E+02  0.10566000000E+00 0.  1.
         22    1    1    0    0    0 -0.11328883282E+02 -0.24462204254E+02 -0.10313117903E+02  0.28863531216E+02  0.00000000000E+00 0. -1.
</event>
<event>
 5    1  0.1255769E-009  0.9118800E+02  0.7561462E-02  0.1125453E+00
         25   -1    0    0    0    0  0.00000000000E+00  0.00000000000E+00  0.99999998245E-14  0.12509000000E+03  0.12509000000E+03 0.  0.
        -13    1    3    3    0    0  0.50407141636E+01 -0.54062565238E+02 -0.99604327220E+01  0.55203180555E+02  0.10566000000E+00 0. -1.
         23    2    1    0    0    0 -0.44848501677E+01 -0.18660059665E+02 -0.23911277332E+02  0.94429587553E+02  0.89313415085E+02 0.  0.
         13    1    3    3    0    0 -0.95255643313E+01  0.35402505572E+02 -0.13950844610E+02  0.39226406998E+02  0.10566000000E+00 0.  1.
         22    1    1    0    0    0  0.44848501677E+01  0.18660059665E+02  0.23911277332E+02  0.30660412447E+02  0.00000000000E+00 0. -1.
</event>
<event>
 5    1  0.1255769E-009  0.9118800E+02  0.7561462E-02  0.1125453E+00
         25   -1    0    0    0    0  0.00000000000E+00  0.00000000000E+00  0.99999998245E-14  0.12509000000E+03  0.12509000000E+03 0.  0.
        -13    1    3    3    0    0  0.41998287048E+02  0.44526821812E+02 -0.99768127211E+01  0.62016465005E+02  0.10566000000E+00 0. -1.
         23    2    1    0    0    0  0.23716819934E+02  0.18226709743E+02 -0.80987520672E+01  0.94101449196E+02  0.88852644642E+02 0.  0.
         13    1    3    3    0    0 -0.18281467114E+02 -0.26300112069E+02  0.18780606538E+01  0.32084984191E+02  0.10566000000E+00 0.  1.
         22    1    1    0    0    0 -0.23716819934E+02 -0.18226709743E+02  0.80987520672E+01  0.30988550804E+02  0.00000000000E+00 0. -1.
</event>
<event>
 5    1  0.1255769E-009  0.9118800E+02  0.7561462E-02  0.1125453E+00
         25   -1    0    0    0    0  0.00000000000E+00  0.00000000000E+00  0.99999998245E-14  0.12509000000E+03  0.12509000000E+03 0.  0.
        -13    1    3    3    0    0 -0.20083885563E+02  0.14944572041E+02 -0.22814430933E+02  0.33870519860E+02  0.10566000000E+00 0.  1.
         23    2    1    0    0    0  0.17375659107E+02 -0.14960263986E+02  0.17294273927E+02  0.96370408454E+02  0.91991525082E+02 0.  0.
         13    1    3    3    0    0  0.37459544669E+02 -0.29904836027E+02  0.40108704859E+02  0.62499888593E+02  0.10566000000E+00 0. -1.
         22    1    1    0    0    0 -0.17375659107E+02  0.14960263986E+02 -0.17294273927E+02  0.28719591546E+02  0.00000000000E+00 0. -1.
</event>
<event>
 5    1  0.1255769E-009  0.9118800E+02  0.7561462E-02  0.1125453E+00
         25   -1    0    0    0    0  0.00000000000E+00  0.00000000000E+00  0.99999998245E-14  0.12509000000E+03  0.12509000000E+03 0.  0.
        -13    1    3    3    0    0 -0.16742965394E+02  0.90244101783E+01  0.35371197067E+01  0.19346556518E+02  0.10566000000E+00 0.  1.
         23    2    1    0    0    0  0.40287127311E+02 -0.15300973846E+02 -0.40257250913E+01  0.81807452823E+02  0.69419596998E+02 0.  0.
         13    1    3    3    0    0  0.57030092705E+02 -0.24325384024E+02 -0.75628447980E+01  0.62460896306E+02  0.10566000000E+00 0. -1.
         22    1    1    0    0    0 -0.40287127311E+02  0.15300973846E+02  0.40257250913E+01  0.43282547177E+02  0.00000000000E+00 0. -1.
</event>
<event>
 5    1  0.1255769E-009  0.9118800E+02  0.7561462E-02  0.1125453E+00
         25   -1    0    0    0    0  0.00000000000E+00  0.00000000000E+00  0.99999998245E-14  0.12509000000E+03  0.12509000000E+03 0.  0.
        -13    1    3    3    0    0 -0.22036272231E+02 -0.50956978775E+02 -0.92246716893E+01  0.56278918891E+02  0.10566000000E+00 0.  1.
         23    2    1    0    0    0 -0.31049069484E+01 -0.20648941207E+02 -0.22494047166E+02  0.94397959044E+02  0.89269106042E+02 0.  0.
         13    1    3    3    0    0  0.18931365283E+02  0.30308037567E+02 -0.13269375477E+02  0.38119040153E+02  0.10566000000E+00 0. -1.
         22    1    1    0    0    0  0.31049069484E+01  0.20648941207E+02  0.22494047166E+02  0.30692040956E+02  0.00000000000E+00 0.  1.
</event>
<event>
 5    1  0.1255769E-009  0.9118800E+02  0.7561462E-02  0.1125453E+00
         25   -1    0    0    0    0  0.00000000000E+00  0.00000000000E+00  0.99999998245E-14  0.12509000000E+03  0.12509000000E+03 0.  0.
        -13    1    3    3    0    0 -0.18386958997E+02 -0.38503580525E+02  0.36900424081E+02  0.56411509782E+02  0.10566000000E+00 0. -1.
         23    2    1    0    0    0  0.46835637547E+01 -0.26225912956E+01  0.23291861592E+02  0.10118760324E+03  0.98323987297E+02 0.  0.
         13    1    3    3    0    0  0.23070522752E+02  0.35880989230E+02 -0.13608562489E+02  0.44776093456E+02  0.10566000000E+00 0.  1.
         22    1    1    0    0    0 -0.46835637547E+01  0.26225912956E+01 -0.23291861592E+02  0.23902396762E+02  0.00000000000E+00 0.  1.
</event>
<event>
 5    1  0.1255769E-009  0.9118800E+02  0.7561462E-02  0.1125453E+00
         25   -1    0    0    0    0  0.00000000000E+00  0.00000000000E+00  0.99999998245E-14  0.12509000000E+03  0.12509000000E+03 0.  0.
        -13    1    3    3    0    0  0.12143302196E+02 -0.13580725293E+02 -0.52038345285E+02  0.55135255797E+02  0.10566000000E+00 0.  1.
         23    2    1    0    0    0 -0.56359856774E+01  0.13267234316E+02 -0.18606616808E+02  0.10155300720E+03  0.98787768685E+02 0.  0.
         13    1    3    3    0    0 -0.17779287873E+02  0.26847959609E+02  0.33431728478E+02  0.46417751405E+02  0.10566000000E+00 0. -1.
         22    1    1    0    0    0  0.56359856774E+01 -0.13267234316E+02  0.18606616808E+02  0.23536992798E+02  0.00000000000E+00 0.  1.
</event>
<event>
 5    1  0.1255769E-009  0.9118800E+02  0.7561462E-02  0.1125453E+00
         25   -1    0    0    0    0  0.00000000000E+00  0.00000000000E+00  0.99999998245E-14  0.12509000000E+03  0.12509000000E+03 0.  0.
        -13    1    3    3    0    0  0.19420786182E+02 -0.82090489507E+01 -0.26944421559E+02  0.34213570959E+02  0.10566000000E+00 0.  1.
         23    2    1    0    0    0 -0.23187285545E+02 -0.15015412020E+02  0.14369611312E+02  0.93951622741E+02  0.88641462517E+02 0.  0.
         13    1    3    3    0    0 -0.42608071727E+02 -0.68063630698E+01  0.41314032871E+02  0.59738051781E+02  0.10566000000E+00 0. -1.
         22    1    1    0    0    0  0.23187285545E+02  0.15015412020E+02 -0.14369611312E+02  0.31138377259E+02  0.00000000000E+00 0. -1.
</event>
<event>
 5    1  0.1255769E-009  0.9118800E+02  0.7561462E-02  0.1125453E+00
         25   -1    0    0    0    0  0.00000000000E+00  0.00000000000E+00  0.99999998245E-14  0.12509000000E+03  0.12509000000E+03 0.  0.
        -13    1    3    3    0    0 -0.44855546582E+01  0.43186409604E+02 -0.41004242419E+02  0.59720559571E+02  0.10566000000E+00 0. -1.
         23    2    1    0    0    0  0.11207803590E+02  0.18829626280E+02 -0.18614985227E+02  0.96337828566E+02  0.91947212305E+02 0.  0.
         13    1    3    3    0    0  0.15693358249E+02 -0.24356783324E+02  0.22389257192E+02  0.36617268995E+02  0.10566000000E+00 0.  1.
         22    1    1    0    0    0 -0.11207803590E+02 -0.18829626280E+02  0.18614985227E+02  0.28752171434E+02  0.00000000000E+00 0. -1.
</event>
<event>
 5    1  0.1255769E-009  0.9118800E+02  0.7561462E-02  0.1125453E+00
         25   -1    0    0    0    0  0.00000000000E+00  0.00000000000E+00  0.99999998245E-14  0.12509000000E+03  0.12509000000E+03 0.  0.
        -13    1    3    3    0    0 -0.96776713748E+01  0.16208445571E+02 -0.56999616334E+02  0.60044470664E+02  0.10566000000E+00 0. -1.
         23    2    1    0    0    0  0.54417733637E+01 -0.15451750982E+00 -0.27741625900E+02  0.96819262822E+02  0.92599865404E+02 0.  0.
         13    1    3    3    0    0  0.15119444739E+02 -0.16362963081E+02  0.29257990434E+02  0.36774792158E+02  0.10566000000E+00 0.  1.
         22    1    1    0    0    0 -0.54417733637E+01  0.15451750982E+00  0.27741625900E+02  0.28270737178E+02  0.00000000000E+00 0. -1.
</event>
<event>
 5    1  0.1255769E-009  0.9118800E+02  0.7561462E-02  0.1125453E+00
         25   -1    0    0    0    0  0.00000000000E+00  0.00000000000E+00  0.99999998245E-14  0.12509000000E+03  0.12509000000E+03 0.  0.
        -13    1    3    3    0    0  0.31345285442E+02 -0.38744530319E+01 -0.14358646551E+02  0.34694671068E+02  0.10566000000E+00 0.  1.
         23    2    1    0    0    0 -0.24238878518E+02  0.16233959941E+02  0.14471251895E+01  0.95881116788E+02  0.91323763052E+02 0.  0.
         13    1    3    3    0    0 -0.55584163960E+02  0.20108412973E+02  0.15805771740E+02  0.61186445720E+02  0.10566000000E+00 0. -1.
         22    1    1    0    0    0  0.24238878518E+02 -0.16233959941E+02 -0.14471251895E+01  0.29208883212E+02  0.00000000000E+00 0. -1.
</event>
<event>
 5    1  0.1255769E-009  0.9118800E+02  0.7561462E-02  0.1125453E+00
         25   -1    0    0    0    0  0.00000000000E+00  0.00000000000E+00  0.99999998245E-14  0.12509000000E+03  0.12509000000E+03 0.  0.
        -13    1    3    3    0    0 -0.39323678085E+02  0.34644507642E+02  0.15725429918E+02  0.54716486346E+02  0.10566000000E+00 0. -1.
         23    2    1    0    0    0 -0.33531343025E+02  0.75061292014E+00  0.12668158904E+02  0.89237571424E+02  0.81718709723E+02 0.  0.
         13    1    3    3    0    0  0.57923350599E+01 -0.33893894722E+02 -0.30572710144E+01  0.34521085078E+02  0.10566000000E+00 0.  1.
         22    1    1    0    0    0  0.33531343025E+02 -0.75061292014E+00 -0.12668158904E+02  0.35852428576E+02  0.00000000000E+00 0. -1.
</event>
<event>
 5    1  0.1255769E-009  0.9118800E+02  0.7561462E-02  0.1125453E+00
         25   -1    0    0    0    0  0.00000000000E+00  0.00000000000E+00  0.99999998245E-14  0.12509000000E+03  0.12509000000E+03 0.  0.
        -13    1    3    3    0    0 -0.30242990548E+02  0.42362679957E+02  0.16674239594E+02  0.54655983758E+02  0.10566000000E+00 0. -1.
         23    2    1    0    0    0 -0.10448392048E+01  0.13707542560E+02  0.25143371532E+02  0.96433804440E+02  0.92077690538E+02 0.  0.
         13    1    3    3    0    0  0.29198151343E+02 -0.28655137397E+02  0.84691319375E+01  0.41777820682E+02  0.10566000000E+00 0.  1.
         22    1    1    0    0    0  0.10448392048E+01 -0.13707542560E+02 -0.25143371532E+02  0.28656195560E+02  0.00000000000E+00 0. -1.
</event>
<event>
 5    1  0.1255769E-009  0.9118800E+02  0.7561462E-02  0.1125453E+00
         25   -1    0    0    0    0  0.00000000000E+00  0.00000000000E+00  0.99999998245E-14  0.12509000000E+03  0.12509000000E+03 0.  0.
        -13    1    3    3    0    0  0.23469724562E+02 -0.34720359241E+02 -0.23580467853E+02  0.48087222264E+02  0.10566000000E+00 0. -1.
         23    2    1    0    0    0  0.29344807184E+02  0.23102396816E+01  0.50008958478E+01  0.95232607694E+02  0.90431110205E+02 0.  0.
         13    1    3    3    0    0  0.58750826214E+01  0.37030598922E+02  0.28581363701E+02  0.47145385430E+02  0.10566000000E+00 0.  1.
         22    1    1    0    0    0 -0.29344807184E+02 -0.23102396816E+01 -0.50008958478E+01  0.29857392306E+02  0.00000000000E+00 0. -1.
</event>
<event>
 5    1  0.1255769E-009  0.9118800E+02  0.7561462E-02  0.1125453E+00
         25   -1    0    0    0    0  0.00000000000E+00  0.00000000000E+00  0.99999998245E-14  0.12509000000E+03  0.12509000000E+03 0.  0.
        -13    1    3    3    0    0 -0.38835631151E+01 -0.33021398650E+02 -0.21344406578E+02  0.39510627526E+02  0.10566000000E+00 0.  1.
         23    2    1    0    0    0  0.50366160510E+01  0.15127313070E+02 -0.31740445841E+02  0.89570160415E+02  0.82226240535E+02 0.  0.
         13    1    3    3    0    0  0.89201791661E+01  0.48148711720E+02 -0.10396039263E+02  0.50059532889E+02  0.10566000000E+00 0. -1.
         22    1    1    0    0    0 -0.50366160510E+01 -0.15127313070E+02  0.31740445841E+02  0.35519839585E+02  0.00000000000E+00 0. -1.
</event>
<event>
 5    1  0.1255769E-009  0.9118800E+02  0.7561462E-02  0.1125453E+00
         25   -1    0    0    0    0  0.00000000000E+00  0.00000000000E+00  0.99999998245E-14  0.12509000000E+03  0.12509000000E+03 0.  0.
        -13    1    3    3    0    0  0.16974053311E+02 -0.45745710263E+02 -0.13575504110E+02  0.50646756749E+02  0.10566000000E+00 0.  1.
         23    2    1    0    0    0  0.27574947172E+02 -0.27713399402E+01  0.13093972206E+01  0.97345224678E+02  0.93307664261E+02 0.  0.
         13    1    3    3    0    0  0.10600893861E+02  0.42974370323E+02  0.14884901330E+02  0.46698467929E+02  0.10566000000E+00 0. -1.
         22    1    1    0    0    0 -0.27574947172E+02  0.27713399402E+01 -0.13093972206E+01  0.27744775322E+02  0.00000000000E+00 0.  1.
</event>
<event>
 5    1  0.1255769E-009  0.9118800E+02  0.7561462E-02  0.1125453E+00
         25   -1    0    0    0    0  0.00000000000E+00  0.00000000000E+00  0.99999998245E-14  0.12509000000E+03  0.12509000000E+03 0.  0.
        -13    1    3    3    0    0  0.51846062856E+02 -0.13233184054E+02 -0.35665252543E+01  0.53627070219E+02  0.10566000000E+00 0.  1.
         23    2    1    0    0    0  0.23443919534E+02  0.10347093260E+02  0.15465073896E+02  0.95159276443E+02  0.90329616851E+02 0.  0.
         13    1    3    3    0    0 -0.28402143322E+02  0.23580277314E+02  0.19031599151E+02  0.41532206223E+02  0.10566000000E+00 0. -1.
         22    1    1    0    0    0 -0.23443919534E+02 -0.10347093260E+02 -0.15465073896E+02  0.29930723557E+02  0.00000000000E+00 0.  1.
</event>
<event>
 5    1  0.1255769E-009  0.9118800E+02  0.7561462E-02  0.1125453E+00
         25   -1    0    0    0    0  0.00000000000E+00  0.00000000000E+00  0.99999998245E-14  0.12509000000E+03  0.12509000000E+03 0.  0.
        -13    1    3    3    0    0  0.98003250882E+01  0.38091802946E+01 -0.37916666798E+02  0.39347693852E+02  0.10566000000E+00 0. -1.
         23    2    1    0    0    0  0.10934337391E+02  0.23484924789E+02  0.14538798442E+02  0.95383467273E+02  0.90639548445E+02 0.  0.
         13    1    3    3    0    0  0.11340123033E+01  0.19675744495E+02  0.52455465240E+02  0.56035773421E+02  0.10566000000E+00 0.  1.
         22    1    1    0    0    0 -0.10934337391E+02 -0.23484924789E+02 -0.14538798442E+02  0.29706532727E+02  0.00000000000E+00 0.  1.
</event>
<event>
 5    1  0.1255769E-009  0.9118800E+02  0.7561462E-02  0.1125453E+00
         25   -1    0    0    0    0  0.00000000000E+00  0.00000000000E+00  0.99999998245E-14  0.12509000000E+03  0.12509000000E+03 0.  0.
        -13    1    3    3    0    0 -0.83857892395E+01  0.12237092853E+02  0.33959063430E+02  0.37058022826E+02  0.10566000000E+00 0.  1.
         23    2    1    0    0    0 -0.18010429931E+02 -0.21305188266E+02 -0.11963857462E+02  0.94735090698E+02  0.89740274631E+02 0.  0.
         13    1    3    3    0    0 -0.96246406912E+01 -0.33542281119E+02 -0.45922920892E+02  0.57677067873E+02  0.10566000000E+00 0. -1.
         22    1    1    0    0    0  0.18010429931E+02  0.21305188266E+02  0.11963857462E+02  0.30354909302E+02  0.00000000000E+00 0. -1.
</event>
<event>
 5    1  0.1255769E-009  0.9118800E+02  0.7561462E-02  0.1125453E+00
         25   -1    0    0    0    0  0.00000000000E+00  0.00000000000E+00  0.99999998245E-14  0.12509000000E+03  0.12509000000E+03 0.  0.
        -13    1    3    3    0    0 -0.33741175899E+02 -0.43196301020E+02  0.29946676680E+01  0.54894139682E+02  0.10566000000E+00 0. -1.
         23    2    1    0    0    0 -0.26680271757E+02 -0.54680083645E+01 -0.10955796508E+02  0.95734157419E+02  0.91122244282E+02 0.  0.
         13    1    3    3    0    0  0.70609041421E+01  0.37728292656E+02 -0.13950464176E+02  0.40840017737E+02  0.10566000000E+00 0.  1.
         22    1    1    0    0    0  0.26680271757E+02  0.54680083645E+01  0.10955796508E+02  0.29355842581E+02  0.00000000000E+00 0. -1.
</event>
<event>
 5    1  0.1255769E-009  0.9118800E+02  0.7561462E-02  0.1125453E+00
         25   -1    0    0    0    0  0.00000000000E+00  0.00000000000E+00  0.99999998245E-14  0.12509000000E+03  0.12509000000E+03 0.  0.
        -13    1    3    3    0    0  0.17133932422E+02  0.17088608205E+02  0.44693933477E+01  0.24608510957E+02  0.10566000000E+00 0. -1.
         23    2    1    0    0    0 -0.12662425624E+02  0.18742178679E+02 -0.40572002533E+02  0.78639018591E+02  0.63453932668E+02 0.  0.
         13    1    3    3    0    0 -0.29796358046E+02  0.16535704740E+01 -0.45041395881E+02  0.54030507633E+02  0.10566000000E+00 0.  1.
         22    1    1    0    0    0  0.12662425624E+02 -0.18742178679E+02  0.40572002533E+02  0.46450981409E+02  0.00000000000E+00 0.  1.
</event>
<event>
 5    1  0.1255769E-009  0.9118800E+02  0.7561462E-02  0.1125453E+00
         25   -1    0    0    0    0  0.00000000000E+00  0.00000000000E+00  0.99999998245E-14  0.12509000000E+03  0.12509000000E+03 0.  0.
        -13    1    3    3    0    0 -0.29105745646E+02  0.94115880603E+01 -0.49573830441E+02  0.58252023553E+02  0.10566000000E+00 0.  1.
         23    2    1    0    0    0 -0.18213405279E+02  0.17835599472E+02 -0.14893299410E+02  0.95566329705E+02  0.90891563225E+02 0.  0.
         13    1    3    3    0    0  0.10892340366E+02  0.84240114120E+01  0.34680531031E+02  0.37314306152E+02  0.10566000000E+00 0. -1.
         22    1    1    0    0    0  0.18213405279E+02 -0.17835599472E+02  0.14893299410E+02  0.29523670295E+02  0.00000000000E+00 0.  1.
</event>
<event>
 5    1  0.1255769E-009  0.9118800E+02  0.7561462E-02  0.1125453E+00
         25   -1    0    0    0    0  0.00000000000E+00  0.00000000000E+00  0.99999998245E-14  0.12509000000E+03  0.12509000000E+03 0.  0.
        -13    1    3    3    0    0 -0.14748491970E+02 -0.51508373857E+02  0.14886203830E+01  0.53599046143E+02  0.10566000000E+00 0. -1.
         23    2    1    0    0    0 -0.26182823164E+02 -0.94350201513E+01  0.18168011065E+01  0.97199847610E+02  0.93112565076E+02 0.  0.
         13    1    3    3    0    0 -0.11434331194E+02  0.42073353706E+02  0.32818072347E+00  0.43600801466E+02  0.10566000000E+00 0.  1.
         22    1    1    0    0    0  0.26182823164E+02  0.94350201513E+01 -0.18168011065E+01  0.27890152390E+02  0.00000000000E+00 0. -1.
</event>
<event>
 5    1  0.1255769E-009  0.9118800E+02  0.7561462E-02  0.1125453E+00
         25   -1    0    0    0    0  0.00000000000E+00  0.00000000000E+00  0.99999998245E-14  0.12509000000E+03  0.12509000000E+03 0.  0.
        -13    1    3    3    0    0 -0.27882292604E+02  0.79127902348E+01 -0.34919306680E+02  0.45380652631E+02  0.10566000000E+00 0.  1.
         23    2    1    0    0    0  0.80378063483E+01 -0.22262508071E+02 -0.18376103768E+02  0.95124907205E+02  0.90282009197E+02 0.  0.
         13    1    3    3    0    0  0.35920098952E+02 -0.30175298306E+02  0.16543202913E+02  0.49744254575E+02  0.10566000000E+00 0. -1.
         22    1    1    0    0    0 -0.80378063483E+01  0.22262508071E+02  0.18376103768E+02  0.29965092795E+02  0.00000000000E+00 0. -1.
</event>
<event>
 5    1  0.1255769E-009  0.9118800E+02  0.7561462E-02  0.1125453E+00
         25   -1    0    0    0    0  0.00000000000E+00  0.00000000000E+00  0.99999998245E-14  0.12509000000E+03  0.12509000000E+03 0.  0.
        -13    1    3    3    0    0 -0.36589795546E+02  0.27499068940E+02  0.31444422351E+02  0.55531745801E+02  0.10566000000E+00 0. -1.
         23    2    1    0    0    0 -0.18995195171E+01  0.26973963288E+02  0.10346892059E+02  0.96137261872E+02  0.91673944363E+02 0.  0.
         13    1    3    3    0    0  0.34690276029E+02 -0.52510565288E+00 -0.21097530292E+02  0.40605516071E+02  0.10566000000E+00 0.  1.
         22    1    1    0    0    0  0.18995195171E+01 -0.26973963288E+02 -0.10346892059E+02  0.28952738128E+02  0.00000000000E+00 0. -1.
</event>
<event>
 5    1  0.1255769E-009  0.9118800E+02  0.7561462E-02  0.1125453E+00
         25   -1    0    0    0    0  0.00000000000E+00  0.00000000000E+00  0.99999998245E-14  0.12509000000E+03  0.12509000000E+03 0.  0.
        -13    1    3    3    0    0  0.87464273552E+01 -0.11979610645E+02  0.52727416212E+02  0.54774105626E+02  0.10566000000E+00 0. -1.
         23    2    1    0    0    0 -0.14796726043E+02 -0.12649404964E+02  0.37551016085E+02  0.82793081004E+02  0.71173484569E+02 0.  0.
         13    1    3    3    0    0 -0.23543153398E+02 -0.66979431930E+00 -0.15176400128E+02  0.28018975378E+02  0.10566000000E+00 0.  1.
         22    1    1    0    0    0  0.14796726043E+02  0.12649404964E+02 -0.37551016085E+02  0.42296918996E+02  0.00000000000E+00 0. -1.
</event>
<event>
 5    1  0.1255769E-009  0.9118800E+02  0.7561462E-02  0.1125453E+00
         25   -1    0    0    0    0  0.00000000000E+00  0.00000000000E+00  0.99999998245E-14  0.12509000000E+03  0.12509000000E+03 0.  0.
        -13    1    3    3    0    0  0.32916425334E+02 -0.54264520790E+00 -0.22418689910E+02  0.39829566178E+02  0.10566000000E+00 0. -1.
         23    2    1    0    0    0 -0.66127242829E+01  0.28780483444E+02  0.33238261744E+01  0.95373133238E+02  0.90625285509E+02 0.  0.
         13    1    3    3    0    0 -0.39529149617E+02  0.29323128652E+02  0.25742516085E+02  0.55543567060E+02  0.10566000000E+00 0.  1.
         22    1    1    0    0    0  0.66127242829E+01 -0.28780483444E+02 -0.33238261744E+01  0.29716866762E+02  0.00000000000E+00 0.  1.
</event>
<event>
 5    1  0.1255769E-009  0.9118800E+02  0.7561462E-02  0.1125453E+00
         25   -1    0    0    0    0  0.00000000000E+00  0.00000000000E+00  0.99999998245E-14  0.12509000000E+03  0.12509000000E+03 0.  0.
        -13    1    3    3    0    0  0.14773275601E+02 -0.76338977117E+01 -0.44841180825E+02  0.47825398358E+02  0.10566000000E+00 0. -1.
         23    2    1    0    0    0  0.11382559523E+02  0.23166197900E+02 -0.41886043802E+01  0.98940816589E+02  0.95422771885E+02 0.  0.
         13    1    3    3    0    0 -0.33907160783E+01  0.30800095612E+02  0.40652576445E+02  0.51115418230E+02  0.10566000000E+00 0.  1.
         22    1    1    0    0    0 -0.11382559523E+02 -0.23166197900E+02  0.41886043802E+01  0.26149183411E+02  0.00000000000E+00 0.  1.
</event>
<event>
 5    1  0.1255769E-009  0.9118800E+02  0.7561462E-02  0.1125453E+00
         25   -1    0    0    0    0  0.00000000000E+00  0.00000000000E+00  0.99999998245E-14  0.12509000000E+03  0.12509000000E+03 0.  0.
        -13    1    3    3    0    0 -0.19409447187E+02 -0.16034515789E+02  0.32761387997E+02  0.41317696501E+02  0.10566000000E+00 0.  1.
         23    2    1    0    0    0 -0.19978833023E+02  0.21259056189E+02 -0.62115231806E+01  0.95262424517E+02  0.90472345309E+02 0.  0.
         13    1    3    3    0    0 -0.56938583589E+00  0.37293571977E+02 -0.38972911177E+02  0.53944728016E+02  0.10566000000E+00 0. -1.
         22    1    1    0    0    0  0.19978833023E+02 -0.21259056189E+02  0.62115231806E+01  0.29827575483E+02  0.00000000000E+00 0. -1.
</event>
<event>
 5    1  0.1255769E-009  0.9118800E+02  0.7561462E-02  0.1125453E+00
         25   -1    0    0    0    0  0.00000000000E+00  0.00000000000E+00  0.99999998245E-14  0.12509000000E+03  0.12509000000E+03 0.  0.
        -13    1    3    3    0    0  0.14075742042E+02  0.17028519891E+01 -0.40675759041E+02  0.43076150670E+02  0.10566000000E+00 0.  1.
         23    2    1    0    0    0 -0.28106255067E+02 -0.10705543634E+01 -0.10276220134E+02  0.95144910907E+02  0.90309721020E+02 0.  0.
         13    1    3    3    0    0 -0.42181997109E+02 -0.27734063525E+01  0.30399538907E+02  0.52068760238E+02  0.10566000000E+00 0. -1.
         22    1    1    0    0    0  0.28106255067E+02  0.10705543634E+01  0.10276220134E+02  0.29945089093E+02  0.00000000000E+00 0. -1.
</event>
<event>
 5    1  0.1255769E-009  0.9118800E+02  0.7561462E-02  0.1125453E+00
         25   -1    0    0    0    0  0.00000000000E+00  0.00000000000E+00  0.99999998245E-14  0.12509000000E+03  0.12509000000E+03 0.  0.
        -13    1    3    3    0    0  0.92777049101E+01  0.19228045308E+02 -0.53848580018E+02  0.57926455689E+02  0.10566000000E+00 0. -1.
         23    2    1    0    0    0 -0.12741982868E+02  0.96111018167E+01 -0.24392844754E+02  0.95939660710E+02  0.91403917949E+02 0.  0.
         13    1    3    3    0    0 -0.22019687779E+02 -0.96169434914E+01  0.29455735264E+02  0.38013205021E+02  0.10566000000E+00 0.  1.
         22    1    1    0    0    0  0.12741982868E+02 -0.96111018167E+01  0.24392844754E+02  0.29150339290E+02  0.00000000000E+00 0. -1.
</event>
<event>
 5    1  0.1255769E-009  0.9118800E+02  0.7561462E-02  0.1125453E+00
         25   -1    0    0    0    0  0.00000000000E+00  0.00000000000E+00  0.99999998245E-14  0.12509000000E+03  0.12509000000E+03 0.  0.
        -13    1    3    3    0    0  0.46780490289E+02 -0.18441717075E+02  0.18725062665E+02  0.53657714601E+02  0.10566000000E+00 0.  1.
         23    2    1    0    0    0  0.17768979596E+02  0.11807673094E+02  0.20355733108E+02  0.95602483148E+02  0.90941305983E+02 0.  0.
         13    1    3    3    0    0 -0.29011510694E+02  0.30249390168E+02  0.16306704431E+01  0.41944768547E+02  0.10566000000E+00 0. -1.
         22    1    1    0    0    0 -0.17768979596E+02 -0.11807673094E+02 -0.20355733108E+02  0.29487516852E+02  0.00000000000E+00 0.  1.
</event>
<event>
 5    1  0.1255769E-009  0.9118800E+02  0.7561462E-02  0.1125453E+00
         25   -1    0    0    0    0  0.00000000000E+00  0.00000000000E+00  0.99999998245E-14  0.12509000000E+03  0.12509000000E+03 0.  0.
        -13    1    3    3    0    0 -0.12338922987E+02 -0.25290575663E+02 -0.94711123095E+01  0.29691334936E+02  0.10566000000E+00 0. -1.
         23    2    1    0    0    0  0.19815483374E+02 -0.27974228169E+02  0.29201828063E+02  0.80057149932E+02  0.66190555747E+02 0.  0.
         13    1    3    3    0    0  0.32154406361E+02 -0.26836525064E+01  0.38672940372E+02  0.50365814997E+02  0.10566000000E+00 0.  1.
         22    1    1    0    0    0 -0.19815483374E+02  0.27974228169E+02 -0.29201828063E+02  0.45032850068E+02  0.00000000000E+00 0.  1.
</event>
<event>
 5    1  0.1255769E-009  0.9118800E+02  0.7561462E-02  0.1125453E+00
         25   -1    0    0    0    0  0.00000000000E+00  0.00000000000E+00  0.99999998245E-14  0.12509000000E+03  0.12509000000E+03 0.  0.
        -13    1    3    3    0    0 -0.95069493308E+01  0.75666661709E+01  0.26586248390E+02  0.29231426411E+02  0.10566000000E+00 0.  1.
         23    2    1    0    0    0 -0.24561931846E+02 -0.27706321279E+02 -0.14399650280E+02  0.85362444538E+02  0.75554406056E+02 0.  0.
         13    1    3    3    0    0 -0.15054982515E+02 -0.35272987450E+02 -0.40985898670E+02  0.56131018127E+02  0.10566000000E+00 0. -1.
         22    1    1    0    0    0  0.24561931846E+02  0.27706321279E+02  0.14399650280E+02  0.39727555462E+02  0.00000000000E+00 0. -1.
</event>
<event>
 5    1  0.1255769E-009  0.9118800E+02  0.7561462E-02  0.1125453E+00
         25   -1    0    0    0    0  0.00000000000E+00  0.00000000000E+00  0.99999998245E-14  0.12509000000E+03  0.12509000000E+03 0.  0.
        -13    1    3    3    0    0 -0.10108068851E+02 -0.13368193530E+02  0.30779448461E+02  0.35046644144E+02  0.10566000000E+00 0.  1.
         23    2    1    0    0    0 -0.93783348418E+01 -0.82681814719E+01 -0.28195772340E+02  0.94246563630E+02  0.89056707715E+02 0.  0.
         13    1    3    3    0    0  0.72973400874E+00  0.51000120585E+01 -0.58975220800E+02  0.59199919487E+02  0.10566000000E+00 0. -1.
         22    1    1    0    0    0  0.93783348418E+01  0.82681814719E+01  0.28195772340E+02  0.30843436370E+02  0.00000000000E+00 0. -1.
</event>
<event>
 5    1  0.1255769E-009  0.9118800E+02  0.7561462E-02  0.1125453E+00
         25   -1    0    0    0    0  0.00000000000E+00  0.00000000000E+00  0.99999998245E-14  0.12509000000E+03  0.12509000000E+03 0.  0.
        -13    1    3    3    0    0  0.32333350864E+02  0.87919926892E+01  0.92576691876E+01  0.34762915821E+02  0.10566000000E+00 0.  1.
         23    2    1    0    0    0 -0.20474752306E+02 -0.41041766539E+01 -0.19723475418E+02  0.96365877201E+02  0.91985363282E+02 0.  0.
         13    1    3    3    0    0 -0.52808103170E+02 -0.12896169343E+02 -0.28981144606E+02  0.61602961380E+02  0.10566000000E+00 0. -1.
         22    1    1    0    0    0  0.20474752306E+02  0.41041766539E+01  0.19723475418E+02  0.28724122799E+02  0.00000000000E+00 0. -1.
</event>
<event>
 5    1  0.1255769E-009  0.9118800E+02  0.7561462E-02  0.1125453E+00
         25   -1    0    0    0    0  0.00000000000E+00  0.00000000000E+00  0.99999998245E-14  0.12509000000E+03  0.12509000000E+03 0.  0.
        -13    1    3    3    0    0  0.19303920367E+02  0.53137633590E+01  0.55284584938E+02  0.58798587724E+02  0.10566000000E+00 0. -1.
         23    2    1    0    0    0  0.13893366978E+01  0.15773793944E+02  0.24183702016E+02  0.96183352407E+02  0.91736813795E+02 0.  0.
         13    1    3    3    0    0 -0.17914583669E+02  0.10460030585E+02 -0.31100882922E+02  0.37384764683E+02  0.10566000000E+00 0.  1.
         22    1    1    0    0    0 -0.13893366978E+01 -0.15773793944E+02 -0.24183702016E+02  0.28906647593E+02  0.00000000000E+00 0. -1.
</event>
<event>
 5    1  0.1255769E-009  0.9118800E+02  0.7561462E-02  0.1125453E+00
         25   -1    0    0    0    0  0.00000000000E+00  0.00000000000E+00  0.99999998245E-14  0.12509000000E+03  0.12509000000E+03 0.  0.
        -13    1    3    3    0    0  0.16941124040E+02  0.47898913237E+02 -0.33508765091E+02  0.60861778441E+02  0.10566000000E+00 0.  1.
         23    2    1    0    0    0  0.14420271680E+02  0.23197981722E+02 -0.76209372835E+01  0.96732121441E+02  0.92482074166E+02 0.  0.
         13    1    3    3    0    0 -0.25208523602E+01 -0.24700931514E+02  0.25887827808E+02  0.35870343000E+02  0.10566000000E+00 0. -1.
         22    1    1    0    0    0 -0.14420271680E+02 -0.23197981722E+02  0.76209372835E+01  0.28357878559E+02  0.00000000000E+00 0.  1.
</event>
<event>
 5    1  0.1255769E-009  0.9118800E+02  0.7561462E-02  0.1125453E+00
         25   -1    0    0    0    0  0.00000000000E+00  0.00000000000E+00  0.99999998245E-14  0.12509000000E+03  0.12509000000E+03 0.  0.
        -13    1    3    3    0    0 -0.41718068497E+02 -0.42846309113E+02  0.80213649200E+01  0.60337027628E+02  0.10566000000E+00 0. -1.
         23    2    1    0    0    0 -0.29064941704E+02 -0.13424279283E+02  0.66331903472E+01  0.92394720146E+02  0.86416450900E+02 0.  0.
         13    1    3    3    0    0  0.12653126793E+02  0.29422029830E+02 -0.13881745728E+01  0.32057692519E+02  0.10566000000E+00 0.  1.
         22    1    1    0    0    0  0.29064941704E+02  0.13424279283E+02 -0.66331903472E+01  0.32695279854E+02  0.00000000000E+00 0. -1.
</event>
<event>
 5    1  0.1255769E-009  0.9118800E+02  0.7561462E-02  0.1125453E+00
         25   -1    0    0    0    0  0.00000000000E+00  0.00000000000E+00  0.99999998245E-14  0.12509000000E+03  0.12509000000E+03 0.  0.
        -13    1    3    3    0    0 -0.15917070713E+02  0.12806777716E+02  0.36051566865E+02  0.41437824907E+02  0.10566000000E+00 0.  1.
         23    2    1    0    0    0  0.28262219945E+02 -0.16350780614E+01  0.82286913258E+01  0.95608854882E+02  0.90950069898E+02 0.  0.
         13    1    3    3    0    0  0.44179290658E+02 -0.14441855777E+02 -0.27822875539E+02  0.54171029976E+02  0.10566000000E+00 0. -1.
         22    1    1    0    0    0 -0.28262219945E+02  0.16350780614E+01 -0.82286913258E+01  0.29481145118E+02  0.00000000000E+00 0. -1.
</event>
<event>
 5    1  0.1255769E-009  0.9118800E+02  0.7561462E-02  0.1125453E+00
         25   -1    0    0    0    0  0.00000000000E+00  0.00000000000E+00  0.99999998245E-14  0.12509000000E+03  0.12509000000E+03 0.  0.
        -13    1    3    3    0    0 -0.15789215509E+02  0.10246015741E+02 -0.33444000771E+02  0.38376978992E+02  0.10566000000E+00 0. -1.
         23    2    1    0    0    0 -0.82084455289E+01 -0.30896616858E+02  0.17881928623E+01  0.93071612393E+02  0.87390776907E+02 0.  0.
         13    1    3    3    0    0  0.75807699796E+01 -0.41142632598E+02  0.35232193634E+02  0.54694633401E+02  0.10566000000E+00 0.  1.
         22    1    1    0    0    0  0.82084455289E+01  0.30896616858E+02 -0.17881928623E+01  0.32018387607E+02  0.00000000000E+00 0.  1.
</event>
<event>
 5    1  0.1255769E-009  0.9118800E+02  0.7561462E-02  0.1125453E+00
         25   -1    0    0    0    0  0.00000000000E+00  0.00000000000E+00  0.99999998245E-14  0.12509000000E+03  0.12509000000E+03 0.  0.
        -13    1    3    3    0    0 -0.42533730862E+02 -0.96941083330E+01 -0.26725306603E+02  0.51160015388E+02  0.10566000000E+00 0.  1.
         23    2    1    0    0    0 -0.16928889533E+02  0.21592578366E+02 -0.45291186375E+01  0.97281014817E+02  0.93221543577E+02 0.  0.
         13    1    3    3    0    0  0.25604841329E+02  0.31286686699E+02  0.22196187965E+02  0.46120999429E+02  0.10566000000E+00 0. -1.
         22    1    1    0    0    0  0.16928889533E+02 -0.21592578366E+02  0.45291186375E+01  0.27808985183E+02  0.00000000000E+00 0. -1.
</event>
<event>
 5    1  0.1255769E-009  0.9118800E+02  0.7561462E-02  0.1125453E+00
         25   -1    0    0    0    0  0.00000000000E+00  0.00000000000E+00  0.99999998245E-14  0.12509000000E+03  0.12509000000E+03 0.  0.
        -13    1    3    3    0    0 -0.28816277335E+02 -0.20391763731E+02  0.19065633982E+02  0.40121209238E+02  0.10566000000E+00 0. -1.
         23    2    1    0    0    0  0.44995818565E+01 -0.17081649078E+02 -0.24388030721E+02  0.94976796674E+02  0.90076561279E+02 0.  0.
         13    1    3    3    0    0  0.33315859192E+02  0.33101146525E+01 -0.43453664704E+02  0.54855587436E+02  0.10566000000E+00 0.  1.
         22    1    1    0    0    0 -0.44995818565E+01  0.17081649078E+02  0.24388030721E+02  0.30113203326E+02  0.00000000000E+00 0.  1.
</event>
<event>
 5    1  0.1255769E-009  0.9118800E+02  0.7561462E-02  0.1125453E+00
         25   -1    0    0    0    0  0.00000000000E+00  0.00000000000E+00  0.99999998245E-14  0.12509000000E+03  0.12509000000E+03 0.  0.
        -13    1    3    3    0    0  0.18828612523E+02 -0.14254452378E+02 -0.20289158129E+02  0.31134661773E+02  0.10566000000E+00 0. -1.
         23    2    1    0    0    0  0.11348481986E+02  0.28728512946E+02  0.18134487829E+02  0.89271357531E+02  0.81770411074E+02 0.  0.
         13    1    3    3    0    0 -0.74801305364E+01  0.42982965324E+02  0.38423645958E+02  0.58136695758E+02  0.10566000000E+00 0.  1.
         22    1    1    0    0    0 -0.11348481986E+02 -0.28728512946E+02 -0.18134487829E+02  0.35818642469E+02  0.00000000000E+00 0.  1.
</event>
<event>
 5    1  0.1255769E-009  0.9118800E+02  0.7561462E-02  0.1125453E+00
         25   -1    0    0    0    0  0.00000000000E+00  0.00000000000E+00  0.99999998245E-14  0.12509000000E+03  0.12509000000E+03 0.  0.
        -13    1    3    3    0    0 -0.43410280610E+02 -0.17920994075E+02 -0.17803267578E+02  0.50225312262E+02  0.10566000000E+00 0.  1.
         23    2    1    0    0    0 -0.28424452487E+02  0.13596744240E+02  0.67113494219E+01  0.92874116275E+02  0.87107624866E+02 0.  0.
         13    1    3    3    0    0  0.14985828124E+02  0.31517738315E+02  0.24514617000E+02  0.42648804013E+02  0.10566000000E+00 0. -1.
         22    1    1    0    0    0  0.28424452487E+02 -0.13596744240E+02 -0.67113494219E+01  0.32215883725E+02  0.00000000000E+00 0. -1.
</event>
<event>
 5    1  0.1255769E-009  0.9118800E+02  0.7561462E-02  0.1125453E+00
         25   -1    0    0    0    0  0.00000000000E+00  0.00000000000E+00  0.99999998245E-14  0.12509000000E+03  0.12509000000E+03 0.  0.
        -13    1    3    3    0    0  0.96242279439E+00  0.13075752898E+02 -0.56051424706E+02  0.57564528549E+02  0.10566000000E+00 0.  1.
         23    2    1    0    0    0 -0.16515270590E+02  0.95004463561E+01 -0.22153505327E+02  0.95870307293E+02  0.91308955632E+02 0.  0.
         13    1    3    3    0    0 -0.17477693384E+02 -0.35753065417E+01  0.33897919379E+02  0.38305778744E+02  0.10566000000E+00 0. -1.
         22    1    1    0    0    0  0.16515270590E+02 -0.95004463561E+01  0.22153505327E+02  0.29219692707E+02  0.00000000000E+00 0.  1.
</event>
<event>
 5    1  0.1255769E-009  0.9118800E+02  0.7561462E-02  0.1125453E+00
         25   -1    0    0    0    0  0.00000000000E+00  0.00000000000E+00  0.99999998245E-14  0.12509000000E+03  0.12509000000E+03 0.  0.
        -13    1    3    3    0    0 -0.30006828248E+02 -0.21264461397E+02  0.26834744133E+01  0.36875456051E+02  0.10566000000E+00 0. -1.
         23    2    1    0    0    0  0.26695908790E+02 -0.65832717649E+01 -0.80862850606E+01  0.96429940347E+02  0.92072440914E+02 0.  0.
         13    1    3    3    0    0  0.56702737038E+02  0.14681189632E+02 -0.10769759474E+02  0.59554484296E+02  0.10566000000E+00 0.  1.
         22    1    1    0    0    0 -0.26695908790E+02  0.65832717649E+01  0.80862850606E+01  0.28660059653E+02  0.00000000000E+00 0.  1.
</event>
<event>
 5    1  0.1255769E-009  0.9118800E+02  0.7561462E-02  0.1125453E+00
         25   -1    0    0    0    0  0.00000000000E+00  0.00000000000E+00  0.99999998245E-14  0.12509000000E+03  0.12509000000E+03 0.  0.
        -13    1    3    3    0    0  0.28917082381E+02 -0.33763822049E+02  0.41632175316E+02  0.60905192869E+02  0.10566000000E+00 0.  1.
         23    2    1    0    0    0  0.89663445016E+01 -0.24234621717E+02  0.16258044390E+02  0.94560731570E+02  0.89496903433E+02 0.  0.
         13    1    3    3    0    0 -0.19950737880E+02  0.95292003319E+01 -0.25374130926E+02  0.33655538700E+02  0.10566000000E+00 0. -1.
         22    1    1    0    0    0 -0.89663445016E+01  0.24234621717E+02 -0.16258044390E+02  0.30529268430E+02  0.00000000000E+00 0.  1.
</event>
<event>
 5    1  0.1255769E-009  0.9118800E+02  0.7561462E-02  0.1125453E+00
         25   -1    0    0    0    0  0.00000000000E+00  0.00000000000E+00  0.99999998245E-14  0.12509000000E+03  0.12509000000E+03 0.  0.
        -13    1    3    3    0    0  0.24582666469E+02 -0.37129599481E+02 -0.38949659928E+02  0.59160813220E+02  0.10566000000E+00 0.  1.
         23    2    1    0    0    0 -0.17286548101E+01 -0.21937021158E+02 -0.22099668651E+02  0.93903199921E+02  0.88573102329E+02 0.  0.
         13    1    3    3    0    0 -0.26311321279E+02  0.15192578323E+02  0.16849991277E+02  0.34742386700E+02  0.10566000000E+00 0. -1.
         22    1    1    0    0    0  0.17286548101E+01  0.21937021158E+02  0.22099668651E+02  0.31186800079E+02  0.00000000000E+00 0.  1.
</event>
<event>
 5    1  0.1255769E-009  0.9118800E+02  0.7561462E-02  0.1125453E+00
         25   -1    0    0    0    0  0.00000000000E+00  0.00000000000E+00  0.99999998245E-14  0.12509000000E+03  0.12509000000E+03 0.  0.
        -13    1    3    3    0    0  0.22555944300E+02 -0.16632490871E+02 -0.30886917159E+02  0.41706392693E+02  0.10566000000E+00 0. -1.
         23    2    1    0    0    0 -0.52581751699E+01 -0.25777650413E+02  0.13992328893E+02  0.95291997805E+02  0.90513225061E+02 0.  0.
         13    1    3    3    0    0 -0.27814119470E+02 -0.91451595426E+01  0.44879246052E+02  0.53585605112E+02  0.10566000000E+00 0.  1.
         22    1    1    0    0    0  0.52581751699E+01  0.25777650413E+02 -0.13992328893E+02  0.29798002195E+02  0.00000000000E+00 0. -1.
</event>
<event>
 5    1  0.1255769E-009  0.9118800E+02  0.7561462E-02  0.1125453E+00
         25   -1    0    0    0    0  0.00000000000E+00  0.00000000000E+00  0.99999998245E-14  0.12509000000E+03  0.12509000000E+03 0.  0.
        -13    1    3    3    0    0 -0.23720457525E+02 -0.48097503629E+02 -0.22387165246E+02  0.58113907908E+02  0.10566000000E+00 0. -1.
         23    2    1    0    0    0 -0.29309614255E+01 -0.40259175440E+02 -0.18569498332E+02  0.80657826857E+02  0.67316172076E+02 0.  0.
         13    1    3    3    0    0  0.20789496099E+02  0.78383281889E+01  0.38176669147E+01  0.22543918949E+02  0.10566000000E+00 0.  1.
         22    1    1    0    0    0  0.29309614255E+01  0.40259175440E+02  0.18569498332E+02  0.44432173143E+02  0.00000000000E+00 0. -1.
</event>
<event>
 5    1  0.1255769E-009  0.9118800E+02  0.7561462E-02  0.1125453E+00
         25   -1    0    0    0    0  0.00000000000E+00  0.00000000000E+00  0.99999998245E-14  0.12509000000E+03  0.12509000000E+03 0.  0.
        -13    1    3    3    0    0  0.43660340779E+02 -0.48595194503E+01 -0.72550989070E+01  0.44525137960E+02  0.10566000000E+00 0. -1.
         23    2    1    0    0    0  0.72643762872E+01  0.29101265919E+02  0.14524442383E+01  0.95060607146E+02  0.90192874418E+02 0.  0.
         13    1    3    3    0    0 -0.36395964491E+02  0.33960785369E+02  0.87075431453E+01  0.50535469186E+02  0.10566000000E+00 0.  1.
         22    1    1    0    0    0 -0.72643762872E+01 -0.29101265919E+02 -0.14524442383E+01  0.30029392854E+02  0.00000000000E+00 0.  1.
</event>
<event>
 5    1  0.1255769E-009  0.9118800E+02  0.7561462E-02  0.1125453E+00
         25   -1    0    0    0    0  0.00000000000E+00  0.00000000000E+00  0.99999998245E-14  0.12509000000E+03  0.12509000000E+03 0.  0.
        -13    1    3    3    0    0  0.23898332242E+02  0.31517170171E+01 -0.50914068612E+02  0.56332203496E+02  0.10566000000E+00 0.  1.
         23    2    1    0    0    0  0.11012117718E+02 -0.18081732299E+02 -0.20251078556E+02  0.95792867679E+02  0.91202804430E+02 0.  0.
         13    1    3    3    0    0 -0.12886214524E+02 -0.21233449316E+02  0.30662990056E+02  0.39460664183E+02  0.10566000000E+00 0. -1.
         22    1    1    0    0    0 -0.11012117718E+02  0.18081732299E+02  0.20251078556E+02  0.29297132321E+02  0.00000000000E+00 0.  1.
</event>
<event>
 5    1  0.1255769E-009  0.9118800E+02  0.7561462E-02  0.1125453E+00
         25   -1    0    0    0    0  0.00000000000E+00  0.00000000000E+00  0.99999998245E-14  0.12509000000E+03  0.12509000000E+03 0.  0.
        -13    1    3    3    0    0  0.38351673439E+02 -0.14378852199E+02 -0.31064932701E+02  0.51406647955E+02  0.10566000000E+00 0. -1.
         23    2    1    0    0    0  0.27307750176E+02  0.99319600046E+01  0.42954873534E+01  0.95716401977E+02  0.91097866861E+02 0.  0.
         13    1    3    3    0    0 -0.11043923263E+02  0.24310812204E+02  0.35360420055E+02  0.44309754022E+02  0.10566000000E+00 0.  1.
         22    1    1    0    0    0 -0.27307750176E+02 -0.99319600046E+01 -0.42954873534E+01  0.29373598023E+02  0.00000000000E+00 0.  1.
</event>
<event>
 5    1  0.1255769E-009  0.9118800E+02  0.7561462E-02  0.1125453E+00
         25   -1    0    0    0    0  0.00000000000E+00  0.00000000000E+00  0.99999998245E-14  0.12509000000E+03  0.12509000000E+03 0.  0.
        -13    1    3    3    0    0  0.15610665544E+02 -0.69336466043E+01 -0.32460016328E+02  0.36680133015E+02  0.10566000000E+00 0.  1.
         23    2    1    0    0    0  0.34022639708E+01 -0.66792315327E+01  0.26839227803E+02  0.97223681925E+02  0.93144579252E+02 0.  0.
         13    1    3    3    0    0 -0.12208401573E+02  0.25441507162E+00  0.59299244131E+02  0.60543548910E+02  0.10566000000E+00 0. -1.
         22    1    1    0    0    0 -0.34022639708E+01  0.66792315327E+01 -0.26839227803E+02  0.27866318075E+02  0.00000000000E+00 0. -1.
</event>
<event>
 5    1  0.1255769E-009  0.9118800E+02  0.7561462E-02  0.1125453E+00
         25   -1    0    0    0    0  0.00000000000E+00  0.00000000000E+00  0.99999998245E-14  0.12509000000E+03  0.12509000000E+03 0.  0.
        -13    1    3    3    0    0 -0.19313252197E+02 -0.26592234398E+02 -0.19759349440E+02  0.38348294551E+02  0.10566000000E+00 0.  1.
         23    2    1    0    0    0  0.75523825960E+01 -0.86145313906E+01  0.27324511557E+02  0.95461001269E+02  0.90746488624E+02 0.  0.
         13    1    3    3    0    0  0.26865634793E+02  0.17977703007E+02  0.47083860997E+02  0.57112706718E+02  0.10566000000E+00 0. -1.
         22    1    1    0    0    0 -0.75523825960E+01  0.86145313906E+01 -0.27324511557E+02  0.29628998731E+02  0.00000000000E+00 0.  1.
</event>
<event>
 5    1  0.1255769E-009  0.9118800E+02  0.7561462E-02  0.1125453E+00
         25   -1    0    0    0    0  0.00000000000E+00  0.00000000000E+00  0.99999998245E-14  0.12509000000E+03  0.12509000000E+03 0.  0.
        -13    1    3    3    0    0  0.19611388423E+02  0.26734818233E+02  0.14437771404E+02  0.36163759055E+02  0.10566000000E+00 0. -1.
         23    2    1    0    0    0 -0.86484372643E+01 -0.25654134784E+02  0.11246341430E+02  0.95774299527E+02  0.91177333563E+02 0.  0.
         13    1    3    3    0    0 -0.28259825687E+02 -0.52388953017E+02 -0.31914299740E+01  0.59610540472E+02  0.10566000000E+00 0.  1.
         22    1    1    0    0    0  0.86484372643E+01  0.25654134784E+02 -0.11246341430E+02  0.29315700473E+02  0.00000000000E+00 0.  1.
</event>
<event>
 5    1  0.1255769E-009  0.9118800E+02  0.7561462E-02  0.1125453E+00
         25   -1    0    0    0    0  0.00000000000E+00  0.00000000000E+00  0.99999998245E-14  0.12509000000E+03  0.12509000000E+03 0.  0.
        -13    1    3    3    0    0  0.47752694954E+02  0.22184635493E+02 -0.11408175040E+02  0.53876112973E+02  0.10566000000E+00 0.  1.
         23    2    1    0    0    0  0.13218604110E+02  0.38005149660E+01 -0.26036179151E+02  0.95644150829E+02  0.90998601937E+02 0.  0.
         13    1    3    3    0    0 -0.34534090845E+02 -0.18384120527E+02 -0.14628004111E+02  0.41768037856E+02  0.10566000000E+00 0. -1.
         22    1    1    0    0    0 -0.13218604110E+02 -0.38005149660E+01  0.26036179151E+02  0.29445849171E+02  0.00000000000E+00 0.  1.
</event>
<event>
 5    1  0.1255769E-009  0.9118800E+02  0.7561462E-02  0.1125453E+00
         25   -1    0    0    0    0  0.00000000000E+00  0.00000000000E+00  0.99999998245E-14  0.12509000000E+03  0.12509000000E+03 0.  0.
        -13    1    3    3    0    0 -0.25981926589E+02  0.85600344375E+01  0.53761990338E+02  0.60321616921E+02  0.10566000000E+00 0. -1.
         23    2    1    0    0    0 -0.12936379794E+02  0.15250200511E+02  0.21678495567E+02  0.95596344618E+02  0.90932862027E+02 0.  0.
         13    1    3    3    0    0  0.13045546796E+02  0.66901660732E+01 -0.32083494771E+02  0.35274727696E+02  0.10566000000E+00 0.  1.
         22    1    1    0    0    0  0.12936379794E+02 -0.15250200511E+02 -0.21678495567E+02  0.29493655382E+02  0.00000000000E+00 0. -1.
</event>
<event>
 5    1  0.1255769E-009  0.9118800E+02  0.7561462E-02  0.1125453E+00
         25   -1    0    0    0    0  0.00000000000E+00  0.00000000000E+00  0.99999998245E-14  0.12509000000E+03  0.12509000000E+03 0.  0.
        -13    1    3    3    0    0  0.43957468635E+01 -0.51830167183E+02 -0.65192198656E+00  0.52020428555E+02  0.10566000000E+00 0.  1.
         23    2    1    0    0    0 -0.21405640898E+02 -0.17168549448E+02  0.88397586274E+01  0.96261162267E+02  0.91842852068E+02 0.  0.
         13    1    3    3    0    0 -0.25801387762E+02  0.34661617735E+02  0.94916806140E+01  0.44240733712E+02  0.10566000000E+00 0. -1.
         22    1    1    0    0    0  0.21405640898E+02  0.17168549448E+02 -0.88397586274E+01  0.28828837733E+02  0.00000000000E+00 0. -1.
</event>
<event>
 5    1  0.1255769E-009  0.9118800E+02  0.7561462E-02  0.1125453E+00
         25   -1    0    0    0    0  0.00000000000E+00  0.00000000000E+00  0.99999998245E-14  0.12509000000E+03  0.12509000000E+03 0.  0.
        -13    1    3    3    0    0  0.35036308571E+02 -0.32232328301E+02  0.29060382022E+02  0.55776185539E+02  0.10566000000E+00 0.  1.
         23    2    1    0    0    0  0.17203144985E+02  0.30901761691E+01  0.23603192096E+02  0.95719809955E+02  0.91102546367E+02 0.  0.
         13    1    3    3    0    0 -0.17833163586E+02  0.35322504470E+02 -0.54571899260E+01  0.39943624416E+02  0.10566000000E+00 0. -1.
         22    1    1    0    0    0 -0.17203144985E+02 -0.30901761691E+01 -0.23603192096E+02  0.29370190045E+02  0.00000000000E+00 0.  1.
</event>
<event>
 5    1  0.1255769E-009  0.9118800E+02  0.7561462E-02  0.1125453E+00
         25   -1    0    0    0    0  0.00000000000E+00  0.00000000000E+00  0.99999998245E-14  0.12509000000E+03  0.12509000000E+03 0.  0.
        -13    1    3    3    0    0  0.30943226006E+02 -0.66872052547E+01 -0.29826025103E+02  0.43494883461E+02  0.10566000000E+00 0.  1.
         23    2    1    0    0    0  0.13692025866E+01 -0.13953787284E+02  0.19263935851E+02  0.10126391934E+03  0.98421030475E+02 0.  0.
         13    1    3    3    0    0 -0.29574023419E+02 -0.72665820294E+01  0.49089960954E+02  0.57769035876E+02  0.10566000000E+00 0. -1.
         22    1    1    0    0    0 -0.13692025866E+01  0.13953787284E+02 -0.19263935851E+02  0.23826080663E+02  0.00000000000E+00 0. -1.
</event>
<event>
 5    1  0.1255769E-009  0.9118800E+02  0.7561462E-02  0.1125453E+00
         25   -1    0    0    0    0  0.00000000000E+00  0.00000000000E+00  0.99999998245E-14  0.12509000000E+03  0.12509000000E+03 0.  0.
        -13    1    3    3    0    0  0.19424740092E+02 -0.53890368950E+02  0.85028645367E+00  0.57290719530E+02  0.10566000000E+00 0.  1.
         23    2    1    0    0    0  0.22231267886E+02 -0.15865420022E+02  0.91008545981E+01  0.96301697189E+02  0.91898044064E+02 0.  0.
         13    1    3    3    0    0  0.28065277946E+01  0.38024948928E+02  0.82505681444E+01  0.39010977659E+02  0.10566000000E+00 0. -1.
         22    1    1    0    0    0 -0.22231267886E+02  0.15865420022E+02 -0.91008545981E+01  0.28788302811E+02  0.00000000000E+00 0.  1.
</event>
<event>
 5    1  0.1255769E-009  0.9118800E+02  0.7561462E-02  0.1125453E+00
         25   -1    0    0    0    0  0.00000000000E+00  0.00000000000E+00  0.99999998245E-14  0.12509000000E+03  0.12509000000E+03 0.  0.
        -13    1    3    3    0    0 -0.24515055608E+02 -0.45837625934E+02 -0.23786156134E+02  0.57165271716E+02  0.10566000000E+00 0.  1.
         23    2    1    0    0    0 -0.25511950118E+02 -0.14374483436E+02 -0.14356919958E+01  0.95771975094E+02  0.91174144521E+02 0.  0.
         13    1    3    3    0    0 -0.99689450947E+00  0.31463142497E+02  0.22350464139E+02  0.38606703378E+02  0.10566000000E+00 0. -1.
         22    1    1    0    0    0  0.25511950118E+02  0.14374483436E+02  0.14356919958E+01  0.29318024906E+02  0.00000000000E+00 0.  1.
</event>
<event>
 5    1  0.1255769E-009  0.9118800E+02  0.7561462E-02  0.1125453E+00
         25   -1    0    0    0    0  0.00000000000E+00  0.00000000000E+00  0.99999998245E-14  0.12509000000E+03  0.12509000000E+03 0.  0.
        -13    1    3    3    0    0  0.27848970372E+02  0.27869325436E+00 -0.21178267718E+02  0.34988183838E+02  0.10566000000E+00 0.  1.
         23    2    1    0    0    0 -0.13381397349E+01 -0.45460630177E+00  0.30614211710E+02  0.94443185427E+02  0.89332457876E+02 0.  0.
         13    1    3    3    0    0 -0.29187110106E+02 -0.73329955613E+00  0.51792479428E+02  0.59455001589E+02  0.10566000000E+00 0. -1.
         22    1    1    0    0    0  0.13381397349E+01  0.45460630177E+00 -0.30614211710E+02  0.30646814573E+02  0.00000000000E+00 0. -1.
</event>
<event>
 5    1  0.1255769E-009  0.9118800E+02  0.7561462E-02  0.1125453E+00
         25   -1    0    0    0    0  0.00000000000E+00  0.00000000000E+00  0.99999998245E-14  0.12509000000E+03  0.12509000000E+03 0.  0.
        -13    1    3    3    0    0  0.19643995355E+02 -0.44592797044E+02  0.11775111049E+02  0.50130514719E+02  0.10566000000E+00 0.  1.
         23    2    1    0    0    0 -0.13210243635E+02 -0.23926073349E+02 -0.11555587362E+02  0.95416794543E+02  0.90685531143E+02 0.  0.
         13    1    3    3    0    0 -0.32854238991E+02  0.20666723695E+02 -0.23330698411E+02  0.45286279824E+02  0.10566000000E+00 0. -1.
         22    1    1    0    0    0  0.13210243635E+02  0.23926073349E+02  0.11555587362E+02  0.29673205457E+02  0.00000000000E+00 0. -1.
</event>
<event>
 5    1  0.1255769E-009  0.9118800E+02  0.7561462E-02  0.1125453E+00
         25   -1    0    0    0    0  0.00000000000E+00  0.00000000000E+00  0.99999998245E-14  0.12509000000E+03  0.12509000000E+03 0.  0.
        -13    1    3    3    0    0  0.35961950285E+02  0.35498704794E+01  0.16143256962E+02  0.39578774086E+02  0.10566000000E+00 0. -1.
         23    2    1    0    0    0 -0.95838723824E+01  0.25531559010E+02 -0.94102511351E+01  0.96241014892E+02  0.91815407235E+02 0.  0.
         13    1    3    3    0    0 -0.45545822668E+02  0.21981688530E+02 -0.25553508097E+02  0.56662240807E+02  0.10566000000E+00 0.  1.
         22    1    1    0    0    0  0.95838723824E+01 -0.25531559010E+02  0.94102511351E+01  0.28848985108E+02  0.00000000000E+00 0.  1.
</event>
<event>
 5    1  0.1255769E-009  0.9118800E+02  0.7561462E-02  0.1125453E+00
         25   -1    0    0    0    0  0.00000000000E+00  0.00000000000E+00  0.99999998245E-14  0.12509000000E+03  0.12509000000E+03 0.  0.
        -13    1    3    3    0    0  0.35440732349E+02 -0.38303624873E+02 -0.41550392720E+01  0.52349677203E+02  0.10566000000E+00 0.  1.
         23    2    1    0    0    0  0.31262575236E+02  0.22116927461E+01 -0.62432425888E+01  0.93133494039E+02  0.87479308632E+02 0.  0.
         13    1    3    3    0    0 -0.41781571129E+01  0.40515317619E+02 -0.20882033168E+01  0.40783816837E+02  0.10566000000E+00 0. -1.
         22    1    1    0    0    0 -0.31262575236E+02 -0.22116927461E+01  0.62432425888E+01  0.31956505961E+02  0.00000000000E+00 0.  1.
</event>
<event>
 5    1  0.1255769E-009  0.9118800E+02  0.7561462E-02  0.1125453E+00
         25   -1    0    0    0    0  0.00000000000E+00  0.00000000000E+00  0.99999998245E-14  0.12509000000E+03  0.12509000000E+03 0.  0.
        -13    1    3    3    0    0 -0.32439189888E+01  0.41925789384E+02  0.11404012452E+01  0.42066691157E+02  0.10566000000E+00 0.  1.
         23    2    1    0    0    0  0.24722816967E+02 -0.30254842512E+01  0.13959315124E+02  0.96537702150E+02  0.92218730332E+02 0.  0.
         13    1    3    3    0    0  0.27966735956E+02 -0.44951273636E+02  0.12818913879E+02  0.54471010993E+02  0.10566000000E+00 0. -1.
         22    1    1    0    0    0 -0.24722816967E+02  0.30254842512E+01 -0.13959315124E+02  0.28552297850E+02  0.00000000000E+00 0. -1.
</event>
<event>
 5    1  0.1255769E-009  0.9118800E+02  0.7561462E-02  0.1125453E+00
         25   -1    0    0    0    0  0.00000000000E+00  0.00000000000E+00  0.99999998245E-14  0.12509000000E+03  0.12509000000E+03 0.  0.
        -13    1    3    3    0    0  0.55715237571E+02  0.70373145178E+01  0.32178229716E+01  0.56250129261E+02  0.10566000000E+00 0.  1.
         23    2    1    0    0    0  0.21942568313E+02  0.10424121099E+02 -0.16705456486E+02  0.95607617443E+02  0.90948367945E+02 0.  0.
         13    1    3    3    0    0 -0.33772669258E+02  0.33868065809E+01 -0.19923279457E+02  0.39357488182E+02  0.10566000000E+00 0. -1.
         22    1    1    0    0    0 -0.21942568313E+02 -0.10424121099E+02  0.16705456486E+02  0.29482382557E+02  0.00000000000E+00 0.  1.
</event>
<event>
 5    1  0.1255769E-009  0.9118800E+02  0.7561462E-02  0.1125453E+00
         25   -1    0    0    0    0  0.00000000000E+00  0.00000000000E+00  0.99999998245E-14  0.12509000000E+03  0.12509000000E+03 0.  0.
        -13    1    3    3    0    0  0.24553383090E+02  0.86534962374E+01 -0.38421031854E+02  0.46410542672E+02  0.10566000000E+00 0. -1.
         23    2    1    0    0    0  0.11650912494E+02 -0.27142655014E+02 -0.99933692393E+01  0.93907714774E+02  0.88579478335E+02 0.  0.
         13    1    3    3    0    0 -0.12902470596E+02 -0.35796151252E+02  0.28427662615E+02  0.47497172102E+02  0.10566000000E+00 0.  1.
         22    1    1    0    0    0 -0.11650912494E+02  0.27142655014E+02  0.99933692393E+01  0.31182285226E+02  0.00000000000E+00 0. -1.
</event>
<event>
 5    1  0.1255769E-009  0.9118800E+02  0.7561462E-02  0.1125453E+00
         25   -1    0    0    0    0  0.00000000000E+00  0.00000000000E+00  0.99999998245E-14  0.12509000000E+03  0.12509000000E+03 0.  0.
        -13    1    3    3    0    0  0.15653408795E+02  0.31192104134E+01  0.29906364836E+02  0.33899269937E+02  0.10566000000E+00 0.  1.
         23    2    1    0    0    0 -0.23865286009E+02 -0.95346450356E+01 -0.15234430304E+02  0.95214438099E+02  0.90405973384E+02 0.  0.
         13    1    3    3    0    0 -0.39518694804E+02 -0.12653855449E+02 -0.45140795140E+02  0.61315168161E+02  0.10566000000E+00 0. -1.
         22    1    1    0    0    0  0.23865286009E+02  0.95346450356E+01  0.15234430304E+02  0.29875561901E+02  0.00000000000E+00 0. -1.
</event>
<event>
 5    1  0.1255769E-009  0.9118800E+02  0.7561462E-02  0.1125453E+00
         25   -1    0    0    0    0  0.00000000000E+00  0.00000000000E+00  0.99999998245E-14  0.12509000000E+03  0.12509000000E+03 0.  0.
        -13    1    3    3    0    0  0.15491268392E+02  0.67021912843E+01  0.36816721085E+02  0.40501615769E+02  0.10566000000E+00 0.  1.
         23    2    1    0    0    0 -0.54420788909E+01 -0.30188002089E+02  0.39475967061E+01  0.94162419873E+02  0.88938439967E+02 0.  0.
         13    1    3    3    0    0 -0.20933347283E+02 -0.36890193373E+02 -0.32869124379E+02  0.53660804104E+02  0.10566000000E+00 0. -1.
         22    1    1    0    0    0  0.54420788909E+01  0.30188002089E+02 -0.39475967061E+01  0.30927580127E+02  0.00000000000E+00 0. -1.
</event>
<event>
 5    1  0.1255769E-009  0.9118800E+02  0.7561462E-02  0.1125453E+00
         25   -1    0    0    0    0  0.00000000000E+00  0.00000000000E+00  0.99999998245E-14  0.12509000000E+03  0.12509000000E+03 0.  0.
        -13    1    3    3    0    0 -0.20080260649E+02  0.12763284868E+02 -0.34535154180E+02  0.41938125216E+02  0.10566000000E+00 0. -1.
         23    2    1    0    0    0  0.22044934423E+02  0.19390055383E+02 -0.18392408212E+01  0.95673402844E+02  0.91038803943E+02 0.  0.
         13    1    3    3    0    0  0.42125195071E+02  0.66267705156E+01  0.32695913359E+02  0.53735277627E+02  0.10566000000E+00 0.  1.
         22    1    1    0    0    0 -0.22044934423E+02 -0.19390055383E+02  0.18392408212E+01  0.29416597156E+02  0.00000000000E+00 0.  1.
</event>
<event>
 5    1  0.1255769E-009  0.9118800E+02  0.7561462E-02  0.1125453E+00
         25   -1    0    0    0    0  0.00000000000E+00  0.00000000000E+00  0.99999998245E-14  0.12509000000E+03  0.12509000000E+03 0.  0.
        -13    1    3    3    0    0 -0.42285051758E+02  0.14299348352E+02  0.37079076005E+02  0.58029010046E+02  0.10566000000E+00 0. -1.
         23    2    1    0    0    0 -0.14580918978E+02 -0.99936772636E+01  0.19224708897E+02  0.98973602552E+02  0.95465741428E+02 0.  0.
         13    1    3    3    0    0  0.27704132780E+02 -0.24293025615E+02 -0.17854367108E+02  0.40944592506E+02  0.10566000000E+00 0.  1.
         22    1    1    0    0    0  0.14580918978E+02  0.99936772636E+01 -0.19224708897E+02  0.26116397448E+02  0.00000000000E+00 0. -1.
</event>
<event>
 5    1  0.1255769E-009  0.9118800E+02  0.7561462E-02  0.1125453E+00
         25   -1    0    0    0    0  0.00000000000E+00  0.00000000000E+00  0.99999998245E-14  0.12509000000E+03  0.12509000000E+03 0.  0.
        -13    1    3    3    0    0 -0.14284683239E+02 -0.32771411774E+02 -0.44315232818E+00  0.35752274794E+02  0.10566000000E+00 0.  1.
         23    2    1    0    0    0 -0.38806895036E+01  0.27549711448E+02 -0.35489108999E+01  0.97042876788E+02  0.92901446785E+02 0.  0.
         13    1    3    3    0    0  0.10403993736E+02  0.60321123222E+02 -0.31057585717E+01  0.61290601994E+02  0.10566000000E+00 0. -1.
         22    1    1    0    0    0  0.38806895036E+01 -0.27549711448E+02  0.35489108999E+01  0.28047123212E+02  0.00000000000E+00 0. -1.
</event>
<event>
 5    1  0.1255769E-009  0.9118800E+02  0.7561462E-02  0.1125453E+00
         25   -1    0    0    0    0  0.00000000000E+00  0.00000000000E+00  0.99999998245E-14  0.12509000000E+03  0.12509000000E+03 0.  0.
        -13    1    3    3    0    0  0.50842724291E+02 -0.20170560028E+02 -0.69877018942E+01  0.55142299979E+02  0.10566000000E+00 0. -1.
         23    2    1    0    0    0  0.22951772423E+02  0.70234176422E+01 -0.17376504857E+02  0.95458004222E+02  0.90742357234E+02 0.  0.
         13    1    3    3    0    0 -0.27890951868E+02  0.27193977670E+02 -0.10388802963E+02  0.40315704244E+02  0.10566000000E+00 0.  1.
         22    1    1    0    0    0 -0.22951772423E+02 -0.70234176422E+01  0.17376504857E+02  0.29631995778E+02  0.00000000000E+00 0. -1.
</event>
<event>
 5    1  0.1255769E-009  0.9118800E+02  0.7561462E-02  0.1125453E+00
         25   -1    0    0    0    0  0.00000000000E+00  0.00000000000E+00  0.99999998245E-14  0.12509000000E+03  0.12509000000E+03 0.  0.
        -13    1    3    3    0    0  0.17476043253E+02  0.99349836899E+01  0.49155365959E+02  0.53107223194E+02  0.10566000000E+00 0. -1.
         23    2    1    0    0    0  0.26986253928E+02  0.15259313663E+01  0.69488084169E+01  0.97181716176E+02  0.93088203618E+02 0.  0.
         13    1    3    3    0    0  0.95102106744E+01 -0.84090523236E+01 -0.42206557542E+02  0.44074492982E+02  0.10566000000E+00 0.  1.
         22    1    1    0    0    0 -0.26986253928E+02 -0.15259313663E+01 -0.69488084169E+01  0.27908283824E+02  0.00000000000E+00 0. -1.
</event>
<event>
 5    1  0.1255769E-009  0.9118800E+02  0.7561462E-02  0.1125453E+00
         25   -1    0    0    0    0  0.00000000000E+00  0.00000000000E+00  0.99999998245E-14  0.12509000000E+03  0.12509000000E+03 0.  0.
        -13    1    3    3    0    0  0.36880304635E+02 -0.39461327365E+02 -0.88822892774E+01  0.54738098745E+02  0.10566000000E+00 0. -1.
         23    2    1    0    0    0  0.29835036086E+02 -0.74705491997E+00 -0.83794994482E+01  0.94091556809E+02  0.88838716686E+02 0.  0.
         13    1    3    3    0    0 -0.70452685495E+01  0.38714272445E+02  0.50278982918E+00  0.39353458063E+02  0.10566000000E+00 0.  1.
         22    1    1    0    0    0 -0.29835036086E+02  0.74705491997E+00  0.83794994482E+01  0.30998443191E+02  0.00000000000E+00 0. -1.
</event>
<event>
 5    1  0.1255769E-009  0.9118800E+02  0.7561462E-02  0.1125453E+00
         25   -1    0    0    0    0  0.00000000000E+00  0.00000000000E+00  0.99999998245E-14  0.12509000000E+03  0.12509000000E+03 0.  0.
        -13    1    3    3    0    0  0.22976380590E+02  0.57257347897E+01 -0.25898159783E+02  0.35091650689E+02  0.10566000000E+00 0. -1.
         23    2    1    0    0    0 -0.23149705006E+02  0.13688685142E+02  0.12308319872E+02  0.95513257772E+02  0.90818493322E+02 0.  0.
         13    1    3    3    0    0 -0.46126085596E+02  0.79629503523E+01  0.38206479655E+02  0.60421607082E+02  0.10566000000E+00 0.  1.
         22    1    1    0    0    0  0.23149705006E+02 -0.13688685142E+02 -0.12308319872E+02  0.29576742228E+02  0.00000000000E+00 0.  1.
</event>
<event>
 5    1  0.1255769E-009  0.9118800E+02  0.7561462E-02  0.1125453E+00
         25   -1    0    0    0    0  0.00000000000E+00  0.00000000000E+00  0.99999998245E-14  0.12509000000E+03  0.12509000000E+03 0.  0.
        -13    1    3    3    0    0 -0.28977917216E+02  0.40985096342E+02 -0.96956365139E+01  0.51122542384E+02  0.10566000000E+00 0. -1.
         23    2    1    0    0    0 -0.25070364378E+02 -0.37214230179E+01 -0.13878062808E+02  0.96194104329E+02  0.91751473672E+02 0.  0.
         13    1    3    3    0    0  0.39075528380E+01 -0.44706519360E+02 -0.41824262941E+01  0.45071561945E+02  0.10566000000E+00 0.  1.
         22    1    1    0    0    0  0.25070364378E+02  0.37214230179E+01  0.13878062808E+02  0.28895895671E+02  0.00000000000E+00 0. -1.
</event>
<event>
 5    1  0.1255769E-009  0.9118800E+02  0.7561462E-02  0.1125453E+00
         25   -1    0    0    0    0  0.00000000000E+00  0.00000000000E+00  0.99999998245E-14  0.12509000000E+03  0.12509000000E+03 0.  0.
        -13    1    3    3    0    0 -0.20006348512E+02 -0.35938422310E+02 -0.24851593947E+02  0.48056602717E+02  0.10566000000E+00 0.  1.
         23    2    1    0    0    0 -0.59334502948E+01 -0.23194583125E+02  0.18139088595E+02  0.95053005247E+02  0.90182330601E+02 0.  0.
         13    1    3    3    0    0  0.14072898218E+02  0.12743839185E+02  0.42990682541E+02  0.46996402530E+02  0.10566000000E+00 0. -1.
         22    1    1    0    0    0  0.59334502948E+01  0.23194583125E+02 -0.18139088595E+02  0.30036994753E+02  0.00000000000E+00 0.  1.
</event>
<event>
 5    1  0.1255769E-009  0.9118800E+02  0.7561462E-02  0.1125453E+00
         25   -1    0    0    0    0  0.00000000000E+00  0.00000000000E+00  0.99999998245E-14  0.12509000000E+03  0.12509000000E+03 0.  0.
        -13    1    3    3    0    0 -0.87066373303E+01 -0.22920567029E+02 -0.36532426979E+02  0.43997583019E+02  0.10566000000E+00 0.  1.
         23    2    1    0    0    0 -0.19436053712E+02  0.19384833653E+02 -0.67932410238E+01  0.96811384700E+02  0.92589222506E+02 0.  0.
         13    1    3    3    0    0 -0.10729416382E+02  0.42305400682E+02  0.29739185955E+02  0.52813801681E+02  0.10566000000E+00 0. -1.
         22    1    1    0    0    0  0.19436053712E+02 -0.19384833653E+02  0.67932410238E+01  0.28278615300E+02  0.00000000000E+00 0. -1.
</event>
<event>
 5    1  0.1255769E-009  0.9118800E+02  0.7561462E-02  0.1125453E+00
         25   -1    0    0    0    0  0.00000000000E+00  0.00000000000E+00  0.99999998245E-14  0.12509000000E+03  0.12509000000E+03 0.  0.
        -13    1    3    3    0    0 -0.55105511335E+02  0.55135844620E+01  0.21282539645E+02  0.59329374267E+02  0.10566000000E+00 0.  1.
         23    2    1    0    0    0 -0.28647282407E+02 -0.25452037921E+01 -0.30511161075E+01  0.96168482731E+02  0.91716535639E+02 0.  0.
         13    1    3    3    0    0  0.26458228928E+02 -0.80587882542E+01 -0.24333655753E+02  0.36839108464E+02  0.10566000000E+00 0. -1.
         22    1    1    0    0    0  0.28647282407E+02  0.25452037921E+01  0.30511161075E+01  0.28921517269E+02  0.00000000000E+00 0.  1.
</event>
<event>
 5    1  0.1255769E-009  0.9118800E+02  0.7561462E-02  0.1125453E+00
         25   -1    0    0    0    0  0.00000000000E+00  0.00000000000E+00  0.99999998245E-14  0.12509000000E+03  0.12509000000E+03 0.  0.
        -13    1    3    3    0    0  0.14367907886E+02  0.38276805552E+02 -0.64730396098E+01  0.41393985386E+02  0.10566000000E+00 0. -1.
         23    2    1    0    0    0  0.23076729497E+02 -0.16230640675E+02 -0.10679367314E+01  0.96856869995E+02  0.92650653724E+02 0.  0.
         13    1    3    3    0    0  0.87088216108E+01 -0.54507446227E+02  0.54051028784E+01  0.55462884609E+02  0.10566000000E+00 0.  1.
         22    1    1    0    0    0 -0.23076729497E+02  0.16230640675E+02  0.10679367314E+01  0.28233130005E+02  0.00000000000E+00 0.  1.
</event>
<event>
 5    1  0.1255769E-009  0.9118800E+02  0.7561462E-02  0.1125453E+00
         25   -1    0    0    0    0  0.00000000000E+00  0.00000000000E+00  0.99999998245E-14  0.12509000000E+03  0.12509000000E+03 0.  0.
        -13    1    3    3    0    0 -0.12850047213E+02  0.62298360619E+01 -0.32313422660E+02  0.35328501508E+02  0.10566000000E+00 0.  1.
         23    2    1    0    0    0  0.40187830503E+01  0.14111625744E+02  0.25281920966E+02  0.95858781653E+02  0.91293164552E+02 0.  0.
         13    1    3    3    0    0  0.16868830263E+02  0.78817896819E+01  0.57595343626E+02  0.60530280145E+02  0.10566000000E+00 0. -1.
         22    1    1    0    0    0 -0.40187830503E+01 -0.14111625744E+02 -0.25281920966E+02  0.29231218347E+02  0.00000000000E+00 0. -1.
</event>
<event>
 5    1  0.1255769E-009  0.9118800E+02  0.7561462E-02  0.1125453E+00
         25   -1    0    0    0    0  0.00000000000E+00  0.00000000000E+00  0.99999998245E-14  0.12509000000E+03  0.12509000000E+03 0.  0.
        -13    1    3    3    0    0 -0.23638777688E+02  0.24221696300E+02  0.95950309496E+01  0.35178944913E+02  0.10566000000E+00 0.  1.
         23    2    1    0    0    0  0.13337292990E+02 -0.77603662057E+01 -0.25447661895E+02  0.95329452897E+02  0.90564973504E+02 0.  0.
         13    1    3    3    0    0  0.36976070678E+02 -0.31982062506E+02 -0.35042692845E+02  0.60150507984E+02  0.10566000000E+00 0. -1.
         22    1    1    0    0    0 -0.13337292990E+02  0.77603662057E+01  0.25447661895E+02  0.29760547103E+02  0.00000000000E+00 0. -1.
</event>
<event>
 5    1  0.1255769E-009  0.9118800E+02  0.7561462E-02  0.1125453E+00
         25   -1    0    0    0    0  0.00000000000E+00  0.00000000000E+00  0.99999998245E-14  0.12509000000E+03  0.12509000000E+03 0.  0.
        -13    1    3    3    0    0 -0.39154022268E+02 -0.18331145507E+02  0.68426831075E+00  0.43238267108E+02  0.10566000000E+00 0.  1.
         23    2    1    0    0    0 -0.11015113461E+01  0.60323850831E+01 -0.27780481309E+02  0.96640779645E+02  0.92358443856E+02 0.  0.
         13    1    3    3    0    0  0.38052510922E+02  0.24363530590E+02 -0.28464749620E+02  0.53402512537E+02  0.10566000000E+00 0. -1.
         22    1    1    0    0    0  0.11015113461E+01 -0.60323850831E+01  0.27780481309E+02  0.28449220355E+02  0.00000000000E+00 0. -1.
</event>
<event>
 5    1  0.1255769E-009  0.9118800E+02  0.7561462E-02  0.1125453E+00
         25   -1    0    0    0    0  0.00000000000E+00  0.00000000000E+00  0.99999998245E-14  0.12509000000E+03  0.12509000000E+03 0.  0.
        -13    1    3    3    0    0 -0.40529697142E+02  0.41552062147E+01  0.38412291425E+02  0.55994976432E+02  0.10566000000E+00 0.  1.
         23    2    1    0    0    0 -0.18257429436E+02 -0.16744191589E+02  0.80994751788E+01  0.99026554722E+02  0.95535100149E+02 0.  0.
         13    1    3    3    0    0  0.22272267705E+02 -0.20899397803E+02 -0.30312816247E+02  0.43031578290E+02  0.10566000000E+00 0. -1.
         22    1    1    0    0    0  0.18257429436E+02  0.16744191589E+02 -0.80994751788E+01  0.26063445278E+02  0.00000000000E+00 0.  1.
</event>
<event>
 5    1  0.1255769E-009  0.9118800E+02  0.7561462E-02  0.1125453E+00
         25   -1    0    0    0    0  0.00000000000E+00  0.00000000000E+00  0.99999998245E-14  0.12509000000E+03  0.12509000000E+03 0.  0.
        -13    1    3    3    0    0 -0.16387221159E+01 -0.57773407289E+02  0.13248964109E+02  0.59295853261E+02  0.10566000000E+00 0.  1.
         23    2    1    0    0    0 -0.98914068952E+01 -0.18846236927E+02  0.14877318807E+02  0.99121650196E+02  0.95659533482E+02 0.  0.
         13    1    3    3    0    0 -0.82526847792E+01  0.38927170362E+02  0.16283546986E+01  0.39825796935E+02  0.10566000000E+00 0. -1.
         22    1    1    0    0    0  0.98914068952E+01  0.18846236927E+02 -0.14877318807E+02  0.25968349804E+02  0.00000000000E+00 0.  1.
</event>
<event>
 5    1  0.1255769E-009  0.9118800E+02  0.7561462E-02  0.1125453E+00
         25   -1    0    0    0    0  0.00000000000E+00  0.00000000000E+00  0.99999998245E-14  0.12509000000E+03  0.12509000000E+03 0.  0.
        -13    1    3    3    0    0 -0.46506990594E+02 -0.99648602072E+01  0.23608410409E+02  0.53099593398E+02  0.10566000000E+00 0.  1.
         23    2    1    0    0    0 -0.13081140997E+02  0.15941994439E+02  0.21285038122E+02  0.95453598661E+02  0.90736283883E+02 0.  0.
         13    1    3    3    0    0  0.33425849597E+02  0.25906854646E+02 -0.23233722864E+01  0.42354005262E+02  0.10566000000E+00 0. -1.
         22    1    1    0    0    0  0.13081140997E+02 -0.15941994439E+02 -0.21285038122E+02  0.29636401339E+02  0.00000000000E+00 0.  1.
</event>
<event>
 5    1  0.1255769E-009  0.9118800E+02  0.7561462E-02  0.1125453E+00
         25   -1    0    0    0    0  0.00000000000E+00  0.00000000000E+00  0.99999998245E-14  0.12509000000E+03  0.12509000000E+03 0.  0.
        -13    1    3    3    0    0  0.30429313515E+02 -0.60889625096E+01  0.25634471702E+02  0.40251160094E+02  0.10566000000E+00 0.  1.
         23    2    1    0    0    0  0.14150105122E+02 -0.21849696850E+01 -0.26479153352E+02  0.94987755404E+02  0.90091778465E+02 0.  0.
         13    1    3    3    0    0 -0.16279208393E+02  0.39039928246E+01 -0.52113625054E+02  0.54736595310E+02  0.10566000000E+00 0. -1.
         22    1    1    0    0    0 -0.14150105122E+02  0.21849696850E+01  0.26479153352E+02  0.30102244596E+02  0.00000000000E+00 0. -1.
</event>
<event>
 5    1  0.1255769E-009  0.9118800E+02  0.7561462E-02  0.1125453E+00
         25   -1    0    0    0    0  0.00000000000E+00  0.00000000000E+00  0.99999998245E-14  0.12509000000E+03  0.12509000000E+03 0.  0.
        -13    1    3    3    0    0 -0.39970366774E+02 -0.34388708629E+02 -0.10091094608E+02  0.53684773034E+02  0.10566000000E+00 0. -1.
         23    2    1    0    0    0 -0.52175705377E+01 -0.18606956046E+02  0.16068648230E+02  0.99957484973E+02  0.96746346135E+02 0.  0.
         13    1    3    3    0    0  0.34752796236E+02  0.15781752583E+02  0.26159742838E+02  0.46272711939E+02  0.10566000000E+00 0.  1.
         22    1    1    0    0    0  0.52175705377E+01  0.18606956046E+02 -0.16068648230E+02  0.25132515027E+02  0.00000000000E+00 0. -1.
</event>
<event>
 5    1  0.1255769E-009  0.9118800E+02  0.7561462E-02  0.1125453E+00
         25   -1    0    0    0    0  0.00000000000E+00  0.00000000000E+00  0.99999998245E-14  0.12509000000E+03  0.12509000000E+03 0.  0.
        -13    1    3    3    0    0  0.45429124318E+02  0.96851612096E+01 -0.26265195034E+02  0.53361777690E+02  0.10566000000E+00 0.  1.
         23    2    1    0    0    0  0.26335503336E+02 -0.51470209292E+01  0.95787280904E+01  0.96597850340E+02  0.92300282221E+02 0.  0.
         13    1    3    3    0    0 -0.19093620982E+02 -0.14832182139E+02  0.35843923125E+02  0.43236072650E+02  0.10566000000E+00 0. -1.
         22    1    1    0    0    0 -0.26335503336E+02  0.51470209292E+01 -0.95787280904E+01  0.28492149660E+02  0.00000000000E+00 0.  1.
</event>
<event>
 5    1  0.1255769E-009  0.9118800E+02  0.7561462E-02  0.1125453E+00
         25   -1    0    0    0    0  0.00000000000E+00  0.00000000000E+00  0.99999998245E-14  0.12509000000E+03  0.12509000000E+03 0.  0.
        -13    1    3    3    0    0  0.24643251559E+02 -0.23006449003E+02  0.39559487982E+01  0.33944767462E+02  0.10566000000E+00 0.  1.
         23    2    1    0    0    0 -0.46958767260E+01  0.28928302162E+02  0.10515903220E+02  0.93953491770E+02  0.88644100035E+02 0.  0.
         13    1    3    3    0    0 -0.29339128285E+02  0.51934751165E+02  0.65599544223E+01  0.60008724308E+02  0.10566000000E+00 0. -1.
         22    1    1    0    0    0  0.46958767260E+01 -0.28928302162E+02 -0.10515903220E+02  0.31136508230E+02  0.00000000000E+00 0. -1.
</event>
<event>
 5    1  0.1255769E-009  0.9118800E+02  0.7561462E-02  0.1125453E+00
         25   -1    0    0    0    0  0.00000000000E+00  0.00000000000E+00  0.99999998245E-14  0.12509000000E+03  0.12509000000E+03 0.  0.
        -13    1    3    3    0    0  0.32710788151E+01  0.38898230098E+02 -0.98158582623E+01  0.40250894386E+02  0.10566000000E+00 0.  1.
         23    2    1    0    0    0  0.24944753189E+02 -0.12638603332E+02 -0.71662660815E+01  0.96222537774E+02  0.91790230419E+02 0.  0.
         13    1    3    3    0    0  0.21673674373E+02 -0.51536833430E+02  0.26495921809E+01  0.55971643388E+02  0.10566000000E+00 0. -1.
         22    1    1    0    0    0 -0.24944753189E+02  0.12638603332E+02  0.71662660815E+01  0.28867462226E+02  0.00000000000E+00 0.  1.
</event>
<event>
 5    1  0.1255769E-009  0.9118800E+02  0.7561462E-02  0.1125453E+00
         25   -1    0    0    0    0  0.00000000000E+00  0.00000000000E+00  0.99999998245E-14  0.12509000000E+03  0.12509000000E+03 0.  0.
        -13    1    3    3    0    0  0.44866220437E+02 -0.17895052141E+02  0.33986284621E+01  0.48422850669E+02  0.10566000000E+00 0.  1.
         23    2    1    0    0    0  0.16761076289E+02  0.72618065497E+01 -0.23917563704E+02  0.94994861418E+02  0.90101644434E+02 0.  0.
         13    1    3    3    0    0 -0.28105144148E+02  0.25156858690E+02 -0.27316192166E+02  0.46572010749E+02  0.10566000000E+00 0. -1.
         22    1    1    0    0    0 -0.16761076289E+02 -0.72618065497E+01  0.23917563704E+02  0.30095138582E+02  0.00000000000E+00 0. -1.
</event>
<event>
 5    1  0.1255769E-009  0.9118800E+02  0.7561462E-02  0.1125453E+00
         25   -1    0    0    0    0  0.00000000000E+00  0.00000000000E+00  0.99999998245E-14  0.12509000000E+03  0.12509000000E+03 0.  0.
        -13    1    3    3    0    0  0.32491653890E+02 -0.33872548824E+02  0.22296403476E+02  0.51963428566E+02  0.10566000000E+00 0.  1.
         23    2    1    0    0    0  0.11020173378E+02  0.32139113470E+01  0.27651470768E+02  0.95150439497E+02  0.90317378469E+02 0.  0.
         13    1    3    3    0    0 -0.21471480512E+02  0.37086460171E+02  0.53550672923E+01  0.43187010931E+02  0.10566000000E+00 0. -1.
         22    1    1    0    0    0 -0.11020173378E+02 -0.32139113470E+01 -0.27651470768E+02  0.29939560503E+02  0.00000000000E+00 0.  1.
</event>
<event>
 5    1  0.1255769E-009  0.9118800E+02  0.7561462E-02  0.1125453E+00
         25   -1    0    0    0    0  0.00000000000E+00  0.00000000000E+00  0.99999998245E-14  0.12509000000E+03  0.12509000000E+03 0.  0.
        -13    1    3    3    0    0  0.63170749196E+01 -0.42052822363E+01  0.61908476386E+02  0.62371952404E+02  0.10566000000E+00 0. -1.
         23    2    1    0    0    0 -0.21513716699E+00 -0.22080702357E+01  0.30231379045E+02  0.94777327120E+02  0.89799129166E+02 0.  0.
         13    1    3    3    0    0 -0.65322120865E+01  0.19972120007E+01 -0.31677097341E+02  0.32405374716E+02  0.10566000000E+00 0.  1.
         22    1    1    0    0    0  0.21513716699E+00  0.22080702357E+01 -0.30231379045E+02  0.30312672880E+02  0.00000000000E+00 0. -1.
</event>
<event>
 5    1  0.1255769E-009  0.9118800E+02  0.7561462E-02  0.1125453E+00
         25   -1    0    0    0    0  0.00000000000E+00  0.00000000000E+00  0.99999998245E-14  0.12509000000E+03  0.12509000000E+03 0.  0.
        -13    1    3    3    0    0 -0.58680606531E+02  0.85055569907E+01 -0.47295331304E+01  0.59482247185E+02  0.10566000000E+00 0.  1.
         23    2    1    0    0    0 -0.25104940152E+02 -0.13969101996E+01 -0.14807877596E+02  0.95909824931E+02  0.91363077341E+02 0.  0.
         13    1    3    3    0    0  0.33575666379E+02 -0.99024671903E+01 -0.10078344466E+02  0.36427577746E+02  0.10566000000E+00 0. -1.
         22    1    1    0    0    0  0.25104940152E+02  0.13969101996E+01  0.14807877596E+02  0.29180175069E+02  0.00000000000E+00 0.  1.
</event>
<event>
 5    1  0.1255769E-009  0.9118800E+02  0.7561462E-02  0.1125453E+00
         25   -1    0    0    0    0  0.00000000000E+00  0.00000000000E+00  0.99999998245E-14  0.12509000000E+03  0.12509000000E+03 0.  0.
        -13    1    3    3    0    0 -0.29502319569E+02 -0.14864310075E+01  0.36487365623E+02  0.46946089840E+02  0.10566000000E+00 0.  1.
         23    2    1    0    0    0 -0.19260812335E+02  0.26318439715E+02  0.19991193253E+01  0.92415305833E+02  0.86446244067E+02 0.  0.
         13    1    3    3    0    0  0.10241507234E+02  0.27804870722E+02 -0.34488246298E+02  0.45469215993E+02  0.10566000000E+00 0. -1.
         22    1    1    0    0    0  0.19260812335E+02 -0.26318439715E+02 -0.19991193253E+01  0.32674694167E+02  0.00000000000E+00 0.  1.
</event>
<event>
 5    1  0.1255769E-009  0.9118800E+02  0.7561462E-02  0.1125453E+00
         25   -1    0    0    0    0  0.00000000000E+00  0.00000000000E+00  0.99999998245E-14  0.12509000000E+03  0.12509000000E+03 0.  0.
        -13    1    3    3    0    0  0.32437275227E+02  0.13689147026E+02  0.28567005233E+02  0.45339326445E+02  0.10566000000E+00 0. -1.
         23    2    1    0    0    0  0.27425674750E+02 -0.85147880621E+01 -0.13643820572E+02  0.93296555848E+02  0.87712167013E+02 0.  0.
         13    1    3    3    0    0 -0.50116004773E+01 -0.22203935088E+02 -0.42210825806E+02  0.47957229403E+02  0.10566000000E+00 0.  1.
         22    1    1    0    0    0 -0.27425674750E+02  0.85147880621E+01  0.13643820572E+02  0.31793444152E+02  0.00000000000E+00 0. -1.
</event>
<event>
 5    1  0.1255769E-009  0.9118800E+02  0.7561462E-02  0.1125453E+00
         25   -1    0    0    0    0  0.00000000000E+00  0.00000000000E+00  0.99999998245E-14  0.12509000000E+03  0.12509000000E+03 0.  0.
        -13    1    3    3    0    0 -0.24680903841E+02 -0.18778998411E+02  0.11506280972E+02  0.33078746373E+02  0.10566000000E+00 0. -1.
         23    2    1    0    0    0  0.26487100822E+02  0.86160732182E+01 -0.10742145130E+02  0.95237078709E+02  0.90437294582E+02 0.  0.
         13    1    3    3    0    0  0.51168004663E+02  0.27395071629E+02 -0.22248426102E+02  0.62158332336E+02  0.10566000000E+00 0.  1.
         22    1    1    0    0    0 -0.26487100822E+02 -0.86160732182E+01  0.10742145130E+02  0.29852921291E+02  0.00000000000E+00 0.  1.
</event>
<event>
 5    1  0.1255769E-009  0.9118800E+02  0.7561462E-02  0.1125453E+00
         25   -1    0    0    0    0  0.00000000000E+00  0.00000000000E+00  0.99999998245E-14  0.12509000000E+03  0.12509000000E+03 0.  0.
        -13    1    3    3    0    0  0.15365399100E+02  0.19806594606E+02  0.32495273880E+02  0.41040841463E+02  0.10566000000E+00 0. -1.
         23    2    1    0    0    0 -0.27822447348E+02  0.48267167722E+00  0.23011447018E+01  0.97168380862E+02  0.93070282174E+02 0.  0.
         13    1    3    3    0    0 -0.43187846448E+02 -0.19323922929E+02 -0.30194129178E+02  0.56127539399E+02  0.10566000000E+00 0.  1.
         22    1    1    0    0    0  0.27822447348E+02 -0.48267167722E+00 -0.23011447018E+01  0.27921619138E+02  0.00000000000E+00 0.  1.
</event>
<event>
 5    1  0.1255769E-009  0.9118800E+02  0.7561462E-02  0.1125453E+00
         25   -1    0    0    0    0  0.00000000000E+00  0.00000000000E+00  0.99999998245E-14  0.12509000000E+03  0.12509000000E+03 0.  0.
        -13    1    3    3    0    0 -0.66000013225E+01 -0.42170590202E+02 -0.17545333888E+01  0.42720115249E+02  0.10566000000E+00 0.  1.
         23    2    1    0    0    0  0.70831917912E+01 -0.89611113187E-01 -0.29368475430E+02  0.94879290223E+02  0.89941051406E+02 0.  0.
         13    1    3    3    0    0  0.13683193114E+02  0.42080979089E+02 -0.27613942042E+02  0.52159174974E+02  0.10566000000E+00 0. -1.
         22    1    1    0    0    0 -0.70831917912E+01  0.89611113187E-01  0.29368475430E+02  0.30210709777E+02  0.00000000000E+00 0. -1.
</event>
<event>
 5    1  0.1255769E-009  0.9118800E+02  0.7561462E-02  0.1125453E+00
         25   -1    0    0    0    0  0.00000000000E+00  0.00000000000E+00  0.99999998245E-14  0.12509000000E+03  0.12509000000E+03 0.  0.
        -13    1    3    3    0    0  0.98234986926E+01 -0.68289097102E+01 -0.49465608883E+02  0.50891971475E+02  0.10566000000E+00 0.  1.
         23    2    1    0    0    0  0.19333770428E+02  0.10463395916E+02 -0.11573140360E+01  0.10307598835E+03  0.10069777885E+03 0.  0.
         13    1    3    3    0    0  0.95102717358E+01  0.17292305626E+02  0.48308294847E+02  0.52184016877E+02  0.10566000000E+00 0. -1.
         22    1    1    0    0    0 -0.19333770428E+02 -0.10463395916E+02  0.11573140360E+01  0.22014011648E+02  0.00000000000E+00 0. -1.
</event>
<event>
 5    1  0.1255769E-009  0.9118800E+02  0.7561462E-02  0.1125453E+00
         25   -1    0    0    0    0  0.00000000000E+00  0.00000000000E+00  0.99999998245E-14  0.12509000000E+03  0.12509000000E+03 0.  0.
        -13    1    3    3    0    0 -0.57816747440E+01  0.32272749117E+02 -0.29989088535E+02  0.44433261118E+02  0.10566000000E+00 0.  1.
         23    2    1    0    0    0 -0.57917768939E+01  0.20797671063E+02  0.19962522635E+02  0.95686086805E+02  0.91056230412E+02 0.  0.
         13    1    3    3    0    0 -0.10102149889E-01 -0.11475078054E+02  0.49951611170E+02  0.51252825687E+02  0.10566000000E+00 0. -1.
         22    1    1    0    0    0  0.57917768939E+01 -0.20797671063E+02 -0.19962522635E+02  0.29403913195E+02  0.00000000000E+00 0.  1.
</event>
<event>
 5    1  0.1255769E-009  0.9118800E+02  0.7561462E-02  0.1125453E+00
         25   -1    0    0    0    0  0.00000000000E+00  0.00000000000E+00  0.99999998245E-14  0.12509000000E+03  0.12509000000E+03 0.  0.
        -13    1    3    3    0    0 -0.26797520880E+02  0.15803296864E+02  0.21735229237E+02  0.37951056258E+02  0.10566000000E+00 0. -1.
         23    2    1    0    0    0  0.16129384310E+01 -0.30085421088E+02  0.11235759882E+02  0.92934496077E+02  0.87194289541E+02 0.  0.
         13    1    3    3    0    0  0.28410459311E+02 -0.45888717952E+02 -0.10499469355E+02  0.54983439819E+02  0.10566000000E+00 0.  1.
         22    1    1    0    0    0 -0.16129384310E+01  0.30085421088E+02 -0.11235759882E+02  0.32155503923E+02  0.00000000000E+00 0.  1.
</event>
<event>
 5    1  0.1255769E-009  0.9118800E+02  0.7561462E-02  0.1125453E+00
         25   -1    0    0    0    0  0.00000000000E+00  0.00000000000E+00  0.99999998245E-14  0.12509000000E+03  0.12509000000E+03 0.  0.
        -13    1    3    3    0    0  0.22819671957E+02 -0.26701238544E+01 -0.93276014792E+01  0.24796820422E+02  0.10566000000E+00 0. -1.
         23    2    1    0    0    0 -0.31846377790E+02  0.20479724951E+02  0.74780279989E+01  0.86495546834E+02  0.77407672791E+02 0.  0.
         13    1    3    3    0    0 -0.54666049748E+02  0.23149848805E+02  0.16805629478E+02  0.61698726412E+02  0.10566000000E+00 0.  1.
         22    1    1    0    0    0  0.31846377790E+02 -0.20479724951E+02 -0.74780279989E+01  0.38594453166E+02  0.00000000000E+00 0.  1.
</event>
<event>
 5    1  0.1255769E-009  0.9118800E+02  0.7561462E-02  0.1125453E+00
         25   -1    0    0    0    0  0.00000000000E+00  0.00000000000E+00  0.99999998245E-14  0.12509000000E+03  0.12509000000E+03 0.  0.
        -13    1    3    3    0    0  0.66939368025E+01  0.27723641703E+02 -0.52654946604E+02  0.59882916304E+02  0.10566000000E+00 0. -1.
         23    2    1    0    0    0  0.14214412926E+02  0.62640936817E+01 -0.24601872168E+02  0.95994630632E+02  0.91479115603E+02 0.  0.
         13    1    3    3    0    0  0.75204761239E+01 -0.21459548021E+02  0.28053074435E+02  0.36111714328E+02  0.10566000000E+00 0.  1.
         22    1    1    0    0    0 -0.14214412926E+02 -0.62640936817E+01  0.24601872168E+02  0.29095369368E+02  0.00000000000E+00 0. -1.
</event>
<event>
 5    1  0.1255769E-009  0.9118800E+02  0.7561462E-02  0.1125453E+00
         25   -1    0    0    0    0  0.00000000000E+00  0.00000000000E+00  0.99999998245E-14  0.12509000000E+03  0.12509000000E+03 0.  0.
        -13    1    3    3    0    0  0.80391157073E+01 -0.26598178118E+02  0.26517542446E+02  0.38409395751E+02  0.10566000000E+00 0.  1.
         23    2    1    0    0    0  0.15369841989E+02  0.61249734573E+01 -0.22107541443E+02  0.97476765288E+02  0.93483843736E+02 0.  0.
         13    1    3    3    0    0  0.73307262820E+01  0.32723151575E+02 -0.48625083889E+02  0.59067369537E+02  0.10566000000E+00 0. -1.
         22    1    1    0    0    0 -0.15369841989E+02 -0.61249734573E+01  0.22107541443E+02  0.27613234712E+02  0.00000000000E+00 0. -1.
</event>
<event>
 5    1  0.1255769E-009  0.9118800E+02  0.7561462E-02  0.1125453E+00
         25   -1    0    0    0    0  0.00000000000E+00  0.00000000000E+00  0.99999998245E-14  0.12509000000E+03  0.12509000000E+03 0.  0.
        -13    1    3    3    0    0 -0.35679421243E+02  0.86032389141E+01 -0.18857946592E+02  0.41263423680E+02  0.10566000000E+00 0. -1.
         23    2    1    0    0    0  0.18934265196E+02  0.23827881983E+01 -0.21560798812E+02  0.96296734754E+02  0.91891289036E+02 0.  0.
         13    1    3    3    0    0  0.54613686440E+02 -0.62204507158E+01 -0.27028522196E+01  0.55033311074E+02  0.10566000000E+00 0.  1.
         22    1    1    0    0    0 -0.18934265196E+02 -0.23827881983E+01  0.21560798812E+02  0.28793265246E+02  0.00000000000E+00 0.  1.
</event>
<event>
 5    1  0.1255769E-009  0.9118800E+02  0.7561462E-02  0.1125453E+00
         25   -1    0    0    0    0  0.00000000000E+00  0.00000000000E+00  0.99999998245E-14  0.12509000000E+03  0.12509000000E+03 0.  0.
        -13    1    3    3    0    0 -0.19644462201E+02 -0.42642124154E+02  0.37407569494E+02  0.60029934758E+02  0.10566000000E+00 0.  1.
         23    2    1    0    0    0  0.16380706782E+01 -0.25755680652E+02  0.15051204994E+02  0.95213970593E+02  0.90405326518E+02 0.  0.
         13    1    3    3    0    0  0.21282532879E+02  0.16886443503E+02 -0.22356364500E+02  0.35184035835E+02  0.10566000000E+00 0. -1.
         22    1    1    0    0    0 -0.16380706782E+01  0.25755680652E+02 -0.15051204994E+02  0.29876029407E+02  0.00000000000E+00 0.  1.
</event>
<event>
 5    1  0.1255769E-009  0.9118800E+02  0.7561462E-02  0.1125453E+00
         25   -1    0    0    0    0  0.00000000000E+00  0.00000000000E+00  0.99999998245E-14  0.12509000000E+03  0.12509000000E+03 0.  0.
        -13    1    3    3    0    0  0.47408739314E+02  0.53717143216E+01 -0.78995522444E+01  0.48361740744E+02  0.10566000000E+00 0.  1.
         23    2    1    0    0    0  0.91734166279E+01  0.24382512499E+02  0.13081784638E+02  0.95938815158E+02  0.91402760769E+02 0.  0.
         13    1    3    3    0    0 -0.38235322687E+02  0.19010798178E+02  0.20981336883E+02  0.47577074413E+02  0.10566000000E+00 0. -1.
         22    1    1    0    0    0 -0.91734166279E+01 -0.24382512499E+02 -0.13081784638E+02  0.29151184842E+02  0.00000000000E+00 0.  1.
</event>
<event>
 5    1  0.1255769E-009  0.9118800E+02  0.7561462E-02  0.1125453E+00
         25   -1    0    0    0    0  0.00000000000E+00  0.00000000000E+00  0.99999998245E-14  0.12509000000E+03  0.12509000000E+03 0.  0.
        -13    1    3    3    0    0  0.13842864993E+02 -0.54077390317E+02 -0.64745728681E+01  0.56195376256E+02  0.10566000000E+00 0. -1.
         23    2    1    0    0    0 -0.88766724290E+01 -0.20837226440E+02 -0.15737538590E+02  0.97510017404E+02  0.93528327549E+02 0.  0.
         13    1    3    3    0    0 -0.22719537422E+02  0.33240163877E+02 -0.92629657218E+01  0.41314641148E+02  0.10566000000E+00 0.  1.
         22    1    1    0    0    0  0.88766724290E+01  0.20837226440E+02  0.15737538590E+02  0.27579982596E+02  0.00000000000E+00 0. -1.
</event>
<event>
 5    1  0.1255769E-009  0.9118800E+02  0.7561462E-02  0.1125453E+00
         25   -1    0    0    0    0  0.00000000000E+00  0.00000000000E+00  0.99999998245E-14  0.12509000000E+03  0.12509000000E+03 0.  0.
        -13    1    3    3    0    0 -0.38831800190E+02  0.83874432268E+01  0.49480796106E+01  0.40034392287E+02  0.10566000000E+00 0. -1.
         23    2    1    0    0    0  0.10872767101E+02  0.17758802619E+02 -0.19810220165E+02  0.96349141316E+02  0.91962601499E+02 0.  0.
         13    1    3    3    0    0  0.49704567291E+02  0.93713593920E+01 -0.24758299776E+02  0.56314749030E+02  0.10566000000E+00 0.  1.
         22    1    1    0    0    0 -0.10872767101E+02 -0.17758802619E+02  0.19810220165E+02  0.28740858684E+02  0.00000000000E+00 0.  1.
</event>
<event>
 5    1  0.1255769E-009  0.9118800E+02  0.7561462E-02  0.1125453E+00
         25   -1    0    0    0    0  0.00000000000E+00  0.00000000000E+00  0.99999998245E-14  0.12509000000E+03  0.12509000000E+03 0.  0.
        -13    1    3    3    0    0  0.36972011015E+02 -0.73118580654E+01  0.10565014480E+01  0.37703053274E+02  0.10566000000E+00 0.  1.
         23    2    1    0    0    0 -0.13533878999E+02  0.75068380603E+01  0.25125738141E+02  0.95580319968E+02  0.90910815362E+02 0.  0.
         13    1    3    3    0    0 -0.50505890014E+02  0.14818696126E+02  0.24069236693E+02  0.57877266694E+02  0.10566000000E+00 0. -1.
         22    1    1    0    0    0  0.13533878999E+02 -0.75068380603E+01 -0.25125738141E+02  0.29509680032E+02  0.00000000000E+00 0. -1.
</event>
<event>
 5    1  0.1255769E-009  0.9118800E+02  0.7561462E-02  0.1125453E+00
         25   -1    0    0    0    0  0.00000000000E+00  0.00000000000E+00  0.99999998245E-14  0.12509000000E+03  0.12509000000E+03 0.  0.
        -13    1    3    3    0    0  0.35374660950E+02 -0.27155589813E+01  0.48403812927E+02  0.60014008097E+02  0.10566000000E+00 0. -1.
         23    2    1    0    0    0  0.15534605123E+02  0.11296029662E+02  0.21422978180E+02  0.96317300499E+02  0.91919280561E+02 0.  0.
         13    1    3    3    0    0 -0.19840055827E+02  0.14011588644E+02 -0.26980834747E+02  0.36303292402E+02  0.10566000000E+00 0.  1.
         22    1    1    0    0    0 -0.15534605123E+02 -0.11296029662E+02 -0.21422978180E+02  0.28772699501E+02  0.00000000000E+00 0. -1.
</event>
<event>
 5    1  0.1255769E-009  0.9118800E+02  0.7561462E-02  0.1125453E+00
         25   -1    0    0    0    0  0.00000000000E+00  0.00000000000E+00  0.99999998245E-14  0.12509000000E+03  0.12509000000E+03 0.  0.
        -13    1    3    3    0    0  0.44474319455E+02 -0.25637647671E+01  0.35568112773E+02  0.57005611925E+02  0.10566000000E+00 0.  1.
         23    2    1    0    0    0  0.28039538377E+02 -0.85499182897E+01  0.98630281240E+00  0.95759306036E+02  0.91156761044E+02 0.  0.
         13    1    3    3    0    0 -0.16434781077E+02 -0.59861535226E+01 -0.34581809960E+02  0.38753694111E+02  0.10566000000E+00 0. -1.
         22    1    1    0    0    0 -0.28039538377E+02  0.85499182897E+01 -0.98630281240E+00  0.29330693964E+02  0.00000000000E+00 0.  1.
</event>
<event>
 5    1  0.1255769E-009  0.9118800E+02  0.7561462E-02  0.1125453E+00
         25   -1    0    0    0    0  0.00000000000E+00  0.00000000000E+00  0.99999998245E-14  0.12509000000E+03  0.12509000000E+03 0.  0.
        -13    1    3    3    0    0  0.43965186459E+01 -0.36414651763E+02  0.31237805888E+02  0.48178500599E+02  0.10566000000E+00 0. -1.
         23    2    1    0    0    0  0.14046450176E+02  0.95730831897E+01  0.23936580016E+02  0.95731755039E+02  0.91118946305E+02 0.  0.
         13    1    3    3    0    0  0.96499315303E+01  0.45987734953E+02 -0.73012258725E+01  0.47553254440E+02  0.10566000000E+00 0.  1.
         22    1    1    0    0    0 -0.14046450176E+02 -0.95730831897E+01 -0.23936580016E+02  0.29358244961E+02  0.00000000000E+00 0. -1.
</event>
<event>
 5    1  0.1255769E-009  0.9118800E+02  0.7561462E-02  0.1125453E+00
         25   -1    0    0    0    0  0.00000000000E+00  0.00000000000E+00  0.99999998245E-14  0.12509000000E+03  0.12509000000E+03 0.  0.
        -13    1    3    3    0    0 -0.12948979699E+01  0.39549651672E+02  0.66020159934E+00  0.39576492244E+02  0.10566000000E+00 0.  1.
         23    2    1    0    0    0 -0.46280199844E+01 -0.83420508801E+01 -0.28014420500E+02  0.95495809053E+02  0.90794456928E+02 0.  0.
         13    1    3    3    0    0 -0.33331220144E+01 -0.47891702552E+02 -0.28674622100E+02  0.55919316809E+02  0.10566000000E+00 0. -1.
         22    1    1    0    0    0  0.46280199844E+01  0.83420508801E+01  0.28014420500E+02  0.29594190947E+02  0.00000000000E+00 0. -1.
</event>
<event>
 5    1  0.1255769E-009  0.9118800E+02  0.7561462E-02  0.1125453E+00
         25   -1    0    0    0    0  0.00000000000E+00  0.00000000000E+00  0.99999998245E-14  0.12509000000E+03  0.12509000000E+03 0.  0.
        -13    1    3    3    0    0 -0.21719693715E+02  0.45860611098E+01  0.27153024736E+02  0.35072424609E+02  0.10566000000E+00 0.  1.
         23    2    1    0    0    0  0.60083035306E+01  0.16676777575E+02 -0.24451384841E+02  0.94889257588E+02  0.89954912947E+02 0.  0.
         13    1    3    3    0    0  0.27727997245E+02  0.12090716466E+02 -0.51604409577E+02  0.59816832979E+02  0.10566000000E+00 0. -1.
         22    1    1    0    0    0 -0.60083035306E+01 -0.16676777575E+02  0.24451384841E+02  0.30200742412E+02  0.00000000000E+00 0. -1.
</event>
<event>
 5    1  0.1255769E-009  0.9118800E+02  0.7561462E-02  0.1125453E+00
         25   -1    0    0    0    0  0.00000000000E+00  0.00000000000E+00  0.99999998245E-14  0.12509000000E+03  0.12509000000E+03 0.  0.
        -13    1    3    3    0    0  0.31440252432E+02 -0.23558502261E+02 -0.17548458889E+02  0.43028503055E+02  0.10566000000E+00 0. -1.
         23    2    1    0    0    0  0.28293240410E+02  0.30648326652E+01  0.20815338505E+02  0.89831256839E+02  0.82622489287E+02 0.  0.
         13    1    3    3    0    0 -0.31470120212E+01  0.26623334926E+02  0.38363797394E+02  0.46802753784E+02  0.10566000000E+00 0.  1.
         22    1    1    0    0    0 -0.28293240410E+02 -0.30648326652E+01 -0.20815338505E+02  0.35258743161E+02  0.00000000000E+00 0.  1.
</event>
<event>
 5    1  0.1255769E-009  0.9118800E+02  0.7561462E-02  0.1125453E+00
         25   -1    0    0    0    0  0.00000000000E+00  0.00000000000E+00  0.99999998245E-14  0.12509000000E+03  0.12509000000E+03 0.  0.
        -13    1    3    3    0    0 -0.36620412271E+02 -0.24588219136E+02 -0.38218276067E+02  0.58363369546E+02  0.10566000000E+00 0.  1.
         23    2    1    0    0    0 -0.21214717066E+02  0.40767262724E+01 -0.19957607947E+02  0.95679287118E+02  0.91046888751E+02 0.  0.
         13    1    3    3    0    0  0.15405695205E+02  0.28664945408E+02  0.18260668121E+02  0.37315917572E+02  0.10566000000E+00 0. -1.
         22    1    1    0    0    0  0.21214717066E+02 -0.40767262724E+01  0.19957607947E+02  0.29410712882E+02  0.00000000000E+00 0.  1.
</event>
