<event>
 5    1  0.8900327E-005  0.9118800E+02  0.7818608E-02  0.1130116E+00
         25   -1    0    0    0    0  0.00000000000E+00  0.00000000000E+00  0.99999998245E-14  0.12500000000E+03  0.12500000000E+03 0.  0.
        -11    1    3    3    0    0 -0.21245588684E+02 -0.36453653155E+02  0.10135297871E+02  0.43393180686E+02  0.51100000000E-03 0. -1.
         23    2    1    0    0    0 -0.12866657401E+02  0.14219546649E+02  0.21700468379E+02  0.96040429778E+02  0.91570232306E+02 0.  0.
         11    1    3    3    0    0  0.83789312839E+01  0.50673199804E+02  0.11565170507E+02  0.52647249092E+02  0.51100000000E-03 0.  1.
         22    1    1    0    0    0  0.12866657401E+02 -0.14219546649E+02 -0.21700468379E+02  0.28959570222E+02  0.00000000000E+00 0.  1.
</event>
<event>
 5    1  0.8900327E-005  0.9118800E+02  0.7818608E-02  0.1130116E+00
         25   -1    0    0    0    0  0.00000000000E+00  0.00000000000E+00  0.99999998245E-14  0.12500000000E+03  0.12500000000E+03 0.  0.
        -11    1    3    3    0    0  0.28314704823E+02 -0.21650137135E+02 -0.14287588697E+02  0.38400340340E+02  0.51100000000E-03 0.  1.
         23    2    1    0    0    0  0.12082187590E+02  0.20952577926E+02  0.18494047548E+02  0.94553003869E+02  0.89516763610E+02 0.  0.
         11    1    3    3    0    0 -0.16232517233E+02  0.42602715060E+02  0.32781636245E+02  0.56152663529E+02  0.51100000000E-03 0. -1.
         22    1    1    0    0    0 -0.12082187590E+02 -0.20952577926E+02 -0.18494047548E+02  0.30446996131E+02  0.00000000000E+00 0. -1.
</event>
<event>
 5    1  0.8900327E-005  0.9118800E+02  0.7818608E-02  0.1130116E+00
         25   -1    0    0    0    0  0.00000000000E+00  0.00000000000E+00  0.99999998245E-14  0.12500000000E+03  0.12500000000E+03 0.  0.
        -11    1    3    3    0    0 -0.23598797000E+02  0.57018766183E+02  0.40213325068E+00  0.61710652470E+02  0.51100000000E-03 0.  1.
         23    2    1    0    0    0 -0.52228428540E+01  0.29170642344E+02  0.32047057096E+01  0.95192708931E+02  0.90405626112E+02 0.  0.
         11    1    3    3    0    0  0.18375954146E+02 -0.27848123839E+02  0.28025724589E+01  0.33482056460E+02  0.51100000000E-03 0. -1.
         22    1    1    0    0    0  0.52228428540E+01 -0.29170642344E+02 -0.32047057096E+01  0.29807291069E+02  0.00000000000E+00 0.  1.
</event>
<event>
 5    1  0.8900327E-005  0.9118800E+02  0.7818608E-02  0.1130116E+00
         25   -1    0    0    0    0  0.00000000000E+00  0.00000000000E+00  0.99999998245E-14  0.12500000000E+03  0.12500000000E+03 0.  0.
        -11    1    3    3    0    0 -0.10270453909E+02  0.49677001007E+02  0.12289760463E+02  0.52195065524E+02  0.51100000000E-03 0. -1.
         23    2    1    0    0    0 -0.17889508248E+02  0.16348154946E+02 -0.15482497206E+02  0.96242315893E+02  0.91845408014E+02 0.  0.
         11    1    3    3    0    0 -0.76190543386E+01 -0.33328846061E+02 -0.27772257669E+02  0.44047250369E+02  0.51100000000E-03 0.  1.
         22    1    1    0    0    0  0.17889508248E+02 -0.16348154946E+02  0.15482497206E+02  0.28757684107E+02  0.00000000000E+00 0.  1.
</event>
<event>
 5    1  0.8900327E-005  0.9118800E+02  0.7818608E-02  0.1130116E+00
         25   -1    0    0    0    0  0.00000000000E+00  0.00000000000E+00  0.99999998245E-14  0.12500000000E+03  0.12500000000E+03 0.  0.
        -11    1    3    3    0    0  0.29020799411E+01 -0.37599492905E+02  0.12824958672E+02  0.39832442806E+02  0.51100000000E-03 0.  1.
         23    2    1    0    0    0  0.18084239374E+02  0.72364662250E+01 -0.19723556506E+02  0.97279523121E+02  0.93246344594E+02 0.  0.
         11    1    3    3    0    0  0.15182159432E+02  0.44835959130E+02 -0.32548515178E+02  0.57447080315E+02  0.51100000000E-03 0. -1.
         22    1    1    0    0    0 -0.18084239374E+02 -0.72364662250E+01  0.19723556506E+02  0.27720476879E+02  0.00000000000E+00 0. -1.
</event>
<event>
 5    1  0.8900327E-005  0.9118800E+02  0.7818608E-02  0.1130116E+00
         25   -1    0    0    0    0  0.00000000000E+00  0.00000000000E+00  0.99999998245E-14  0.12500000000E+03  0.12500000000E+03 0.  0.
        -11    1    3    3    0    0 -0.55058563926E+02 -0.13679607215E+02 -0.12269503320E+02  0.58044102432E+02  0.51100000000E-03 0.  1.
         23    2    1    0    0    0 -0.29134848892E+02  0.48858593902E+01  0.60888260927E+01  0.94837360110E+02  0.89912958063E+02 0.  0.
         11    1    3    3    0    0  0.25923715035E+02  0.18565466606E+02  0.18358329413E+02  0.36793257678E+02  0.51100000000E-03 0. -1.
         22    1    1    0    0    0  0.29134848892E+02 -0.48858593902E+01 -0.60888260927E+01  0.30162639890E+02  0.00000000000E+00 0.  1.
</event>
<event>
 5    1  0.8900327E-005  0.9118800E+02  0.7818608E-02  0.1130116E+00
         25   -1    0    0    0    0  0.00000000000E+00  0.00000000000E+00  0.99999998245E-14  0.12500000000E+03  0.12500000000E+03 0.  0.
        -11    1    3    3    0    0 -0.44144187096E+02  0.92951696654E+01 -0.48000229819E+01  0.45366834300E+02  0.51100000000E-03 0.  1.
         23    2    1    0    0    0 -0.77159480445E+01 -0.11466161482E+02  0.24743161422E+02  0.96658638873E+02  0.92410279289E+02 0.  0.
         11    1    3    3    0    0  0.36428239052E+02 -0.20761331147E+02  0.29543184404E+02  0.51291804573E+02  0.51100000000E-03 0. -1.
         22    1    1    0    0    0  0.77159480445E+01  0.11466161482E+02 -0.24743161422E+02  0.28341361127E+02  0.00000000000E+00 0. -1.
</event>
<event>
 5    1  0.8900327E-005  0.9118800E+02  0.7818608E-02  0.1130116E+00
         25   -1    0    0    0    0  0.00000000000E+00  0.00000000000E+00  0.99999998245E-14  0.12500000000E+03  0.12500000000E+03 0.  0.
        -11    1    3    3    0    0 -0.34568716491E+02 -0.15439818180E+02 -0.25489218190E+02  0.45640819333E+02  0.51100000000E-03 0. -1.
         23    2    1    0    0    0  0.12357292083E+02 -0.22801290798E+02 -0.10859263739E+01  0.99042712665E+02  0.95580741608E+02 0.  0.
         11    1    3    3    0    0  0.46926008574E+02 -0.73614726182E+01  0.24403291816E+02  0.53401893332E+02  0.51100000000E-03 0.  1.
         22    1    1    0    0    0 -0.12357292083E+02  0.22801290798E+02  0.10859263739E+01  0.25957287335E+02  0.00000000000E+00 0.  1.
</event>
<event>
 5    1  0.8900327E-005  0.9118800E+02  0.7818608E-02  0.1130116E+00
         25   -1    0    0    0    0  0.00000000000E+00  0.00000000000E+00  0.99999998245E-14  0.12500000000E+03  0.12500000000E+03 0.  0.
        -11    1    3    3    0    0  0.37831526112E+01 -0.46685191228E+02 -0.40556083801E+02  0.61956559437E+02  0.51100000000E-03 0. -1.
         23    2    1    0    0    0  0.43316808294E+01 -0.22887986045E+02 -0.13174358772E+02  0.98238327910E+02  0.94522917737E+02 0.  0.
         11    1    3    3    0    0  0.54852821822E+00  0.23797205184E+02  0.27381725029E+02  0.36281768473E+02  0.51100000000E-03 0.  1.
         22    1    1    0    0    0 -0.43316808294E+01  0.22887986045E+02  0.13174358772E+02  0.26761672090E+02  0.00000000000E+00 0. -1.
</event>
<event>
 5    1  0.8900327E-005  0.9118800E+02  0.7818608E-02  0.1130116E+00
         25   -1    0    0    0    0  0.00000000000E+00  0.00000000000E+00  0.99999998245E-14  0.12500000000E+03  0.12500000000E+03 0.  0.
        -11    1    3    3    0    0  0.41920690914E+02 -0.12828100148E+02 -0.25211047312E+02  0.50571744946E+02  0.51100000000E-03 0.  1.
         23    2    1    0    0    0  0.95184795016E+01  0.16099256336E+02 -0.24709232464E+02  0.94010749032E+02  0.88756336439E+02 0.  0.
         11    1    3    3    0    0 -0.32402211412E+02  0.28927356484E+02  0.50181484862E+00  0.43439004086E+02  0.51100000000E-03 0. -1.
         22    1    1    0    0    0 -0.95184795016E+01 -0.16099256336E+02  0.24709232464E+02  0.30989250968E+02  0.00000000000E+00 0. -1.
</event>
<event>
 5    1  0.8900327E-005  0.9118800E+02  0.7818608E-02  0.1130116E+00
         25   -1    0    0    0    0  0.00000000000E+00  0.00000000000E+00  0.99999998245E-14  0.12500000000E+03  0.12500000000E+03 0.  0.
        -11    1    3    3    0    0 -0.42408293615E+02 -0.41764829020E+01  0.34702504259E+01  0.42754520404E+02  0.51100000000E-03 0.  1.
         23    2    1    0    0    0  0.49287999605E+01 -0.24406376507E+02  0.15566727999E+02  0.95635271092E+02  0.91015480953E+02 0.  0.
         11    1    3    3    0    0  0.47337093575E+02 -0.20229893605E+02  0.12096477573E+02  0.52880750688E+02  0.51100000000E-03 0. -1.
         22    1    1    0    0    0 -0.49287999605E+01  0.24406376507E+02 -0.15566727999E+02  0.29364728908E+02  0.00000000000E+00 0.  1.
</event>
<event>
 5    1  0.8900327E-005  0.9118800E+02  0.7818608E-02  0.1130116E+00
         25   -1    0    0    0    0  0.00000000000E+00  0.00000000000E+00  0.99999998245E-14  0.12500000000E+03  0.12500000000E+03 0.  0.
        -11    1    3    3    0    0 -0.98842537108E+01 -0.59816061044E+01  0.39295776033E+02  0.40958956253E+02  0.51100000000E-03 0.  1.
         23    2    1    0    0    0 -0.18173613828E+02  0.22929361444E+02 -0.58083457252E+01  0.95170941418E+02  0.90375524090E+02 0.  0.
         11    1    3    3    0    0 -0.82893601173E+01  0.28910967548E+02 -0.45104121758E+02  0.54211985166E+02  0.51100000000E-03 0. -1.
         22    1    1    0    0    0  0.18173613828E+02 -0.22929361444E+02  0.58083457252E+01  0.29829058582E+02  0.00000000000E+00 0. -1.
</event>
<event>
 5    1  0.8900327E-005  0.9118800E+02  0.7818608E-02  0.1130116E+00
         25   -1    0    0    0    0  0.00000000000E+00  0.00000000000E+00  0.99999998245E-14  0.12500000000E+03  0.12500000000E+03 0.  0.
        -11    1    3    3    0    0 -0.38782655236E+02  0.33269343253E+02  0.30877392729E+02  0.59702235550E+02  0.51100000000E-03 0.  1.
         23    2    1    0    0    0 -0.25237033373E+02  0.44275633675E+01  0.12423433698E+02  0.96524521502E+02  0.92228685210E+02 0.  0.
         11    1    3    3    0    0  0.13545621863E+02 -0.28841779885E+02 -0.18453959031E+02  0.36822285953E+02  0.51100000000E-03 0. -1.
         22    1    1    0    0    0  0.25237033373E+02 -0.44275633675E+01 -0.12423433698E+02  0.28475478498E+02  0.00000000000E+00 0.  1.
</event>
<event>
 5    1  0.8900327E-005  0.9118800E+02  0.7818608E-02  0.1130116E+00
         25   -1    0    0    0    0  0.00000000000E+00  0.00000000000E+00  0.99999998245E-14  0.12500000000E+03  0.12500000000E+03 0.  0.
        -11    1    3    3    0    0 -0.82132833017E+01  0.14416293750E+02 -0.43801045837E+02  0.46838223330E+02  0.51100000000E-03 0.  1.
         23    2    1    0    0    0  0.14457646713E+02 -0.19294896959E+02 -0.16359299540E+02  0.95863368785E+02  0.91328211393E+02 0.  0.
         11    1    3    3    0    0  0.22670930015E+02 -0.33711190709E+02  0.27441746297E+02  0.49025145455E+02  0.51100000000E-03 0. -1.
         22    1    1    0    0    0 -0.14457646713E+02  0.19294896959E+02  0.16359299540E+02  0.29136631215E+02  0.00000000000E+00 0.  1.
</event>
<event>
 5    1  0.8900327E-005  0.9118800E+02  0.7818608E-02  0.1130116E+00
         25   -1    0    0    0    0  0.00000000000E+00  0.00000000000E+00  0.99999998245E-14  0.12500000000E+03  0.12500000000E+03 0.  0.
        -11    1    3    3    0    0  0.52731615598E+00  0.13229708742E+02 -0.35429263217E+02  0.37822426523E+02  0.51100000000E-03 0. -1.
         23    2    1    0    0    0  0.24693435735E+02  0.46262652684E+01  0.15944499888E+02  0.95244409342E+02  0.90477081824E+02 0.  0.
         11    1    3    3    0    0  0.24166119579E+02 -0.86034434734E+01  0.51373763104E+02  0.57421982819E+02  0.51100000000E-03 0.  1.
         22    1    1    0    0    0 -0.24693435735E+02 -0.46262652684E+01 -0.15944499888E+02  0.29755590658E+02  0.00000000000E+00 0.  1.
</event>
<event>
 5    1  0.8900327E-005  0.9118800E+02  0.7818608E-02  0.1130116E+00
         25   -1    0    0    0    0  0.00000000000E+00  0.00000000000E+00  0.99999998245E-14  0.12500000000E+03  0.12500000000E+03 0.  0.
        -11    1    3    3    0    0 -0.41028522606E+02 -0.36419155393E+02 -0.17139088669E+02  0.57475585316E+02  0.51100000000E-03 0.  1.
         23    2    1    0    0    0 -0.17237982068E+02 -0.66849550595E+01 -0.22441423159E+02  0.95923306183E+02  0.91410210293E+02 0.  0.
         11    1    3    3    0    0  0.23790540539E+02  0.29734200333E+02 -0.53023344897E+01  0.38447720867E+02  0.51100000000E-03 0. -1.
         22    1    1    0    0    0  0.17237982068E+02  0.66849550595E+01  0.22441423159E+02  0.29076693817E+02  0.00000000000E+00 0. -1.
</event>
<event>
 5    1  0.8900327E-005  0.9118800E+02  0.7818608E-02  0.1130116E+00
         25   -1    0    0    0    0  0.00000000000E+00  0.00000000000E+00  0.99999998245E-14  0.12500000000E+03  0.12500000000E+03 0.  0.
        -11    1    3    3    0    0 -0.71469435423E+01 -0.10189095587E+02 -0.60940659242E+02  0.62198556414E+02  0.51100000000E-03 0.  1.
         23    2    1    0    0    0 -0.28389384652E+01 -0.90492440299E+00 -0.31338677296E+02  0.93519988017E+02  0.88062460812E+02 0.  0.
         11    1    3    3    0    0  0.43080050772E+01  0.92841711840E+01  0.29601981946E+02  0.31321431603E+02  0.51100000000E-03 0. -1.
         22    1    1    0    0    0  0.28389384652E+01  0.90492440299E+00  0.31338677296E+02  0.31480011983E+02  0.00000000000E+00 0.  1.
</event>
<event>
 5    1  0.8900327E-005  0.9118800E+02  0.7818608E-02  0.1130116E+00
         25   -1    0    0    0    0  0.00000000000E+00  0.00000000000E+00  0.99999998245E-14  0.12500000000E+03  0.12500000000E+03 0.  0.
        -11    1    3    3    0    0  0.10071213126E+02  0.38121467051E+01 -0.60569001077E+02  0.61518823852E+02  0.51100000000E-03 0.  1.
         23    2    1    0    0    0  0.55666071131E+01 -0.59836069335E+01 -0.28469761138E+02  0.95380446223E+02  0.90664830864E+02 0.  0.
         11    1    3    3    0    0 -0.45046060130E+01 -0.97957536386E+01  0.32099239939E+02  0.33861622371E+02  0.51100000000E-03 0. -1.
         22    1    1    0    0    0 -0.55666071131E+01  0.59836069335E+01  0.28469761138E+02  0.29619553777E+02  0.00000000000E+00 0.  1.
</event>
<event>
 5    1  0.8900327E-005  0.9118800E+02  0.7818608E-02  0.1130116E+00
         25   -1    0    0    0    0  0.00000000000E+00  0.00000000000E+00  0.99999998245E-14  0.12500000000E+03  0.12500000000E+03 0.  0.
        -11    1    3    3    0    0 -0.34137383201E+02  0.18802904330E+01  0.59915583450E+01  0.34710159832E+02  0.51100000000E-03 0. -1.
         23    2    1    0    0    0  0.21583113518E+02 -0.23271654467E+00 -0.19398832121E+02  0.95979324029E+02  0.91486780506E+02 0.  0.
         11    1    3    3    0    0  0.55720496719E+02 -0.21130069777E+01 -0.25390390466E+02  0.61269164197E+02  0.51100000000E-03 0.  1.
         22    1    1    0    0    0 -0.21583113518E+02  0.23271654467E+00  0.19398832121E+02  0.29020675971E+02  0.00000000000E+00 0.  1.
</event>
<event>
 5    1  0.8900327E-005  0.9118800E+02  0.7818608E-02  0.1130116E+00
         25   -1    0    0    0    0  0.00000000000E+00  0.00000000000E+00  0.99999998245E-14  0.12500000000E+03  0.12500000000E+03 0.  0.
        -11    1    3    3    0    0  0.55530099864E+01 -0.28993456354E+02  0.54387872455E+02  0.61882930617E+02  0.51100000000E-03 0. -1.
         23    2    1    0    0    0  0.88640406521E+01 -0.13625649280E+02  0.25861304618E+02  0.94454352004E+02  0.89378901319E+02 0.  0.
         11    1    3    3    0    0  0.33110306657E+01  0.15367807074E+02 -0.28526567837E+02  0.32571421387E+02  0.51100000000E-03 0.  1.
         22    1    1    0    0    0 -0.88640406521E+01  0.13625649280E+02 -0.25861304618E+02  0.30545647996E+02  0.00000000000E+00 0. -1.
</event>
<event>
 5    1  0.8900327E-005  0.9118800E+02  0.7818608E-02  0.1130116E+00
         25   -1    0    0    0    0  0.00000000000E+00  0.00000000000E+00  0.99999998245E-14  0.12500000000E+03  0.12500000000E+03 0.  0.
        -11    1    3    3    0    0 -0.36613372065E+02  0.15847818609E+02  0.30532330641E+02  0.50238586597E+02  0.51100000000E-03 0.  1.
         23    2    1    0    0    0 -0.19541899206E+02  0.22161401056E+02 -0.92930541916E+01  0.94026230815E+02  0.88778137532E+02 0.  0.
         11    1    3    3    0    0  0.17071472858E+02  0.63135824466E+01 -0.39825384832E+02  0.43787644218E+02  0.51100000000E-03 0. -1.
         22    1    1    0    0    0  0.19541899206E+02 -0.22161401056E+02  0.92930541916E+01  0.30973769185E+02  0.00000000000E+00 0.  1.
</event>
<event>
 5    1  0.8900327E-005  0.9118800E+02  0.7818608E-02  0.1130116E+00
         25   -1    0    0    0    0  0.00000000000E+00  0.00000000000E+00  0.99999998245E-14  0.12500000000E+03  0.12500000000E+03 0.  0.
        -11    1    3    3    0    0  0.45675887118E+02 -0.74641668831E+01  0.18710776296E+01  0.46319557242E+02  0.51100000000E-03 0.  1.
         23    2    1    0    0    0  0.69732634248E+01  0.25220756082E+02  0.86758626257E+01  0.97432201168E+02  0.93450790751E+02 0.  0.
         11    1    3    3    0    0 -0.38702623693E+02  0.32684922966E+02  0.68047849961E+01  0.51112643926E+02  0.51100000000E-03 0. -1.
         22    1    1    0    0    0 -0.69732634248E+01 -0.25220756082E+02 -0.86758626257E+01  0.27567798832E+02  0.00000000000E+00 0.  1.
</event>
<event>
 5    1  0.8900327E-005  0.9118800E+02  0.7818608E-02  0.1130116E+00
         25   -1    0    0    0    0  0.00000000000E+00  0.00000000000E+00  0.99999998245E-14  0.12500000000E+03  0.12500000000E+03 0.  0.
        -11    1    3    3    0    0 -0.17184797118E+02  0.23990759261E+02 -0.13991913906E+02  0.32659568841E+02  0.51100000000E-03 0. -1.
         23    2    1    0    0    0  0.15770113028E+02 -0.20144222330E+02  0.15448171309E+02  0.95114683288E+02  0.90297678940E+02 0.  0.
         11    1    3    3    0    0  0.32954910146E+02 -0.44134981591E+02  0.29440085214E+02  0.62455114446E+02  0.51100000000E-03 0.  1.
         22    1    1    0    0    0 -0.15770113028E+02  0.20144222330E+02 -0.15448171309E+02  0.29885316712E+02  0.00000000000E+00 0.  1.
</event>
<event>
 5    1  0.8900327E-005  0.9118800E+02  0.7818608E-02  0.1130116E+00
         25   -1    0    0    0    0  0.00000000000E+00  0.00000000000E+00  0.99999998245E-14  0.12500000000E+03  0.12500000000E+03 0.  0.
        -11    1    3    3    0    0 -0.61400329376E+01  0.42260279672E+01  0.51732577379E+02  0.52266804755E+02  0.51100000000E-03 0.  1.
         23    2    1    0    0    0  0.60119709800E+01  0.24444503186E+02  0.15706065920E+02  0.95329171940E+02  0.90594111205E+02 0.  0.
         11    1    3    3    0    0  0.12152003918E+02  0.20218475219E+02 -0.36026511459E+02  0.43062367185E+02  0.51100000000E-03 0. -1.
         22    1    1    0    0    0 -0.60119709800E+01 -0.24444503186E+02 -0.15706065920E+02  0.29670828060E+02  0.00000000000E+00 0.  1.
</event>
<event>
 5    1  0.8900327E-005  0.9118800E+02  0.7818608E-02  0.1130116E+00
         25   -1    0    0    0    0  0.00000000000E+00  0.00000000000E+00  0.99999998245E-14  0.12500000000E+03  0.12500000000E+03 0.  0.
        -11    1    3    3    0    0  0.27852420036E+02  0.32367290627E+02 -0.91761421870E+01  0.43676084876E+02  0.51100000000E-03 0. -1.
         23    2    1    0    0    0 -0.19274077300E+02  0.21948098171E+02  0.76766910739E+01  0.94798333573E+02  0.89858685686E+02 0.  0.
         11    1    3    3    0    0 -0.47126497337E+02 -0.10419192456E+02  0.16852833261E+02  0.51122248697E+02  0.51100000000E-03 0.  1.
         22    1    1    0    0    0  0.19274077300E+02 -0.21948098171E+02 -0.76766910739E+01  0.30201666427E+02  0.00000000000E+00 0.  1.
</event>
<event>
 5    1  0.8900327E-005  0.9118800E+02  0.7818608E-02  0.1130116E+00
         25   -1    0    0    0    0  0.00000000000E+00  0.00000000000E+00  0.99999998245E-14  0.12500000000E+03  0.12500000000E+03 0.  0.
        -11    1    3    3    0    0 -0.27183763768E+02 -0.22407636444E+02  0.37587613641E+01  0.35428625021E+02  0.51100000000E-03 0. -1.
         23    2    1    0    0    0  0.23715448048E+02 -0.57383965423E+01 -0.19446449259E+02  0.93798781117E+02  0.88457307665E+02 0.  0.
         11    1    3    3    0    0  0.50899211816E+02  0.16669239901E+02 -0.23205210623E+02  0.58370156097E+02  0.51100000000E-03 0.  1.
         22    1    1    0    0    0 -0.23715448048E+02  0.57383965423E+01  0.19446449259E+02  0.31201218883E+02  0.00000000000E+00 0.  1.
</event>
<event>
 5    1  0.8900327E-005  0.9118800E+02  0.7818608E-02  0.1130116E+00
         25   -1    0    0    0    0  0.00000000000E+00  0.00000000000E+00  0.99999998245E-14  0.12500000000E+03  0.12500000000E+03 0.  0.
        -11    1    3    3    0    0 -0.10142571722E+01  0.30693983439E+02 -0.41926133377E+02  0.51970664775E+02  0.51100000000E-03 0. -1.
         23    2    1    0    0    0  0.12379535142E+02 -0.10077335459E+02 -0.17347938275E+02  0.10142551077E+03  0.98647745496E+02 0.  0.
         11    1    3    3    0    0  0.13393792314E+02 -0.40771318897E+02  0.24578195103E+02  0.49454845991E+02  0.51100000000E-03 0.  1.
         22    1    1    0    0    0 -0.12379535142E+02  0.10077335459E+02  0.17347938275E+02  0.23574489234E+02  0.00000000000E+00 0. -1.
</event>
<event>
 5    1  0.8900327E-005  0.9118800E+02  0.7818608E-02  0.1130116E+00
         25   -1    0    0    0    0  0.00000000000E+00  0.00000000000E+00  0.99999998245E-14  0.12500000000E+03  0.12500000000E+03 0.  0.
        -11    1    3    3    0    0  0.19855563204E+02 -0.19551309689E+02  0.28871024366E+02  0.40125218365E+02  0.51100000000E-03 0. -1.
         23    2    1    0    0    0 -0.19700903676E+02 -0.19616887566E+02 -0.98749382222E+01  0.95496402112E+02  0.90824559058E+02 0.  0.
         11    1    3    3    0    0 -0.39556466879E+02 -0.65577877761E-01 -0.38745962588E+02  0.55371183747E+02  0.51100000000E-03 0.  1.
         22    1    1    0    0    0  0.19700903676E+02  0.19616887566E+02  0.98749382222E+01  0.29503597888E+02  0.00000000000E+00 0.  1.
</event>
<event>
 5    1  0.8900327E-005  0.9118800E+02  0.7818608E-02  0.1130116E+00
         25   -1    0    0    0    0  0.00000000000E+00  0.00000000000E+00  0.99999998245E-14  0.12500000000E+03  0.12500000000E+03 0.  0.
        -11    1    3    3    0    0  0.34259996269E+01  0.42432143023E+02 -0.74725804912E+01  0.43221102421E+02  0.51100000000E-03 0. -1.
         23    2    1    0    0    0 -0.93976004954E+01 -0.44343620854E+01 -0.27367918774E+02  0.95725754660E+02  0.91139665707E+02 0.  0.
         11    1    3    3    0    0 -0.12823600122E+02 -0.46866505109E+02 -0.19895338283E+02  0.52504652240E+02  0.51100000000E-03 0.  1.
         22    1    1    0    0    0  0.93976004954E+01  0.44343620854E+01  0.27367918774E+02  0.29274245340E+02  0.00000000000E+00 0.  1.
</event>
<event>
 5    1  0.8900327E-005  0.9118800E+02  0.7818608E-02  0.1130116E+00
         25   -1    0    0    0    0  0.00000000000E+00  0.00000000000E+00  0.99999998245E-14  0.12500000000E+03  0.12500000000E+03 0.  0.
        -11    1    3    3    0    0  0.22195419762E+02 -0.56046321908E+02 -0.12798615660E+01  0.60294816558E+02  0.51100000000E-03 0.  1.
         23    2    1    0    0    0  0.10803419814E+02 -0.32486664527E+02 -0.12205684954E+02  0.88653390846E+02  0.80860050158E+02 0.  0.
         11    1    3    3    0    0 -0.11391999948E+02  0.23559657381E+02 -0.10925823388E+02  0.28358574288E+02  0.51100000000E-03 0. -1.
         22    1    1    0    0    0 -0.10803419814E+02  0.32486664527E+02  0.12205684954E+02  0.36346609154E+02  0.00000000000E+00 0.  1.
</event>
<event>
 5    1  0.8900327E-005  0.9118800E+02  0.7818608E-02  0.1130116E+00
         25   -1    0    0    0    0  0.00000000000E+00  0.00000000000E+00  0.99999998245E-14  0.12500000000E+03  0.12500000000E+03 0.  0.
        -11    1    3    3    0    0 -0.16494483372E+02  0.25635619696E+01 -0.39414146754E+02  0.42803210117E+02  0.51100000000E-03 0.  1.
         23    2    1    0    0    0 -0.19328811480E+02  0.25985130620E+02  0.41540180865E+01  0.92349030139E+02  0.86384359318E+02 0.  0.
         11    1    3    3    0    0 -0.28343281075E+01  0.23421568651E+02  0.43568164840E+02  0.49545820023E+02  0.51100000000E-03 0. -1.
         22    1    1    0    0    0  0.19328811480E+02 -0.25985130620E+02 -0.41540180865E+01  0.32650969861E+02  0.00000000000E+00 0. -1.
</event>
<event>
 5    1  0.8900327E-005  0.9118800E+02  0.7818608E-02  0.1130116E+00
         25   -1    0    0    0    0  0.00000000000E+00  0.00000000000E+00  0.99999998245E-14  0.12500000000E+03  0.12500000000E+03 0.  0.
        -11    1    3    3    0    0 -0.10211644834E+02 -0.25350498226E+02  0.36966090454E+02  0.45971918540E+02  0.51100000000E-03 0.  1.
         23    2    1    0    0    0  0.14858182717E+02 -0.26635788168E+02 -0.42246708890E+01  0.94209114188E+02  0.89035265749E+02 0.  0.
         11    1    3    3    0    0  0.25069827551E+02 -0.12852899423E+01 -0.41190761343E+02  0.48237195648E+02  0.51100000000E-03 0. -1.
         22    1    1    0    0    0 -0.14858182717E+02  0.26635788168E+02  0.42246708890E+01  0.30790885812E+02  0.00000000000E+00 0. -1.
</event>
<event>
 5    1  0.8900327E-005  0.9118800E+02  0.7818608E-02  0.1130116E+00
         25   -1    0    0    0    0  0.00000000000E+00  0.00000000000E+00  0.99999998245E-14  0.12500000000E+03  0.12500000000E+03 0.  0.
        -11    1    3    3    0    0  0.36732195940E+02  0.94224509277E+01  0.21091279100E+01  0.37980063466E+02  0.51100000000E-03 0. -1.
         23    2    1    0    0    0 -0.11806615252E+02 -0.17372433112E+02  0.19756106214E+02  0.96164235250E+02  0.91739080072E+02 0.  0.
         11    1    3    3    0    0 -0.48538811192E+02 -0.26794884040E+02  0.17646978304E+02  0.58184171784E+02  0.51100000000E-03 0.  1.
         22    1    1    0    0    0  0.11806615252E+02  0.17372433112E+02 -0.19756106214E+02  0.28835764750E+02  0.00000000000E+00 0.  1.
</event>
<event>
 4    1  0.8900327E-005  0.9118800E+02  0.7818608E-02  0.1130116E+00
         25   -1    0    0    0    0  0.00000000000E+00  0.00000000000E+00  0.99999998245E-14  0.12500000000E+03  0.12500000000E+03 0.  0.
        -11    1    1    0    0    0  0.30114285818E+02 -0.29659522017E+02 -0.31043683506E+02  0.52442995171E+02  0.51100000000E-03 0. -1.
         11    1    1    0    0    0  0.13452742742E+02  0.27862082689E+01  0.10941223047E+02  0.17562733438E+02  0.51100000000E-03 0.  1.
         22    1    1    0    0    0 -0.43567028559E+02  0.26873313748E+02  0.20102460460E+02  0.54994271391E+02  0.00000000000E+00 0. -1.
</event>
<event>
 5    1  0.8900327E-005  0.9118800E+02  0.7818608E-02  0.1130116E+00
         25   -1    0    0    0    0  0.00000000000E+00  0.00000000000E+00  0.99999998245E-14  0.12500000000E+03  0.12500000000E+03 0.  0.
        -11    1    3    3    0    0  0.34987210363E+02  0.71812738345E+01  0.41657415160E+02  0.54872723834E+02  0.51100000000E-03 0.  1.
         23    2    1    0    0    0  0.21786728060E+02  0.19932467728E+02  0.61582870623E+01  0.94835628818E+02  0.89910551130E+02 0.  0.
         11    1    3    3    0    0 -0.13200482303E+02  0.12751193893E+02 -0.35499128098E+02  0.39962904984E+02  0.51100000000E-03 0. -1.
         22    1    1    0    0    0 -0.21786728060E+02 -0.19932467728E+02 -0.61582870623E+01  0.30164371182E+02  0.00000000000E+00 0.  1.
</event>
<event>
 5    1  0.8900327E-005  0.9118800E+02  0.7818608E-02  0.1130116E+00
         25   -1    0    0    0    0  0.00000000000E+00  0.00000000000E+00  0.99999998245E-14  0.12500000000E+03  0.12500000000E+03 0.  0.
        -11    1    3    3    0    0  0.12880277947E+02 -0.30354817191E+02  0.21598236764E+02  0.39418273913E+02  0.51100000000E-03 0. -1.
         23    2    1    0    0    0 -0.16646383529E+02 -0.62056205111E+01 -0.21590437845E+02  0.97040049770E+02  0.92924767648E+02 0.  0.
         11    1    3    3    0    0 -0.29526661477E+02  0.24149196680E+02 -0.43188674609E+02  0.57621775857E+02  0.51100000000E-03 0.  1.
         22    1    1    0    0    0  0.16646383529E+02  0.62056205111E+01  0.21590437845E+02  0.27959950230E+02  0.00000000000E+00 0.  1.
</event>
<event>
 5    1  0.8900327E-005  0.9118800E+02  0.7818608E-02  0.1130116E+00
         25   -1    0    0    0    0  0.00000000000E+00  0.00000000000E+00  0.99999998245E-14  0.12500000000E+03  0.12500000000E+03 0.  0.
        -11    1    3    3    0    0 -0.20485954161E+02 -0.27145315101E+02 -0.98360690842E+01  0.35401846069E+02  0.51100000000E-03 0.  1.
         23    2    1    0    0    0  0.30236488021E+01  0.14817331720E+02  0.25683594620E+02  0.95194919829E+02  0.90408682975E+02 0.  0.
         11    1    3    3    0    0  0.23509602963E+02  0.41962646821E+02  0.35519663704E+02  0.59793073760E+02  0.51100000000E-03 0. -1.
         22    1    1    0    0    0 -0.30236488021E+01 -0.14817331720E+02 -0.25683594620E+02  0.29805080171E+02  0.00000000000E+00 0. -1.
</event>
<event>
 5    1  0.8900327E-005  0.9118800E+02  0.7818608E-02  0.1130116E+00
         25   -1    0    0    0    0  0.00000000000E+00  0.00000000000E+00  0.99999998245E-14  0.12500000000E+03  0.12500000000E+03 0.  0.
        -11    1    3    3    0    0 -0.52619148547E+01 -0.26659238922E+02  0.25122249716E+01  0.27289449287E+02  0.51100000000E-03 0.  1.
         23    2    1    0    0    0 -0.37205859175E+01  0.26913264499E+02 -0.25478510551E+02  0.87753240874E+02  0.79456341587E+02 0.  0.
         11    1    3    3    0    0  0.15413289372E+01  0.53572503421E+02 -0.27990735522E+02  0.60463791586E+02  0.51100000000E-03 0. -1.
         22    1    1    0    0    0  0.37205859175E+01 -0.26913264499E+02  0.25478510551E+02  0.37246759126E+02  0.00000000000E+00 0. -1.
</event>
<event>
 5    1  0.8900327E-005  0.9118800E+02  0.7818608E-02  0.1130116E+00
         25   -1    0    0    0    0  0.00000000000E+00  0.00000000000E+00  0.99999998245E-14  0.12500000000E+03  0.12500000000E+03 0.  0.
        -11    1    3    3    0    0  0.49866414556E+01 -0.39415396516E+02  0.92389950158E+01  0.40789693609E+02  0.51100000000E-03 0. -1.
         23    2    1    0    0    0 -0.19779095683E+02  0.88944352545E+01  0.19260637881E+02  0.95994900860E+02  0.91508060930E+02 0.  0.
         11    1    3    3    0    0 -0.24765737138E+02  0.48309831771E+02  0.10021642865E+02  0.55205207252E+02  0.51100000000E-03 0.  1.
         22    1    1    0    0    0  0.19779095683E+02 -0.88944352545E+01 -0.19260637881E+02  0.29005099140E+02  0.00000000000E+00 0.  1.
</event>
<event>
 5    1  0.8900327E-005  0.9118800E+02  0.7818608E-02  0.1130116E+00
         25   -1    0    0    0    0  0.00000000000E+00  0.00000000000E+00  0.99999998245E-14  0.12500000000E+03  0.12500000000E+03 0.  0.
        -11    1    3    3    0    0  0.19087274815E+02  0.23984902791E+02 -0.15279812828E+02  0.34250143096E+02  0.51100000000E-03 0.  1.
         23    2    1    0    0    0 -0.90866106160E+01 -0.23586984366E+02  0.13244665805E+02  0.96463470844E+02  0.92145904472E+02 0.  0.
         11    1    3    3    0    0 -0.28173885431E+02 -0.47571887158E+02  0.28524478633E+02  0.62213327748E+02  0.51100000000E-03 0. -1.
         22    1    1    0    0    0  0.90866106160E+01  0.23586984366E+02 -0.13244665805E+02  0.28536529156E+02  0.00000000000E+00 0. -1.
</event>
<event>
 5    1  0.8900327E-005  0.9118800E+02  0.7818608E-02  0.1130116E+00
         25   -1    0    0    0    0  0.00000000000E+00  0.00000000000E+00  0.99999998245E-14  0.12500000000E+03  0.12500000000E+03 0.  0.
        -11    1    3    3    0    0  0.31712215831E+02 -0.93259534132E+01  0.79373470096E+01  0.33994698378E+02  0.51100000000E-03 0.  1.
         23    2    1    0    0    0 -0.19747652872E+02  0.21550166314E+02 -0.48943429535E+01  0.95363298850E+02  0.90641186624E+02 0.  0.
         11    1    3    3    0    0 -0.51459868703E+02  0.30876119727E+02 -0.12831689963E+02  0.61368600472E+02  0.51100000000E-03 0. -1.
         22    1    1    0    0    0  0.19747652872E+02 -0.21550166314E+02  0.48943429535E+01  0.29636701150E+02  0.00000000000E+00 0. -1.
</event>
<event>
 5    1  0.8900327E-005  0.9118800E+02  0.7818608E-02  0.1130116E+00
         25   -1    0    0    0    0  0.00000000000E+00  0.00000000000E+00  0.99999998245E-14  0.12500000000E+03  0.12500000000E+03 0.  0.
        -11    1    3    3    0    0  0.43699853267E+02  0.12847609521E+01  0.20055385829E+02  0.48099337701E+02  0.51100000000E-03 0.  1.
         23    2    1    0    0    0  0.10601583041E+02  0.24954281820E+02  0.23747915260E+02  0.88957341617E+02  0.81328564504E+02 0.  0.
         11    1    3    3    0    0 -0.33098270226E+02  0.23669520868E+02  0.36925294308E+01  0.40858003915E+02  0.51100000000E-03 0. -1.
         22    1    1    0    0    0 -0.10601583041E+02 -0.24954281820E+02 -0.23747915260E+02  0.36042658383E+02  0.00000000000E+00 0.  1.
</event>
<event>
 5    1  0.8900327E-005  0.9118800E+02  0.7818608E-02  0.1130116E+00
         25   -1    0    0    0    0  0.00000000000E+00  0.00000000000E+00  0.99999998245E-14  0.12500000000E+03  0.12500000000E+03 0.  0.
        -11    1    3    3    0    0 -0.52555773345E+02 -0.79746360628E+01  0.12961238002E+02  0.54714694763E+02  0.51100000000E-03 0.  1.
         23    2    1    0    0    0 -0.24908842397E+02  0.15758128997E+02 -0.46105388152E+01  0.95166694330E+02  0.90369649676E+02 0.  0.
         11    1    3    3    0    0  0.27646930948E+02  0.23732765059E+02 -0.17571776817E+02  0.40451999567E+02  0.51100000000E-03 0. -1.
         22    1    1    0    0    0  0.24908842397E+02 -0.15758128997E+02  0.46105388152E+01  0.29833305670E+02  0.00000000000E+00 0.  1.
</event>
<event>
 5    1  0.8900327E-005  0.9118800E+02  0.7818608E-02  0.1130116E+00
         25   -1    0    0    0    0  0.00000000000E+00  0.00000000000E+00  0.99999998245E-14  0.12500000000E+03  0.12500000000E+03 0.  0.
        -11    1    3    3    0    0 -0.25039192077E+02 -0.10785631105E+02 -0.26269271793E+02  0.37859815358E+02  0.51100000000E-03 0.  1.
         23    2    1    0    0    0 -0.28653782651E+01  0.20011044019E+02  0.19224369139E+02  0.97103250295E+02  0.93009744510E+02 0.  0.
         11    1    3    3    0    0  0.22173813812E+02  0.30796675123E+02  0.45493640932E+02  0.59243434937E+02  0.51100000000E-03 0. -1.
         22    1    1    0    0    0  0.28653782651E+01 -0.20011044019E+02 -0.19224369139E+02  0.27896749705E+02  0.00000000000E+00 0. -1.
</event>
<event>
 5    1  0.8900327E-005  0.9118800E+02  0.7818608E-02  0.1130116E+00
         25   -1    0    0    0    0  0.00000000000E+00  0.00000000000E+00  0.99999998245E-14  0.12500000000E+03  0.12500000000E+03 0.  0.
        -11    1    3    3    0    0  0.18517826591E+02 -0.65264530620E+01 -0.45570163831E+02  0.49619999225E+02  0.51100000000E-03 0.  1.
         23    2    1    0    0    0 -0.93321469458E+01 -0.23535987716E+02 -0.10313589370E+02  0.97661349520E+02  0.93756799113E+02 0.  0.
         11    1    3    3    0    0 -0.27849973537E+02 -0.17009534654E+02  0.35256574461E+02  0.48041350295E+02  0.51100000000E-03 0. -1.
         22    1    1    0    0    0  0.93321469458E+01  0.23535987716E+02  0.10313589370E+02  0.27338650480E+02  0.00000000000E+00 0.  1.
</event>
<event>
 5    1  0.8900327E-005  0.9118800E+02  0.7818608E-02  0.1130116E+00
         25   -1    0    0    0    0  0.00000000000E+00  0.00000000000E+00  0.99999998245E-14  0.12500000000E+03  0.12500000000E+03 0.  0.
        -11    1    3    3    0    0 -0.35935665114E+02 -0.18885387689E+02 -0.11369112167E+02  0.42157877165E+02  0.51100000000E-03 0. -1.
         23    2    1    0    0    0  0.51731347386E+01 -0.31591906847E+02 -0.21595567348E+02  0.86384220449E+02  0.77272602598E+02 0.  0.
         11    1    3    3    0    0  0.41108799853E+02 -0.12706519157E+02 -0.10226455182E+02  0.44226343284E+02  0.51100000000E-03 0.  1.
         22    1    1    0    0    0 -0.51731347386E+01  0.31591906847E+02  0.21595567348E+02  0.38615779551E+02  0.00000000000E+00 0. -1.
</event>
<event>
 5    1  0.8900327E-005  0.9118800E+02  0.7818608E-02  0.1130116E+00
         25   -1    0    0    0    0  0.00000000000E+00  0.00000000000E+00  0.99999998245E-14  0.12500000000E+03  0.12500000000E+03 0.  0.
        -11    1    3    3    0    0  0.17499765799E+02 -0.44539604173E+02  0.81983602630E+01  0.48551325977E+02  0.51100000000E-03 0. -1.
         23    2    1    0    0    0  0.23968452317E+02  0.14021623408E+01  0.16746508920E+02  0.95727174262E+02  0.91141612699E+02 0.  0.
         11    1    3    3    0    0  0.64686865185E+01  0.45941766513E+02  0.85481486571E+01  0.47175848285E+02  0.51100000000E-03 0.  1.
         22    1    1    0    0    0 -0.23968452317E+02 -0.14021623408E+01 -0.16746508920E+02  0.29272825738E+02  0.00000000000E+00 0. -1.
</event>
<event>
 5    1  0.8900327E-005  0.9118800E+02  0.7818608E-02  0.1130116E+00
         25   -1    0    0    0    0  0.00000000000E+00  0.00000000000E+00  0.99999998245E-14  0.12500000000E+03  0.12500000000E+03 0.  0.
        -11    1    3    3    0    0  0.21679234759E+02 -0.16754234926E+02  0.23983797092E+02  0.36413131297E+02  0.51100000000E-03 0.  1.
         23    2    1    0    0    0  0.13454124510E+02  0.19107239786E+02 -0.20340923602E+02  0.94018501464E+02  0.88767253906E+02 0.  0.
         11    1    3    3    0    0 -0.82251102489E+01  0.35861474712E+02 -0.44324720694E+02  0.57605370166E+02  0.51100000000E-03 0. -1.
         22    1    1    0    0    0 -0.13454124510E+02 -0.19107239786E+02  0.20340923602E+02  0.30981498536E+02  0.00000000000E+00 0. -1.
</event>
<event>
 5    1  0.8900327E-005  0.9118800E+02  0.7818608E-02  0.1130116E+00
         25   -1    0    0    0    0  0.00000000000E+00  0.00000000000E+00  0.99999998245E-14  0.12500000000E+03  0.12500000000E+03 0.  0.
        -11    1    3    3    0    0 -0.15586204735E+02 -0.23829311879E+02 -0.54706944586E+02  0.61673460004E+02  0.51100000000E-03 0. -1.
         23    2    1    0    0    0 -0.12882039412E+02 -0.14823814298E+02 -0.22945193268E+02  0.94797776508E+02  0.89857910764E+02 0.  0.
         11    1    3    3    0    0  0.27041653222E+01  0.90054975815E+01  0.31761751318E+02  0.33124316503E+02  0.51100000000E-03 0.  1.
         22    1    1    0    0    0  0.12882039412E+02  0.14823814298E+02  0.22945193268E+02  0.30202223492E+02  0.00000000000E+00 0. -1.
</event>
<event>
 5    1  0.8900327E-005  0.9118800E+02  0.7818608E-02  0.1130116E+00
         25   -1    0    0    0    0  0.00000000000E+00  0.00000000000E+00  0.99999998245E-14  0.12500000000E+03  0.12500000000E+03 0.  0.
        -11    1    3    3    0    0 -0.17484099159E+02 -0.32728115153E+02 -0.82183676696E+01  0.38004799858E+02  0.51100000000E-03 0. -1.
         23    2    1    0    0    0  0.26214797636E+02 -0.74166184929E+01  0.15345173500E+02  0.93731866146E+02  0.88362698784E+02 0.  0.
         11    1    3    3    0    0  0.43698896795E+02  0.25311496660E+02  0.23563541169E+02  0.55727066287E+02  0.51100000000E-03 0.  1.
         22    1    1    0    0    0 -0.26214797636E+02  0.74166184929E+01 -0.15345173500E+02  0.31268133854E+02  0.00000000000E+00 0.  1.
</event>
<event>
 5    1  0.8900327E-005  0.9118800E+02  0.7818608E-02  0.1130116E+00
         25   -1    0    0    0    0  0.00000000000E+00  0.00000000000E+00  0.99999998245E-14  0.12500000000E+03  0.12500000000E+03 0.  0.
        -11    1    3    3    0    0 -0.16771877903E+02 -0.23432151801E+02 -0.53020043407E+02  0.60344731581E+02  0.51100000000E-03 0. -1.
         23    2    1    0    0    0 -0.53745810195E+01  0.41006221822E+00 -0.27129286447E+02  0.97340418382E+02  0.93327941130E+02 0.  0.
         11    1    3    3    0    0  0.11397296884E+02  0.23842214019E+02  0.25890756960E+02  0.36995686801E+02  0.51100000000E-03 0.  1.
         22    1    1    0    0    0  0.53745810195E+01 -0.41006221822E+00  0.27129286447E+02  0.27659581618E+02  0.00000000000E+00 0. -1.
</event>
<event>
 5    1  0.8900327E-005  0.9118800E+02  0.7818608E-02  0.1130116E+00
         25   -1    0    0    0    0  0.00000000000E+00  0.00000000000E+00  0.99999998245E-14  0.12500000000E+03  0.12500000000E+03 0.  0.
        -11    1    3    3    0    0  0.17493572023E+01 -0.26738946080E+01 -0.47399140538E+02  0.47506720440E+02  0.51100000000E-03 0. -1.
         23    2    1    0    0    0  0.90073379950E+01  0.26913439854E+02 -0.12063439353E+02  0.94161842605E+02  0.88968874620E+02 0.  0.
         11    1    3    3    0    0  0.72579807927E+01  0.29587334462E+02  0.35335701185E+02  0.46655122165E+02  0.51100000000E-03 0.  1.
         22    1    1    0    0    0 -0.90073379950E+01 -0.26913439854E+02  0.12063439353E+02  0.30838157395E+02  0.00000000000E+00 0.  1.
</event>
<event>
 5    1  0.8900327E-005  0.9118800E+02  0.7818608E-02  0.1130116E+00
         25   -1    0    0    0    0  0.00000000000E+00  0.00000000000E+00  0.99999998245E-14  0.12500000000E+03  0.12500000000E+03 0.  0.
        -11    1    3    3    0    0 -0.46338375536E+02  0.18849261416E+02 -0.10689508225E+02  0.51154719133E+02  0.51100000000E-03 0.  1.
         23    2    1    0    0    0 -0.19867787334E+02 -0.59194564630E+01  0.18125021955E+02  0.97463018335E+02  0.93492002779E+02 0.  0.
         11    1    3    3    0    0  0.26470588202E+02 -0.24768717879E+02  0.28814530181E+02  0.46308299201E+02  0.51100000000E-03 0. -1.
         22    1    1    0    0    0  0.19867787334E+02  0.59194564630E+01 -0.18125021955E+02  0.27536981665E+02  0.00000000000E+00 0.  1.
</event>
<event>
 5    1  0.8900327E-005  0.9118800E+02  0.7818608E-02  0.1130116E+00
         25   -1    0    0    0    0  0.00000000000E+00  0.00000000000E+00  0.99999998245E-14  0.12500000000E+03  0.12500000000E+03 0.  0.
        -11    1    3    3    0    0 -0.20123841203E+02  0.24120567020E+02 -0.14655957633E+02  0.34663638478E+02  0.51100000000E-03 0.  1.
         23    2    1    0    0    0  0.52288918848E+01 -0.28456027890E+02  0.36531211613E+01  0.95837830536E+02  0.91293250758E+02 0.  0.
         11    1    3    3    0    0  0.25352733088E+02 -0.52576594910E+02  0.18309078794E+02  0.61174192058E+02  0.51100000000E-03 0. -1.
         22    1    1    0    0    0 -0.52288918848E+01  0.28456027890E+02 -0.36531211613E+01  0.29162169464E+02  0.00000000000E+00 0. -1.
</event>
<event>
 5    1  0.8900327E-005  0.9118800E+02  0.7818608E-02  0.1130116E+00
         25   -1    0    0    0    0  0.00000000000E+00  0.00000000000E+00  0.99999998245E-14  0.12500000000E+03  0.12500000000E+03 0.  0.
        -11    1    3    3    0    0  0.27788639080E+02 -0.14369842773E+02 -0.45421109641E+01  0.31612206749E+02  0.51100000000E-03 0.  1.
         23    2    1    0    0    0 -0.31912021088E+02 -0.40750060177E+01 -0.62923488953E+01  0.92219267570E+02  0.86196385612E+02 0.  0.
         11    1    3    3    0    0 -0.59700660169E+02  0.10294836755E+02 -0.17502379311E+01  0.60607060822E+02  0.51100000000E-03 0. -1.
         22    1    1    0    0    0  0.31912021088E+02  0.40750060177E+01  0.62923488953E+01  0.32780732430E+02  0.00000000000E+00 0. -1.
</event>
<event>
 5    1  0.8900327E-005  0.9118800E+02  0.7818608E-02  0.1130116E+00
         25   -1    0    0    0    0  0.00000000000E+00  0.00000000000E+00  0.99999998245E-14  0.12500000000E+03  0.12500000000E+03 0.  0.
        -11    1    3    3    0    0  0.23485121693E+02  0.22459929171E+02 -0.49699607854E+02  0.59380555575E+02  0.51100000000E-03 0.  1.
         23    2    1    0    0    0  0.19033663936E+02 -0.88046334084E+00 -0.23378761474E+02  0.94840058578E+02  0.89916709484E+02 0.  0.
         11    1    3    3    0    0 -0.44514577572E+01 -0.23340392512E+02  0.26320846380E+02  0.35459503003E+02  0.51100000000E-03 0. -1.
         22    1    1    0    0    0 -0.19033663936E+02  0.88046334084E+00  0.23378761474E+02  0.30159941422E+02  0.00000000000E+00 0.  1.
</event>
<event>
 5    1  0.8900327E-005  0.9118800E+02  0.7818608E-02  0.1130116E+00
         25   -1    0    0    0    0  0.00000000000E+00  0.00000000000E+00  0.99999998245E-14  0.12500000000E+03  0.12500000000E+03 0.  0.
        -11    1    3    3    0    0  0.30564489545E+00 -0.61378674670E+02  0.22555969571E+01  0.61420866494E+02  0.51100000000E-03 0.  1.
         23    2    1    0    0    0  0.75563311864E+01 -0.29355321600E+02  0.46103659953E+01  0.94339136968E+02  0.89217622934E+02 0.  0.
         11    1    3    3    0    0  0.72506862910E+01  0.32023353070E+02  0.23547690383E+01  0.32918270474E+02  0.51100000000E-03 0. -1.
         22    1    1    0    0    0 -0.75563311864E+01  0.29355321600E+02 -0.46103659953E+01  0.30660863032E+02  0.00000000000E+00 0.  1.
</event>
<event>
 5    1  0.8900327E-005  0.9118800E+02  0.7818608E-02  0.1130116E+00
         25   -1    0    0    0    0  0.00000000000E+00  0.00000000000E+00  0.99999998245E-14  0.12500000000E+03  0.12500000000E+03 0.  0.
        -11    1    3    3    0    0  0.39933111722E+02  0.12104089701E+02  0.42506966286E+02  0.59565128913E+02  0.51100000000E-03 0. -1.
         23    2    1    0    0    0  0.62455367678E+01  0.96799545972E+01  0.24698121047E+02  0.97747377488E+02  0.93871424683E+02 0.  0.
         11    1    3    3    0    0 -0.33687574954E+02 -0.24241351042E+01 -0.17808845239E+02  0.38182248576E+02  0.51100000000E-03 0.  1.
         22    1    1    0    0    0 -0.62455367678E+01 -0.96799545972E+01 -0.24698121047E+02  0.27252622512E+02  0.00000000000E+00 0. -1.
</event>
<event>
 5    1  0.8900327E-005  0.9118800E+02  0.7818608E-02  0.1130116E+00
         25   -1    0    0    0    0  0.00000000000E+00  0.00000000000E+00  0.99999998245E-14  0.12500000000E+03  0.12500000000E+03 0.  0.
        -11    1    3    3    0    0 -0.11017105894E+02  0.19784064033E+02  0.27713406015E+02  0.35788527284E+02  0.51100000000E-03 0. -1.
         23    2    1    0    0    0 -0.12824326306E+02 -0.27283912226E+02 -0.66921089972E+01  0.94118621560E+02  0.88908128930E+02 0.  0.
         11    1    3    3    0    0 -0.18072204121E+01 -0.47067976258E+02 -0.34405515012E+02  0.58330094276E+02  0.51100000000E-03 0.  1.
         22    1    1    0    0    0  0.12824326306E+02  0.27283912226E+02  0.66921089972E+01  0.30881378440E+02  0.00000000000E+00 0.  1.
</event>
<event>
 5    1  0.8900327E-005  0.9118800E+02  0.7818608E-02  0.1130116E+00
         25   -1    0    0    0    0  0.00000000000E+00  0.00000000000E+00  0.99999998245E-14  0.12500000000E+03  0.12500000000E+03 0.  0.
        -11    1    3    3    0    0  0.25028984619E+02  0.28786735390E+02 -0.36674168084E+02  0.52916167759E+02  0.51100000000E-03 0. -1.
         23    2    1    0    0    0  0.11432525604E+02  0.26037226568E+02  0.43595504681E+01  0.96231171568E+02  0.91830239530E+02 0.  0.
         11    1    3    3    0    0 -0.13596459015E+02 -0.27495088217E+01  0.41033718552E+02  0.43315003809E+02  0.51100000000E-03 0.  1.
         22    1    1    0    0    0 -0.11432525604E+02 -0.26037226568E+02 -0.43595504681E+01  0.28768828432E+02  0.00000000000E+00 0. -1.
</event>
<event>
 5    1  0.8900327E-005  0.9118800E+02  0.7818608E-02  0.1130116E+00
         25   -1    0    0    0    0  0.00000000000E+00  0.00000000000E+00  0.99999998245E-14  0.12500000000E+03  0.12500000000E+03 0.  0.
        -11    1    3    3    0    0  0.12049487145E+02 -0.48526915829E+02 -0.20511260071E+02  0.54044088393E+02  0.51100000000E-03 0. -1.
         23    2    1    0    0    0  0.10812243742E+02 -0.83345498879E+01 -0.26970768970E+02  0.94771012002E+02  0.89820671343E+02 0.  0.
         11    1    3    3    0    0 -0.12372434029E+01  0.40192365941E+02 -0.64595088990E+01  0.40726923609E+02  0.51100000000E-03 0.  1.
         22    1    1    0    0    0 -0.10812243742E+02  0.83345498879E+01  0.26970768970E+02  0.30228987998E+02  0.00000000000E+00 0. -1.
</event>
<event>
 5    1  0.8900327E-005  0.9118800E+02  0.7818608E-02  0.1130116E+00
         25   -1    0    0    0    0  0.00000000000E+00  0.00000000000E+00  0.99999998245E-14  0.12500000000E+03  0.12500000000E+03 0.  0.
        -11    1    3    3    0    0 -0.50866582190E+02 -0.49665849414E+01  0.30545126007E+02  0.59540581730E+02  0.51100000000E-03 0.  1.
         23    2    1    0    0    0 -0.27890410721E+02 -0.88246889879E-01  0.12606890076E+01  0.97080971821E+02  0.92979798640E+02 0.  0.
         11    1    3    3    0    0  0.22976171469E+02  0.48783380515E+01 -0.29284437000E+02  0.37540390091E+02  0.51100000000E-03 0. -1.
         22    1    1    0    0    0  0.27890410721E+02  0.88246889879E-01 -0.12606890076E+01  0.27919028179E+02  0.00000000000E+00 0.  1.
</event>
<event>
 5    1  0.8900327E-005  0.9118800E+02  0.7818608E-02  0.1130116E+00
         25   -1    0    0    0    0  0.00000000000E+00  0.00000000000E+00  0.99999998245E-14  0.12500000000E+03  0.12500000000E+03 0.  0.
        -11    1    3    3    0    0 -0.42408501260E+02 -0.15663741620E+02  0.29590523747E+02  0.54031776544E+02  0.51100000000E-03 0.  1.
         23    2    1    0    0    0 -0.28122930686E+02 -0.23566047718E+01 -0.73702582014E+01  0.95831977743E+02  0.91285236680E+02 0.  0.
         11    1    3    3    0    0  0.14285570574E+02  0.13307136849E+02 -0.36960781949E+02  0.41800201198E+02  0.51100000000E-03 0. -1.
         22    1    1    0    0    0  0.28122930686E+02  0.23566047718E+01  0.73702582014E+01  0.29168022257E+02  0.00000000000E+00 0. -1.
</event>
<event>
 5    1  0.8900327E-005  0.9118800E+02  0.7818608E-02  0.1130116E+00
         25   -1    0    0    0    0  0.00000000000E+00  0.00000000000E+00  0.99999998245E-14  0.12500000000E+03  0.12500000000E+03 0.  0.
        -11    1    3    3    0    0 -0.14577162452E+02  0.30711160748E+02  0.13499759482E+02  0.36577487147E+02  0.51100000000E-03 0. -1.
         23    2    1    0    0    0  0.80662371274E+01 -0.16036709614E+01 -0.29168540907E+02  0.94694229583E+02  0.89713752545E+02 0.  0.
         11    1    3    3    0    0  0.22643399580E+02 -0.32314831710E+02 -0.42668300389E+02  0.58116742436E+02  0.51100000000E-03 0.  1.
         22    1    1    0    0    0 -0.80662371274E+01  0.16036709614E+01  0.29168540907E+02  0.30305770417E+02  0.00000000000E+00 0.  1.
</event>
<event>
 4    1  0.8900327E-005  0.9118800E+02  0.7818608E-02  0.1130116E+00
         25   -1    0    0    0    0  0.00000000000E+00  0.00000000000E+00  0.99999998245E-14  0.12500000000E+03  0.12500000000E+03 0.  0.
        -11    1    1    0    0    0 -0.86753153738E+00  0.44923015060E+02 -0.38248799389E+01  0.45093897590E+02  0.51100000000E-03 0.  1.
         11    1    1    0    0    0  0.20029418646E+02  0.87539219391E+01 -0.44694006767E+01  0.22311080280E+02  0.51100000000E-03 0. -1.
         22    1    1    0    0    0 -0.19161887108E+02 -0.53676936999E+02  0.82942806156E+01  0.57595022130E+02  0.00000000000E+00 0. -1.
</event>
<event>
 5    1  0.8900327E-005  0.9118800E+02  0.7818608E-02  0.1130116E+00
         25   -1    0    0    0    0  0.00000000000E+00  0.00000000000E+00  0.99999998245E-14  0.12500000000E+03  0.12500000000E+03 0.  0.
        -11    1    3    3    0    0 -0.46742896077E+01  0.25262008780E+02  0.47486435506E+02  0.53990551287E+02  0.51100000000E-03 0.  1.
         23    2    1    0    0    0 -0.22887772932E+02  0.14599418402E+02  0.11912854652E+02  0.95353595945E+02  0.90627804708E+02 0.  0.
         11    1    3    3    0    0 -0.18213483324E+02 -0.10662590378E+02 -0.35573580853E+02  0.41363044658E+02  0.51100000000E-03 0. -1.
         22    1    1    0    0    0  0.22887772932E+02 -0.14599418402E+02 -0.11912854652E+02  0.29646404055E+02  0.00000000000E+00 0. -1.
</event>
<event>
 5    1  0.8900327E-005  0.9118800E+02  0.7818608E-02  0.1130116E+00
         25   -1    0    0    0    0  0.00000000000E+00  0.00000000000E+00  0.99999998245E-14  0.12500000000E+03  0.12500000000E+03 0.  0.
        -11    1    3    3    0    0  0.25895832179E+02  0.24317704164E+02 -0.66468505075E+01  0.36140358077E+02  0.51100000000E-03 0.  1.
         23    2    1    0    0    0 -0.24939772669E+02 -0.46166525388E+01 -0.15463574093E+02  0.95294312578E+02  0.90546000158E+02 0.  0.
         11    1    3    3    0    0 -0.50835604848E+02 -0.28934356703E+02 -0.88167235856E+01  0.59153954501E+02  0.51100000000E-03 0. -1.
         22    1    1    0    0    0  0.24939772669E+02  0.46166525388E+01  0.15463574093E+02  0.29705687422E+02  0.00000000000E+00 0. -1.
</event>
<event>
 5    1  0.8900327E-005  0.9118800E+02  0.7818608E-02  0.1130116E+00
         25   -1    0    0    0    0  0.00000000000E+00  0.00000000000E+00  0.99999998245E-14  0.12500000000E+03  0.12500000000E+03 0.  0.
        -11    1    3    3    0    0 -0.22126752264E+02  0.12398947726E+02  0.21360854935E+02  0.33160416076E+02  0.51100000000E-03 0.  1.
         23    2    1    0    0    0  0.15684303437E+02 -0.17390919244E+02 -0.18098212697E+02  0.95402926677E+02  0.90695819470E+02 0.  0.
         11    1    3    3    0    0  0.37811055701E+02 -0.29789866970E+02 -0.39459067633E+02  0.62242510602E+02  0.51100000000E-03 0. -1.
         22    1    1    0    0    0 -0.15684303437E+02  0.17390919244E+02  0.18098212697E+02  0.29597073323E+02  0.00000000000E+00 0. -1.
</event>
<event>
 5    1  0.8900327E-005  0.9118800E+02  0.7818608E-02  0.1130116E+00
         25   -1    0    0    0    0  0.00000000000E+00  0.00000000000E+00  0.99999998245E-14  0.12500000000E+03  0.12500000000E+03 0.  0.
        -11    1    3    3    0    0  0.21816147504E+02  0.29087074496E+02 -0.39388269417E+02  0.53604458421E+02  0.51100000000E-03 0.  1.
         23    2    1    0    0    0  0.13128035760E+02  0.26038497508E+02  0.17753506704E+01  0.95785268350E+02  0.91221253485E+02 0.  0.
         11    1    3    3    0    0 -0.86881117439E+01 -0.30485769879E+01  0.41163620087E+02  0.42180809929E+02  0.51100000000E-03 0. -1.
         22    1    1    0    0    0 -0.13128035760E+02 -0.26038497508E+02 -0.17753506704E+01  0.29214731650E+02  0.00000000000E+00 0.  1.
</event>
<event>
 5    1  0.8900327E-005  0.9118800E+02  0.7818608E-02  0.1130116E+00
         25   -1    0    0    0    0  0.00000000000E+00  0.00000000000E+00  0.99999998245E-14  0.12500000000E+03  0.12500000000E+03 0.  0.
        -11    1    3    3    0    0  0.70155085354E+00 -0.49200771583E+02  0.23651236510E+02  0.54594771605E+02  0.51100000000E-03 0.  1.
         23    2    1    0    0    0 -0.16687221180E+02 -0.25308546114E+02 -0.31930903180E+01  0.94517518426E+02  0.89467198495E+02 0.  0.
         11    1    3    3    0    0 -0.17388772033E+02  0.23892225469E+02 -0.26844326828E+02  0.39922746821E+02  0.51100000000E-03 0. -1.
         22    1    1    0    0    0  0.16687221180E+02  0.25308546114E+02  0.31930903180E+01  0.30482481574E+02  0.00000000000E+00 0.  1.
</event>
<event>
 5    1  0.8900327E-005  0.9118800E+02  0.7818608E-02  0.1130116E+00
         25   -1    0    0    0    0  0.00000000000E+00  0.00000000000E+00  0.99999998245E-14  0.12500000000E+03  0.12500000000E+03 0.  0.
        -11    1    3    3    0    0 -0.45109686397E+02  0.41136410754E+02  0.13369268833E+02  0.62496603475E+02  0.51100000000E-03 0. -1.
         23    2    1    0    0    0 -0.20642486943E+02  0.18721521095E+02  0.56394404763E+01  0.96567432262E+02  0.92286824983E+02 0.  0.
         11    1    3    3    0    0  0.24467199454E+02 -0.22414889659E+02 -0.77298283572E+01  0.34070828787E+02  0.51100000000E-03 0.  1.
         22    1    1    0    0    0  0.20642486943E+02 -0.18721521095E+02 -0.56394404763E+01  0.28432567738E+02  0.00000000000E+00 0. -1.
</event>
<event>
 5    1  0.8900327E-005  0.9118800E+02  0.7818608E-02  0.1130116E+00
         25   -1    0    0    0    0  0.00000000000E+00  0.00000000000E+00  0.99999998245E-14  0.12500000000E+03  0.12500000000E+03 0.  0.
        -11    1    3    3    0    0  0.90184880664E+01  0.37535246673E+02  0.22771002063E+02  0.44819040653E+02  0.51100000000E-03 0.  1.
         23    2    1    0    0    0 -0.25772279828E+02  0.10839537974E+02 -0.48186933879E+01  0.96628785768E+02  0.92369889261E+02 0.  0.
         11    1    3    3    0    0 -0.34790767894E+02 -0.26695708699E+02 -0.27589695451E+02  0.51809745116E+02  0.51100000000E-03 0. -1.
         22    1    1    0    0    0  0.25772279828E+02 -0.10839537974E+02  0.48186933879E+01  0.28371214232E+02  0.00000000000E+00 0. -1.
</event>
<event>
 5    1  0.8900327E-005  0.9118800E+02  0.7818608E-02  0.1130116E+00
         25   -1    0    0    0    0  0.00000000000E+00  0.00000000000E+00  0.99999998245E-14  0.12500000000E+03  0.12500000000E+03 0.  0.
        -11    1    3    3    0    0  0.13385656952E+02  0.22414898243E+02  0.37730930313E+02  0.45882748150E+02  0.51100000000E-03 0.  1.
         23    2    1    0    0    0 -0.14204790295E+02  0.34542106246E+02  0.11272076413E+02  0.85987272873E+02  0.76627790117E+02 0.  0.
         11    1    3    3    0    0 -0.27590447248E+02  0.12127208003E+02 -0.26458853900E+02  0.40104524723E+02  0.51100000000E-03 0. -1.
         22    1    1    0    0    0  0.14204790295E+02 -0.34542106246E+02 -0.11272076413E+02  0.39012727127E+02  0.00000000000E+00 0.  1.
</event>
<event>
 5    1  0.8900327E-005  0.9118800E+02  0.7818608E-02  0.1130116E+00
         25   -1    0    0    0    0  0.00000000000E+00  0.00000000000E+00  0.99999998245E-14  0.12500000000E+03  0.12500000000E+03 0.  0.
        -11    1    3    3    0    0 -0.36070044922E+02 -0.45487645578E+02  0.50174587551E+01  0.58269622734E+02  0.51100000000E-03 0. -1.
         23    2    1    0    0    0 -0.72201380903E+01 -0.26511232283E+02 -0.97751917673E+01  0.95836148998E+02  0.91290948344E+02 0.  0.
         11    1    3    3    0    0  0.28849906832E+02  0.18976413296E+02 -0.14792650522E+02  0.37566526264E+02  0.51100000000E-03 0.  1.
         22    1    1    0    0    0  0.72201380903E+01  0.26511232283E+02  0.97751917673E+01  0.29163851002E+02  0.00000000000E+00 0. -1.
</event>
<event>
 5    1  0.8900327E-005  0.9118800E+02  0.7818608E-02  0.1130116E+00
         25   -1    0    0    0    0  0.00000000000E+00  0.00000000000E+00  0.99999998245E-14  0.12500000000E+03  0.12500000000E+03 0.  0.
        -11    1    3    3    0    0  0.98403813240E+01 -0.33927783384E+02 -0.26163724904E+02  0.43959846350E+02  0.51100000000E-03 0.  1.
         23    2    1    0    0    0 -0.28197484515E+02 -0.55476996377E+01 -0.54128173588E+01  0.95756646977E+02  0.91182025336E+02 0.  0.
         11    1    3    3    0    0 -0.38037865839E+02  0.28380083747E+02  0.20750907545E+02  0.51796800628E+02  0.51100000000E-03 0. -1.
         22    1    1    0    0    0  0.28197484515E+02  0.55476996377E+01  0.54128173588E+01  0.29243353023E+02  0.00000000000E+00 0. -1.
</event>
<event>
 5    1  0.8900327E-005  0.9118800E+02  0.7818608E-02  0.1130116E+00
         25   -1    0    0    0    0  0.00000000000E+00  0.00000000000E+00  0.99999998245E-14  0.12500000000E+03  0.12500000000E+03 0.  0.
        -11    1    3    3    0    0 -0.37108564669E+02  0.22853450678E+02  0.81595829440E+01  0.44338522458E+02  0.51100000000E-03 0. -1.
         23    2    1    0    0    0 -0.11907221486E+02 -0.19995779172E+02 -0.12974256135E+02  0.98355217575E+02  0.94677370019E+02 0.  0.
         11    1    3    3    0    0  0.25201343183E+02 -0.42849229849E+02 -0.21133839079E+02  0.54016695117E+02  0.51100000000E-03 0.  1.
         22    1    1    0    0    0  0.11907221486E+02  0.19995779172E+02  0.12974256135E+02  0.26644782425E+02  0.00000000000E+00 0.  1.
</event>
<event>
 5    1  0.8900327E-005  0.9118800E+02  0.7818608E-02  0.1130116E+00
         25   -1    0    0    0    0  0.00000000000E+00  0.00000000000E+00  0.99999998245E-14  0.12500000000E+03  0.12500000000E+03 0.  0.
        -11    1    3    3    0    0  0.21121851636E+02  0.37494440785E+02 -0.39474245290E+02  0.58396761450E+02  0.51100000000E-03 0.  1.
         23    2    1    0    0    0  0.20132457175E+02  0.21381936535E+02 -0.67800065491E+01  0.94859138522E+02  0.89943230042E+02 0.  0.
         11    1    3    3    0    0 -0.98939446134E+00 -0.16112504250E+02  0.32694238741E+02  0.36462377072E+02  0.51100000000E-03 0. -1.
         22    1    1    0    0    0 -0.20132457175E+02 -0.21381936535E+02  0.67800065491E+01  0.30140861478E+02  0.00000000000E+00 0.  1.
</event>
<event>
 5    1  0.8900327E-005  0.9118800E+02  0.7818608E-02  0.1130116E+00
         25   -1    0    0    0    0  0.00000000000E+00  0.00000000000E+00  0.99999998245E-14  0.12500000000E+03  0.12500000000E+03 0.  0.
        -11    1    3    3    0    0 -0.38980742182E+02 -0.10983848516E+02  0.13301741541E+02  0.42627215691E+02  0.51100000000E-03 0.  1.
         23    2    1    0    0    0 -0.10112596736E+02  0.19731156911E+02 -0.19054256904E+02  0.95765638848E+02  0.91194351316E+02 0.  0.
         11    1    3    3    0    0  0.28868145447E+02  0.30715005428E+02 -0.32355998445E+02  0.53138423157E+02  0.51100000000E-03 0. -1.
         22    1    1    0    0    0  0.10112596736E+02 -0.19731156911E+02  0.19054256904E+02  0.29234361152E+02  0.00000000000E+00 0. -1.
</event>
<event>
 5    1  0.8900327E-005  0.9118800E+02  0.7818608E-02  0.1130116E+00
         25   -1    0    0    0    0  0.00000000000E+00  0.00000000000E+00  0.99999998245E-14  0.12500000000E+03  0.12500000000E+03 0.  0.
        -11    1    3    3    0    0 -0.19032153201E+02 -0.50127494419E+02  0.26597087472E+02  0.59853100291E+02  0.51100000000E-03 0.  1.
         23    2    1    0    0    0 -0.82542617616E+01 -0.27687310933E+02  0.24078066341E+00  0.96107475028E+02  0.91661708237E+02 0.  0.
         11    1    3    3    0    0  0.10777891439E+02  0.22440183485E+02 -0.26356306809E+02  0.36254374737E+02  0.51100000000E-03 0. -1.
         22    1    1    0    0    0  0.82542617616E+01  0.27687310933E+02 -0.24078066341E+00  0.28892524972E+02  0.00000000000E+00 0.  1.
</event>
<event>
 5    1  0.8900327E-005  0.9118800E+02  0.7818608E-02  0.1130116E+00
         25   -1    0    0    0    0  0.00000000000E+00  0.00000000000E+00  0.99999998245E-14  0.12500000000E+03  0.12500000000E+03 0.  0.
        -11    1    3    3    0    0 -0.23671096198E+02 -0.25956943832E+02 -0.94670105269E+01  0.36382798366E+02  0.51100000000E-03 0.  1.
         23    2    1    0    0    0  0.27904424891E+01  0.27920067953E+02 -0.40267246454E+01  0.96653372773E+02  0.92403155754E+02 0.  0.
         11    1    3    3    0    0  0.26461538687E+02  0.53877011785E+02  0.54402858815E+01  0.60270574407E+02  0.51100000000E-03 0. -1.
         22    1    1    0    0    0 -0.27904424891E+01 -0.27920067953E+02  0.40267246454E+01  0.28346627227E+02  0.00000000000E+00 0. -1.
</event>
<event>
 5    1  0.8900327E-005  0.9118800E+02  0.7818608E-02  0.1130116E+00
         25   -1    0    0    0    0  0.00000000000E+00  0.00000000000E+00  0.99999998245E-14  0.12500000000E+03  0.12500000000E+03 0.  0.
        -11    1    3    3    0    0  0.16309968402E+02  0.40927113538E+02  0.20989798291E+02  0.48801796323E+02  0.51100000000E-03 0.  1.
         23    2    1    0    0    0 -0.21975726149E+02  0.19441857508E+02  0.79105596274E+01  0.94610934256E+02  0.89597620304E+02 0.  0.
         11    1    3    3    0    0 -0.38285694551E+02 -0.21485256030E+02 -0.13079238663E+02  0.45809137933E+02  0.51100000000E-03 0. -1.
         22    1    1    0    0    0  0.21975726149E+02 -0.19441857508E+02 -0.79105596274E+01  0.30389065744E+02  0.00000000000E+00 0.  1.
</event>
<event>
 5    1  0.8900327E-005  0.9118800E+02  0.7818608E-02  0.1130116E+00
         25   -1    0    0    0    0  0.00000000000E+00  0.00000000000E+00  0.99999998245E-14  0.12500000000E+03  0.12500000000E+03 0.  0.
        -11    1    3    3    0    0  0.33794809720E+02  0.24661535612E+02  0.32851909016E+02  0.53193311882E+02  0.51100000000E-03 0.  1.
         23    2    1    0    0    0  0.12654853856E+02 -0.88130972474E+01  0.27938428589E+02  0.93088061776E+02  0.87447215187E+02 0.  0.
         11    1    3    3    0    0 -0.21139955864E+02 -0.33474632859E+02 -0.49134804269E+01  0.39894749894E+02  0.51100000000E-03 0. -1.
         22    1    1    0    0    0 -0.12654853856E+02  0.88130972474E+01 -0.27938428589E+02  0.31911938224E+02  0.00000000000E+00 0.  1.
</event>
<event>
 5    1  0.8900327E-005  0.9118800E+02  0.7818608E-02  0.1130116E+00
         25   -1    0    0    0    0  0.00000000000E+00  0.00000000000E+00  0.99999998245E-14  0.12500000000E+03  0.12500000000E+03 0.  0.
        -11    1    3    3    0    0  0.22697881150E+02  0.25680511889E+02  0.13402052600E+02  0.36800781428E+02  0.51100000000E-03 0.  1.
         23    2    1    0    0    0  0.96891529849E+01 -0.25513172667E+02 -0.11729153455E+02  0.95295207359E+02  0.90547235406E+02 0.  0.
         11    1    3    3    0    0 -0.13008728165E+02 -0.51193684556E+02 -0.25131206055E+02  0.58494425930E+02  0.51100000000E-03 0. -1.
         22    1    1    0    0    0 -0.96891529849E+01  0.25513172667E+02  0.11729153455E+02  0.29704792641E+02  0.00000000000E+00 0. -1.
</event>
<event>
 5    1  0.8900327E-005  0.9118800E+02  0.7818608E-02  0.1130116E+00
         25   -1    0    0    0    0  0.00000000000E+00  0.00000000000E+00  0.99999998245E-14  0.12500000000E+03  0.12500000000E+03 0.  0.
        -11    1    3    3    0    0  0.39509429137E+02  0.14806455845E+02 -0.27556559212E+02  0.50394345728E+02  0.51100000000E-03 0.  1.
         23    2    1    0    0    0  0.10667773595E+02 -0.19197093639E+02 -0.19346815865E+02  0.95731773511E+02  0.91147920315E+02 0.  0.
         11    1    3    3    0    0 -0.28841655542E+02 -0.34003549485E+02  0.82097433467E+01  0.45337427784E+02  0.51100000000E-03 0. -1.
         22    1    1    0    0    0 -0.10667773595E+02  0.19197093639E+02  0.19346815865E+02  0.29268226489E+02  0.00000000000E+00 0.  1.
</event>
<event>
 5    1  0.8900327E-005  0.9118800E+02  0.7818608E-02  0.1130116E+00
         25   -1    0    0    0    0  0.00000000000E+00  0.00000000000E+00  0.99999998245E-14  0.12500000000E+03  0.12500000000E+03 0.  0.
        -11    1    3    3    0    0 -0.48116606014E+02  0.45498963407E+01 -0.26969278862E+02  0.55346646995E+02  0.51100000000E-03 0. -1.
         23    2    1    0    0    0 -0.68830070260E+01  0.13537421939E+02 -0.22596471289E+02  0.97774311888E+02  0.93907283913E+02 0.  0.
         11    1    3    3    0    0  0.41233598988E+02  0.89875255981E+01  0.43728075735E+01  0.42427664893E+02  0.51100000000E-03 0.  1.
         22    1    1    0    0    0  0.68830070260E+01 -0.13537421939E+02  0.22596471289E+02  0.27225688112E+02  0.00000000000E+00 0.  1.
</event>
<event>
 5    1  0.8900327E-005  0.9118800E+02  0.7818608E-02  0.1130116E+00
         25   -1    0    0    0    0  0.00000000000E+00  0.00000000000E+00  0.99999998245E-14  0.12500000000E+03  0.12500000000E+03 0.  0.
        -11    1    3    3    0    0 -0.44103873036E+02 -0.36395040733E+00  0.30419331586E+02  0.53578165432E+02  0.51100000000E-03 0. -1.
         23    2    1    0    0    0 -0.39384000654E+02  0.77400316445E+01  0.57797879736E+00  0.84858479640E+02  0.74763760673E+02 0.  0.
         11    1    3    3    0    0  0.47198723821E+01  0.81039820518E+01 -0.29841352789E+02  0.31280314208E+02  0.51100000000E-03 0.  1.
         22    1    1    0    0    0  0.39384000654E+02 -0.77400316445E+01 -0.57797879736E+00  0.40141520360E+02  0.00000000000E+00 0. -1.
</event>
<event>
 5    1  0.8900327E-005  0.9118800E+02  0.7818608E-02  0.1130116E+00
         25   -1    0    0    0    0  0.00000000000E+00  0.00000000000E+00  0.99999998245E-14  0.12500000000E+03  0.12500000000E+03 0.  0.
        -11    1    3    3    0    0 -0.40536856179E+02  0.21974057286E+02  0.36387180547E+02  0.58737746049E+02  0.51100000000E-03 0.  1.
         23    2    1    0    0    0 -0.61408585596E+01  0.17478296557E+02  0.21861186817E+02  0.96344939654E+02  0.91984971128E+02 0.  0.
         11    1    3    3    0    0  0.34395997619E+02 -0.44957607290E+01 -0.14525993730E+02  0.37607193605E+02  0.51100000000E-03 0. -1.
         22    1    1    0    0    0  0.61408585596E+01 -0.17478296557E+02 -0.21861186817E+02  0.28655060346E+02  0.00000000000E+00 0.  1.
</event>
<event>
 5    1  0.8900327E-005  0.9118800E+02  0.7818608E-02  0.1130116E+00
         25   -1    0    0    0    0  0.00000000000E+00  0.00000000000E+00  0.99999998245E-14  0.12500000000E+03  0.12500000000E+03 0.  0.
        -11    1    3    3    0    0 -0.55390465972E+02 -0.37445910445E+01 -0.12632768573E+02  0.56936038893E+02  0.51100000000E-03 0.  1.
         23    2    1    0    0    0 -0.21979362073E+02 -0.18593583382E+02  0.15895986417E+01  0.96167023671E+02  0.91742879385E+02 0.  0.
         11    1    3    3    0    0  0.33411103899E+02 -0.14848992338E+02  0.14222367215E+02  0.39230984778E+02  0.51100000000E-03 0. -1.
         22    1    1    0    0    0  0.21979362073E+02  0.18593583382E+02 -0.15895986417E+01  0.28832976329E+02  0.00000000000E+00 0.  1.
</event>
<event>
 5    1  0.8900327E-005  0.9118800E+02  0.7818608E-02  0.1130116E+00
         25   -1    0    0    0    0  0.00000000000E+00  0.00000000000E+00  0.99999998245E-14  0.12500000000E+03  0.12500000000E+03 0.  0.
        -11    1    3    3    0    0 -0.18264696463E+02 -0.15483107139E+02 -0.25987114901E+02  0.35336325286E+02  0.51100000000E-03 0.  1.
         23    2    1    0    0    0  0.12061342864E+02 -0.14638831347E+02  0.24365458209E+02  0.94122064049E+02  0.88912968751E+02 0.  0.
         11    1    3    3    0    0  0.30326039327E+02  0.84427579202E+00  0.50352573109E+02  0.58785738763E+02  0.51100000000E-03 0. -1.
         22    1    1    0    0    0 -0.12061342864E+02  0.14638831347E+02 -0.24365458209E+02  0.30877935951E+02  0.00000000000E+00 0. -1.
</event>
<event>
 5    1  0.8900327E-005  0.9118800E+02  0.7818608E-02  0.1130116E+00
         25   -1    0    0    0    0  0.00000000000E+00  0.00000000000E+00  0.99999998245E-14  0.12500000000E+03  0.12500000000E+03 0.  0.
        -11    1    3    3    0    0  0.22571834034E+01 -0.13291691507E+02 -0.40161132385E+02  0.42363669515E+02  0.51100000000E-03 0. -1.
         23    2    1    0    0    0  0.35919368411E+02 -0.40277113882E+01 -0.27800320236E+02  0.79400863042E+02  0.65001659676E+02 0.  0.
         11    1    3    3    0    0  0.33662185007E+02  0.92639801189E+01  0.12360812150E+02  0.37037193527E+02  0.51100000000E-03 0.  1.
         22    1    1    0    0    0 -0.35919368411E+02  0.40277113882E+01  0.27800320236E+02  0.45599136958E+02  0.00000000000E+00 0. -1.
</event>
<event>
 5    1  0.8900327E-005  0.9118800E+02  0.7818608E-02  0.1130116E+00
         25   -1    0    0    0    0  0.00000000000E+00  0.00000000000E+00  0.99999998245E-14  0.12500000000E+03  0.12500000000E+03 0.  0.
        -11    1    3    3    0    0 -0.91521841687E+00 -0.46520293845E+02  0.39123201255E+02  0.60791448748E+02  0.51100000000E-03 0.  1.
         23    2    1    0    0    0  0.39318899245E+01 -0.14646199853E+02  0.24484337011E+02  0.96199762372E+02  0.91787475143E+02 0.  0.
         11    1    3    3    0    0  0.48471083414E+01  0.31874093992E+02 -0.14638864244E+02  0.35408313624E+02  0.51100000000E-03 0. -1.
         22    1    1    0    0    0 -0.39318899245E+01  0.14646199853E+02 -0.24484337011E+02  0.28800237628E+02  0.00000000000E+00 0.  1.
</event>
<event>
 5    1  0.8900327E-005  0.9118800E+02  0.7818608E-02  0.1130116E+00
         25   -1    0    0    0    0  0.00000000000E+00  0.00000000000E+00  0.99999998245E-14  0.12500000000E+03  0.12500000000E+03 0.  0.
        -11    1    3    3    0    0  0.87219773010E+01 -0.36814918284E+02 -0.43099857678E+02  0.57349880806E+02  0.51100000000E-03 0.  1.
         23    2    1    0    0    0  0.20393073434E+02 -0.96211615741E+01 -0.18952209818E+02  0.95544432595E+02  0.90890638401E+02 0.  0.
         11    1    3    3    0    0  0.11671096133E+02  0.27193756710E+02  0.24147647860E+02  0.38194551790E+02  0.51100000000E-03 0. -1.
         22    1    1    0    0    0 -0.20393073434E+02  0.96211615741E+01  0.18952209818E+02  0.29455567405E+02  0.00000000000E+00 0.  1.
</event>
<event>
 5    1  0.8900327E-005  0.9118800E+02  0.7818608E-02  0.1130116E+00
         25   -1    0    0    0    0  0.00000000000E+00  0.00000000000E+00  0.99999998245E-14  0.12500000000E+03  0.12500000000E+03 0.  0.
        -11    1    3    3    0    0 -0.24549949611E+01 -0.27623570916E+02 -0.29427709237E+02  0.40436106905E+02  0.51100000000E-03 0.  1.
         23    2    1    0    0    0  0.17463708806E+02  0.20592565645E+02 -0.12153442366E+02  0.95390186653E+02  0.90678259044E+02 0.  0.
         11    1    3    3    0    0  0.19918703767E+02  0.48216136561E+02  0.17274266871E+02  0.54954079747E+02  0.51100000000E-03 0. -1.
         22    1    1    0    0    0 -0.17463708806E+02 -0.20592565645E+02  0.12153442366E+02  0.29609813347E+02  0.00000000000E+00 0. -1.
</event>
<event>
 5    1  0.8900327E-005  0.9118800E+02  0.7818608E-02  0.1130116E+00
         25   -1    0    0    0    0  0.00000000000E+00  0.00000000000E+00  0.99999998245E-14  0.12500000000E+03  0.12500000000E+03 0.  0.
        -11    1    3    3    0    0 -0.39205128835E+02  0.21127324335E+02  0.18542672236E+02  0.48241441255E+02  0.51100000000E-03 0. -1.
         23    2    1    0    0    0  0.13604482921E+01 -0.77846370380E+00  0.29361871417E+02  0.95596321346E+02  0.90961971925E+02 0.  0.
         11    1    3    3    0    0  0.40565577127E+02 -0.21905788039E+02  0.10819199181E+02  0.47354880091E+02  0.51100000000E-03 0.  1.
         22    1    1    0    0    0 -0.13604482921E+01  0.77846370380E+00 -0.29361871417E+02  0.29403678654E+02  0.00000000000E+00 0. -1.
</event>
<event>
 5    1  0.8900327E-005  0.9118800E+02  0.7818608E-02  0.1130116E+00
         25   -1    0    0    0    0  0.00000000000E+00  0.00000000000E+00  0.99999998245E-14  0.12500000000E+03  0.12500000000E+03 0.  0.
        -11    1    3    3    0    0 -0.30231611469E+01 -0.22582400390E+02  0.40469250997E+02  0.46442056234E+02  0.51100000000E-03 0.  1.
         23    2    1    0    0    0 -0.28269879329E+02 -0.61986101398E+01  0.10473106370E+01  0.96039583833E+02  0.91569077523E+02 0.  0.
         11    1    3    3    0    0 -0.25246718183E+02  0.16383790251E+02 -0.39421940360E+02  0.49597527599E+02  0.51100000000E-03 0. -1.
         22    1    1    0    0    0  0.28269879329E+02  0.61986101398E+01 -0.10473106370E+01  0.28960416167E+02  0.00000000000E+00 0. -1.
</event>
<event>
 5    1  0.8900327E-005  0.9118800E+02  0.7818608E-02  0.1130116E+00
         25   -1    0    0    0    0  0.00000000000E+00  0.00000000000E+00  0.99999998245E-14  0.12500000000E+03  0.12500000000E+03 0.  0.
        -11    1    3    3    0    0  0.23994054981E+02 -0.23745358920E+02 -0.16240663205E+02  0.37460858056E+02  0.51100000000E-03 0.  1.
         23    2    1    0    0    0 -0.27843334322E+02 -0.95873465758E+01  0.47890638912E+01  0.95165395704E+02  0.90367853389E+02 0.  0.
         11    1    3    3    0    0 -0.51837389303E+02  0.14158012345E+02  0.21029727096E+02  0.57704537649E+02  0.51100000000E-03 0. -1.
         22    1    1    0    0    0  0.27843334322E+02  0.95873465758E+01 -0.47890638912E+01  0.29834604296E+02  0.00000000000E+00 0. -1.
</event>
<event>
 5    1  0.8900327E-005  0.9118800E+02  0.7818608E-02  0.1130116E+00
         25   -1    0    0    0    0  0.00000000000E+00  0.00000000000E+00  0.99999998245E-14  0.12500000000E+03  0.12500000000E+03 0.  0.
        -11    1    3    3    0    0 -0.45204267799E+02 -0.25776361858E+02  0.81539602338E+01  0.52671944389E+02  0.51100000000E-03 0.  1.
         23    2    1    0    0    0 -0.23839013717E+02  0.16134349859E+01 -0.17099122073E+02  0.95618343765E+02  0.90992230115E+02 0.  0.
         11    1    3    3    0    0  0.21365254082E+02  0.27389796844E+02 -0.25253082306E+02  0.42946399376E+02  0.51100000000E-03 0. -1.
         22    1    1    0    0    0  0.23839013717E+02 -0.16134349859E+01  0.17099122073E+02  0.29381656235E+02  0.00000000000E+00 0. -1.
</event>
<event>
 5    1  0.8900327E-005  0.9118800E+02  0.7818608E-02  0.1130116E+00
         25   -1    0    0    0    0  0.00000000000E+00  0.00000000000E+00  0.99999998245E-14  0.12500000000E+03  0.12500000000E+03 0.  0.
        -11    1    3    3    0    0  0.12802640951E+01  0.21414167408E+02  0.46630887916E+02  0.51328796499E+02  0.51100000000E-03 0.  1.
         23    2    1    0    0    0  0.15586046154E+02  0.26362622008E+02  0.72366651597E+01  0.93531253656E+02  0.88078450338E+02 0.  0.
         11    1    3    3    0    0  0.14305782059E+02  0.49484545999E+01 -0.39394222756E+02  0.42202457157E+02  0.51100000000E-03 0. -1.
         22    1    1    0    0    0 -0.15586046154E+02 -0.26362622008E+02 -0.72366651597E+01  0.31468746344E+02  0.00000000000E+00 0.  1.
</event>
<event>
 5    1  0.8900327E-005  0.9118800E+02  0.7818608E-02  0.1130116E+00
         25   -1    0    0    0    0  0.00000000000E+00  0.00000000000E+00  0.99999998245E-14  0.12500000000E+03  0.12500000000E+03 0.  0.
        -11    1    3    3    0    0 -0.25351982347E+02 -0.10009282456E+02  0.31127819170E+02  0.41374507499E+02  0.51100000000E-03 0. -1.
         23    2    1    0    0    0  0.19265534036E+02  0.16740847265E+02  0.11939746882E+02  0.96822449992E+02  0.92631595571E+02 0.  0.
         11    1    3    3    0    0  0.44617516383E+02  0.26750129722E+02 -0.19188072289E+02  0.55447942493E+02  0.51100000000E-03 0.  1.
         22    1    1    0    0    0 -0.19265534036E+02 -0.16740847265E+02 -0.11939746882E+02  0.28177550008E+02  0.00000000000E+00 0.  1.
</event>
<event>
 5    1  0.8900327E-005  0.9118800E+02  0.7818608E-02  0.1130116E+00
         25   -1    0    0    0    0  0.00000000000E+00  0.00000000000E+00  0.99999998245E-14  0.12500000000E+03  0.12500000000E+03 0.  0.
        -11    1    3    3    0    0 -0.34119399456E+01 -0.95703318032E+01  0.48160765070E+02  0.49220847996E+02  0.51100000000E-03 0.  1.
         23    2    1    0    0    0  0.48886893796E+01 -0.28084384848E+02  0.62039910298E+01  0.95826013970E+02  0.91277069917E+02 0.  0.
         11    1    3    3    0    0  0.83006293252E+01 -0.18514053045E+02 -0.41956774041E+02  0.46605165974E+02  0.51100000000E-03 0. -1.
         22    1    1    0    0    0 -0.48886893796E+01  0.28084384848E+02 -0.62039910298E+01  0.29173986030E+02  0.00000000000E+00 0.  1.
</event>
<event>
 5    1  0.8900327E-005  0.9118800E+02  0.7818608E-02  0.1130116E+00
         25   -1    0    0    0    0  0.00000000000E+00  0.00000000000E+00  0.99999998245E-14  0.12500000000E+03  0.12500000000E+03 0.  0.
        -11    1    3    3    0    0  0.22899219790E+02 -0.35947358430E+02  0.38124893291E+02  0.57184738644E+02  0.51100000000E-03 0.  1.
         23    2    1    0    0    0  0.24525725119E+02 -0.49794038721E+01  0.15647955010E+02  0.95484509973E+02  0.90808190673E+02 0.  0.
         11    1    3    3    0    0  0.16265053287E+01  0.30967954558E+02 -0.22476938280E+02  0.38299771329E+02  0.51100000000E-03 0. -1.
         22    1    1    0    0    0 -0.24525725119E+02  0.49794038721E+01 -0.15647955010E+02  0.29515490027E+02  0.00000000000E+00 0.  1.
</event>
<event>
 5    1  0.8900327E-005  0.9118800E+02  0.7818608E-02  0.1130116E+00
         25   -1    0    0    0    0  0.00000000000E+00  0.00000000000E+00  0.99999998245E-14  0.12500000000E+03  0.12500000000E+03 0.  0.
        -11    1    3    3    0    0  0.28640126458E+01 -0.26784606936E+02  0.24137901253E+02  0.36169821873E+02  0.51100000000E-03 0.  1.
         23    2    1    0    0    0 -0.14102872329E+02  0.25886764560E+02  0.31492846599E+01  0.95353185986E+02  0.90627239264E+02 0.  0.
         11    1    3    3    0    0 -0.16966884975E+02  0.52671371496E+02 -0.20988616593E+02  0.59183364113E+02  0.51100000000E-03 0. -1.
         22    1    1    0    0    0  0.14102872329E+02 -0.25886764560E+02 -0.31492846599E+01  0.29646814014E+02  0.00000000000E+00 0. -1.
</event>
<event>
 5    1  0.8900327E-005  0.9118800E+02  0.7818608E-02  0.1130116E+00
         25   -1    0    0    0    0  0.00000000000E+00  0.00000000000E+00  0.99999998245E-14  0.12500000000E+03  0.12500000000E+03 0.  0.
        -11    1    3    3    0    0  0.33812494187E+02  0.48758403303E+02  0.17206324932E+02  0.61779642875E+02  0.51100000000E-03 0.  1.
         23    2    1    0    0    0  0.19487075571E+02  0.18518758001E+02  0.11659649424E+02  0.95697475589E+02  0.91100872099E+02 0.  0.
         11    1    3    3    0    0 -0.14325418617E+02 -0.30239645302E+02 -0.55466755082E+01  0.33917832714E+02  0.51100000000E-03 0. -1.
         22    1    1    0    0    0 -0.19487075571E+02 -0.18518758001E+02 -0.11659649424E+02  0.29302524411E+02  0.00000000000E+00 0.  1.
</event>
<event>
 5    1  0.8900327E-005  0.9118800E+02  0.7818608E-02  0.1130116E+00
         25   -1    0    0    0    0  0.00000000000E+00  0.00000000000E+00  0.99999998245E-14  0.12500000000E+03  0.12500000000E+03 0.  0.
        -11    1    3    3    0    0  0.41024418875E+02  0.83258100662E+01  0.45888709664E+02  0.62113571240E+02  0.51100000000E-03 0. -1.
         23    2    1    0    0    0  0.22723498821E+02  0.47999876725E+01  0.18186237023E+02  0.95501923836E+02  0.90832158177E+02 0.  0.
         11    1    3    3    0    0 -0.18300920054E+02 -0.35258223937E+01 -0.27702472641E+02  0.33388352596E+02  0.51100000000E-03 0.  1.
         22    1    1    0    0    0 -0.22723498821E+02 -0.47999876725E+01 -0.18186237023E+02  0.29498076164E+02  0.00000000000E+00 0. -1.
</event>
<event>
 5    1  0.8900327E-005  0.9118800E+02  0.7818608E-02  0.1130116E+00
         25   -1    0    0    0    0  0.00000000000E+00  0.00000000000E+00  0.99999998245E-14  0.12500000000E+03  0.12500000000E+03 0.  0.
        -11    1    3    3    0    0  0.55496743514E+02 -0.92549182000E+01  0.20006045497E+01  0.56298707538E+02  0.51100000000E-03 0. -1.
         23    2    1    0    0    0  0.23931899087E+02  0.10035040843E+02  0.14409760197E+02  0.95317024617E+02  0.90577349013E+02 0.  0.
         11    1    3    3    0    0 -0.31564844427E+02  0.19289959043E+02  0.12409155647E+02  0.39018317080E+02  0.51100000000E-03 0.  1.
         22    1    1    0    0    0 -0.23931899087E+02 -0.10035040843E+02 -0.14409760197E+02  0.29682975383E+02  0.00000000000E+00 0. -1.
</event>
<event>
 5    1  0.8900327E-005  0.9118800E+02  0.7818608E-02  0.1130116E+00
         25   -1    0    0    0    0  0.00000000000E+00  0.00000000000E+00  0.99999998245E-14  0.12500000000E+03  0.12500000000E+03 0.  0.
        -11    1    3    3    0    0 -0.38858873518E+02  0.47326946794E+02 -0.43527278704E+01  0.61390538229E+02  0.51100000000E-03 0.  1.
         23    2    1    0    0    0 -0.24662262419E+02  0.16946250541E+02 -0.17405828331E+01  0.95026140995E+02  0.90175025638E+02 0.  0.
         11    1    3    3    0    0  0.14196611098E+02 -0.30380696253E+02  0.26121450373E+01  0.33635602766E+02  0.51100000000E-03 0. -1.
         22    1    1    0    0    0  0.24662262419E+02 -0.16946250541E+02  0.17405828331E+01  0.29973859005E+02  0.00000000000E+00 0.  1.
</event>
<event>
 5    1  0.8900327E-005  0.9118800E+02  0.7818608E-02  0.1130116E+00
         25   -1    0    0    0    0  0.00000000000E+00  0.00000000000E+00  0.99999998245E-14  0.12500000000E+03  0.12500000000E+03 0.  0.
        -11    1    3    3    0    0  0.59094440569E+00 -0.15517902984E+02  0.40865036096E+02  0.43716194981E+02  0.51100000000E-03 0.  1.
         23    2    1    0    0    0 -0.42424406151E+01  0.26627938067E+02  0.97432581593E+01  0.96329868022E+02  0.91964487741E+02 0.  0.
         11    1    3    3    0    0 -0.48333850208E+01  0.42145841051E+02 -0.31121777936E+02  0.52613673040E+02  0.51100000000E-03 0. -1.
         22    1    1    0    0    0  0.42424406151E+01 -0.26627938067E+02 -0.97432581593E+01  0.28670131978E+02  0.00000000000E+00 0. -1.
</event>
<event>
 5    1  0.8900327E-005  0.9118800E+02  0.7818608E-02  0.1130116E+00
         25   -1    0    0    0    0  0.00000000000E+00  0.00000000000E+00  0.99999998245E-14  0.12500000000E+03  0.12500000000E+03 0.  0.
        -11    1    3    3    0    0 -0.33025093825E+02  0.50708205684E+01 -0.20452799119E+02  0.39175081818E+02  0.51100000000E-03 0. -1.
         23    2    1    0    0    0  0.43533130751E+01 -0.25827770176E+02  0.10581657149E+02  0.96751167900E+02  0.92535355270E+02 0.  0.
         11    1    3    3    0    0  0.37378406900E+02 -0.30898590745E+02  0.31034456268E+02  0.57576086082E+02  0.51100000000E-03 0.  1.
         22    1    1    0    0    0 -0.43533130751E+01  0.25827770176E+02 -0.10581657149E+02  0.28248832100E+02  0.00000000000E+00 0.  1.
</event>
<event>
 5    1  0.8900327E-005  0.9118800E+02  0.7818608E-02  0.1130116E+00
         25   -1    0    0    0    0  0.00000000000E+00  0.00000000000E+00  0.99999998245E-14  0.12500000000E+03  0.12500000000E+03 0.  0.
        -11    1    3    3    0    0 -0.15115545803E+02  0.22772673819E+02  0.16660307692E+02  0.32010002350E+02  0.51100000000E-03 0.  1.
         23    2    1    0    0    0  0.11218427473E+02 -0.28181298396E+02 -0.66921851944E+01  0.93938383221E+02  0.88654361457E+02 0.  0.
         11    1    3    3    0    0  0.26333973276E+02 -0.50953972215E+02 -0.23352492886E+02  0.61928380871E+02  0.51100000000E-03 0. -1.
         22    1    1    0    0    0 -0.11218427473E+02  0.28181298396E+02  0.66921851944E+01  0.31061616779E+02  0.00000000000E+00 0. -1.
</event>
<event>
 5    1  0.8900327E-005  0.9118800E+02  0.7818608E-02  0.1130116E+00
         25   -1    0    0    0    0  0.00000000000E+00  0.00000000000E+00  0.99999998245E-14  0.12500000000E+03  0.12500000000E+03 0.  0.
        -11    1    3    3    0    0 -0.14603767900E+02 -0.27327877382E+02 -0.10183265954E+02  0.32615668394E+02  0.51100000000E-03 0. -1.
         23    2    1    0    0    0  0.20914439138E+02  0.18630503795E+02  0.11646406985E+02  0.94666054794E+02  0.89674487445E+02 0.  0.
         11    1    3    3    0    0  0.35518207038E+02  0.45958381176E+02  0.21829672939E+02  0.62050386400E+02  0.51100000000E-03 0.  1.
         22    1    1    0    0    0 -0.20914439138E+02 -0.18630503795E+02 -0.11646406985E+02  0.30333945206E+02  0.00000000000E+00 0.  1.
</event>
<event>
 5    1  0.8900327E-005  0.9118800E+02  0.7818608E-02  0.1130116E+00
         25   -1    0    0    0    0  0.00000000000E+00  0.00000000000E+00  0.99999998245E-14  0.12500000000E+03  0.12500000000E+03 0.  0.
        -11    1    3    3    0    0  0.53441315506E+01  0.38630875378E+01  0.30121832793E+02  0.30835174694E+02  0.51100000000E-03 0. -1.
         23    2    1    0    0    0  0.65089013547E+01 -0.25833550215E+01 -0.31462829322E+02  0.92767265878E+02  0.86987450069E+02 0.  0.
         11    1    3    3    0    0  0.11647698041E+01 -0.64464425593E+01 -0.61584662115E+02  0.61932091184E+02  0.51100000000E-03 0.  1.
         22    1    1    0    0    0 -0.65089013547E+01  0.25833550215E+01  0.31462829322E+02  0.32232734122E+02  0.00000000000E+00 0.  1.
</event>
<event>
 5    1  0.8900327E-005  0.9118800E+02  0.7818608E-02  0.1130116E+00
         25   -1    0    0    0    0  0.00000000000E+00  0.00000000000E+00  0.99999998245E-14  0.12500000000E+03  0.12500000000E+03 0.  0.
        -11    1    3    3    0    0 -0.21839633730E+02 -0.37831748395E+02 -0.41806775709E+02  0.60465008753E+02  0.51100000000E-03 0.  1.
         23    2    1    0    0    0 -0.16504462511E+02 -0.21586030263E+02 -0.11027861548E+02  0.95674793852E+02  0.91069745047E+02 0.  0.
         11    1    3    3    0    0  0.53351712188E+01  0.16245718132E+02  0.30778914160E+02  0.35209785099E+02  0.51100000000E-03 0. -1.
         22    1    1    0    0    0  0.16504462511E+02  0.21586030263E+02  0.11027861548E+02  0.29325206148E+02  0.00000000000E+00 0.  1.
</event>
<event>
 5    1  0.8900327E-005  0.9118800E+02  0.7818608E-02  0.1130116E+00
         25   -1    0    0    0    0  0.00000000000E+00  0.00000000000E+00  0.99999998245E-14  0.12500000000E+03  0.12500000000E+03 0.  0.
        -11    1    3    3    0    0  0.17031081582E+02  0.30061209023E+02  0.11131931551E+02  0.36299503138E+02  0.51100000000E-03 0.  1.
         23    2    1    0    0    0 -0.26047505998E+02 -0.10227743547E+02 -0.27126214109E+01  0.96885277492E+02  0.92716338220E+02 0.  0.
         11    1    3    3    0    0 -0.43078587580E+02 -0.40288952570E+02 -0.13844552962E+02  0.60585774354E+02  0.51100000000E-03 0. -1.
         22    1    1    0    0    0  0.26047505998E+02  0.10227743547E+02  0.27126214109E+01  0.28114722508E+02  0.00000000000E+00 0. -1.
</event>
<event>
 5    1  0.8900327E-005  0.9118800E+02  0.7818608E-02  0.1130116E+00
         25   -1    0    0    0    0  0.00000000000E+00  0.00000000000E+00  0.99999998245E-14  0.12500000000E+03  0.12500000000E+03 0.  0.
        -11    1    3    3    0    0 -0.92782487563E+01  0.23168769078E+02 -0.15000915925E+02  0.29118812466E+02  0.51100000000E-03 0. -1.
         23    2    1    0    0    0  0.29490409747E+01 -0.23236822659E+02  0.24374925946E+02  0.91194914808E+02  0.84697867164E+02 0.  0.
         11    1    3    3    0    0  0.12227289731E+02 -0.46405591737E+02  0.39375841871E+02  0.62076102342E+02  0.51100000000E-03 0.  1.
         22    1    1    0    0    0 -0.29490409747E+01  0.23236822659E+02 -0.24374925946E+02  0.33805085192E+02  0.00000000000E+00 0.  1.
</event>
<event>
 5    1  0.8900327E-005  0.9118800E+02  0.7818608E-02  0.1130116E+00
         25   -1    0    0    0    0  0.00000000000E+00  0.00000000000E+00  0.99999998245E-14  0.12500000000E+03  0.12500000000E+03 0.  0.
        -11    1    3    3    0    0 -0.33337235975E+02 -0.30743115321E+02 -0.17037170650E+02  0.48443530281E+02  0.51100000000E-03 0.  1.
         23    2    1    0    0    0 -0.11559115732E+02 -0.15756619629E+02  0.21989950798E+02  0.95581601765E+02  0.90941742018E+02 0.  0.
         11    1    3    3    0    0  0.21778120243E+02  0.14986495692E+02  0.39027121448E+02  0.47138071484E+02  0.51100000000E-03 0. -1.
         22    1    1    0    0    0  0.11559115732E+02  0.15756619629E+02 -0.21989950798E+02  0.29418398235E+02  0.00000000000E+00 0.  1.
</event>
<event>
 5    1  0.8900327E-005  0.9118800E+02  0.7818608E-02  0.1130116E+00
         25   -1    0    0    0    0  0.00000000000E+00  0.00000000000E+00  0.99999998245E-14  0.12500000000E+03  0.12500000000E+03 0.  0.
        -11    1    3    3    0    0  0.55568128222E+02  0.87999580994E+01  0.10404111927E+02  0.57214523348E+02  0.51100000000E-03 0. -1.
         23    2    1    0    0    0  0.20750757323E+02 -0.56975661954E+01  0.19443978477E+02  0.95997853717E+02  0.91512094442E+02 0.  0.
         11    1    3    3    0    0 -0.34817370899E+02 -0.14497524295E+02  0.90398665494E+01  0.38783330369E+02  0.51100000000E-03 0.  1.
         22    1    1    0    0    0 -0.20750757323E+02  0.56975661954E+01 -0.19443978477E+02  0.29002146283E+02  0.00000000000E+00 0. -1.
</event>
<event>
 5    1  0.8900327E-005  0.9118800E+02  0.7818608E-02  0.1130116E+00
         25   -1    0    0    0    0  0.00000000000E+00  0.00000000000E+00  0.99999998245E-14  0.12500000000E+03  0.12500000000E+03 0.  0.
        -11    1    3    3    0    0 -0.11402280396E+02  0.23904197659E+02 -0.25593973528E+02  0.36830342724E+02  0.51100000000E-03 0. -1.
         23    2    1    0    0    0 -0.92872782647E+01  0.28100984696E+02  0.24153359409E+02  0.86799166904E+02  0.77940950251E+02 0.  0.
         11    1    3    3    0    0  0.21150021311E+01  0.41967870376E+01  0.49747332937E+02  0.49968824181E+02  0.51100000000E-03 0.  1.
         22    1    1    0    0    0  0.92872782647E+01 -0.28100984696E+02 -0.24153359409E+02  0.38200833096E+02  0.00000000000E+00 0. -1.
</event>
<event>
 5    1  0.8900327E-005  0.9118800E+02  0.7818608E-02  0.1130116E+00
         25   -1    0    0    0    0  0.00000000000E+00  0.00000000000E+00  0.99999998245E-14  0.12500000000E+03  0.12500000000E+03 0.  0.
        -11    1    3    3    0    0 -0.39378998721E+02 -0.14699127521E+02 -0.15186494548E+02  0.44692275698E+02  0.51100000000E-03 0. -1.
         23    2    1    0    0    0  0.14761758338E+02  0.10537869182E+02 -0.90205727796E+01  0.10474347193E+03  0.10276608382E+03 0.  0.
         11    1    3    3    0    0  0.54140757059E+02  0.25236996703E+02  0.61659217689E+01  0.60051196233E+02  0.51100000000E-03 0.  1.
         22    1    1    0    0    0 -0.14761758338E+02 -0.10537869182E+02  0.90205727796E+01  0.20256528069E+02  0.00000000000E+00 0.  1.
</event>
<event>
 5    1  0.8900327E-005  0.9118800E+02  0.7818608E-02  0.1130116E+00
         25   -1    0    0    0    0  0.00000000000E+00  0.00000000000E+00  0.99999998245E-14  0.12500000000E+03  0.12500000000E+03 0.  0.
        -11    1    3    3    0    0  0.40401668266E+02 -0.31564075788E+02 -0.34922119233E+02  0.62033378846E+02  0.51100000000E-03 0.  1.
         23    2    1    0    0    0  0.22297120418E+02 -0.11584634693E+02 -0.20248633985E+02  0.92729696032E+02  0.86933445854E+02 0.  0.
         11    1    3    3    0    0 -0.18104547849E+02  0.19979441094E+02  0.14673485248E+02  0.30696317187E+02  0.51100000000E-03 0. -1.
         22    1    1    0    0    0 -0.22297120418E+02  0.11584634693E+02  0.20248633985E+02  0.32270303968E+02  0.00000000000E+00 0.  1.
</event>
<event>
 5    1  0.8900327E-005  0.9118800E+02  0.7818608E-02  0.1130116E+00
         25   -1    0    0    0    0  0.00000000000E+00  0.00000000000E+00  0.99999998245E-14  0.12500000000E+03  0.12500000000E+03 0.  0.
        -11    1    3    3    0    0  0.57728472353E+01  0.45453246490E+02 -0.17217662735E-01  0.45818377081E+02  0.51100000000E-03 0.  1.
         23    2    1    0    0    0  0.15195726419E+02  0.45936201626E+01 -0.25555460638E+02  0.94915236148E+02  0.90021158830E+02 0.  0.
         11    1    3    3    0    0  0.94228791837E+01 -0.40859626327E+02 -0.25538242975E+02  0.49096859067E+02  0.51100000000E-03 0. -1.
         22    1    1    0    0    0 -0.15195726419E+02 -0.45936201626E+01  0.25555460638E+02  0.30084763852E+02  0.00000000000E+00 0. -1.
</event>
<event>
 5    1  0.8900327E-005  0.9118800E+02  0.7818608E-02  0.1130116E+00
         25   -1    0    0    0    0  0.00000000000E+00  0.00000000000E+00  0.99999998245E-14  0.12500000000E+03  0.12500000000E+03 0.  0.
        -11    1    3    3    0    0  0.42596384781E+02 -0.19768536745E+02  0.32130403884E+02  0.56899999081E+02  0.51100000000E-03 0.  1.
         23    2    1    0    0    0  0.25833386205E+02  0.84340955043E+01  0.13043624579E+02  0.94856444271E+02  0.89939485588E+02 0.  0.
         11    1    3    3    0    0 -0.16762998575E+02  0.28202632249E+02 -0.19086779304E+02  0.37956445190E+02  0.51100000000E-03 0. -1.
         22    1    1    0    0    0 -0.25833386205E+02 -0.84340955043E+01 -0.13043624579E+02  0.30143555729E+02  0.00000000000E+00 0.  1.
</event>
<event>
 5    1  0.8900327E-005  0.9118800E+02  0.7818608E-02  0.1130116E+00
         25   -1    0    0    0    0  0.00000000000E+00  0.00000000000E+00  0.99999998245E-14  0.12500000000E+03  0.12500000000E+03 0.  0.
        -11    1    3    3    0    0 -0.42940148677E+02  0.36015067539E+02  0.16469342869E+02  0.58413874320E+02  0.51100000000E-03 0. -1.
         23    2    1    0    0    0 -0.29472276468E+02  0.40344558543E+01  0.60646026038E+01  0.94640959848E+02  0.89639500009E+02 0.  0.
         11    1    3    3    0    0  0.13467872209E+02 -0.31980611685E+02 -0.10404740265E+02  0.36227085528E+02  0.51100000000E-03 0.  1.
         22    1    1    0    0    0  0.29472276468E+02 -0.40344558543E+01 -0.60646026038E+01  0.30359040152E+02  0.00000000000E+00 0. -1.
</event>
<event>
 5    1  0.8900327E-005  0.9118800E+02  0.7818608E-02  0.1130116E+00
         25   -1    0    0    0    0  0.00000000000E+00  0.00000000000E+00  0.99999998245E-14  0.12500000000E+03  0.12500000000E+03 0.  0.
        -11    1    3    3    0    0  0.26916819833E+02  0.19040135104E+02  0.27769795150E+02  0.43106884109E+02  0.51100000000E-03 0.  1.
         23    2    1    0    0    0 -0.21460474682E+02 -0.33729402415E+01  0.16792989384E+02  0.97542156095E+02  0.93597751168E+02 0.  0.
         11    1    3    3    0    0 -0.48377294515E+02 -0.22413075346E+02 -0.10976805766E+02  0.54435271985E+02  0.51100000000E-03 0. -1.
         22    1    1    0    0    0  0.21460474682E+02  0.33729402415E+01 -0.16792989384E+02  0.27457843905E+02  0.00000000000E+00 0. -1.
</event>
<event>
 5    1  0.8900327E-005  0.9118800E+02  0.7818608E-02  0.1130116E+00
         25   -1    0    0    0    0  0.00000000000E+00  0.00000000000E+00  0.99999998245E-14  0.12500000000E+03  0.12500000000E+03 0.  0.
        -11    1    3    3    0    0 -0.31512077486E+02  0.29277106641E+02 -0.73980831046E+01  0.43645064264E+02  0.51100000000E-03 0. -1.
         23    2    1    0    0    0  0.13157914260E+02  0.94023840043E+01 -0.24673199579E+02  0.95499113401E+02  0.90828290473E+02 0.  0.
         11    1    3    3    0    0  0.44669991746E+02 -0.19874722637E+02 -0.17275116475E+02  0.51854049137E+02  0.51100000000E-03 0.  1.
         22    1    1    0    0    0 -0.13157914260E+02 -0.94023840043E+01  0.24673199579E+02  0.29500886599E+02  0.00000000000E+00 0. -1.
</event>
<event>
 5    1  0.8900327E-005  0.9118800E+02  0.7818608E-02  0.1130116E+00
         25   -1    0    0    0    0  0.00000000000E+00  0.00000000000E+00  0.99999998245E-14  0.12500000000E+03  0.12500000000E+03 0.  0.
        -11    1    3    3    0    0  0.16091431964E+02  0.46202320925E+02 -0.21638945371E+02  0.53496098909E+02  0.51100000000E-03 0. -1.
         23    2    1    0    0    0  0.21987535775E+01  0.10295642706E+02 -0.30269301561E+02  0.92952139026E+02  0.87252706299E+02 0.  0.
         11    1    3    3    0    0 -0.13892678386E+02 -0.35906678219E+02 -0.86303561898E+01  0.39456040117E+02  0.51100000000E-03 0.  1.
         22    1    1    0    0    0 -0.21987535775E+01 -0.10295642706E+02  0.30269301561E+02  0.32047860974E+02  0.00000000000E+00 0. -1.
</event>
<event>
 5    1  0.8900327E-005  0.9118800E+02  0.7818608E-02  0.1130116E+00
         25   -1    0    0    0    0  0.00000000000E+00  0.00000000000E+00  0.99999998245E-14  0.12500000000E+03  0.12500000000E+03 0.  0.
        -11    1    3    3    0    0  0.55623926384E+02  0.22531024396E+02  0.10362783082E+02  0.60902015732E+02  0.51100000000E-03 0. -1.
         23    2    1    0    0    0  0.24336321934E+02  0.11127810570E+02  0.14674300672E+02  0.94480828426E+02  0.89415921997E+02 0.  0.
         11    1    3    3    0    0 -0.31287604450E+02 -0.11403213826E+02  0.43115175899E+01  0.33578812694E+02  0.51100000000E-03 0.  1.
         22    1    1    0    0    0 -0.24336321934E+02 -0.11127810570E+02 -0.14674300672E+02  0.30519171574E+02  0.00000000000E+00 0. -1.
</event>
<event>
 5    1  0.8900327E-005  0.9118800E+02  0.7818608E-02  0.1130116E+00
         25   -1    0    0    0    0  0.00000000000E+00  0.00000000000E+00  0.99999998245E-14  0.12500000000E+03  0.12500000000E+03 0.  0.
        -11    1    3    3    0    0  0.13032411305E+02 -0.47973571607E+02 -0.31643497471E+02  0.58928925407E+02  0.51100000000E-03 0. -1.
         23    2    1    0    0    0 -0.69227392732E+01 -0.30994930773E+02 -0.16097148136E+02  0.89394828595E+02  0.81998214301E+02 0.  0.
         11    1    3    3    0    0 -0.19955150578E+02  0.16978640834E+02  0.15546349334E+02  0.30465903188E+02  0.51100000000E-03 0.  1.
         22    1    1    0    0    0  0.69227392732E+01  0.30994930773E+02  0.16097148136E+02  0.35605171405E+02  0.00000000000E+00 0. -1.
</event>
<event>
 5    1  0.8900327E-005  0.9118800E+02  0.7818608E-02  0.1130116E+00
         25   -1    0    0    0    0  0.00000000000E+00  0.00000000000E+00  0.99999998245E-14  0.12500000000E+03  0.12500000000E+03 0.  0.
        -11    1    3    3    0    0 -0.34030587745E+02 -0.24356168677E+02  0.10248602984E+02  0.43085237824E+02  0.51100000000E-03 0. -1.
         23    2    1    0    0    0  0.22508804487E+01  0.97571600852E+01  0.27456393420E+02  0.95774631305E+02  0.91206676435E+02 0.  0.
         11    1    3    3    0    0  0.36281468194E+02  0.34113328762E+02  0.17207790435E+02  0.52689393482E+02  0.51100000000E-03 0.  1.
         22    1    1    0    0    0 -0.22508804487E+01 -0.97571600852E+01 -0.27456393420E+02  0.29225368695E+02  0.00000000000E+00 0.  1.
</event>
<event>
 5    1  0.8900327E-005  0.9118800E+02  0.7818608E-02  0.1130116E+00
         25   -1    0    0    0    0  0.00000000000E+00  0.00000000000E+00  0.99999998245E-14  0.12500000000E+03  0.12500000000E+03 0.  0.
        -11    1    3    3    0    0 -0.23375829337E+02  0.31951216934E+02 -0.18751305267E+02  0.43805491781E+02  0.51100000000E-03 0. -1.
         23    2    1    0    0    0  0.24176028364E+02  0.72496789988E+01 -0.85403270847E+01  0.98354636806E+02  0.94676603242E+02 0.  0.
         11    1    3    3    0    0  0.47551857701E+02 -0.24701537935E+02  0.10210978182E+02  0.54549145024E+02  0.51100000000E-03 0.  1.
         22    1    1    0    0    0 -0.24176028364E+02 -0.72496789988E+01  0.85403270847E+01  0.26645363194E+02  0.00000000000E+00 0.  1.
</event>
<event>
 5    1  0.8900327E-005  0.9118800E+02  0.7818608E-02  0.1130116E+00
         25   -1    0    0    0    0  0.00000000000E+00  0.00000000000E+00  0.99999998245E-14  0.12500000000E+03  0.12500000000E+03 0.  0.
        -11    1    3    3    0    0 -0.16582717523E+02  0.32815833701E+02  0.15611431041E+02  0.39944739846E+02  0.51100000000E-03 0. -1.
         23    2    1    0    0    0 -0.24837404500E+02 -0.15264325073E+02 -0.88711870863E+01  0.94527155654E+02  0.89480662232E+02 0.  0.
         11    1    3    3    0    0 -0.82546869770E+01 -0.48080158774E+02 -0.24482618127E+02  0.54582415808E+02  0.51100000000E-03 0.  1.
         22    1    1    0    0    0  0.24837404500E+02  0.15264325073E+02  0.88711870863E+01  0.30472844346E+02  0.00000000000E+00 0.  1.
</event>
<event>
 5    1  0.8900327E-005  0.9118800E+02  0.7818608E-02  0.1130116E+00
         25   -1    0    0    0    0  0.00000000000E+00  0.00000000000E+00  0.99999998245E-14  0.12500000000E+03  0.12500000000E+03 0.  0.
        -11    1    3    3    0    0  0.80293301798E+01 -0.31410736240E+02 -0.81522159877E+01  0.33429973378E+02  0.51100000000E-03 0.  1.
         23    2    1    0    0    0 -0.84043922553E+01  0.28003242700E+02  0.97312092546E+00  0.95746583529E+02  0.91168228469E+02 0.  0.
         11    1    3    3    0    0 -0.16433722435E+02  0.59413978940E+02  0.91253369131E+01  0.62316610151E+02  0.51100000000E-03 0. -1.
         22    1    1    0    0    0  0.84043922553E+01 -0.28003242700E+02 -0.97312092546E+00  0.29253416471E+02  0.00000000000E+00 0. -1.
</event>
<event>
 5    1  0.8900327E-005  0.9118800E+02  0.7818608E-02  0.1130116E+00
         25   -1    0    0    0    0  0.00000000000E+00  0.00000000000E+00  0.99999998245E-14  0.12500000000E+03  0.12500000000E+03 0.  0.
        -11    1    3    3    0    0  0.35141979935E+02 -0.40978794796E+02  0.35265717258E+01  0.54098586720E+02  0.51100000000E-03 0. -1.
         23    2    1    0    0    0  0.13924992142E+02 -0.17622714595E+02 -0.21144537271E+02  0.94152683549E+02  0.88956005346E+02 0.  0.
         11    1    3    3    0    0 -0.21216987793E+02  0.23356080201E+02 -0.24671108996E+02  0.40054096828E+02  0.51100000000E-03 0.  1.
         22    1    1    0    0    0 -0.13924992142E+02  0.17622714595E+02  0.21144537271E+02  0.30847316451E+02  0.00000000000E+00 0. -1.
</event>
<event>
 5    1  0.8900327E-005  0.9118800E+02  0.7818608E-02  0.1130116E+00
         25   -1    0    0    0    0  0.00000000000E+00  0.00000000000E+00  0.99999998245E-14  0.12500000000E+03  0.12500000000E+03 0.  0.
        -11    1    3    3    0    0 -0.51244662579E+02 -0.12919689857E+02 -0.28662219861E+02  0.60120351600E+02  0.51100000000E-03 0. -1.
         23    2    1    0    0    0 -0.17199998005E+02 -0.11253066540E+02 -0.22076895435E+02  0.94836101877E+02  0.89911208808E+02 0.  0.
         11    1    3    3    0    0  0.34044664574E+02  0.16666233164E+01  0.65853244260E+01  0.34715750277E+02  0.51100000000E-03 0.  1.
         22    1    1    0    0    0  0.17199998005E+02  0.11253066540E+02  0.22076895435E+02  0.30163898123E+02  0.00000000000E+00 0. -1.
</event>
<event>
 5    1  0.8900327E-005  0.9118800E+02  0.7818608E-02  0.1130116E+00
         25   -1    0    0    0    0  0.00000000000E+00  0.00000000000E+00  0.99999998245E-14  0.12500000000E+03  0.12500000000E+03 0.  0.
        -11    1    3    3    0    0  0.24595075222E+02  0.38359917853E+02 -0.60646137394E+01  0.45969343730E+02  0.51100000000E-03 0.  1.
         23    2    1    0    0    0 -0.17390495318E+02  0.11709459305E+02 -0.18288138514E+02  0.97179202474E+02  0.93111764126E+02 0.  0.
         11    1    3    3    0    0 -0.41985570541E+02 -0.26650458548E+02 -0.12223524775E+02  0.51209858745E+02  0.51100000000E-03 0. -1.
         22    1    1    0    0    0  0.17390495318E+02 -0.11709459305E+02  0.18288138514E+02  0.27820797526E+02  0.00000000000E+00 0. -1.
</event>
<event>
 5    1  0.8900327E-005  0.9118800E+02  0.7818608E-02  0.1130116E+00
         25   -1    0    0    0    0  0.00000000000E+00  0.00000000000E+00  0.99999998245E-14  0.12500000000E+03  0.12500000000E+03 0.  0.
        -11    1    3    3    0    0 -0.49623642681E+01 -0.44457102490E+02  0.38445892483E+02  0.58984283246E+02  0.51100000000E-03 0. -1.
         23    2    1    0    0    0  0.33370496451E+01 -0.76506894536E+01  0.24345380691E+02  0.99263517908E+02  0.95869074665E+02 0.  0.
         11    1    3    3    0    0  0.82994139132E+01  0.36806413037E+02 -0.14100511792E+02  0.40279234662E+02  0.51100000000E-03 0.  1.
         22    1    1    0    0    0 -0.33370496451E+01  0.76506894536E+01 -0.24345380691E+02  0.25736482092E+02  0.00000000000E+00 0. -1.
</event>
<event>
 5    1  0.8900327E-005  0.9118800E+02  0.7818608E-02  0.1130116E+00
         25   -1    0    0    0    0  0.00000000000E+00  0.00000000000E+00  0.99999998245E-14  0.12500000000E+03  0.12500000000E+03 0.  0.
        -11    1    3    3    0    0 -0.23477684740E+02 -0.10425823926E+02 -0.21069140481E+02  0.33223608566E+02  0.51100000000E-03 0.  1.
         23    2    1    0    0    0  0.19534675358E+02  0.17662037609E+02  0.13758028984E+02  0.95287469388E+02  0.90536552546E+02 0.  0.
         11    1    3    3    0    0  0.43012360098E+02  0.28087861535E+02  0.34827169466E+02  0.62063860821E+02  0.51100000000E-03 0. -1.
         22    1    1    0    0    0 -0.19534675358E+02 -0.17662037609E+02 -0.13758028984E+02  0.29712530612E+02  0.00000000000E+00 0. -1.
</event>
<event>
 5    1  0.8900327E-005  0.9118800E+02  0.7818608E-02  0.1130116E+00
         25   -1    0    0    0    0  0.00000000000E+00  0.00000000000E+00  0.99999998245E-14  0.12500000000E+03  0.12500000000E+03 0.  0.
        -11    1    3    3    0    0  0.19565225670E+02 -0.44047447189E+02 -0.89318350633E+01  0.49017887932E+02  0.51100000000E-03 0.  1.
         23    2    1    0    0    0  0.39862710782E+01 -0.67636993453E+01  0.23113174497E+02  0.10058982136E+03  0.97583068920E+02 0.  0.
         11    1    3    3    0    0 -0.15578954592E+02  0.37283747844E+02  0.32045009560E+02  0.51571933428E+02  0.51100000000E-03 0. -1.
         22    1    1    0    0    0 -0.39862710782E+01  0.67636993453E+01 -0.23113174497E+02  0.24410178641E+02  0.00000000000E+00 0. -1.
</event>
<event>
 5    1  0.8900327E-005  0.9118800E+02  0.7818608E-02  0.1130116E+00
         25   -1    0    0    0    0  0.00000000000E+00  0.00000000000E+00  0.99999998245E-14  0.12500000000E+03  0.12500000000E+03 0.  0.
        -11    1    3    3    0    0 -0.51160176624E+02 -0.20465469602E+02  0.16735378277E+02  0.57587081924E+02  0.51100000000E-03 0. -1.
         23    2    1    0    0    0 -0.27822279930E+02  0.50445587314E+01 -0.15159229103E+01  0.96683487934E+02  0.92443885593E+02 0.  0.
         11    1    3    3    0    0  0.23337896694E+02  0.25510028333E+02 -0.18251301187E+02  0.39096406010E+02  0.51100000000E-03 0.  1.
         22    1    1    0    0    0  0.27822279930E+02 -0.50445587314E+01  0.15159229103E+01  0.28316512066E+02  0.00000000000E+00 0. -1.
</event>
<event>
 5    1  0.8900327E-005  0.9118800E+02  0.7818608E-02  0.1130116E+00
         25   -1    0    0    0    0  0.00000000000E+00  0.00000000000E+00  0.99999998245E-14  0.12500000000E+03  0.12500000000E+03 0.  0.
        -11    1    3    3    0    0  0.43401644403E+02  0.93398268072E+01 -0.30539894213E+02  0.53885250677E+02  0.51100000000E-03 0.  1.
         23    2    1    0    0    0  0.39159799566E+02  0.42795112865E+01  0.48403487888E+00  0.85604081319E+02  0.76000133749E+02 0.  0.
         11    1    3    3    0    0 -0.42418448371E+01 -0.50603155208E+01  0.31023929092E+02  0.31718830643E+02  0.51100000000E-03 0. -1.
         22    1    1    0    0    0 -0.39159799566E+02 -0.42795112865E+01 -0.48403487888E+00  0.39395918681E+02  0.00000000000E+00 0.  1.
</event>
<event>
 5    1  0.8900327E-005  0.9118800E+02  0.7818608E-02  0.1130116E+00
         25   -1    0    0    0    0  0.00000000000E+00  0.00000000000E+00  0.99999998245E-14  0.12500000000E+03  0.12500000000E+03 0.  0.
        -11    1    3    3    0    0 -0.16418754750E+02  0.41513559551E+02  0.37691795180E+02  0.58426214650E+02  0.51100000000E-03 0.  1.
         23    2    1    0    0    0 -0.20562318388E+02  0.96125484057E+01  0.15000886250E+02  0.97792710303E+02  0.93931770855E+02 0.  0.
         11    1    3    3    0    0 -0.41435636380E+01 -0.31901011145E+02 -0.22690908930E+02  0.39366495654E+02  0.51100000000E-03 0. -1.
         22    1    1    0    0    0  0.20562318388E+02 -0.96125484057E+01 -0.15000886250E+02  0.27207289697E+02  0.00000000000E+00 0.  1.
</event>
<event>
 5    1  0.8900327E-005  0.9118800E+02  0.7818608E-02  0.1130116E+00
         25   -1    0    0    0    0  0.00000000000E+00  0.00000000000E+00  0.99999998245E-14  0.12500000000E+03  0.12500000000E+03 0.  0.
        -11    1    3    3    0    0 -0.10355422352E+02  0.30537478343E+02 -0.41955554239E+02  0.52915412569E+02  0.51100000000E-03 0. -1.
         23    2    1    0    0    0 -0.93417423608E+00 -0.93864427625E+01 -0.26703198922E+02  0.96679710067E+02  0.92438777127E+02 0.  0.
         11    1    3    3    0    0  0.94212481155E+01 -0.39923921105E+02  0.15252355318E+02  0.43764297498E+02  0.51100000000E-03 0.  1.
         22    1    1    0    0    0  0.93417423608E+00  0.93864427625E+01  0.26703198922E+02  0.28320289933E+02  0.00000000000E+00 0. -1.
</event>
<event>
 5    1  0.8900327E-005  0.9118800E+02  0.7818608E-02  0.1130116E+00
         25   -1    0    0    0    0  0.00000000000E+00  0.00000000000E+00  0.99999998245E-14  0.12500000000E+03  0.12500000000E+03 0.  0.
        -11    1    3    3    0    0 -0.28729217541E+02 -0.27365480156E+02 -0.19959845049E+02  0.44414331689E+02  0.51100000000E-03 0. -1.
         23    2    1    0    0    0  0.88609194257E+01  0.78506790016E+01 -0.26150929325E+02  0.96294248687E+02  0.91916060467E+02 0.  0.
         11    1    3    3    0    0  0.37590136967E+02  0.35216159158E+02 -0.61910842760E+01  0.51879916999E+02  0.51100000000E-03 0.  1.
         22    1    1    0    0    0 -0.88609194257E+01 -0.78506790016E+01  0.26150929325E+02  0.28705751313E+02  0.00000000000E+00 0.  1.
</event>
<event>
 5    1  0.8900327E-005  0.9118800E+02  0.7818608E-02  0.1130116E+00
         25   -1    0    0    0    0  0.00000000000E+00  0.00000000000E+00  0.99999998245E-14  0.12500000000E+03  0.12500000000E+03 0.  0.
        -11    1    3    3    0    0 -0.24669723946E+02 -0.15787390235E+01  0.32418913302E+02  0.40768537335E+02  0.51100000000E-03 0.  1.
         23    2    1    0    0    0  0.41968307937E+01 -0.29232944014E+02 -0.44305123856E+01  0.95136848050E+02  0.90328356635E+02 0.  0.
         11    1    3    3    0    0  0.28866554740E+02 -0.27654204990E+02 -0.36849425687E+02  0.54368310715E+02  0.51100000000E-03 0. -1.
         22    1    1    0    0    0 -0.41968307937E+01  0.29232944014E+02  0.44305123856E+01  0.29863151950E+02  0.00000000000E+00 0. -1.
</event>
<event>
 5    1  0.8900327E-005  0.9118800E+02  0.7818608E-02  0.1130116E+00
         25   -1    0    0    0    0  0.00000000000E+00  0.00000000000E+00  0.99999998245E-14  0.12500000000E+03  0.12500000000E+03 0.  0.
        -11    1    3    3    0    0 -0.72535124593E+01  0.70553669142E+01 -0.32233750743E+02  0.33784705601E+02  0.51100000000E-03 0.  1.
         23    2    1    0    0    0 -0.17037909441E+02 -0.36593782982E+02 -0.11938472937E+02  0.82905790813E+02  0.71424419516E+02 0.  0.
         11    1    3    3    0    0 -0.97843969817E+01 -0.43649149896E+02  0.20295277806E+02  0.49121085212E+02  0.51100000000E-03 0. -1.
         22    1    1    0    0    0  0.17037909441E+02  0.36593782982E+02  0.11938472937E+02  0.42094209187E+02  0.00000000000E+00 0. -1.
</event>
<event>
 5    1  0.8900327E-005  0.9118800E+02  0.7818608E-02  0.1130116E+00
         25   -1    0    0    0    0  0.00000000000E+00  0.00000000000E+00  0.99999998245E-14  0.12500000000E+03  0.12500000000E+03 0.  0.
        -11    1    3    3    0    0 -0.19137845850E+02 -0.47790304206E+01 -0.52233303670E+02  0.55833809543E+02  0.51100000000E-03 0. -1.
         23    2    1    0    0    0  0.83330364084E+01 -0.14016794199E+02 -0.17264838938E+02  0.10125163839E+03  0.98427179166E+02 0.  0.
         11    1    3    3    0    0  0.27470882258E+02 -0.92377637782E+01  0.34968464732E+02  0.45417828852E+02  0.51100000000E-03 0.  1.
         22    1    1    0    0    0 -0.83330364084E+01  0.14016794199E+02  0.17264838938E+02  0.23748361606E+02  0.00000000000E+00 0. -1.
</event>
<event>
 5    1  0.8900327E-005  0.9118800E+02  0.7818608E-02  0.1130116E+00
         25   -1    0    0    0    0  0.00000000000E+00  0.00000000000E+00  0.99999998245E-14  0.12500000000E+03  0.12500000000E+03 0.  0.
        -11    1    3    3    0    0  0.18275388677E+01  0.12265115666E+01 -0.36258706370E+02  0.36325445858E+02  0.51100000000E-03 0.  1.
         23    2    1    0    0    0  0.10039323226E+02  0.30065352264E+02  0.10271210502E+02  0.91680168326E+02  0.85411018502E+02 0.  0.
         11    1    3    3    0    0  0.82117843588E+01  0.28838840697E+02  0.46529916872E+02  0.55354722468E+02  0.51100000000E-03 0. -1.
         22    1    1    0    0    0 -0.10039323226E+02 -0.30065352264E+02 -0.10271210502E+02  0.33319831674E+02  0.00000000000E+00 0. -1.
</event>
<event>
 5    1  0.8900327E-005  0.9118800E+02  0.7818608E-02  0.1130116E+00
         25   -1    0    0    0    0  0.00000000000E+00  0.00000000000E+00  0.99999998245E-14  0.12500000000E+03  0.12500000000E+03 0.  0.
        -11    1    3    3    0    0  0.36513669321E+02  0.97553206919E+01  0.28556451877E+02  0.47369666170E+02  0.51100000000E-03 0.  1.
         23    2    1    0    0    0  0.75611863769E+01 -0.25472721115E+02  0.97011060973E+01  0.96713209445E+02  0.92484065445E+02 0.  0.
         11    1    3    3    0    0 -0.28952482944E+02 -0.35228041807E+02 -0.18855345779E+02  0.49343543274E+02  0.51100000000E-03 0. -1.
         22    1    1    0    0    0 -0.75611863769E+01  0.25472721115E+02 -0.97011060973E+01  0.28286790555E+02  0.00000000000E+00 0. -1.
</event>
<event>
 5    1  0.8900327E-005  0.9118800E+02  0.7818608E-02  0.1130116E+00
         25   -1    0    0    0    0  0.00000000000E+00  0.00000000000E+00  0.99999998245E-14  0.12500000000E+03  0.12500000000E+03 0.  0.
        -11    1    3    3    0    0  0.48906225665E+02  0.12066024135E+01  0.26220636283E+01  0.48991325927E+02  0.51100000000E-03 0. -1.
         23    2    1    0    0    0  0.10584212157E+02  0.13681222097E+02 -0.22604351367E+02  0.96536723910E+02  0.92245221977E+02 0.  0.
         11    1    3    3    0    0 -0.38322013508E+02  0.12474619684E+02 -0.25226414995E+02  0.47545397983E+02  0.51100000000E-03 0.  1.
         22    1    1    0    0    0 -0.10584212157E+02 -0.13681222097E+02  0.22604351367E+02  0.28463276090E+02  0.00000000000E+00 0.  1.
</event>
<event>
 5    1  0.8900327E-005  0.9118800E+02  0.7818608E-02  0.1130116E+00
         25   -1    0    0    0    0  0.00000000000E+00  0.00000000000E+00  0.99999998245E-14  0.12500000000E+03  0.12500000000E+03 0.  0.
        -11    1    3    3    0    0  0.44710028952E+02  0.43899691769E-01  0.26512782102E+02  0.51979959899E+02  0.51100000000E-03 0. -1.
         23    2    1    0    0    0  0.11692027482E+02 -0.24302862861E+02  0.11801691375E+02  0.95561715927E+02  0.90914404699E+02 0.  0.
         11    1    3    3    0    0 -0.33018001470E+02 -0.24346762552E+02 -0.14711090727E+02  0.43581756028E+02  0.51100000000E-03 0.  1.
         22    1    1    0    0    0 -0.11692027482E+02  0.24302862861E+02 -0.11801691375E+02  0.29438284073E+02  0.00000000000E+00 0.  1.
</event>
<event>
 5    1  0.8900327E-005  0.9118800E+02  0.7818608E-02  0.1130116E+00
         25   -1    0    0    0    0  0.00000000000E+00  0.00000000000E+00  0.99999998245E-14  0.12500000000E+03  0.12500000000E+03 0.  0.
        -11    1    3    3    0    0  0.87895044296E+01 -0.14937849138E+02 -0.49899061092E+02  0.52823394657E+02  0.51100000000E-03 0.  1.
         23    2    1    0    0    0 -0.68458308705E+01  0.15425789724E+02 -0.23880196594E+02  0.95758177583E+02  0.91184123594E+02 0.  0.
         11    1    3    3    0    0 -0.15635335300E+02  0.30363638862E+02  0.26018864497E+02  0.42934782926E+02  0.51100000000E-03 0. -1.
         22    1    1    0    0    0  0.68458308705E+01 -0.15425789724E+02  0.23880196594E+02  0.29241822417E+02  0.00000000000E+00 0.  1.
</event>
<event>
 5    1  0.8900327E-005  0.9118800E+02  0.7818608E-02  0.1130116E+00
         25   -1    0    0    0    0  0.00000000000E+00  0.00000000000E+00  0.99999998245E-14  0.12500000000E+03  0.12500000000E+03 0.  0.
        -11    1    3    3    0    0  0.30538101991E+02  0.19773222543E+02  0.18201133769E+02  0.40679691170E+02  0.51100000000E-03 0. -1.
         23    2    1    0    0    0  0.13597287572E+02 -0.21349645893E+02 -0.14450112132E+02  0.95853827872E+02  0.91315151908E+02 0.  0.
         11    1    3    3    0    0 -0.16940814419E+02 -0.41122868436E+02 -0.32651245902E+02  0.55174136702E+02  0.51100000000E-03 0.  1.
         22    1    1    0    0    0 -0.13597287572E+02  0.21349645893E+02  0.14450112132E+02  0.29146172128E+02  0.00000000000E+00 0.  1.
</event>
<event>
 4    1  0.8900327E-005  0.9118800E+02  0.7818608E-02  0.1130116E+00
         25   -1    0    0    0    0  0.00000000000E+00  0.00000000000E+00  0.99999998245E-14  0.12500000000E+03  0.12500000000E+03 0.  0.
        -11    1    1    0    0    0  0.42712216562E+02  0.15322109447E+02 -0.29448430200E+01  0.45472767479E+02  0.51100000000E-03 0. -1.
         11    1    1    0    0    0  0.67798055492E+01 -0.54677173744E+01  0.23481574844E+02  0.25044880794E+02  0.51100000000E-03 0.  1.
         22    1    1    0    0    0 -0.49492022111E+02 -0.98543920726E+01 -0.20536731824E+02  0.54482351727E+02  0.00000000000E+00 0. -1.
</event>
<event>
 5    1  0.8900327E-005  0.9118800E+02  0.7818608E-02  0.1130116E+00
         25   -1    0    0    0    0  0.00000000000E+00  0.00000000000E+00  0.99999998245E-14  0.12500000000E+03  0.12500000000E+03 0.  0.
        -11    1    3    3    0    0 -0.31636924842E+02  0.22767035668E+02 -0.29182761877E+02  0.48691544621E+02  0.51100000000E-03 0.  1.
         23    2    1    0    0    0 -0.16672895159E+02 -0.19407623072E+02 -0.13191593239E+02  0.96213555300E+02  0.91806257003E+02 0.  0.
         11    1    3    3    0    0  0.14964029683E+02 -0.42174658741E+02  0.15991168638E+02  0.47522010678E+02  0.51100000000E-03 0. -1.
         22    1    1    0    0    0  0.16672895159E+02  0.19407623072E+02  0.13191593239E+02  0.28786444700E+02  0.00000000000E+00 0. -1.
</event>
<event>
 5    1  0.8900327E-005  0.9118800E+02  0.7818608E-02  0.1130116E+00
         25   -1    0    0    0    0  0.00000000000E+00  0.00000000000E+00  0.99999998245E-14  0.12500000000E+03  0.12500000000E+03 0.  0.
        -11    1    3    3    0    0  0.30603755116E+02  0.15150791292E+02  0.25405989219E+02  0.42562901598E+02  0.51100000000E-03 0. -1.
         23    2    1    0    0    0 -0.16147583414E+02 -0.79507577964E+01  0.24348449789E+02  0.94721195420E+02  0.89751316732E+02 0.  0.
         11    1    3    3    0    0 -0.46751338530E+02 -0.23101549088E+02 -0.10575394299E+01  0.52158293823E+02  0.51100000000E-03 0.  1.
         22    1    1    0    0    0  0.16147583414E+02  0.79507577964E+01 -0.24348449789E+02  0.30278804580E+02  0.00000000000E+00 0.  1.
</event>
<event>
 5    1  0.8900327E-005  0.9118800E+02  0.7818608E-02  0.1130116E+00
         25   -1    0    0    0    0  0.00000000000E+00  0.00000000000E+00  0.99999998245E-14  0.12500000000E+03  0.12500000000E+03 0.  0.
        -11    1    3    3    0    0 -0.48900215266E+01 -0.19113477158E+02  0.55546374274E+02  0.58946051733E+02  0.51100000000E-03 0.  1.
         23    2    1    0    0    0 -0.13149810451E+02 -0.17087591766E+02  0.19678337660E+02  0.95808558098E+02  0.91253161723E+02 0.  0.
         11    1    3    3    0    0 -0.82597889241E+01  0.20258853919E+01 -0.35868036614E+02  0.36862506365E+02  0.51100000000E-03 0. -1.
         22    1    1    0    0    0  0.13149810451E+02  0.17087591766E+02 -0.19678337660E+02  0.29191441902E+02  0.00000000000E+00 0.  1.
</event>
<event>
 5    1  0.8900327E-005  0.9118800E+02  0.7818608E-02  0.1130116E+00
         25   -1    0    0    0    0  0.00000000000E+00  0.00000000000E+00  0.99999998245E-14  0.12500000000E+03  0.12500000000E+03 0.  0.
        -11    1    3    3    0    0 -0.22822314735E+02  0.41988043012E+01  0.23943548917E+02  0.33343388287E+02  0.51100000000E-03 0.  1.
         23    2    1    0    0    0  0.73281777097E+01 -0.26107611831E+02 -0.17372752487E+02  0.92795619661E+02  0.87028184603E+02 0.  0.
         11    1    3    3    0    0  0.30150492445E+02 -0.30306416132E+02 -0.41316301404E+02  0.59452231374E+02  0.51100000000E-03 0. -1.
         22    1    1    0    0    0 -0.73281777097E+01  0.26107611831E+02  0.17372752487E+02  0.32204380339E+02  0.00000000000E+00 0. -1.
</event>
<event>
 5    1  0.8900327E-005  0.9118800E+02  0.7818608E-02  0.1130116E+00
         25   -1    0    0    0    0  0.00000000000E+00  0.00000000000E+00  0.99999998245E-14  0.12500000000E+03  0.12500000000E+03 0.  0.
        -11    1    3    3    0    0  0.36797032427E+02  0.20819393419E+02 -0.26850280443E+01  0.42363641411E+02  0.51100000000E-03 0. -1.
         23    2    1    0    0    0 -0.49512978048E+01 -0.56461337814E+01  0.24915377680E+02  0.98977505470E+02  0.95495425898E+02 0.  0.
         11    1    3    3    0    0 -0.41748330232E+02 -0.26465527201E+02  0.27600405725E+02  0.56613864058E+02  0.51100000000E-03 0.  1.
         22    1    1    0    0    0  0.49512978048E+01  0.56461337814E+01 -0.24915377680E+02  0.26022494530E+02  0.00000000000E+00 0.  1.
</event>
<event>
 4    1  0.8900327E-005  0.9118800E+02  0.7818608E-02  0.1130116E+00
         25   -1    0    0    0    0  0.00000000000E+00  0.00000000000E+00  0.99999998245E-14  0.12500000000E+03  0.12500000000E+03 0.  0.
        -11    1    1    0    0    0  0.14236580349E+01  0.72720137206E+01  0.92868347665E+01  0.11880836923E+02  0.51100000000E-03 0.  1.
         11    1    1    0    0    0  0.59837471191E+01 -0.56831326485E+02 -0.22307717642E+02  0.61345245670E+02  0.51100000000E-03 0. -1.
         22    1    1    0    0    0 -0.74074051539E+01  0.49559312764E+02  0.13020882876E+02  0.51773917407E+02  0.00000000000E+00 0. -1.
</event>
<event>
 5    1  0.8900327E-005  0.9118800E+02  0.7818608E-02  0.1130116E+00
         25   -1    0    0    0    0  0.00000000000E+00  0.00000000000E+00  0.99999998245E-14  0.12500000000E+03  0.12500000000E+03 0.  0.
        -11    1    3    3    0    0  0.45070381577E+00 -0.35357148707E+02  0.20370596288E+02  0.40807992992E+02  0.51100000000E-03 0.  1.
         23    2    1    0    0    0 -0.26679766023E+02 -0.13256876691E+01 -0.12654168229E+02  0.95441662151E+02  0.90749190287E+02 0.  0.
         11    1    3    3    0    0 -0.27130469839E+02  0.34031461038E+02 -0.33024764517E+02  0.54633669159E+02  0.51100000000E-03 0. -1.
         22    1    1    0    0    0  0.26679766023E+02  0.13256876691E+01  0.12654168229E+02  0.29558337849E+02  0.00000000000E+00 0.  1.
</event>
<event>
 5    1  0.8900327E-005  0.9118800E+02  0.7818608E-02  0.1130116E+00
         25   -1    0    0    0    0  0.00000000000E+00  0.00000000000E+00  0.99999998245E-14  0.12500000000E+03  0.12500000000E+03 0.  0.
        -11    1    3    3    0    0 -0.10263128709E+02 -0.47394424566E+02  0.14260240560E+02  0.50546194238E+02  0.51100000000E-03 0.  1.
         23    2    1    0    0    0  0.10237244429E+02 -0.92235020765E+01  0.26120446069E+02  0.95467782561E+02  0.90785162004E+02 0.  0.
         11    1    3    3    0    0  0.20500373138E+02  0.38170922489E+02  0.11860205509E+02  0.44921588323E+02  0.51100000000E-03 0. -1.
         22    1    1    0    0    0 -0.10237244429E+02  0.92235020765E+01 -0.26120446069E+02  0.29532217439E+02  0.00000000000E+00 0.  1.
</event>
<event>
 5    1  0.8900327E-005  0.9118800E+02  0.7818608E-02  0.1130116E+00
         25   -1    0    0    0    0  0.00000000000E+00  0.00000000000E+00  0.99999998245E-14  0.12500000000E+03  0.12500000000E+03 0.  0.
        -11    1    3    3    0    0 -0.96872061097E+01 -0.46987152875E+02  0.18061912881E+02  0.51262727148E+02  0.51100000000E-03 0. -1.
         23    2    1    0    0    0 -0.48771988484E+01 -0.10736357643E+02  0.32383971627E+02  0.90535843803E+02  0.83719537449E+02 0.  0.
         11    1    3    3    0    0  0.48100072613E+01  0.36250795232E+02  0.14322058746E+02  0.39273116655E+02  0.51100000000E-03 0.  1.
         22    1    1    0    0    0  0.48771988484E+01  0.10736357643E+02 -0.32383971627E+02  0.34464156197E+02  0.00000000000E+00 0.  1.
</event>
<event>
 5    1  0.8900327E-005  0.9118800E+02  0.7818608E-02  0.1130116E+00
         25   -1    0    0    0    0  0.00000000000E+00  0.00000000000E+00  0.99999998245E-14  0.12500000000E+03  0.12500000000E+03 0.  0.
        -11    1    3    3    0    0 -0.27525603557E+02  0.23314549486E+02  0.87831487175E+01  0.37126416075E+02  0.51100000000E-03 0. -1.
         23    2    1    0    0    0  0.25037193599E+02  0.83172560298E+01 -0.12527543700E+02  0.95794227244E+02  0.91233528984E+02 0.  0.
         11    1    3    3    0    0  0.52562797155E+02 -0.14997293457E+02 -0.21310692417E+02  0.58667811169E+02  0.51100000000E-03 0.  1.
         22    1    1    0    0    0 -0.25037193599E+02 -0.83172560298E+01  0.12527543700E+02  0.29205772756E+02  0.00000000000E+00 0.  1.
</event>
<event>
 5    1  0.8900327E-005  0.9118800E+02  0.7818608E-02  0.1130116E+00
         25   -1    0    0    0    0  0.00000000000E+00  0.00000000000E+00  0.99999998245E-14  0.12500000000E+03  0.12500000000E+03 0.  0.
        -11    1    3    3    0    0  0.91597290120E+01 -0.28807162744E+02 -0.12138446140E+02  0.32574455266E+02  0.51100000000E-03 0.  1.
         23    2    1    0    0    0  0.53606616687E+01  0.17070561445E+02  0.26737260749E+02  0.92828244158E+02  0.87075031091E+02 0.  0.
         11    1    3    3    0    0 -0.37990673433E+01  0.45877724189E+02  0.38875706890E+02  0.60253788892E+02  0.51100000000E-03 0. -1.
         22    1    1    0    0    0 -0.53606616687E+01 -0.17070561445E+02 -0.26737260749E+02  0.32171755842E+02  0.00000000000E+00 0. -1.
</event>
<event>
 5    1  0.8900327E-005  0.9118800E+02  0.7818608E-02  0.1130116E+00
         25   -1    0    0    0    0  0.00000000000E+00  0.00000000000E+00  0.99999998245E-14  0.12500000000E+03  0.12500000000E+03 0.  0.
        -11    1    3    3    0    0  0.38606576109E+02  0.10541593835E+01 -0.17050385176E+02  0.42217231148E+02  0.51100000000E-03 0.  1.
         23    2    1    0    0    0 -0.15299983310E+01  0.30879673971E+02 -0.46737597330E+01  0.93731178636E+02  0.88361726211E+02 0.  0.
         11    1    3    3    0    0 -0.40136574440E+02  0.29825514588E+02  0.12376625443E+02  0.51513947488E+02  0.51100000000E-03 0. -1.
         22    1    1    0    0    0  0.15299983310E+01 -0.30879673971E+02  0.46737597330E+01  0.31268821364E+02  0.00000000000E+00 0.  1.
</event>
<event>
 5    1  0.8900327E-005  0.9118800E+02  0.7818608E-02  0.1130116E+00
         25   -1    0    0    0    0  0.00000000000E+00  0.00000000000E+00  0.99999998245E-14  0.12500000000E+03  0.12500000000E+03 0.  0.
        -11    1    3    3    0    0 -0.38334371103E+02 -0.30166127089E+02  0.37409825256E+02  0.61473687521E+02  0.51100000000E-03 0.  1.
         23    2    1    0    0    0 -0.12681003807E+02 -0.19637050263E+02  0.14087140267E+02  0.97707709486E+02  0.93818587559E+02 0.  0.
         11    1    3    3    0    0  0.25653367296E+02  0.10529076826E+02 -0.23322684989E+02  0.36234021966E+02  0.51100000000E-03 0. -1.
         22    1    1    0    0    0  0.12681003807E+02  0.19637050263E+02 -0.14087140267E+02  0.27292290514E+02  0.00000000000E+00 0.  1.
</event>
<event>
 5    1  0.8900327E-005  0.9118800E+02  0.7818608E-02  0.1130116E+00
         25   -1    0    0    0    0  0.00000000000E+00  0.00000000000E+00  0.99999998245E-14  0.12500000000E+03  0.12500000000E+03 0.  0.
        -11    1    3    3    0    0 -0.35918727414E+02  0.20365942808E+02  0.76287775321E+01  0.41989580284E+02  0.51100000000E-03 0. -1.
         23    2    1    0    0    0  0.15530176152E+01  0.34788048573E+01 -0.28217560529E+02  0.96526421560E+02  0.92231260373E+02 0.  0.
         11    1    3    3    0    0  0.37471745029E+02 -0.16887137951E+02 -0.35846338061E+02  0.54536841276E+02  0.51100000000E-03 0.  1.
         22    1    1    0    0    0 -0.15530176152E+01 -0.34788048573E+01  0.28217560529E+02  0.28473578440E+02  0.00000000000E+00 0.  1.
</event>
<event>
 5    1  0.8900327E-005  0.9118800E+02  0.7818608E-02  0.1130116E+00
         25   -1    0    0    0    0  0.00000000000E+00  0.00000000000E+00  0.99999998245E-14  0.12500000000E+03  0.12500000000E+03 0.  0.
        -11    1    3    3    0    0  0.60466827549E+01  0.51834687788E+02 -0.32405090318E+01  0.52286691705E+02  0.51100000000E-03 0. -1.
         23    2    1    0    0    0  0.26080601044E+02  0.15470957137E+02 -0.66893013311E+01  0.93946900028E+02  0.88666369087E+02 0.  0.
         11    1    3    3    0    0  0.20033918289E+02 -0.36363730652E+02 -0.34487922993E+01  0.41660208323E+02  0.51100000000E-03 0.  1.
         22    1    1    0    0    0 -0.26080601044E+02 -0.15470957137E+02  0.66893013311E+01  0.31053099972E+02  0.00000000000E+00 0.  1.
</event>
<event>
 5    1  0.8900327E-005  0.9118800E+02  0.7818608E-02  0.1130116E+00
         25   -1    0    0    0    0  0.00000000000E+00  0.00000000000E+00  0.99999998245E-14  0.12500000000E+03  0.12500000000E+03 0.  0.
        -11    1    3    3    0    0  0.32537586007E+02  0.23091581982E+02 -0.10659384363E+02  0.41298161422E+02  0.51100000000E-03 0. -1.
         23    2    1    0    0    0  0.11822532979E+02 -0.23622726882E+02  0.10455728378E+02  0.96590005855E+02  0.92317395239E+02 0.  0.
         11    1    3    3    0    0 -0.20715053028E+02 -0.46714308864E+02  0.21115112740E+02  0.55291844433E+02  0.51100000000E-03 0.  1.
         22    1    1    0    0    0 -0.11822532979E+02  0.23622726882E+02 -0.10455728378E+02  0.28409994145E+02  0.00000000000E+00 0.  1.
</event>
<event>
 5    1  0.8900327E-005  0.9118800E+02  0.7818608E-02  0.1130116E+00
         25   -1    0    0    0    0  0.00000000000E+00  0.00000000000E+00  0.99999998245E-14  0.12500000000E+03  0.12500000000E+03 0.  0.
        -11    1    3    3    0    0 -0.70095197540E+01  0.31172049002E+02 -0.30373179464E+02  0.44083557447E+02  0.51100000000E-03 0. -1.
         23    2    1    0    0    0  0.15131014344E+02  0.19635505917E+02  0.15110412110E+02  0.95968547370E+02  0.91472054981E+02 0.  0.
         11    1    3    3    0    0  0.22140534098E+02 -0.11536543086E+02  0.45483591574E+02  0.51884989923E+02  0.51100000000E-03 0.  1.
         22    1    1    0    0    0 -0.15131014344E+02 -0.19635505917E+02 -0.15110412110E+02  0.29031452630E+02  0.00000000000E+00 0.  1.
</event>
<event>
 5    1  0.8900327E-005  0.9118800E+02  0.7818608E-02  0.1130116E+00
         25   -1    0    0    0    0  0.00000000000E+00  0.00000000000E+00  0.99999998245E-14  0.12500000000E+03  0.12500000000E+03 0.  0.
        -11    1    3    3    0    0 -0.41640893896E+02  0.15343933247E+02 -0.10064344269E+02  0.45504849827E+02  0.51100000000E-03 0.  1.
         23    2    1    0    0    0  0.50579446346E+01  0.29541627773E+02 -0.21526151756E+01  0.94951300735E+02  0.90071222840E+02 0.  0.
         11    1    3    3    0    0  0.46698838530E+02  0.14197694526E+02  0.79117290939E+01  0.49446450909E+02  0.51100000000E-03 0. -1.
         22    1    1    0    0    0 -0.50579446346E+01 -0.29541627773E+02  0.21526151756E+01  0.30048699265E+02  0.00000000000E+00 0. -1.
</event>
<event>
 5    1  0.8900327E-005  0.9118800E+02  0.7818608E-02  0.1130116E+00
         25   -1    0    0    0    0  0.00000000000E+00  0.00000000000E+00  0.99999998245E-14  0.12500000000E+03  0.12500000000E+03 0.  0.
        -11    1    3    3    0    0 -0.35231478575E+02  0.49696805427E+02  0.30141596038E+00  0.60918965881E+02  0.51100000000E-03 0. -1.
         23    2    1    0    0    0 -0.22038363331E+02  0.17301607427E+02 -0.56969148778E+01  0.96408219416E+02  0.92070922956E+02 0.  0.
         11    1    3    3    0    0  0.13193115244E+02 -0.32395198000E+02 -0.59983308381E+01  0.35489253534E+02  0.51100000000E-03 0.  1.
         22    1    1    0    0    0  0.22038363331E+02 -0.17301607427E+02  0.56969148778E+01  0.28591780584E+02  0.00000000000E+00 0. -1.
</event>
<event>
 5    1  0.8900327E-005  0.9118800E+02  0.7818608E-02  0.1130116E+00
         25   -1    0    0    0    0  0.00000000000E+00  0.00000000000E+00  0.99999998245E-14  0.12500000000E+03  0.12500000000E+03 0.  0.
        -11    1    3    3    0    0 -0.13400914535E+02  0.33595398725E+02  0.16135705081E+01  0.36205509745E+02  0.51100000000E-03 0.  1.
         23    2    1    0    0    0  0.57485622514E+01 -0.20823931034E+02  0.18758433906E+02  0.96389496435E+02  0.92045500209E+02 0.  0.
         11    1    3    3    0    0  0.19149476786E+02 -0.54419329759E+02  0.17144863398E+02  0.60183986689E+02  0.51100000000E-03 0. -1.
         22    1    1    0    0    0 -0.57485622514E+01  0.20823931034E+02 -0.18758433906E+02  0.28610503565E+02  0.00000000000E+00 0. -1.
</event>
<event>
 5    1  0.8900327E-005  0.9118800E+02  0.7818608E-02  0.1130116E+00
         25   -1    0    0    0    0  0.00000000000E+00  0.00000000000E+00  0.99999998245E-14  0.12500000000E+03  0.12500000000E+03 0.  0.
        -11    1    3    3    0    0 -0.19423128447E+02  0.30181603209E+01  0.32609100066E+02  0.38075196884E+02  0.51100000000E-03 0.  1.
         23    2    1    0    0    0  0.21686762015E+01  0.27621089279E+02 -0.13145552680E+02  0.94333515286E+02  0.89209746225E+02 0.  0.
         11    1    3    3    0    0  0.21591804649E+02  0.24602928958E+02 -0.45754652746E+02  0.56258318402E+02  0.51100000000E-03 0. -1.
         22    1    1    0    0    0 -0.21686762015E+01 -0.27621089279E+02  0.13145552680E+02  0.30666484714E+02  0.00000000000E+00 0. -1.
</event>
<event>
 5    1  0.8900327E-005  0.9118800E+02  0.7818608E-02  0.1130116E+00
         25   -1    0    0    0    0  0.00000000000E+00  0.00000000000E+00  0.99999998245E-14  0.12500000000E+03  0.12500000000E+03 0.  0.
        -11    1    3    3    0    0 -0.13624766104E+02 -0.47460884988E+02  0.64966861333E+01  0.49803381273E+02  0.51100000000E-03 0. -1.
         23    2    1    0    0    0 -0.44260520020E+01 -0.12604555653E+02  0.29533860048E+02  0.92585286537E+02  0.86725553525E+02 0.  0.
         11    1    3    3    0    0  0.91987141020E+01  0.34856329335E+02  0.23037173915E+02  0.42781905265E+02  0.51100000000E-03 0.  1.
         22    1    1    0    0    0  0.44260520020E+01  0.12604555653E+02 -0.29533860048E+02  0.32414713463E+02  0.00000000000E+00 0.  1.
</event>
<event>
 5    1  0.8900327E-005  0.9118800E+02  0.7818608E-02  0.1130116E+00
         25   -1    0    0    0    0  0.00000000000E+00  0.00000000000E+00  0.99999998245E-14  0.12500000000E+03  0.12500000000E+03 0.  0.
        -11    1    3    3    0    0  0.17522737519E+01  0.42865779644E+02 -0.19889485589E+02  0.47287812014E+02  0.51100000000E-03 0. -1.
         23    2    1    0    0    0  0.26771630329E+02  0.16582401462E+02  0.73510890422E+01  0.92662177890E+02  0.86836308492E+02 0.  0.
         11    1    3    3    0    0  0.25019356577E+02 -0.26283378182E+02  0.27240574631E+02  0.45374365876E+02  0.51100000000E-03 0.  1.
         22    1    1    0    0    0 -0.26771630329E+02 -0.16582401462E+02 -0.73510890422E+01  0.32337822110E+02  0.00000000000E+00 0. -1.
</event>
<event>
 5    1  0.8900327E-005  0.9118800E+02  0.7818608E-02  0.1130116E+00
         25   -1    0    0    0    0  0.00000000000E+00  0.00000000000E+00  0.99999998245E-14  0.12500000000E+03  0.12500000000E+03 0.  0.
        -11    1    3    3    0    0 -0.38898444634E+01  0.20295400402E+02 -0.42753366118E+02  0.47485623952E+02  0.51100000000E-03 0.  1.
         23    2    1    0    0    0  0.26146301092E+02  0.94014566041E+01 -0.53032724941E+01  0.96713233726E+02  0.92484098263E+02 0.  0.
         11    1    3    3    0    0  0.30036145556E+02 -0.10893943798E+02  0.37450093624E+02  0.49227609774E+02  0.51100000000E-03 0. -1.
         22    1    1    0    0    0 -0.26146301092E+02 -0.94014566041E+01  0.53032724941E+01  0.28286766274E+02  0.00000000000E+00 0.  1.
</event>
<event>
 5    1  0.8900327E-005  0.9118800E+02  0.7818608E-02  0.1130116E+00
         25   -1    0    0    0    0  0.00000000000E+00  0.00000000000E+00  0.99999998245E-14  0.12500000000E+03  0.12500000000E+03 0.  0.
        -11    1    3    3    0    0  0.25600054911E+02  0.43308005251E+02 -0.33045808260E+02  0.60191125376E+02  0.51100000000E-03 0. -1.
         23    2    1    0    0    0  0.49208994599E+01  0.15560797631E+02 -0.24030247300E+02  0.95951653064E+02  0.91448965364E+02 0.  0.
         11    1    3    3    0    0 -0.20679155451E+02 -0.27747207620E+02  0.90155609600E+01  0.35760527688E+02  0.51100000000E-03 0.  1.
         22    1    1    0    0    0 -0.49208994599E+01 -0.15560797631E+02  0.24030247300E+02  0.29048346936E+02  0.00000000000E+00 0. -1.
</event>
<event>
 5    1  0.8900327E-005  0.9118800E+02  0.7818608E-02  0.1130116E+00
         25   -1    0    0    0    0  0.00000000000E+00  0.00000000000E+00  0.99999998245E-14  0.12500000000E+03  0.12500000000E+03 0.  0.
        -11    1    3    3    0    0  0.20600771413E+02  0.22292875431E+02 -0.34580151630E+02  0.46012508786E+02  0.51100000000E-03 0.  1.
         23    2    1    0    0    0 -0.22766538366E+02  0.86114608340E+01 -0.19136009180E+02  0.94037775044E+02  0.88794390369E+02 0.  0.
         11    1    3    3    0    0 -0.43367309779E+02 -0.13681414597E+02  0.15444142450E+02  0.48025266258E+02  0.51100000000E-03 0. -1.
         22    1    1    0    0    0  0.22766538366E+02 -0.86114608340E+01  0.19136009180E+02  0.30962224956E+02  0.00000000000E+00 0. -1.
</event>
<event>
 5    1  0.8900327E-005  0.9118800E+02  0.7818608E-02  0.1130116E+00
         25   -1    0    0    0    0  0.00000000000E+00  0.00000000000E+00  0.99999998245E-14  0.12500000000E+03  0.12500000000E+03 0.  0.
        -11    1    3    3    0    0 -0.28158927169E+02  0.17190795853E+02 -0.19648157203E+02  0.38399202116E+02  0.51100000000E-03 0.  1.
         23    2    1    0    0    0 -0.12029549151E+02 -0.26420142276E+02  0.10852155783E+02  0.94008013039E+02  0.88752483119E+02 0.  0.
         11    1    3    3    0    0  0.16129378019E+02 -0.43610938129E+02  0.30500312986E+02  0.55608810923E+02  0.51100000000E-03 0. -1.
         22    1    1    0    0    0  0.12029549151E+02  0.26420142276E+02 -0.10852155783E+02  0.30991986961E+02  0.00000000000E+00 0. -1.
</event>
<event>
 5    1  0.8900327E-005  0.9118800E+02  0.7818608E-02  0.1130116E+00
         25   -1    0    0    0    0  0.00000000000E+00  0.00000000000E+00  0.99999998245E-14  0.12500000000E+03  0.12500000000E+03 0.  0.
        -11    1    3    3    0    0  0.33186032350E+02  0.43513550488E+01  0.39175266082E+01  0.33698576363E+02  0.51100000000E-03 0.  1.
         23    2    1    0    0    0 -0.28547093945E+02  0.49840471267E+01 -0.32047550231E+01  0.95844421576E+02  0.91302274857E+02 0.  0.
         11    1    3    3    0    0 -0.61733126295E+02  0.63269207789E+00 -0.71222816313E+01  0.62145845214E+02  0.51100000000E-03 0. -1.
         22    1    1    0    0    0  0.28547093945E+02 -0.49840471267E+01  0.32047550231E+01  0.29155578424E+02  0.00000000000E+00 0. -1.
</event>
<event>
 5    1  0.8900327E-005  0.9118800E+02  0.7818608E-02  0.1130116E+00
         25   -1    0    0    0    0  0.00000000000E+00  0.00000000000E+00  0.99999998245E-14  0.12500000000E+03  0.12500000000E+03 0.  0.
        -11    1    3    3    0    0  0.34996459773E+02  0.76196361645E+01 -0.21044463504E+02  0.41541310720E+02  0.51100000000E-03 0.  1.
         23    2    1    0    0    0 -0.14077277193E+02  0.24988199800E+02 -0.84624180124E+01  0.95096950306E+02  0.90273127654E+02 0.  0.
         11    1    3    3    0    0 -0.49073736965E+02  0.17368563635E+02  0.12582045491E+02  0.53555639586E+02  0.51100000000E-03 0. -1.
         22    1    1    0    0    0  0.14077277193E+02 -0.24988199800E+02  0.84624180124E+01  0.29903049694E+02  0.00000000000E+00 0. -1.
</event>
<event>
 5    1  0.8900327E-005  0.9118800E+02  0.7818608E-02  0.1130116E+00
         25   -1    0    0    0    0  0.00000000000E+00  0.00000000000E+00  0.99999998245E-14  0.12500000000E+03  0.12500000000E+03 0.  0.
        -11    1    3    3    0    0 -0.42281491424E+02 -0.20991178397E+02  0.34537457662E+02  0.58490940064E+02  0.51100000000E-03 0.  1.
         23    2    1    0    0    0 -0.13618490852E+02 -0.25427180303E+00  0.27139906200E+02  0.94633860045E+02  0.89629598968E+02 0.  0.
         11    1    3    3    0    0  0.28663000572E+02  0.20736906594E+02 -0.73975514622E+01  0.36142919981E+02  0.51100000000E-03 0. -1.
         22    1    1    0    0    0  0.13618490852E+02  0.25427180303E+00 -0.27139906200E+02  0.30366139955E+02  0.00000000000E+00 0.  1.
</event>
<event>
 5    1  0.8900327E-005  0.9118800E+02  0.7818608E-02  0.1130116E+00
         25   -1    0    0    0    0  0.00000000000E+00  0.00000000000E+00  0.99999998245E-14  0.12500000000E+03  0.12500000000E+03 0.  0.
        -11    1    3    3    0    0  0.57726012470E+02  0.21171621033E+02  0.13124116231E+01  0.61500020141E+02  0.51100000000E-03 0.  1.
         23    2    1    0    0    0  0.22052552224E+02  0.12847543575E+02  0.69150526284E+01  0.98557753719E+02  0.94944396516E+02 0.  0.
         11    1    3    3    0    0 -0.35673460246E+02 -0.83240774579E+01  0.56026410053E+01  0.37057733578E+02  0.51100000000E-03 0. -1.
         22    1    1    0    0    0 -0.22052552224E+02 -0.12847543575E+02 -0.69150526284E+01  0.26442246281E+02  0.00000000000E+00 0.  1.
</event>
<event>
 5    1  0.8900327E-005  0.9118800E+02  0.7818608E-02  0.1130116E+00
         25   -1    0    0    0    0  0.00000000000E+00  0.00000000000E+00  0.99999998245E-14  0.12500000000E+03  0.12500000000E+03 0.  0.
        -11    1    3    3    0    0  0.53409597856E+02  0.11433208209E+02  0.85322802641E+01  0.55282033246E+02  0.51100000000E-03 0. -1.
         23    2    1    0    0    0  0.23439883645E+02 -0.11224100210E+02  0.17194575866E+02  0.93838132116E+02  0.88512897529E+02 0.  0.
         11    1    3    3    0    0 -0.29969714211E+02 -0.22657308419E+02  0.86622956019E+01  0.38556098869E+02  0.51100000000E-03 0.  1.
         22    1    1    0    0    0 -0.23439883645E+02  0.11224100210E+02 -0.17194575866E+02  0.31161867884E+02  0.00000000000E+00 0. -1.
</event>
<event>
 5    1  0.8900327E-005  0.9118800E+02  0.7818608E-02  0.1130116E+00
         25   -1    0    0    0    0  0.00000000000E+00  0.00000000000E+00  0.99999998245E-14  0.12500000000E+03  0.12500000000E+03 0.  0.
        -11    1    3    3    0    0 -0.34689036435E+02  0.39303250460E+02  0.63428442165E+01  0.52804416658E+02  0.51100000000E-03 0. -1.
         23    2    1    0    0    0 -0.26315010432E+02 -0.44866598701E+01  0.70372950411E+01  0.97393236113E+02  0.93398656458E+02 0.  0.
         11    1    3    3    0    0  0.83740260035E+01 -0.43789910330E+02  0.69445082468E+00  0.44588819455E+02  0.51100000000E-03 0.  1.
         22    1    1    0    0    0  0.26315010432E+02  0.44866598701E+01 -0.70372950411E+01  0.27606763887E+02  0.00000000000E+00 0. -1.
</event>
<event>
 5    1  0.8900327E-005  0.9118800E+02  0.7818608E-02  0.1130116E+00
         25   -1    0    0    0    0  0.00000000000E+00  0.00000000000E+00  0.99999998245E-14  0.12500000000E+03  0.12500000000E+03 0.  0.
        -11    1    3    3    0    0 -0.37305882636E+02  0.77358804104E+01 -0.36989369766E+02  0.53101659117E+02  0.51100000000E-03 0.  1.
         23    2    1    0    0    0 -0.30714457727E+02 -0.10264641961E+02 -0.25513669260E+01  0.92515384238E+02  0.86624742767E+02 0.  0.
         11    1    3    3    0    0  0.65914249097E+01 -0.18000522371E+02  0.34438002841E+02  0.39413725121E+02  0.51100000000E-03 0. -1.
         22    1    1    0    0    0  0.30714457727E+02  0.10264641961E+02  0.25513669260E+01  0.32484615762E+02  0.00000000000E+00 0.  1.
</event>
<event>
 5    1  0.8900327E-005  0.9118800E+02  0.7818608E-02  0.1130116E+00
         25   -1    0    0    0    0  0.00000000000E+00  0.00000000000E+00  0.99999998245E-14  0.12500000000E+03  0.12500000000E+03 0.  0.
        -11    1    3    3    0    0  0.37520069495E+02  0.55775763149E+01  0.24650623890E+02  0.45238459644E+02  0.51100000000E-03 0.  1.
         23    2    1    0    0    0 -0.33458100717E+01 -0.16428949270E+02 -0.12002634831E+02  0.10438039617E+03  0.10232350191E+03 0.  0.
         11    1    3    3    0    0 -0.40865879567E+02 -0.22006525585E+02 -0.36653258721E+02  0.59141936528E+02  0.51100000000E-03 0. -1.
         22    1    1    0    0    0  0.33458100717E+01  0.16428949270E+02  0.12002634831E+02  0.20619603829E+02  0.00000000000E+00 0. -1.
</event>
<event>
 5    1  0.8900327E-005  0.9118800E+02  0.7818608E-02  0.1130116E+00
         25   -1    0    0    0    0  0.00000000000E+00  0.00000000000E+00  0.99999998245E-14  0.12500000000E+03  0.12500000000E+03 0.  0.
        -11    1    3    3    0    0 -0.27186241808E+02  0.24243858945E+02 -0.48158396557E+02  0.60382841928E+02  0.51100000000E-03 0. -1.
         23    2    1    0    0    0 -0.25408742901E+02  0.97127508090E+01 -0.23531791902E+02  0.89032139705E+02  0.81443446184E+02 0.  0.
         11    1    3    3    0    0  0.17774989072E+01 -0.14531108135E+02  0.24626604655E+02  0.28649297777E+02  0.51100000000E-03 0.  1.
         22    1    1    0    0    0  0.25408742901E+02 -0.97127508090E+01  0.23531791902E+02  0.35967860295E+02  0.00000000000E+00 0. -1.
</event>
<event>
 5    1  0.8900327E-005  0.9118800E+02  0.7818608E-02  0.1130116E+00
         25   -1    0    0    0    0  0.00000000000E+00  0.00000000000E+00  0.99999998245E-14  0.12500000000E+03  0.12500000000E+03 0.  0.
        -11    1    3    3    0    0 -0.24796160076E+02 -0.74314806464E+01  0.35108005536E+02  0.43619359372E+02  0.51100000000E-03 0.  1.
         23    2    1    0    0    0 -0.22258827173E+02  0.47628224984E+00 -0.17377051202E+02  0.96757405566E+02  0.92543780944E+02 0.  0.
         11    1    3    3    0    0  0.25373329030E+01  0.79077628963E+01 -0.52485056737E+02  0.53138046194E+02  0.51100000000E-03 0. -1.
         22    1    1    0    0    0  0.22258827173E+02 -0.47628224984E+00  0.17377051202E+02  0.28242594434E+02  0.00000000000E+00 0. -1.
</event>
<event>
 5    1  0.8900327E-005  0.9118800E+02  0.7818608E-02  0.1130116E+00
         25   -1    0    0    0    0  0.00000000000E+00  0.00000000000E+00  0.99999998245E-14  0.12500000000E+03  0.12500000000E+03 0.  0.
        -11    1    3    3    0    0 -0.29612264525E+01  0.24156526994E+02 -0.52195618484E+02  0.57590704525E+02  0.51100000000E-03 0. -1.
         23    2    1    0    0    0  0.52477270701E+01  0.24483512216E+02 -0.14724415978E+02  0.95951946094E+02  0.91449365900E+02 0.  0.
         11    1    3    3    0    0  0.82089535226E+01  0.32698522187E+00  0.37471202506E+02  0.38361241570E+02  0.51100000000E-03 0.  1.
         22    1    1    0    0    0 -0.52477270701E+01 -0.24483512216E+02  0.14724415978E+02  0.29048053906E+02  0.00000000000E+00 0. -1.
</event>
<event>
 5    1  0.8900327E-005  0.9118800E+02  0.7818608E-02  0.1130116E+00
         25   -1    0    0    0    0  0.00000000000E+00  0.00000000000E+00  0.99999998245E-14  0.12500000000E+03  0.12500000000E+03 0.  0.
        -11    1    3    3    0    0  0.57490078062E+02  0.20813092657E+02 -0.51741125781E+01  0.61360128282E+02  0.51100000000E-03 0. -1.
         23    2    1    0    0    0  0.29027283448E+02  0.55628005164E+01  0.45792114190E+01  0.95091855438E+02  0.90266072582E+02 0.  0.
         11    1    3    3    0    0 -0.28462794615E+02 -0.15250292140E+02  0.97533239972E+01  0.33731727156E+02  0.51100000000E-03 0.  1.
         22    1    1    0    0    0 -0.29027283448E+02 -0.55628005164E+01 -0.45792114190E+01  0.29908144562E+02  0.00000000000E+00 0. -1.
</event>
<event>
 5    1  0.8900327E-005  0.9118800E+02  0.7818608E-02  0.1130116E+00
         25   -1    0    0    0    0  0.00000000000E+00  0.00000000000E+00  0.99999998245E-14  0.12500000000E+03  0.12500000000E+03 0.  0.
        -11    1    3    3    0    0  0.26987270357E+02 -0.49217146909E+02  0.14681003626E+01  0.56149760730E+02  0.51100000000E-03 0.  1.
         23    2    1    0    0    0 -0.94929848078E-01 -0.28834895079E+02  0.14819444912E+02  0.92579695662E+02  0.86717494864E+02 0.  0.
         11    1    3    3    0    0 -0.27082200205E+02  0.20382251830E+02  0.13351344549E+02  0.36429934932E+02  0.51100000000E-03 0. -1.
         22    1    1    0    0    0  0.94929848078E-01  0.28834895079E+02 -0.14819444912E+02  0.32420304338E+02  0.00000000000E+00 0.  1.
</event>
<event>
 5    1  0.8900327E-005  0.9118800E+02  0.7818608E-02  0.1130116E+00
         25   -1    0    0    0    0  0.00000000000E+00  0.00000000000E+00  0.99999998245E-14  0.12500000000E+03  0.12500000000E+03 0.  0.
        -11    1    3    3    0    0  0.35179507448E+02  0.11304275823E+01  0.19900561258E+02  0.40433994973E+02  0.51100000000E-03 0.  1.
         23    2    1    0    0    0 -0.75022149986E+01 -0.28914809822E+02  0.50293586199E+01  0.94707362197E+02  0.89732048619E+02 0.  0.
         11    1    3    3    0    0 -0.42681722447E+02 -0.30045237404E+02 -0.14871202638E+02  0.54273367224E+02  0.51100000000E-03 0. -1.
         22    1    1    0    0    0  0.75022149986E+01  0.28914809822E+02 -0.50293586199E+01  0.30292637803E+02  0.00000000000E+00 0. -1.
</event>
<event>
 5    1  0.8900327E-005  0.9118800E+02  0.7818608E-02  0.1130116E+00
         25   -1    0    0    0    0  0.00000000000E+00  0.00000000000E+00  0.99999998245E-14  0.12500000000E+03  0.12500000000E+03 0.  0.
        -11    1    3    3    0    0  0.34549662427E+02  0.27589510398E+01  0.19159049815E+02  0.39602527378E+02  0.51100000000E-03 0. -1.
         23    2    1    0    0    0 -0.22199818080E+02  0.79160793444E+01  0.15679516399E+02  0.96691989306E+02  0.92455380192E+02 0.  0.
         11    1    3    3    0    0 -0.56749480507E+02  0.51571283046E+01 -0.34795334160E+01  0.57089461928E+02  0.51100000000E-03 0.  1.
         22    1    1    0    0    0  0.22199818080E+02 -0.79160793444E+01 -0.15679516399E+02  0.28308010694E+02  0.00000000000E+00 0.  1.
</event>
<event>
 5    1  0.8900327E-005  0.9118800E+02  0.7818608E-02  0.1130116E+00
         25   -1    0    0    0    0  0.00000000000E+00  0.00000000000E+00  0.99999998245E-14  0.12500000000E+03  0.12500000000E+03 0.  0.
        -11    1    3    3    0    0 -0.79331075915E+01  0.15956582248E+02  0.42892080207E+02  0.46446498876E+02  0.51100000000E-03 0. -1.
         23    2    1    0    0    0  0.26585691698E+02 -0.12013842020E+01  0.12183875679E+02  0.95730747300E+02  0.91146512961E+02 0.  0.
         11    1    3    3    0    0  0.34518799290E+02 -0.17157966450E+02 -0.30708204528E+02  0.49284248424E+02  0.51100000000E-03 0.  1.
         22    1    1    0    0    0 -0.26585691698E+02  0.12013842020E+01 -0.12183875679E+02  0.29269252700E+02  0.00000000000E+00 0.  1.
</event>
<event>
 5    1  0.8900327E-005  0.9118800E+02  0.7818608E-02  0.1130116E+00
         25   -1    0    0    0    0  0.00000000000E+00  0.00000000000E+00  0.99999998245E-14  0.12500000000E+03  0.12500000000E+03 0.  0.
        -11    1    3    3    0    0 -0.39314995033E+02 -0.21603120371E+02  0.34989282675E+02  0.56891243145E+02  0.51100000000E-03 0.  1.
         23    2    1    0    0    0 -0.14769952909E+02 -0.24778289837E+02  0.50850329009E+01  0.95708828706E+02  0.91116448441E+02 0.  0.
         11    1    3    3    0    0  0.24545042123E+02 -0.31751694659E+01 -0.29904249774E+02  0.38817585561E+02  0.51100000000E-03 0. -1.
         22    1    1    0    0    0  0.14769952909E+02  0.24778289837E+02 -0.50850329009E+01  0.29291171294E+02  0.00000000000E+00 0.  1.
</event>
<event>
 5    1  0.8900327E-005  0.9118800E+02  0.7818608E-02  0.1130116E+00
         25   -1    0    0    0    0  0.00000000000E+00  0.00000000000E+00  0.99999998245E-14  0.12500000000E+03  0.12500000000E+03 0.  0.
        -11    1    3    3    0    0 -0.32114653873E+02  0.45621580256E+02  0.25140322405E+01  0.55848007456E+02  0.51100000000E-03 0.  1.
         23    2    1    0    0    0 -0.19170786660E+02  0.11479500218E+02  0.18771056605E+02  0.95816947512E+02  0.91264652950E+02 0.  0.
         11    1    3    3    0    0  0.12943867213E+02 -0.34142080038E+02  0.16257024365E+02  0.39968940056E+02  0.51100000000E-03 0. -1.
         22    1    1    0    0    0  0.19170786660E+02 -0.11479500218E+02 -0.18771056605E+02  0.29183052488E+02  0.00000000000E+00 0.  1.
</event>
<event>
 5    1  0.8900327E-005  0.9118800E+02  0.7818608E-02  0.1130116E+00
         25   -1    0    0    0    0  0.00000000000E+00  0.00000000000E+00  0.99999998245E-14  0.12500000000E+03  0.12500000000E+03 0.  0.
        -11    1    3    3    0    0  0.25230550705E+02 -0.50232472544E+02  0.81168472527E+01  0.56795820236E+02  0.51100000000E-03 0. -1.
         23    2    1    0    0    0 -0.20200254531E+01 -0.27113855077E+02 -0.89199779849E+01  0.96385184830E+02  0.92039644760E+02 0.  0.
         11    1    3    3    0    0 -0.27250576158E+02  0.23118617467E+02 -0.17036825238E+02  0.39589364594E+02  0.51100000000E-03 0.  1.
         22    1    1    0    0    0  0.20200254531E+01  0.27113855077E+02  0.89199779849E+01  0.28614815170E+02  0.00000000000E+00 0. -1.
</event>
<event>
 5    1  0.8900327E-005  0.9118800E+02  0.7818608E-02  0.1130116E+00
         25   -1    0    0    0    0  0.00000000000E+00  0.00000000000E+00  0.99999998245E-14  0.12500000000E+03  0.12500000000E+03 0.  0.
        -11    1    3    3    0    0 -0.13083770065E+02 -0.17965696337E-02 -0.40170446070E+02  0.42247482529E+02  0.51100000000E-03 0.  1.
         23    2    1    0    0    0  0.62052042692E+01 -0.29098684110E+02 -0.29430567569E+00  0.95245595405E+02  0.90478720434E+02 0.  0.
         11    1    3    3    0    0  0.19288974334E+02 -0.29096887540E+02  0.39876140394E+02  0.52998112876E+02  0.51100000000E-03 0. -1.
         22    1    1    0    0    0 -0.62052042692E+01  0.29098684110E+02  0.29430567569E+00  0.29754404595E+02  0.00000000000E+00 0. -1.
</event>
<event>
 5    1  0.8900327E-005  0.9118800E+02  0.7818608E-02  0.1130116E+00
         25   -1    0    0    0    0  0.00000000000E+00  0.00000000000E+00  0.99999998245E-14  0.12500000000E+03  0.12500000000E+03 0.  0.
        -11    1    3    3    0    0  0.52867100091E+02  0.19925398825E+02 -0.19049197852E+02  0.59622342536E+02  0.51100000000E-03 0. -1.
         23    2    1    0    0    0  0.29283161260E+02 -0.51655753290E+00 -0.95840673959E+00  0.95696605853E+02  0.91099678722E+02 0.  0.
         11    1    3    3    0    0 -0.23583938831E+02 -0.20441956358E+02  0.18090791112E+02  0.36074263317E+02  0.51100000000E-03 0.  1.
         22    1    1    0    0    0 -0.29283161260E+02  0.51655753290E+00  0.95840673959E+00  0.29303394147E+02  0.00000000000E+00 0. -1.
</event>
<event>
 5    1  0.8900327E-005  0.9118800E+02  0.7818608E-02  0.1130116E+00
         25   -1    0    0    0    0  0.00000000000E+00  0.00000000000E+00  0.99999998245E-14  0.12500000000E+03  0.12500000000E+03 0.  0.
        -11    1    3    3    0    0 -0.39655541037E+02 -0.42311234461E+01 -0.20352418347E+02  0.44773711856E+02  0.51100000000E-03 0. -1.
         23    2    1    0    0    0 -0.98251527480E+01  0.25996203677E+02  0.82910918885E+01  0.95998647672E+02  0.91513178931E+02 0.  0.
         11    1    3    3    0    0  0.29830388289E+02  0.30227327123E+02  0.28643510235E+02  0.51224935816E+02  0.51100000000E-03 0.  1.
         22    1    1    0    0    0  0.98251527480E+01 -0.25996203677E+02 -0.82910918885E+01  0.29001352328E+02  0.00000000000E+00 0. -1.
</event>
<event>
 5    1  0.8900327E-005  0.9118800E+02  0.7818608E-02  0.1130116E+00
         25   -1    0    0    0    0  0.00000000000E+00  0.00000000000E+00  0.99999998245E-14  0.12500000000E+03  0.12500000000E+03 0.  0.
        -11    1    3    3    0    0 -0.40096137500E+02  0.20502291728E+02 -0.51851175855E+01  0.45331331915E+02  0.51100000000E-03 0. -1.
         23    2    1    0    0    0 -0.52103411030E+01  0.38770361608E+02 -0.88867664767E+01  0.84884376958E+02  0.74807046724E+02 0.  0.
         11    1    3    3    0    0  0.34885796397E+02  0.18268069880E+02 -0.37016488912E+01  0.39553045043E+02  0.51100000000E-03 0.  1.
         22    1    1    0    0    0  0.52103411030E+01 -0.38770361608E+02  0.88867664767E+01  0.40115623042E+02  0.00000000000E+00 0. -1.
</event>
<event>
 5    1  0.8900327E-005  0.9118800E+02  0.7818608E-02  0.1130116E+00
         25   -1    0    0    0    0  0.00000000000E+00  0.00000000000E+00  0.99999998245E-14  0.12500000000E+03  0.12500000000E+03 0.  0.
        -11    1    3    3    0    0 -0.55511637048E+02  0.16310958257E+01  0.24011243997E+00  0.55536114157E+02  0.51100000000E-03 0. -1.
         23    2    1    0    0    0 -0.21823107593E+02 -0.82285205932E+01  0.18617569406E+02  0.95157572706E+02  0.90357031694E+02 0.  0.
         11    1    3    3    0    0  0.33688529455E+02 -0.98596164189E+01  0.18377456966E+02  0.39621458550E+02  0.51100000000E-03 0.  1.
         22    1    1    0    0    0  0.21823107593E+02  0.82285205932E+01 -0.18617569406E+02  0.29842427294E+02  0.00000000000E+00 0. -1.
</event>
<event>
 5    1  0.8900327E-005  0.9118800E+02  0.7818608E-02  0.1130116E+00
         25   -1    0    0    0    0  0.00000000000E+00  0.00000000000E+00  0.99999998245E-14  0.12500000000E+03  0.12500000000E+03 0.  0.
        -11    1    3    3    0    0  0.27082538230E+02 -0.19255161852E+02  0.43295596829E+02  0.54577777895E+02  0.51100000000E-03 0. -1.
         23    2    1    0    0    0  0.49881139650E+01 -0.27171160075E+02  0.93727447022E+01  0.95828068902E+02  0.91279884013E+02 0.  0.
         11    1    3    3    0    0 -0.22094424265E+02 -0.79159982232E+01 -0.33922852127E+02  0.41250291007E+02  0.51100000000E-03 0.  1.
         22    1    1    0    0    0 -0.49881139650E+01  0.27171160075E+02 -0.93727447022E+01  0.29171931098E+02  0.00000000000E+00 0.  1.
</event>
<event>
 5    1  0.8900327E-005  0.9118800E+02  0.7818608E-02  0.1130116E+00
         25   -1    0    0    0    0  0.00000000000E+00  0.00000000000E+00  0.99999998245E-14  0.12500000000E+03  0.12500000000E+03 0.  0.
        -11    1    3    3    0    0  0.61151844603E+02  0.83105145204E+01 -0.10127349148E+01  0.61722268123E+02  0.51100000000E-03 0. -1.
         23    2    1    0    0    0  0.30016273778E+02  0.91129158862E+01 -0.53799800332E+01  0.93172871436E+02  0.87568361061E+02 0.  0.
         11    1    3    3    0    0 -0.31135570825E+02  0.80240136581E+00 -0.43672451184E+01  0.31450603313E+02  0.51100000000E-03 0.  1.
         22    1    1    0    0    0 -0.30016273778E+02 -0.91129158862E+01  0.53799800332E+01  0.31827128564E+02  0.00000000000E+00 0. -1.
</event>
<event>
 5    1  0.8900327E-005  0.9118800E+02  0.7818608E-02  0.1130116E+00
         25   -1    0    0    0    0  0.00000000000E+00  0.00000000000E+00  0.99999998245E-14  0.12500000000E+03  0.12500000000E+03 0.  0.
        -11    1    3    3    0    0 -0.14760143441E+02 -0.90262526314E+01 -0.59600603540E+02  0.62060994300E+02  0.51100000000E-03 0. -1.
         23    2    1    0    0    0 -0.69047696039E+01  0.12241504334E+01 -0.26391545483E+02  0.97692710487E+02  0.93798601385E+02 0.  0.
         11    1    3    3    0    0  0.78553738374E+01  0.10250403065E+02  0.33209058057E+02  0.35631716187E+02  0.51100000000E-03 0.  1.
         22    1    1    0    0    0  0.69047696039E+01 -0.12241504334E+01  0.26391545483E+02  0.27307289513E+02  0.00000000000E+00 0. -1.
</event>
<event>
 5    1  0.8900327E-005  0.9118800E+02  0.7818608E-02  0.1130116E+00
         25   -1    0    0    0    0  0.00000000000E+00  0.00000000000E+00  0.99999998245E-14  0.12500000000E+03  0.12500000000E+03 0.  0.
        -11    1    3    3    0    0 -0.29601478300E+02 -0.11820032231E+02 -0.10810275326E+02  0.33657432052E+02  0.51100000000E-03 0. -1.
         23    2    1    0    0    0  0.20165219996E+02  0.16119798030E+02  0.13703023912E+02  0.95772327319E+02  0.91203518736E+02 0.  0.
         11    1    3    3    0    0  0.49766698296E+02  0.27939830260E+02  0.24513299237E+02  0.62114895267E+02  0.51100000000E-03 0.  1.
         22    1    1    0    0    0 -0.20165219996E+02 -0.16119798030E+02 -0.13703023912E+02  0.29227672681E+02  0.00000000000E+00 0.  1.
</event>
<event>
 5    1  0.8900327E-005  0.9118800E+02  0.7818608E-02  0.1130116E+00
         25   -1    0    0    0    0  0.00000000000E+00  0.00000000000E+00  0.99999998245E-14  0.12500000000E+03  0.12500000000E+03 0.  0.
        -11    1    3    3    0    0  0.20594070115E+02 -0.13219178579E+02 -0.25528506184E+02  0.35363357228E+02  0.51100000000E-03 0.  1.
         23    2    1    0    0    0 -0.69127865960E+01 -0.88226663967E+01  0.27522360254E+02  0.95282894239E+02  0.90530235610E+02 0.  0.
         11    1    3    3    0    0 -0.27506856711E+02  0.43965121826E+01  0.53050866438E+02  0.59919537011E+02  0.51100000000E-03 0. -1.
         22    1    1    0    0    0  0.69127865960E+01  0.88226663967E+01 -0.27522360254E+02  0.29717105761E+02  0.00000000000E+00 0. -1.
</event>
<event>
 5    1  0.8900327E-005  0.9118800E+02  0.7818608E-02  0.1130116E+00
         25   -1    0    0    0    0  0.00000000000E+00  0.00000000000E+00  0.99999998245E-14  0.12500000000E+03  0.12500000000E+03 0.  0.
        -11    1    3    3    0    0 -0.19694360911E+02 -0.21203459211E+02 -0.28403983326E+02  0.40549239244E+02  0.51100000000E-03 0.  1.
         23    2    1    0    0    0  0.22442341407E+01  0.26456512178E+02 -0.14128138501E+02  0.94923631851E+02  0.90032816033E+02 0.  0.
         11    1    3    3    0    0  0.21938595052E+02  0.47659971390E+02  0.14275844825E+02  0.54374392607E+02  0.51100000000E-03 0. -1.
         22    1    1    0    0    0 -0.22442341407E+01 -0.26456512178E+02  0.14128138501E+02  0.30076368149E+02  0.00000000000E+00 0. -1.
</event>
<event>
 5    1  0.8900327E-005  0.9118800E+02  0.7818608E-02  0.1130116E+00
         25   -1    0    0    0    0  0.00000000000E+00  0.00000000000E+00  0.99999998245E-14  0.12500000000E+03  0.12500000000E+03 0.  0.
        -11    1    3    3    0    0 -0.62776060786E+01  0.20366804730E+02 -0.31904396017E+02  0.38368027816E+02  0.51100000000E-03 0. -1.
         23    2    1    0    0    0  0.58718841384E+00 -0.25383069096E+02  0.68329950406E+01  0.98706753563E+02  0.95140361523E+02 0.  0.
         11    1    3    3    0    0  0.68647944924E+01 -0.45749873826E+02  0.38737391058E+02  0.60338725747E+02  0.51100000000E-03 0.  1.
         22    1    1    0    0    0 -0.58718841384E+00  0.25383069096E+02 -0.68329950406E+01  0.26293246437E+02  0.00000000000E+00 0.  1.
</event>
<event>
 5    1  0.8900327E-005  0.9118800E+02  0.7818608E-02  0.1130116E+00
         25   -1    0    0    0    0  0.00000000000E+00  0.00000000000E+00  0.99999998245E-14  0.12500000000E+03  0.12500000000E+03 0.  0.
        -11    1    3    3    0    0 -0.53801926608E+01  0.34671772310E+02  0.77545726068E+01  0.35933433802E+02  0.51100000000E-03 0. -1.
         23    2    1    0    0    0  0.16989590159E+02 -0.12131026887E+02 -0.21121364672E+02  0.95302861540E+02  0.90557801349E+02 0.  0.
         11    1    3    3    0    0  0.22369782819E+02 -0.46802799197E+02 -0.28875937279E+02  0.59369427739E+02  0.51100000000E-03 0.  1.
         22    1    1    0    0    0 -0.16989590159E+02  0.12131026887E+02  0.21121364672E+02  0.29697138460E+02  0.00000000000E+00 0.  1.
</event>
<event>
 5    1  0.8900327E-005  0.9118800E+02  0.7818608E-02  0.1130116E+00
         25   -1    0    0    0    0  0.00000000000E+00  0.00000000000E+00  0.99999998245E-14  0.12500000000E+03  0.12500000000E+03 0.  0.
        -11    1    3    3    0    0 -0.10126717196E+02 -0.31826988889E+02 -0.12749921953E+02  0.35750078783E+02  0.51100000000E-03 0.  1.
         23    2    1    0    0    0 -0.29708002503E+01  0.27951336852E+02 -0.49579213817E+01  0.96457332459E+02  0.92137577104E+02 0.  0.
         11    1    3    3    0    0  0.71559169453E+01  0.59778325741E+02  0.77920005710E+01  0.60707253676E+02  0.51100000000E-03 0. -1.
         22    1    1    0    0    0  0.29708002503E+01 -0.27951336852E+02  0.49579213817E+01  0.28542667541E+02  0.00000000000E+00 0. -1.
</event>
<event>
 5    1  0.8900327E-005  0.9118800E+02  0.7818608E-02  0.1130116E+00
         25   -1    0    0    0    0  0.00000000000E+00  0.00000000000E+00  0.99999998245E-14  0.12500000000E+03  0.12500000000E+03 0.  0.
        -11    1    3    3    0    0 -0.23158604311E+02  0.28056713949E+02  0.22566239446E+02  0.42810458001E+02  0.51100000000E-03 0.  1.
         23    2    1    0    0    0 -0.10636369221E+02  0.11006468504E+02 -0.25462230126E+02  0.95291417702E+02  0.90542003653E+02 0.  0.
         11    1    3    3    0    0  0.12522235089E+02 -0.17050245445E+02 -0.48028469573E+02  0.52480959701E+02  0.51100000000E-03 0. -1.
         22    1    1    0    0    0  0.10636369221E+02 -0.11006468504E+02  0.25462230126E+02  0.29708582298E+02  0.00000000000E+00 0. -1.
</event>
<event>
 5    1  0.8900327E-005  0.9118800E+02  0.7818608E-02  0.1130116E+00
         25   -1    0    0    0    0  0.00000000000E+00  0.00000000000E+00  0.99999998245E-14  0.12500000000E+03  0.12500000000E+03 0.  0.
        -11    1    3    3    0    0 -0.19220615821E+02  0.15221518408E+02 -0.35900673943E+02  0.43473958700E+02  0.51100000000E-03 0.  1.
         23    2    1    0    0    0 -0.12171327676E+02  0.22140203665E+02  0.15196293189E+02  0.95516832558E+02  0.90852672715E+02 0.  0.
         11    1    3    3    0    0  0.70492881452E+01  0.69186852570E+01  0.51096967132E+02  0.52042873858E+02  0.51100000000E-03 0. -1.
         22    1    1    0    0    0  0.12171327676E+02 -0.22140203665E+02 -0.15196293189E+02  0.29483167442E+02  0.00000000000E+00 0. -1.
</event>
<event>
 5    1  0.8900327E-005  0.9118800E+02  0.7818608E-02  0.1130116E+00
         25   -1    0    0    0    0  0.00000000000E+00  0.00000000000E+00  0.99999998245E-14  0.12500000000E+03  0.12500000000E+03 0.  0.
        -11    1    3    3    0    0  0.51895759813E+02  0.40744300742E+01  0.14900350692E+02  0.54146018488E+02  0.51100000000E-03 0. -1.
         23    2    1    0    0    0  0.14513828127E+02  0.19987251209E+02  0.17297614047E+02  0.94844588056E+02  0.89923006033E+02 0.  0.
         11    1    3    3    0    0 -0.37381931687E+02  0.15912821135E+02  0.23972633547E+01  0.40698569569E+02  0.51100000000E-03 0.  1.
         22    1    1    0    0    0 -0.14513828127E+02 -0.19987251209E+02 -0.17297614047E+02  0.30155411944E+02  0.00000000000E+00 0. -1.
</event>
<event>
 5    1  0.8900327E-005  0.9118800E+02  0.7818608E-02  0.1130116E+00
         25   -1    0    0    0    0  0.00000000000E+00  0.00000000000E+00  0.99999998245E-14  0.12500000000E+03  0.12500000000E+03 0.  0.
        -11    1    3    3    0    0 -0.24603418385E+02 -0.42249137475E+02  0.18494661688E+02  0.52272079783E+02  0.51100000000E-03 0. -1.
         23    2    1    0    0    0 -0.30852641923E+02 -0.35838741833E+01  0.10201748405E+02  0.92307411569E+02  0.86324115358E+02 0.  0.
         11    1    3    3    0    0 -0.62492235376E+01  0.38665263292E+02 -0.82929132828E+01  0.40035331786E+02  0.51100000000E-03 0.  1.
         22    1    1    0    0    0  0.30852641923E+02  0.35838741833E+01 -0.10201748405E+02  0.32692588431E+02  0.00000000000E+00 0. -1.
</event>
<event>
 5    1  0.8900327E-005  0.9118800E+02  0.7818608E-02  0.1130116E+00
         25   -1    0    0    0    0  0.00000000000E+00  0.00000000000E+00  0.99999998245E-14  0.12500000000E+03  0.12500000000E+03 0.  0.
        -11    1    3    3    0    0  0.94822721564E+01  0.34515733749E+01  0.38058694058E+02  0.39373735379E+02  0.51100000000E-03 0. -1.
         23    2    1    0    0    0 -0.17896437773E+02 -0.23551830839E+02 -0.25617129439E+01  0.95309368581E+02  0.90566782792E+02 0.  0.
         11    1    3    3    0    0 -0.27378709930E+02 -0.27003404214E+02 -0.40620407002E+02  0.55935633203E+02  0.51100000000E-03 0.  1.
         22    1    1    0    0    0  0.17896437773E+02  0.23551830839E+02  0.25617129439E+01  0.29690631419E+02  0.00000000000E+00 0.  1.
</event>
<event>
 5    1  0.8900327E-005  0.9118800E+02  0.7818608E-02  0.1130116E+00
         25   -1    0    0    0    0  0.00000000000E+00  0.00000000000E+00  0.99999998245E-14  0.12500000000E+03  0.12500000000E+03 0.  0.
        -11    1    3    3    0    0  0.43931198981E+02  0.33623634627E+02  0.17541853088E+02  0.58036330513E+02  0.51100000000E-03 0.  1.
         23    2    1    0    0    0  0.19799854954E+02  0.48884305070E+01  0.21009263875E+02  0.95719969645E+02  0.91131731089E+02 0.  0.
         11    1    3    3    0    0 -0.24131344027E+02 -0.28735204120E+02  0.34674107874E+01  0.37683639132E+02  0.51100000000E-03 0. -1.
         22    1    1    0    0    0 -0.19799854954E+02 -0.48884305070E+01 -0.21009263875E+02  0.29280030355E+02  0.00000000000E+00 0.  1.
</event>
<event>
 5    1  0.8900327E-005  0.9118800E+02  0.7818608E-02  0.1130116E+00
         25   -1    0    0    0    0  0.00000000000E+00  0.00000000000E+00  0.99999998245E-14  0.12500000000E+03  0.12500000000E+03 0.  0.
        -11    1    3    3    0    0  0.19486632759E+02  0.53814577469E+02  0.22795361324E+01  0.57279436883E+02  0.51100000000E-03 0. -1.
         23    2    1    0    0    0  0.13628964750E+02  0.20897885226E+02 -0.15977371103E+02  0.95373210190E+02  0.90654853965E+02 0.  0.
         11    1    3    3    0    0 -0.58576680089E+01 -0.32916692242E+02 -0.18256907235E+02  0.38093773306E+02  0.51100000000E-03 0.  1.
         22    1    1    0    0    0 -0.13628964750E+02 -0.20897885226E+02  0.15977371103E+02  0.29626789810E+02  0.00000000000E+00 0. -1.
</event>
<event>
 5    1  0.8900327E-005  0.9118800E+02  0.7818608E-02  0.1130116E+00
         25   -1    0    0    0    0  0.00000000000E+00  0.00000000000E+00  0.99999998245E-14  0.12500000000E+03  0.12500000000E+03 0.  0.
        -11    1    3    3    0    0 -0.10738207069E+02 -0.37641452228E+01 -0.41368136040E+02  0.42904551740E+02  0.51100000000E-03 0. -1.
         23    2    1    0    0    0 -0.11780284023E+02  0.26112602558E+02  0.27761371138E+01  0.96218929115E+02  0.91813573500E+02 0.  0.
         11    1    3    3    0    0 -0.10420769546E+01  0.29876747780E+02  0.44144273154E+02  0.53314377375E+02  0.51100000000E-03 0.  1.
         22    1    1    0    0    0  0.11780284023E+02 -0.26112602558E+02 -0.27761371138E+01  0.28781070885E+02  0.00000000000E+00 0.  1.
</event>
<event>
 5    1  0.8900327E-005  0.9118800E+02  0.7818608E-02  0.1130116E+00
         25   -1    0    0    0    0  0.00000000000E+00  0.00000000000E+00  0.99999998245E-14  0.12500000000E+03  0.12500000000E+03 0.  0.
        -11    1    3    3    0    0  0.32209192516E+02  0.10250367751E+02 -0.14328677380E+01  0.33831275941E+02  0.51100000000E-03 0.  1.
         23    2    1    0    0    0 -0.19467620475E+02 -0.64325015115E+01 -0.24691705949E+02  0.92905675497E+02  0.87186116293E+02 0.  0.
         11    1    3    3    0    0 -0.51676812991E+02 -0.16682869262E+02 -0.23258838211E+02  0.59074399556E+02  0.51100000000E-03 0. -1.
         22    1    1    0    0    0  0.19467620475E+02  0.64325015115E+01  0.24691705949E+02  0.32094324503E+02  0.00000000000E+00 0. -1.
</event>
<event>
 5    1  0.8900327E-005  0.9118800E+02  0.7818608E-02  0.1130116E+00
         25   -1    0    0    0    0  0.00000000000E+00  0.00000000000E+00  0.99999998245E-14  0.12500000000E+03  0.12500000000E+03 0.  0.
        -11    1    3    3    0    0  0.19885002873E+01 -0.20692210843E+02  0.27520617633E+02  0.34489217418E+02  0.51100000000E-03 0.  1.
         23    2    1    0    0    0  0.89887198288E+01  0.23153285715E+02 -0.15015434785E+02  0.95976991794E+02  0.91483593876E+02 0.  0.
         11    1    3    3    0    0  0.70002195415E+01  0.43845496558E+02 -0.42536052418E+02  0.61487774375E+02  0.51100000000E-03 0. -1.
         22    1    1    0    0    0 -0.89887198288E+01 -0.23153285715E+02  0.15015434785E+02  0.29023008206E+02  0.00000000000E+00 0. -1.
</event>
<event>
 5    1  0.8900327E-005  0.9118800E+02  0.7818608E-02  0.1130116E+00
         25   -1    0    0    0    0  0.00000000000E+00  0.00000000000E+00  0.99999998245E-14  0.12500000000E+03  0.12500000000E+03 0.  0.
        -11    1    3    3    0    0  0.21194097289E+02  0.62374435572E+01 -0.17662549219E+02  0.28285351460E+02  0.51100000000E-03 0. -1.
         23    2    1    0    0    0  0.19259909343E+02 -0.41126363081E+02  0.18547710211E+01  0.79549345178E+02  0.65286570553E+02 0.  0.
         11    1    3    3    0    0 -0.19341879463E+01 -0.47363806639E+02  0.19517320240E+02  0.51263993718E+02  0.51100000000E-03 0.  1.
         22    1    1    0    0    0 -0.19259909343E+02  0.41126363081E+02 -0.18547710211E+01  0.45450654822E+02  0.00000000000E+00 0.  1.
</event>
<event>
 5    1  0.8900327E-005  0.9118800E+02  0.7818608E-02  0.1130116E+00
         25   -1    0    0    0    0  0.00000000000E+00  0.00000000000E+00  0.99999998245E-14  0.12500000000E+03  0.12500000000E+03 0.  0.
        -11    1    3    3    0    0 -0.23282446866E+02  0.17492016473E+02 -0.26392692975E+02  0.39301618479E+02  0.51100000000E-03 0.  1.
         23    2    1    0    0    0 -0.50140438815E+01 -0.25455958121E+02  0.86349886359E+01  0.97655723293E+02  0.93749297721E+02 0.  0.
         11    1    3    3    0    0  0.18268402984E+02 -0.42947974594E+02  0.35027681611E+02  0.58354104814E+02  0.51100000000E-03 0. -1.
         22    1    1    0    0    0  0.50140438815E+01  0.25455958121E+02 -0.86349886359E+01  0.27344276707E+02  0.00000000000E+00 0. -1.
</event>
<event>
 5    1  0.8900327E-005  0.9118800E+02  0.7818608E-02  0.1130116E+00
         25   -1    0    0    0    0  0.00000000000E+00  0.00000000000E+00  0.99999998245E-14  0.12500000000E+03  0.12500000000E+03 0.  0.
        -11    1    3    3    0    0 -0.24437797640E+02  0.71288628081E+01  0.26678399483E+02  0.36874973053E+02  0.51100000000E-03 0. -1.
         23    2    1    0    0    0  0.16712703549E+02 -0.25909092124E+02  0.57967107982E+01  0.93628079901E+02  0.88215758089E+02 0.  0.
         11    1    3    3    0    0  0.41150501189E+02 -0.33037954932E+02 -0.20881688685E+02  0.56753106848E+02  0.51100000000E-03 0.  1.
         22    1    1    0    0    0 -0.16712703549E+02  0.25909092124E+02 -0.57967107982E+01  0.31371920099E+02  0.00000000000E+00 0.  1.
</event>
<event>
 5    1  0.8900327E-005  0.9118800E+02  0.7818608E-02  0.1130116E+00
         25   -1    0    0    0    0  0.00000000000E+00  0.00000000000E+00  0.99999998245E-14  0.12500000000E+03  0.12500000000E+03 0.  0.
        -11    1    3    3    0    0 -0.10479298421E+02  0.31637889425E+02 -0.34177191051E+02  0.47737324297E+02  0.51100000000E-03 0.  1.
         23    2    1    0    0    0  0.14042366171E+02 -0.71960318853E+01 -0.26291013518E+02  0.94337509652E+02  0.89215342923E+02 0.  0.
         11    1    3    3    0    0  0.24521664592E+02 -0.38833921310E+02  0.78861775335E+01  0.46600185354E+02  0.51100000000E-03 0. -1.
         22    1    1    0    0    0 -0.14042366171E+02  0.71960318853E+01  0.26291013518E+02  0.30662490348E+02  0.00000000000E+00 0.  1.
</event>
<event>
 5    1  0.8900327E-005  0.9118800E+02  0.7818608E-02  0.1130116E+00
         25   -1    0    0    0    0  0.00000000000E+00  0.00000000000E+00  0.99999998245E-14  0.12500000000E+03  0.12500000000E+03 0.  0.
        -11    1    3    3    0    0 -0.21562120129E+02 -0.36760193576E+02  0.29082449540E+02  0.51594822683E+02  0.51100000000E-03 0.  1.
         23    2    1    0    0    0 -0.11527753821E+02  0.68958066008E+01  0.25056728145E+02  0.96569718922E+02  0.92289922150E+02 0.  0.
         11    1    3    3    0    0  0.10034366307E+02  0.43656000177E+02 -0.40257213944E+01  0.44974896239E+02  0.51100000000E-03 0. -1.
         22    1    1    0    0    0  0.11527753821E+02 -0.68958066008E+01 -0.25056728145E+02  0.28430281078E+02  0.00000000000E+00 0.  1.
</event>
<event>
 5    1  0.8900327E-005  0.9118800E+02  0.7818608E-02  0.1130116E+00
         25   -1    0    0    0    0  0.00000000000E+00  0.00000000000E+00  0.99999998245E-14  0.12500000000E+03  0.12500000000E+03 0.  0.
        -11    1    3    3    0    0 -0.29583637958E+02  0.95344142923E+01 -0.20587000158E+02  0.37281647851E+02  0.51100000000E-03 0.  1.
         23    2    1    0    0    0 -0.15057066748E+01 -0.13573476181E+02  0.25551551407E+02  0.96027803198E+02  0.91552994486E+02 0.  0.
         11    1    3    3    0    0  0.28077931283E+02 -0.23107890474E+02  0.46138551565E+02  0.58746155347E+02  0.51100000000E-03 0. -1.
         22    1    1    0    0    0  0.15057066748E+01  0.13573476181E+02 -0.25551551407E+02  0.28972196802E+02  0.00000000000E+00 0. -1.
</event>
<event>
 5    1  0.8900327E-005  0.9118800E+02  0.7818608E-02  0.1130116E+00
         25   -1    0    0    0    0  0.00000000000E+00  0.00000000000E+00  0.99999998245E-14  0.12500000000E+03  0.12500000000E+03 0.  0.
        -11    1    3    3    0    0  0.15453290954E+02  0.23373954081E+02  0.40741896218E+02  0.49447427015E+02  0.51100000000E-03 0.  1.
         23    2    1    0    0    0 -0.21824466374E+02  0.95575799503E+01  0.16647425199E+02  0.95934703980E+02  0.91425795019E+02 0.  0.
         11    1    3    3    0    0 -0.37277757328E+02 -0.13816374131E+02 -0.24094471020E+02  0.46487276964E+02  0.51100000000E-03 0. -1.
         22    1    1    0    0    0  0.21824466374E+02 -0.95575799503E+01 -0.16647425199E+02  0.29065296020E+02  0.00000000000E+00 0.  1.
</event>
<event>
 5    1  0.8900327E-005  0.9118800E+02  0.7818608E-02  0.1130116E+00
         25   -1    0    0    0    0  0.00000000000E+00  0.00000000000E+00  0.99999998245E-14  0.12500000000E+03  0.12500000000E+03 0.  0.
        -11    1    3    3    0    0  0.32702208453E+01  0.35972537424E+01  0.38527219219E+02  0.38832733614E+02  0.51100000000E-03 0.  1.
         23    2    1    0    0    0  0.12660703335E+02 -0.29794573234E+02 -0.24671537992E+01  0.92533142268E+02  0.86650363917E+02 0.  0.
         11    1    3    3    0    0  0.93904824892E+01 -0.33391826976E+02 -0.40994373019E+02  0.53700408654E+02  0.51100000000E-03 0. -1.
         22    1    1    0    0    0 -0.12660703335E+02  0.29794573234E+02  0.24671537992E+01  0.32466857732E+02  0.00000000000E+00 0. -1.
</event>
<event>
 5    1  0.8900327E-005  0.9118800E+02  0.7818608E-02  0.1130116E+00
         25   -1    0    0    0    0  0.00000000000E+00  0.00000000000E+00  0.99999998245E-14  0.12500000000E+03  0.12500000000E+03 0.  0.
        -11    1    3    3    0    0  0.13299188664E+02  0.28036493977E+02  0.11728621982E+02  0.33173392764E+02  0.51100000000E-03 0.  1.
         23    2    1    0    0    0 -0.43589290342E+01  0.10358584356E+02 -0.36130286329E+02  0.87162213035E+02  0.78521037045E+02 0.  0.
         11    1    3    3    0    0 -0.17658117698E+02 -0.17677909621E+02 -0.47858908311E+02  0.53988820270E+02  0.51100000000E-03 0. -1.
         22    1    1    0    0    0  0.43589290342E+01 -0.10358584356E+02  0.36130286329E+02  0.37837786965E+02  0.00000000000E+00 0. -1.
</event>
<event>
 5    1  0.8900327E-005  0.9118800E+02  0.7818608E-02  0.1130116E+00
         25   -1    0    0    0    0  0.00000000000E+00  0.00000000000E+00  0.99999998245E-14  0.12500000000E+03  0.12500000000E+03 0.  0.
        -11    1    3    3    0    0 -0.12745904934E+02 -0.50838870368E+02 -0.18866979403E+01  0.52446243548E+02  0.51100000000E-03 0. -1.
         23    2    1    0    0    0 -0.14380932258E+02 -0.13056036630E+02 -0.22304052682E+02  0.95423961200E+02  0.90724805317E+02 0.  0.
         11    1    3    3    0    0 -0.16350273242E+01  0.37782833738E+02 -0.20417354741E+02  0.42977717652E+02  0.51100000000E-03 0.  1.
         22    1    1    0    0    0  0.14380932258E+02  0.13056036630E+02  0.22304052682E+02  0.29576038800E+02  0.00000000000E+00 0. -1.
</event>
<event>
 5    1  0.8900327E-005  0.9118800E+02  0.7818608E-02  0.1130116E+00
         25   -1    0    0    0    0  0.00000000000E+00  0.00000000000E+00  0.99999998245E-14  0.12500000000E+03  0.12500000000E+03 0.  0.
        -11    1    3    3    0    0 -0.12811212498E+02  0.14264551725E+02  0.53502881197E+02  0.56834522064E+02  0.51100000000E-03 0. -1.
         23    2    1    0    0    0  0.10288189858E+02  0.15748109068E+02  0.20131367294E+02  0.97447836040E+02  0.93471701653E+02 0.  0.
         11    1    3    3    0    0  0.23099402357E+02  0.14835573428E+01 -0.33371513904E+02  0.40613313976E+02  0.51100000000E-03 0.  1.
         22    1    1    0    0    0 -0.10288189858E+02 -0.15748109068E+02 -0.20131367294E+02  0.27552163960E+02  0.00000000000E+00 0. -1.
</event>
<event>
 5    1  0.8900327E-005  0.9118800E+02  0.7818608E-02  0.1130116E+00
         25   -1    0    0    0    0  0.00000000000E+00  0.00000000000E+00  0.99999998245E-14  0.12500000000E+03  0.12500000000E+03 0.  0.
        -11    1    3    3    0    0  0.29188828133E+02  0.20488901457E+02  0.46671982515E+02  0.58737183477E+02  0.51100000000E-03 0.  1.
         23    2    1    0    0    0  0.23673293531E+02  0.11340900789E+02  0.10038353998E+02  0.96896452033E+02  0.92731402493E+02 0.  0.
         11    1    3    3    0    0 -0.55155346017E+01 -0.91480006681E+01 -0.36633628517E+02  0.38159268556E+02  0.51100000000E-03 0. -1.
         22    1    1    0    0    0 -0.23673293531E+02 -0.11340900789E+02 -0.10038353998E+02  0.28103547967E+02  0.00000000000E+00 0.  1.
</event>
<event>
 5    1  0.8900327E-005  0.9118800E+02  0.7818608E-02  0.1130116E+00
         25   -1    0    0    0    0  0.00000000000E+00  0.00000000000E+00  0.99999998245E-14  0.12500000000E+03  0.12500000000E+03 0.  0.
        -11    1    3    3    0    0 -0.36317223318E+02 -0.22168612244E+02  0.23283546548E+02  0.48502697023E+02  0.51100000000E-03 0.  1.
         23    2    1    0    0    0 -0.73475823319E+01  0.15144260833E+02  0.23926488074E+02  0.95745727939E+02  0.91167055369E+02 0.  0.
         11    1    3    3    0    0  0.28969640986E+02  0.37312873076E+02  0.64294152574E+00  0.47243030916E+02  0.51100000000E-03 0. -1.
         22    1    1    0    0    0  0.73475823319E+01 -0.15144260833E+02 -0.23926488074E+02  0.29254272061E+02  0.00000000000E+00 0.  1.
</event>
<event>
 5    1  0.8900327E-005  0.9118800E+02  0.7818608E-02  0.1130116E+00
         25   -1    0    0    0    0  0.00000000000E+00  0.00000000000E+00  0.99999998245E-14  0.12500000000E+03  0.12500000000E+03 0.  0.
        -11    1    3    3    0    0 -0.16078689473E+02  0.46239635956E+02 -0.26255210210E+01  0.49025723344E+02  0.51100000000E-03 0.  1.
         23    2    1    0    0    0 -0.27588865721E+02  0.11997979506E+01  0.70279713194E+01  0.96504782722E+02  0.92201928832E+02 0.  0.
         11    1    3    3    0    0 -0.11510176247E+02 -0.45039838005E+02  0.96534923404E+01  0.47479059378E+02  0.51100000000E-03 0. -1.
         22    1    1    0    0    0  0.27588865721E+02 -0.11997979506E+01 -0.70279713194E+01  0.28495217278E+02  0.00000000000E+00 0. -1.
</event>
<event>
 5    1  0.8900327E-005  0.9118800E+02  0.7818608E-02  0.1130116E+00
         25   -1    0    0    0    0  0.00000000000E+00  0.00000000000E+00  0.99999998245E-14  0.12500000000E+03  0.12500000000E+03 0.  0.
        -11    1    3    3    0    0 -0.59549925169E+02 -0.17015343170E+02  0.66532824949E+00  0.61936727011E+02  0.51100000000E-03 0. -1.
         23    2    1    0    0    0 -0.28750623843E+02 -0.21792135029E+01  0.14275080218E+01  0.96131589548E+02  0.91694587556E+02 0.  0.
         11    1    3    3    0    0  0.30799301326E+02  0.14836129667E+02  0.76217977227E+00  0.34194862537E+02  0.51100000000E-03 0.  1.
         22    1    1    0    0    0  0.28750623843E+02  0.21792135029E+01 -0.14275080218E+01  0.28868410452E+02  0.00000000000E+00 0. -1.
</event>
<event>
 5    1  0.8900327E-005  0.9118800E+02  0.7818608E-02  0.1130116E+00
         25   -1    0    0    0    0  0.00000000000E+00  0.00000000000E+00  0.99999998245E-14  0.12500000000E+03  0.12500000000E+03 0.  0.
        -11    1    3    3    0    0  0.70112334758E+01 -0.42321858663E+02 -0.40565804532E+02  0.59041355109E+02  0.51100000000E-03 0. -1.
         23    2    1    0    0    0 -0.87934422983E+01 -0.15393631347E+02 -0.26088330626E+02  0.93458130868E+02  0.87974614049E+02 0.  0.
         11    1    3    3    0    0 -0.15804675774E+02  0.26928227316E+02  0.14477473906E+02  0.34416775760E+02  0.51100000000E-03 0.  1.
         22    1    1    0    0    0  0.87934422983E+01  0.15393631347E+02  0.26088330626E+02  0.31541869132E+02  0.00000000000E+00 0. -1.
</event>
<event>
 5    1  0.8900327E-005  0.9118800E+02  0.7818608E-02  0.1130116E+00
         25   -1    0    0    0    0  0.00000000000E+00  0.00000000000E+00  0.99999998245E-14  0.12500000000E+03  0.12500000000E+03 0.  0.
        -11    1    3    3    0    0  0.45879775875E+02 -0.29600071945E+02  0.26126503488E+01  0.54662089565E+02  0.51100000000E-03 0.  1.
         23    2    1    0    0    0  0.10023715045E+02 -0.19026470226E+02  0.19764631994E+02  0.95791745851E+02  0.91230129139E+02 0.  0.
         11    1    3    3    0    0 -0.35856060830E+02  0.10573601718E+02  0.17151981646E+02  0.41129656286E+02  0.51100000000E-03 0. -1.
         22    1    1    0    0    0 -0.10023715045E+02  0.19026470226E+02 -0.19764631994E+02  0.29208254149E+02  0.00000000000E+00 0.  1.
</event>
<event>
 5    1  0.8900327E-005  0.9118800E+02  0.7818608E-02  0.1130116E+00
         25   -1    0    0    0    0  0.00000000000E+00  0.00000000000E+00  0.99999998245E-14  0.12500000000E+03  0.12500000000E+03 0.  0.
        -11    1    3    3    0    0  0.32698428386E+02 -0.94480636806E+01  0.22862019279E+01  0.34112751952E+02  0.51100000000E-03 0. -1.
         23    2    1    0    0    0 -0.22097948924E+02  0.18646375175E+02 -0.30684525452E+01  0.95923857635E+02  0.91410964379E+02 0.  0.
         11    1    3    3    0    0 -0.54796377310E+02  0.28094438855E+02 -0.53546544731E+01  0.61811105683E+02  0.51100000000E-03 0.  1.
         22    1    1    0    0    0  0.22097948924E+02 -0.18646375175E+02  0.30684525452E+01  0.29076142365E+02  0.00000000000E+00 0.  1.
</event>
<event>
 5    1  0.8900327E-005  0.9118800E+02  0.7818608E-02  0.1130116E+00
         25   -1    0    0    0    0  0.00000000000E+00  0.00000000000E+00  0.99999998245E-14  0.12500000000E+03  0.12500000000E+03 0.  0.
        -11    1    3    3    0    0  0.26975759147E+02  0.42331847881E+02 -0.75777562614E+01  0.50765138794E+02  0.51100000000E-03 0.  1.
         23    2    1    0    0    0  0.89256734491E+01  0.10767535201E+02 -0.28883645130E+02  0.92908374662E+02  0.87189986039E+02 0.  0.
         11    1    3    3    0    0 -0.18050085697E+02 -0.31564312680E+02 -0.21305888869E+02  0.42143235868E+02  0.51100000000E-03 0. -1.
         22    1    1    0    0    0 -0.89256734491E+01 -0.10767535201E+02  0.28883645130E+02  0.32091625338E+02  0.00000000000E+00 0. -1.
</event>
<event>
 5    1  0.8900327E-005  0.9118800E+02  0.7818608E-02  0.1130116E+00
         25   -1    0    0    0    0  0.00000000000E+00  0.00000000000E+00  0.99999998245E-14  0.12500000000E+03  0.12500000000E+03 0.  0.
        -11    1    3    3    0    0 -0.33761598931E+01 -0.24612518493E+02 -0.57038401117E+02  0.62213774395E+02  0.51100000000E-03 0.  1.
         23    2    1    0    0    0  0.18688364677E+01 -0.97178528312E+01 -0.28515488999E+02  0.94816190992E+02  0.89883523229E+02 0.  0.
         11    1    3    3    0    0  0.52449963608E+01  0.14894665662E+02  0.28522912118E+02  0.32602416597E+02  0.51100000000E-03 0. -1.
         22    1    1    0    0    0 -0.18688364677E+01  0.97178528312E+01  0.28515488999E+02  0.30183809008E+02  0.00000000000E+00 0.  1.
</event>
<event>
 5    1  0.8900327E-005  0.9118800E+02  0.7818608E-02  0.1130116E+00
         25   -1    0    0    0    0  0.00000000000E+00  0.00000000000E+00  0.99999998245E-14  0.12500000000E+03  0.12500000000E+03 0.  0.
        -11    1    3    3    0    0  0.39833486496E+02  0.78191848930E+01 -0.71164257147E+00  0.40599910520E+02  0.51100000000E-03 0.  1.
         23    2    1    0    0    0 -0.51026853579E+01 -0.24040536477E+02 -0.13230244022E+02  0.97088995919E+02  0.92990585436E+02 0.  0.
         11    1    3    3    0    0 -0.44936171854E+02 -0.31859721370E+02 -0.12518601451E+02  0.56489085399E+02  0.51100000000E-03 0. -1.
         22    1    1    0    0    0  0.51026853579E+01  0.24040536477E+02  0.13230244022E+02  0.27911004081E+02  0.00000000000E+00 0. -1.
</event>
<event>
 5    1  0.8900327E-005  0.9118800E+02  0.7818608E-02  0.1130116E+00
         25   -1    0    0    0    0  0.00000000000E+00  0.00000000000E+00  0.99999998245E-14  0.12500000000E+03  0.12500000000E+03 0.  0.
        -11    1    3    3    0    0  0.27425442891E+02  0.24720792351E+02  0.13825739610E+02  0.39426178717E+02  0.51100000000E-03 0. -1.
         23    2    1    0    0    0 -0.13125245425E+02 -0.11743864532E+02  0.24331092157E+02  0.94963481108E+02  0.90088125061E+02 0.  0.
         11    1    3    3    0    0 -0.40550688316E+02 -0.36464656882E+02  0.10505352547E+02  0.55537302391E+02  0.51100000000E-03 0.  1.
         22    1    1    0    0    0  0.13125245425E+02  0.11743864532E+02 -0.24331092157E+02  0.30036518892E+02  0.00000000000E+00 0.  1.
</event>
<event>
 5    1  0.8900327E-005  0.9118800E+02  0.7818608E-02  0.1130116E+00
         25   -1    0    0    0    0  0.00000000000E+00  0.00000000000E+00  0.99999998245E-14  0.12500000000E+03  0.12500000000E+03 0.  0.
        -11    1    3    3    0    0  0.25441171676E+02  0.32345509350E+02  0.26354663495E+02  0.48867714082E+02  0.51100000000E-03 0. -1.
         23    2    1    0    0    0 -0.16242221088E+02  0.23324129136E+02  0.68539057924E+01  0.95763023917E+02  0.91190766963E+02 0.  0.
         11    1    3    3    0    0 -0.41683392765E+02 -0.90213802131E+01 -0.19500757703E+02  0.46895309836E+02  0.51100000000E-03 0.  1.
         22    1    1    0    0    0  0.16242221088E+02 -0.23324129136E+02 -0.68539057924E+01  0.29236976083E+02  0.00000000000E+00 0.  1.
</event>
<event>
 5    1  0.8900327E-005  0.9118800E+02  0.7818608E-02  0.1130116E+00
         25   -1    0    0    0    0  0.00000000000E+00  0.00000000000E+00  0.99999998245E-14  0.12500000000E+03  0.12500000000E+03 0.  0.
        -11    1    3    3    0    0 -0.17711543800E+02  0.27767092550E+02  0.20947730234E+02  0.39032263766E+02  0.51100000000E-03 0.  1.
         23    2    1    0    0    0 -0.21044384817E+02 -0.15042845385E+02 -0.15056791181E+02  0.95069074684E+02  0.90234520396E+02 0.  0.
         11    1    3    3    0    0 -0.33328410169E+01 -0.42809937935E+02 -0.36004521415E+02  0.56036810918E+02  0.51100000000E-03 0. -1.
         22    1    1    0    0    0  0.21044384817E+02  0.15042845385E+02  0.15056791181E+02  0.29930925316E+02  0.00000000000E+00 0. -1.
</event>
<event>
 5    1  0.8900327E-005  0.9118800E+02  0.7818608E-02  0.1130116E+00
         25   -1    0    0    0    0  0.00000000000E+00  0.00000000000E+00  0.99999998245E-14  0.12500000000E+03  0.12500000000E+03 0.  0.
        -11    1    3    3    0    0  0.11292641821E+02  0.88691069477E+01  0.31084323813E+02  0.34240619220E+02  0.51100000000E-03 0.  1.
         23    2    1    0    0    0  0.10259600457E+01  0.18585484845E+02 -0.25985877810E+02  0.93035352552E+02  0.87371838358E+02 0.  0.
         11    1    3    3    0    0 -0.10266681776E+02  0.97163778971E+01 -0.57070201623E+02  0.58794733333E+02  0.51100000000E-03 0. -1.
         22    1    1    0    0    0 -0.10259600457E+01 -0.18585484845E+02  0.25985877810E+02  0.31964647448E+02  0.00000000000E+00 0. -1.
</event>
<event>
 5    1  0.8900327E-005  0.9118800E+02  0.7818608E-02  0.1130116E+00
         25   -1    0    0    0    0  0.00000000000E+00  0.00000000000E+00  0.99999998245E-14  0.12500000000E+03  0.12500000000E+03 0.  0.
        -11    1    3    3    0    0 -0.46539738502E+01 -0.57420220861E+02  0.81777016586E+01  0.58186046789E+02  0.51100000000E-03 0.  1.
         23    2    1    0    0    0  0.77645330926E+00 -0.29017585236E+02 -0.12148672323E+02  0.93532344036E+02  0.88079997780E+02 0.  0.
         11    1    3    3    0    0  0.54304271595E+01  0.28402635625E+02 -0.20326373981E+02  0.35346297247E+02  0.51100000000E-03 0. -1.
         22    1    1    0    0    0 -0.77645330926E+00  0.29017585236E+02  0.12148672323E+02  0.31467655964E+02  0.00000000000E+00 0. -1.
</event>
<event>
 5    1  0.8900327E-005  0.9118800E+02  0.7818608E-02  0.1130116E+00
         25   -1    0    0    0    0  0.00000000000E+00  0.00000000000E+00  0.99999998245E-14  0.12500000000E+03  0.12500000000E+03 0.  0.
        -11    1    3    3    0    0 -0.48023845006E+01 -0.57551846556E+02 -0.50011009311E+01  0.57967999359E+02  0.51100000000E-03 0.  1.
         23    2    1    0    0    0 -0.17912893769E+02 -0.19483753983E+02 -0.39164210553E+01  0.98245060525E+02  0.94531820733E+02 0.  0.
         11    1    3    3    0    0 -0.13110509269E+02  0.38068092573E+02  0.10846798759E+01  0.40277061166E+02  0.51100000000E-03 0. -1.
         22    1    1    0    0    0  0.17912893769E+02  0.19483753983E+02  0.39164210553E+01  0.26754939475E+02  0.00000000000E+00 0.  1.
</event>
<event>
 5    1  0.8900327E-005  0.9118800E+02  0.7818608E-02  0.1130116E+00
         25   -1    0    0    0    0  0.00000000000E+00  0.00000000000E+00  0.99999998245E-14  0.12500000000E+03  0.12500000000E+03 0.  0.
        -11    1    3    3    0    0  0.66954112465E+01 -0.34884569910E+02  0.50796437153E+02  0.61984189737E+02  0.51100000000E-03 0.  1.
         23    2    1    0    0    0  0.86590512351E+01 -0.17531838250E+02  0.22996716946E+02  0.94814017972E+02  0.89880501184E+02 0.  0.
         11    1    3    3    0    0  0.19636399886E+01  0.17352731661E+02 -0.27799720207E+02  0.32829828235E+02  0.51100000000E-03 0. -1.
         22    1    1    0    0    0 -0.86590512351E+01  0.17531838250E+02 -0.22996716946E+02  0.30185982028E+02  0.00000000000E+00 0.  1.
</event>
<event>
 5    1  0.8900327E-005  0.9118800E+02  0.7818608E-02  0.1130116E+00
         25   -1    0    0    0    0  0.00000000000E+00  0.00000000000E+00  0.99999998245E-14  0.12500000000E+03  0.12500000000E+03 0.  0.
        -11    1    3    3    0    0 -0.11489055980E+02  0.28242034303E+02  0.59210152963E+01  0.31059126376E+02  0.51100000000E-03 0.  1.
         23    2    1    0    0    0  0.37502348785E+02  0.64323114344E+00  0.32164648842E+01  0.87354474940E+02  0.78826510356E+02 0.  0.
         11    1    3    3    0    0  0.48991404765E+02 -0.27598803159E+02 -0.27045504121E+01  0.56295348563E+02  0.51100000000E-03 0. -1.
         22    1    1    0    0    0 -0.37502348785E+02 -0.64323114344E+00 -0.32164648842E+01  0.37645525060E+02  0.00000000000E+00 0. -1.
</event>
<event>
 5    1  0.8900327E-005  0.9118800E+02  0.7818608E-02  0.1130116E+00
         25   -1    0    0    0    0  0.00000000000E+00  0.00000000000E+00  0.99999998245E-14  0.12500000000E+03  0.12500000000E+03 0.  0.
        -11    1    3    3    0    0 -0.46890828067E+02  0.75914690204E+01 -0.64247975314E+01  0.47933893878E+02  0.51100000000E-03 0.  1.
         23    2    1    0    0    0 -0.82048315394E+01 -0.13552256215E+02 -0.24697850573E+02  0.95657765388E+02  0.91046369213E+02 0.  0.
         11    1    3    3    0    0  0.38685996527E+02 -0.21143725235E+02 -0.18273053042E+02  0.47723871510E+02  0.51100000000E-03 0. -1.
         22    1    1    0    0    0  0.82048315394E+01  0.13552256215E+02  0.24697850573E+02  0.29342234612E+02  0.00000000000E+00 0.  1.
</event>
<event>
 5    1  0.8900327E-005  0.9118800E+02  0.7818608E-02  0.1130116E+00
         25   -1    0    0    0    0  0.00000000000E+00  0.00000000000E+00  0.99999998245E-14  0.12500000000E+03  0.12500000000E+03 0.  0.
        -11    1    3    3    0    0  0.13368854609E+02 -0.42378616999E+02 -0.40081937735E+02  0.59843422238E+02  0.51100000000E-03 0. -1.
         23    2    1    0    0    0  0.36984064073E+01 -0.28756897167E+02 -0.98591232582E+01  0.94375832157E+02  0.89269020602E+02 0.  0.
         11    1    3    3    0    0 -0.96704482015E+01  0.13621719832E+02  0.30222814477E+02  0.34532409919E+02  0.51100000000E-03 0.  1.
         22    1    1    0    0    0 -0.36984064073E+01  0.28756897167E+02  0.98591232582E+01  0.30624167843E+02  0.00000000000E+00 0. -1.
</event>
<event>
 5    1  0.8900327E-005  0.9118800E+02  0.7818608E-02  0.1130116E+00
         25   -1    0    0    0    0  0.00000000000E+00  0.00000000000E+00  0.99999998245E-14  0.12500000000E+03  0.12500000000E+03 0.  0.
        -11    1    3    3    0    0  0.88693961211E+01  0.21235517448E+02  0.32603976950E+02  0.39907802521E+02  0.51100000000E-03 0.  1.
         23    2    1    0    0    0  0.21958106283E+02 -0.70245835091E+01 -0.15504348901E+02  0.97217126861E+02  0.93162662667E+02 0.  0.
         11    1    3    3    0    0  0.13088710162E+02 -0.28260100957E+02 -0.48108325852E+02  0.57309324340E+02  0.51100000000E-03 0. -1.
         22    1    1    0    0    0 -0.21958106283E+02  0.70245835091E+01  0.15504348901E+02  0.27782873139E+02  0.00000000000E+00 0. -1.
</event>
<event>
 5    1  0.8900327E-005  0.9118800E+02  0.7818608E-02  0.1130116E+00
         25   -1    0    0    0    0  0.00000000000E+00  0.00000000000E+00  0.99999998245E-14  0.12500000000E+03  0.12500000000E+03 0.  0.
        -11    1    3    3    0    0  0.28728823485E+02 -0.11786891911E+02  0.13071069523E+02  0.33691675211E+02  0.51100000000E-03 0.  1.
         23    2    1    0    0    0 -0.25744716988E+02  0.14708590450E+02  0.18957634886E+01  0.95289277945E+02  0.90539049510E+02 0.  0.
         11    1    3    3    0    0 -0.54473540474E+02  0.26495482361E+02 -0.11175306035E+02  0.61597602734E+02  0.51100000000E-03 0. -1.
         22    1    1    0    0    0  0.25744716988E+02 -0.14708590450E+02 -0.18957634886E+01  0.29710722055E+02  0.00000000000E+00 0. -1.
</event>
<event>
 5    1  0.8900327E-005  0.9118800E+02  0.7818608E-02  0.1130116E+00
         25   -1    0    0    0    0  0.00000000000E+00  0.00000000000E+00  0.99999998245E-14  0.12500000000E+03  0.12500000000E+03 0.  0.
        -11    1    3    3    0    0 -0.12290995619E+02  0.34010969975E+02  0.89063527271E+01  0.37244298505E+02  0.51100000000E-03 0.  1.
         23    2    1    0    0    0 -0.14777976773E+00 -0.22883566398E+02 -0.12121384465E+02  0.99103911275E+02  0.95660743352E+02 0.  0.
         11    1    3    3    0    0  0.12143215852E+02 -0.56894536373E+02 -0.21027737192E+02  0.61859612769E+02  0.51100000000E-03 0. -1.
         22    1    1    0    0    0  0.14777976773E+00  0.22883566398E+02  0.12121384465E+02  0.25896088725E+02  0.00000000000E+00 0. -1.
</event>
<event>
 5    1  0.8900327E-005  0.9118800E+02  0.7818608E-02  0.1130116E+00
         25   -1    0    0    0    0  0.00000000000E+00  0.00000000000E+00  0.99999998245E-14  0.12500000000E+03  0.12500000000E+03 0.  0.
        -11    1    3    3    0    0  0.74928998954E+01 -0.24490754371E+02 -0.55064703161E+02  0.60729417361E+02  0.51100000000E-03 0.  1.
         23    2    1    0    0    0  0.11600167802E+02 -0.48666494507E+01 -0.26926810365E+02  0.95279614970E+02  0.90525707633E+02 0.  0.
         11    1    3    3    0    0  0.41072679062E+01  0.19624104920E+02  0.28137892796E+02  0.34550197609E+02  0.51100000000E-03 0. -1.
         22    1    1    0    0    0 -0.11600167802E+02  0.48666494507E+01  0.26926810365E+02  0.29720385030E+02  0.00000000000E+00 0.  1.
</event>
<event>
 5    1  0.8900327E-005  0.9118800E+02  0.7818608E-02  0.1130116E+00
         25   -1    0    0    0    0  0.00000000000E+00  0.00000000000E+00  0.99999998245E-14  0.12500000000E+03  0.12500000000E+03 0.  0.
        -11    1    3    3    0    0 -0.13645476949E+02  0.31577125962E+02 -0.16293469449E+02  0.38062988219E+02  0.51100000000E-03 0.  1.
         23    2    1    0    0    0  0.18808704463E+02 -0.15657194078E+02 -0.16697376660E+02  0.95373702943E+02  0.90655533398E+02 0.  0.
         11    1    3    3    0    0  0.32454181412E+02 -0.47234320041E+02 -0.40390721120E+00  0.57310714724E+02  0.51100000000E-03 0. -1.
         22    1    1    0    0    0 -0.18808704463E+02  0.15657194078E+02  0.16697376660E+02  0.29626297057E+02  0.00000000000E+00 0. -1.
</event>
<event>
 5    1  0.8900327E-005  0.9118800E+02  0.7818608E-02  0.1130116E+00
         25   -1    0    0    0    0  0.00000000000E+00  0.00000000000E+00  0.99999998245E-14  0.12500000000E+03  0.12500000000E+03 0.  0.
        -11    1    3    3    0    0 -0.41835946414E+02  0.29598590718E+02 -0.20193599193E+02  0.55082705394E+02  0.51100000000E-03 0.  1.
         23    2    1    0    0    0 -0.89323942048E+01  0.90405088447E+01 -0.27630352026E+02  0.94586930121E+02  0.89564125241E+02 0.  0.
         11    1    3    3    0    0  0.32903552209E+02 -0.20558081874E+02 -0.74367528332E+01  0.39504224727E+02  0.51100000000E-03 0. -1.
         22    1    1    0    0    0  0.89323942048E+01 -0.90405088447E+01  0.27630352026E+02  0.30413069879E+02  0.00000000000E+00 0.  1.
</event>
<event>
 5    1  0.8900327E-005  0.9118800E+02  0.7818608E-02  0.1130116E+00
         25   -1    0    0    0    0  0.00000000000E+00  0.00000000000E+00  0.99999998245E-14  0.12500000000E+03  0.12500000000E+03 0.  0.
        -11    1    3    3    0    0  0.35802965737E+02  0.99381651472E+01  0.14793374870E+01  0.37186125392E+02  0.51100000000E-03 0.  1.
         23    2    1    0    0    0 -0.13330749407E+02  0.27177826571E+02 -0.14196853442E+02  0.91565081360E+02  0.85242421012E+02 0.  0.
         11    1    3    3    0    0 -0.49133715143E+02  0.17239661423E+02 -0.15676190929E+02  0.54378955967E+02  0.51100000000E-03 0. -1.
         22    1    1    0    0    0  0.13330749407E+02 -0.27177826571E+02  0.14196853442E+02  0.33434918640E+02  0.00000000000E+00 0. -1.
</event>
<event>
 5    1  0.8900327E-005  0.9118800E+02  0.7818608E-02  0.1130116E+00
         25   -1    0    0    0    0  0.00000000000E+00  0.00000000000E+00  0.99999998245E-14  0.12500000000E+03  0.12500000000E+03 0.  0.
        -11    1    3    3    0    0  0.44961262799E+01 -0.52130983858E+02  0.29410408013E+02  0.60023551455E+02  0.51100000000E-03 0. -1.
         23    2    1    0    0    0  0.13568151646E+02 -0.21341527845E+02  0.17435428784E+02  0.94282745456E+02  0.89138579549E+02 0.  0.
         11    1    3    3    0    0  0.90720253656E+01  0.30789456013E+02 -0.11974979229E+02  0.34259194001E+02  0.51100000000E-03 0.  1.
         22    1    1    0    0    0 -0.13568151646E+02  0.21341527845E+02 -0.17435428784E+02  0.30717254544E+02  0.00000000000E+00 0. -1.
</event>
<event>
 5    1  0.8900327E-005  0.9118800E+02  0.7818608E-02  0.1130116E+00
         25   -1    0    0    0    0  0.00000000000E+00  0.00000000000E+00  0.99999998245E-14  0.12500000000E+03  0.12500000000E+03 0.  0.
        -11    1    3    3    0    0 -0.36235742657E+02  0.48258501934E+02 -0.98541865596E+01  0.61147502384E+02  0.51100000000E-03 0. -1.
         23    2    1    0    0    0 -0.26652163660E+02  0.20277240091E+02 -0.43965924553E+01  0.91223761034E+02  0.84740428713E+02 0.  0.
         11    1    3    3    0    0  0.95835789968E+01 -0.27981261843E+02  0.54575941043E+01  0.30076258650E+02  0.51100000000E-03 0.  1.
         22    1    1    0    0    0  0.26652163660E+02 -0.20277240091E+02  0.43965924553E+01  0.33776238966E+02  0.00000000000E+00 0. -1.
</event>
<event>
 5    1  0.8900327E-005  0.9118800E+02  0.7818608E-02  0.1130116E+00
         25   -1    0    0    0    0  0.00000000000E+00  0.00000000000E+00  0.99999998245E-14  0.12500000000E+03  0.12500000000E+03 0.  0.
        -11    1    3    3    0    0  0.16585847483E+01  0.27891435015E+02  0.54794670911E+02  0.61507227308E+02  0.51100000000E-03 0.  1.
         23    2    1    0    0    0  0.85436267783E+01  0.12167204722E+02  0.23791246667E+02  0.96945448725E+02  0.92797425510E+02 0.  0.
         11    1    3    3    0    0  0.68850420300E+01 -0.15724230293E+02 -0.31003424244E+02  0.35438221417E+02  0.51100000000E-03 0. -1.
         22    1    1    0    0    0 -0.85436267783E+01 -0.12167204722E+02 -0.23791246667E+02  0.28054551275E+02  0.00000000000E+00 0.  1.
</event>
<event>
 5    1  0.8900327E-005  0.9118800E+02  0.7818608E-02  0.1130116E+00
         25   -1    0    0    0    0  0.00000000000E+00  0.00000000000E+00  0.99999998245E-14  0.12500000000E+03  0.12500000000E+03 0.  0.
        -11    1    3    3    0    0 -0.37754338482E+02 -0.29113967927E+02  0.18532347596E+02  0.51151354923E+02  0.51100000000E-03 0.  1.
         23    2    1    0    0    0 -0.22495139774E+02 -0.96108761124E+01 -0.17535574477E+02  0.94901883359E+02  0.90002615739E+02 0.  0.
         11    1    3    3    0    0  0.15259198709E+02  0.19503091815E+02 -0.36067922073E+02  0.43750528437E+02  0.51100000000E-03 0. -1.
         22    1    1    0    0    0  0.22495139774E+02  0.96108761124E+01  0.17535574477E+02  0.30098116641E+02  0.00000000000E+00 0. -1.
</event>
<event>
 5    1  0.8900327E-005  0.9118800E+02  0.7818608E-02  0.1130116E+00
         25   -1    0    0    0    0  0.00000000000E+00  0.00000000000E+00  0.99999998245E-14  0.12500000000E+03  0.12500000000E+03 0.  0.
        -11    1    3    3    0    0  0.18216545285E+02  0.28270044940E+01  0.41585213723E+02  0.45488069613E+02  0.51100000000E-03 0.  1.
         23    2    1    0    0    0  0.13241998886E+02 -0.27239881380E+02  0.31363377475E+01  0.94550069186E+02  0.89512665565E+02 0.  0.
         11    1    3    3    0    0 -0.49745463989E+01 -0.30066885874E+02 -0.38448875975E+02  0.49061999573E+02  0.51100000000E-03 0. -1.
         22    1    1    0    0    0 -0.13241998886E+02  0.27239881380E+02 -0.31363377475E+01  0.30449930814E+02  0.00000000000E+00 0. -1.
</event>
<event>
 5    1  0.8900327E-005  0.9118800E+02  0.7818608E-02  0.1130116E+00
         25   -1    0    0    0    0  0.00000000000E+00  0.00000000000E+00  0.99999998245E-14  0.12500000000E+03  0.12500000000E+03 0.  0.
        -11    1    3    3    0    0  0.49229699361E+01  0.13047368525E+02  0.37705301618E+02  0.40201482918E+02  0.51100000000E-03 0. -1.
         23    2    1    0    0    0  0.22336645984E+02 -0.16302818839E+02 -0.70291343963E+01  0.96467275169E+02  0.92151065063E+02 0.  0.
         11    1    3    3    0    0  0.17413676048E+02 -0.29350187364E+02 -0.44734436015E+02  0.56265792251E+02  0.51100000000E-03 0.  1.
         22    1    1    0    0    0 -0.22336645984E+02  0.16302818839E+02  0.70291343963E+01  0.28532724831E+02  0.00000000000E+00 0.  1.
</event>
<event>
 5    1  0.8900327E-005  0.9118800E+02  0.7818608E-02  0.1130116E+00
         25   -1    0    0    0    0  0.00000000000E+00  0.00000000000E+00  0.99999998245E-14  0.12500000000E+03  0.12500000000E+03 0.  0.
        -11    1    3    3    0    0  0.29111969552E+02  0.27216169229E+02  0.75136325388E+01  0.40554670667E+02  0.51100000000E-03 0.  1.
         23    2    1    0    0    0 -0.13724914984E+02  0.30833465285E+01 -0.22723085173E+02  0.98275125502E+02  0.94571567480E+02 0.  0.
         11    1    3    3    0    0 -0.42836884536E+02 -0.24132822700E+02 -0.30236717712E+02  0.57720454836E+02  0.51100000000E-03 0. -1.
         22    1    1    0    0    0  0.13724914984E+02 -0.30833465285E+01  0.22723085173E+02  0.26724874498E+02  0.00000000000E+00 0. -1.
</event>
<event>
 5    1  0.8900327E-005  0.9118800E+02  0.7818608E-02  0.1130116E+00
         25   -1    0    0    0    0  0.00000000000E+00  0.00000000000E+00  0.99999998245E-14  0.12500000000E+03  0.12500000000E+03 0.  0.
        -11    1    3    3    0    0  0.11695661807E+02 -0.34141604563E+02 -0.50766568949E+02  0.62287094894E+02  0.51100000000E-03 0. -1.
         23    2    1    0    0    0  0.27345522673E+01 -0.14724493801E+02 -0.25874547803E+02  0.95103834396E+02  0.90282659459E+02 0.  0.
         11    1    3    3    0    0 -0.89611095395E+01  0.19417110762E+02  0.24892021146E+02  0.32816739502E+02  0.51100000000E-03 0.  1.
         22    1    1    0    0    0 -0.27345522673E+01  0.14724493801E+02  0.25874547803E+02  0.29896165604E+02  0.00000000000E+00 0. -1.
</event>
<event>
 5    1  0.8900327E-005  0.9118800E+02  0.7818608E-02  0.1130116E+00
         25   -1    0    0    0    0  0.00000000000E+00  0.00000000000E+00  0.99999998245E-14  0.12500000000E+03  0.12500000000E+03 0.  0.
        -11    1    3    3    0    0 -0.12894777217E+02  0.34679450384E+02 -0.21191243746E+02  0.42638109365E+02  0.51100000000E-03 0. -1.
         23    2    1    0    0    0 -0.22001945577E+02  0.30401550106E+01  0.19821068469E+02  0.95230839668E+02  0.90458332490E+02 0.  0.
         11    1    3    3    0    0 -0.91071683596E+01 -0.31639295374E+02  0.41012312215E+02  0.52592730303E+02  0.51100000000E-03 0.  1.
         22    1    1    0    0    0  0.22001945577E+02 -0.30401550106E+01 -0.19821068469E+02  0.29769160332E+02  0.00000000000E+00 0.  1.
</event>
<event>
 5    1  0.8900327E-005  0.9118800E+02  0.7818608E-02  0.1130116E+00
         25   -1    0    0    0    0  0.00000000000E+00  0.00000000000E+00  0.99999998245E-14  0.12500000000E+03  0.12500000000E+03 0.  0.
        -11    1    3    3    0    0 -0.20780244763E+02 -0.10696335446E+02  0.27788739656E+02  0.36310387168E+02  0.51100000000E-03 0.  1.
         23    2    1    0    0    0  0.74572126040E+01 -0.21956207395E+02 -0.20948049131E+02  0.93750906807E+02  0.88389630058E+02 0.  0.
         11    1    3    3    0    0  0.28237457367E+02 -0.11259871948E+02 -0.48736788787E+02  0.57440519639E+02  0.51100000000E-03 0. -1.
         22    1    1    0    0    0 -0.74572126040E+01  0.21956207395E+02  0.20948049131E+02  0.31249093193E+02  0.00000000000E+00 0. -1.
</event>
<event>
 5    1  0.8900327E-005  0.9118800E+02  0.7818608E-02  0.1130116E+00
         25   -1    0    0    0    0  0.00000000000E+00  0.00000000000E+00  0.99999998245E-14  0.12500000000E+03  0.12500000000E+03 0.  0.
        -11    1    3    3    0    0  0.24168647687E+02 -0.87774108559E+01 -0.51850524441E+02  0.57876103510E+02  0.51100000000E-03 0.  1.
         23    2    1    0    0    0  0.15121864336E+02  0.12365198389E+02 -0.21564946770E+02  0.95903336250E+02  0.91382898085E+02 0.  0.
         11    1    3    3    0    0 -0.90467833507E+01  0.21142609245E+02  0.30285577671E+02  0.38027232740E+02  0.51100000000E-03 0. -1.
         22    1    1    0    0    0 -0.15121864336E+02 -0.12365198389E+02  0.21564946770E+02  0.29096663750E+02  0.00000000000E+00 0.  1.
</event>
<event>
 5    1  0.8900327E-005  0.9118800E+02  0.7818608E-02  0.1130116E+00
         25   -1    0    0    0    0  0.00000000000E+00  0.00000000000E+00  0.99999998245E-14  0.12500000000E+03  0.12500000000E+03 0.  0.
        -11    1    3    3    0    0 -0.23683997710E+02 -0.27396042760E+02  0.30811774001E+02  0.47548294646E+02  0.51100000000E-03 0.  1.
         23    2    1    0    0    0  0.20085586410E+02 -0.92755450138E+01  0.17602922515E+02  0.96727585922E+02  0.92503494423E+02 0.  0.
         11    1    3    3    0    0  0.43769584120E+02  0.18120497746E+02 -0.13208851486E+02  0.49179291276E+02  0.51100000000E-03 0. -1.
         22    1    1    0    0    0 -0.20085586410E+02  0.92755450138E+01 -0.17602922515E+02  0.28272414078E+02  0.00000000000E+00 0.  1.
</event>
<event>
 5    1  0.8900327E-005  0.9118800E+02  0.7818608E-02  0.1130116E+00
         25   -1    0    0    0    0  0.00000000000E+00  0.00000000000E+00  0.99999998245E-14  0.12500000000E+03  0.12500000000E+03 0.  0.
        -11    1    3    3    0    0  0.87915126801E+01  0.59625392145E+02 -0.14720686643E+02  0.62041733528E+02  0.51100000000E-03 0.  1.
         23    2    1    0    0    0 -0.10356330548E+01  0.27207794358E+02 -0.46769127883E+01  0.97373742148E+02  0.93372563085E+02 0.  0.
         11    1    3    3    0    0 -0.98271457349E+01 -0.32417597787E+02  0.10043773855E+02  0.35332008620E+02  0.51100000000E-03 0. -1.
         22    1    1    0    0    0  0.10356330548E+01 -0.27207794358E+02  0.46769127883E+01  0.27626257852E+02  0.00000000000E+00 0.  1.
</event>
<event>
 5    1  0.8900327E-005  0.9118800E+02  0.7818608E-02  0.1130116E+00
         25   -1    0    0    0    0  0.00000000000E+00  0.00000000000E+00  0.99999998245E-14  0.12500000000E+03  0.12500000000E+03 0.  0.
        -11    1    3    3    0    0  0.99911081239E+00  0.25910096526E+01 -0.55396148577E+02  0.55465708603E+02  0.51100000000E-03 0. -1.
         23    2    1    0    0    0 -0.19545079297E+02 -0.40189710930E+01 -0.21338810472E+02  0.95785156414E+02  0.91221100101E+02 0.  0.
         11    1    3    3    0    0 -0.20544190110E+02 -0.66099807455E+01  0.34057338105E+02  0.40319447811E+02  0.51100000000E-03 0.  1.
         22    1    1    0    0    0  0.19545079297E+02  0.40189710930E+01  0.21338810472E+02  0.29214843586E+02  0.00000000000E+00 0. -1.
</event>
<event>
 5    1  0.8900327E-005  0.9118800E+02  0.7818608E-02  0.1130116E+00
         25   -1    0    0    0    0  0.00000000000E+00  0.00000000000E+00  0.99999998245E-14  0.12500000000E+03  0.12500000000E+03 0.  0.
        -11    1    3    3    0    0  0.21633412504E+02 -0.45995053704E+02 -0.27986092785E+02  0.58023882078E+02  0.51100000000E-03 0. -1.
         23    2    1    0    0    0 -0.12853238567E+01 -0.15474868219E+02 -0.24021414615E+02  0.96396644185E+02  0.92055206513E+02 0.  0.
         11    1    3    3    0    0 -0.22918736361E+02  0.30520185485E+02  0.39646781704E+01  0.38372762106E+02  0.51100000000E-03 0.  1.
         22    1    1    0    0    0  0.12853238567E+01  0.15474868219E+02  0.24021414615E+02  0.28603355815E+02  0.00000000000E+00 0. -1.
</event>
<event>
 5    1  0.8900327E-005  0.9118800E+02  0.7818608E-02  0.1130116E+00
         25   -1    0    0    0    0  0.00000000000E+00  0.00000000000E+00  0.99999998245E-14  0.12500000000E+03  0.12500000000E+03 0.  0.
        -11    1    3    3    0    0 -0.38327630169E+01 -0.55952092639E+02  0.19439708249E+02  0.59356794052E+02  0.51100000000E-03 0. -1.
         23    2    1    0    0    0 -0.38764240175E+01 -0.29486411919E+02 -0.43504142989E+01  0.94943365864E+02  0.90060210226E+02 0.  0.
         11    1    3    3    0    0 -0.43661000638E-01  0.26465680720E+02 -0.23790122548E+02  0.35586571812E+02  0.51100000000E-03 0.  1.
         22    1    1    0    0    0  0.38764240175E+01  0.29486411919E+02  0.43504142989E+01  0.30056634136E+02  0.00000000000E+00 0. -1.
</event>
<event>
 5    1  0.8900327E-005  0.9118800E+02  0.7818608E-02  0.1130116E+00
         25   -1    0    0    0    0  0.00000000000E+00  0.00000000000E+00  0.99999998245E-14  0.12500000000E+03  0.12500000000E+03 0.  0.
        -11    1    3    3    0    0  0.25783680253E+02  0.27128049244E+02 -0.36290134784E+01  0.37601847857E+02  0.51100000000E-03 0.  1.
         23    2    1    0    0    0 -0.10333786704E+02 -0.21278855945E+02 -0.11828562103E+02  0.98552093856E+02  0.94936944674E+02 0.  0.
         11    1    3    3    0    0 -0.36117466958E+02 -0.48406905189E+02 -0.81995486245E+01  0.60950245999E+02  0.51100000000E-03 0. -1.
         22    1    1    0    0    0  0.10333786704E+02  0.21278855945E+02  0.11828562103E+02  0.26447906144E+02  0.00000000000E+00 0. -1.
</event>
<event>
 5    1  0.8900327E-005  0.9118800E+02  0.7818608E-02  0.1130116E+00
         25   -1    0    0    0    0  0.00000000000E+00  0.00000000000E+00  0.99999998245E-14  0.12500000000E+03  0.12500000000E+03 0.  0.
        -11    1    3    3    0    0  0.18196638545E+02 -0.13197384197E+02 -0.40258391539E+02  0.46108856996E+02  0.51100000000E-03 0. -1.
         23    2    1    0    0    0  0.28375890787E+02 -0.56262793489E+01  0.71632033928E+01  0.95198025567E+02  0.90412976899E+02 0.  0.
         11    1    3    3    0    0  0.10179252242E+02  0.75711048481E+01  0.47421594931E+02  0.49089168570E+02  0.51100000000E-03 0.  1.
         22    1    1    0    0    0 -0.28375890787E+02  0.56262793489E+01 -0.71632033928E+01  0.29801974433E+02  0.00000000000E+00 0.  1.
</event>
<event>
 5    1  0.8900327E-005  0.9118800E+02  0.7818608E-02  0.1130116E+00
         25   -1    0    0    0    0  0.00000000000E+00  0.00000000000E+00  0.99999998245E-14  0.12500000000E+03  0.12500000000E+03 0.  0.
        -11    1    3    3    0    0 -0.24885571647E+02 -0.27893029074E+02  0.15505975832E+02  0.40469099741E+02  0.51100000000E-03 0. -1.
         23    2    1    0    0    0 -0.16068552350E+02  0.23131407788E+02 -0.54201553691E+01  0.96318324925E+02  0.91948796791E+02 0.  0.
         11    1    3    3    0    0  0.88170192971E+01  0.51024436862E+02 -0.20926131201E+02  0.55849225184E+02  0.51100000000E-03 0.  1.
         22    1    1    0    0    0  0.16068552350E+02 -0.23131407788E+02  0.54201553691E+01  0.28681675075E+02  0.00000000000E+00 0.  1.
</event>
<event>
 5    1  0.8900327E-005  0.9118800E+02  0.7818608E-02  0.1130116E+00
         25   -1    0    0    0    0  0.00000000000E+00  0.00000000000E+00  0.99999998245E-14  0.12500000000E+03  0.12500000000E+03 0.  0.
        -11    1    3    3    0    0 -0.35026767046E+02  0.19565759666E+02  0.24004489730E+02  0.46753704543E+02  0.51100000000E-03 0.  1.
         23    2    1    0    0    0  0.13714109083E+02  0.18891434163E+02  0.17269055210E+02  0.95962380598E+02  0.91463627468E+02 0.  0.
         11    1    3    3    0    0  0.48740876129E+02 -0.67432550230E+00 -0.67354345208E+01  0.49208676055E+02  0.51100000000E-03 0. -1.
         22    1    1    0    0    0 -0.13714109083E+02 -0.18891434163E+02 -0.17269055210E+02  0.29037619402E+02  0.00000000000E+00 0. -1.
</event>
<event>
 5    1  0.8900327E-005  0.9118800E+02  0.7818608E-02  0.1130116E+00
         25   -1    0    0    0    0  0.00000000000E+00  0.00000000000E+00  0.99999998245E-14  0.12500000000E+03  0.12500000000E+03 0.  0.
        -11    1    3    3    0    0  0.18406519425E+02 -0.63746638880E+01  0.52454082706E+02  0.55954151676E+02  0.51100000000E-03 0.  1.
         23    2    1    0    0    0  0.25465833355E+02 -0.13232648994E+01  0.12951405399E+02  0.96399325178E+02  0.92058846910E+02 0.  0.
         11    1    3    3    0    0  0.70593139305E+01  0.50513989886E+01 -0.39502677307E+02  0.40445173502E+02  0.51100000000E-03 0. -1.
         22    1    1    0    0    0 -0.25465833355E+02  0.13232648994E+01 -0.12951405399E+02  0.28600674822E+02  0.00000000000E+00 0.  1.
</event>
<event>
 5    1  0.8900327E-005  0.9118800E+02  0.7818608E-02  0.1130116E+00
         25   -1    0    0    0    0  0.00000000000E+00  0.00000000000E+00  0.99999998245E-14  0.12500000000E+03  0.12500000000E+03 0.  0.
        -11    1    3    3    0    0 -0.38422573196E+02 -0.32640129477E+02  0.28535553754E+02  0.57930561982E+02  0.51100000000E-03 0. -1.
         23    2    1    0    0    0 -0.31776520153E+02 -0.99021101041E+01  0.49657128230E+01  0.91347996770E+02  0.84923490228E+02 0.  0.
         11    1    3    3    0    0  0.66460530432E+01  0.22738019373E+02 -0.23569840931E+02  0.33417434788E+02  0.51100000000E-03 0.  1.
         22    1    1    0    0    0  0.31776520153E+02  0.99021101041E+01 -0.49657128230E+01  0.33652003230E+02  0.00000000000E+00 0. -1.
</event>
<event>
 5    1  0.8900327E-005  0.9118800E+02  0.7818608E-02  0.1130116E+00
         25   -1    0    0    0    0  0.00000000000E+00  0.00000000000E+00  0.99999998245E-14  0.12500000000E+03  0.12500000000E+03 0.  0.
        -11    1    3    3    0    0 -0.32395293752E+01 -0.31039451595E+02 -0.36264970015E+02  0.47844437047E+02  0.51100000000E-03 0. -1.
         23    2    1    0    0    0  0.97996350761E+01 -0.24175616649E+02  0.10502892485E+02  0.96878761788E+02  0.92707553344E+02 0.  0.
         11    1    3    3    0    0  0.13039164451E+02  0.68638349459E+01  0.46767862500E+02  0.49034324741E+02  0.51100000000E-03 0.  1.
         22    1    1    0    0    0 -0.97996350761E+01  0.24175616649E+02 -0.10502892485E+02  0.28121238212E+02  0.00000000000E+00 0. -1.
</event>
<event>
 5    1  0.8900327E-005  0.9118800E+02  0.7818608E-02  0.1130116E+00
         25   -1    0    0    0    0  0.00000000000E+00  0.00000000000E+00  0.99999998245E-14  0.12500000000E+03  0.12500000000E+03 0.  0.
        -11    1    3    3    0    0  0.74920731267E+01  0.41346922778E+02 -0.30933639957E+01  0.42133930318E+02  0.51100000000E-03 0.  1.
         23    2    1    0    0    0  0.18244184847E+02 -0.45342750388E+01 -0.24687046123E+02  0.93970011648E+02  0.88698945383E+02 0.  0.
         11    1    3    3    0    0  0.10752111720E+02 -0.45881197817E+02 -0.21593682127E+02  0.51836081330E+02  0.51100000000E-03 0. -1.
         22    1    1    0    0    0 -0.18244184847E+02  0.45342750388E+01  0.24687046123E+02  0.31029988352E+02  0.00000000000E+00 0. -1.
</event>
<event>
 5    1  0.8900327E-005  0.9118800E+02  0.7818608E-02  0.1130116E+00
         25   -1    0    0    0    0  0.00000000000E+00  0.00000000000E+00  0.99999998245E-14  0.12500000000E+03  0.12500000000E+03 0.  0.
        -11    1    3    3    0    0  0.58128859219E+02  0.12662143552E+02 -0.18601173163E+01  0.59521039895E+02  0.51100000000E-03 0.  1.
         23    2    1    0    0    0  0.24650752815E+02  0.65076851749E+01 -0.14307342616E+02  0.95764582551E+02  0.91192903439E+02 0.  0.
         11    1    3    3    0    0 -0.33478106404E+02 -0.61544583768E+01 -0.12447225300E+02  0.36243542656E+02  0.51100000000E-03 0. -1.
         22    1    1    0    0    0 -0.24650752815E+02 -0.65076851749E+01  0.14307342616E+02  0.29235417449E+02  0.00000000000E+00 0.  1.
</event>
<event>
 5    1  0.8900327E-005  0.9118800E+02  0.7818608E-02  0.1130116E+00
         25   -1    0    0    0    0  0.00000000000E+00  0.00000000000E+00  0.99999998245E-14  0.12500000000E+03  0.12500000000E+03 0.  0.
        -11    1    3    3    0    0  0.11786648095E+02  0.93068960582E+01  0.50362576279E+02  0.52554090966E+02  0.51100000000E-03 0.  1.
         23    2    1    0    0    0  0.29032342986E+02  0.12846889510E+02  0.20534658874E+02  0.87190057863E+02  0.78565351560E+02 0.  0.
         11    1    3    3    0    0  0.17245694891E+02  0.35399934518E+01 -0.29827917405E+02  0.34635966897E+02  0.51100000000E-03 0. -1.
         22    1    1    0    0    0 -0.29032342986E+02 -0.12846889510E+02 -0.20534658874E+02  0.37809942137E+02  0.00000000000E+00 0.  1.
</event>
<event>
 5    1  0.8900327E-005  0.9118800E+02  0.7818608E-02  0.1130116E+00
         25   -1    0    0    0    0  0.00000000000E+00  0.00000000000E+00  0.99999998245E-14  0.12500000000E+03  0.12500000000E+03 0.  0.
        -11    1    3    3    0    0  0.12956256270E+02  0.50411836729E+02 -0.21972183103E+02  0.56497740569E+02  0.51100000000E-03 0. -1.
         23    2    1    0    0    0  0.22542190651E+01  0.13471690311E+02 -0.26464607093E+02  0.95218405482E+02  0.90441148658E+02 0.  0.
         11    1    3    3    0    0 -0.10702037205E+02 -0.36940146418E+02 -0.44924239907E+01  0.38720664913E+02  0.51100000000E-03 0.  1.
         22    1    1    0    0    0 -0.22542190651E+01 -0.13471690311E+02  0.26464607093E+02  0.29781594518E+02  0.00000000000E+00 0. -1.
</event>
<event>
 5    1  0.8900327E-005  0.9118800E+02  0.7818608E-02  0.1130116E+00
         25   -1    0    0    0    0  0.00000000000E+00  0.00000000000E+00  0.99999998245E-14  0.12500000000E+03  0.12500000000E+03 0.  0.
        -11    1    3    3    0    0 -0.23941091608E+02 -0.53871229103E+02 -0.98435654360E+01  0.59767725180E+02  0.51100000000E-03 0.  1.
         23    2    1    0    0    0 -0.21101688303E+02 -0.22377728236E+02  0.34091142538E+01  0.94053820426E+02  0.88816975328E+02 0.  0.
         11    1    3    3    0    0  0.28394033049E+01  0.31493500867E+02  0.13252679690E+02  0.34286095246E+02  0.51100000000E-03 0. -1.
         22    1    1    0    0    0  0.21101688303E+02  0.22377728236E+02 -0.34091142538E+01  0.30946179574E+02  0.00000000000E+00 0.  1.
</event>
<event>
 5    1  0.8900327E-005  0.9118800E+02  0.7818608E-02  0.1130116E+00
         25   -1    0    0    0    0  0.00000000000E+00  0.00000000000E+00  0.99999998245E-14  0.12500000000E+03  0.12500000000E+03 0.  0.
        -11    1    3    3    0    0  0.22070097714E+02 -0.40111987846E+02 -0.13696160738E+02  0.47787504656E+02  0.51100000000E-03 0. -1.
         23    2    1    0    0    0 -0.12419466399E+02 -0.11338560627E+02  0.16124801578E+02  0.10170160244E+03  0.98996972737E+02 0.  0.
         11    1    3    3    0    0 -0.34489564113E+02  0.28773427219E+02  0.29820962316E+02  0.53914097788E+02  0.51100000000E-03 0.  1.
         22    1    1    0    0    0  0.12419466399E+02  0.11338560627E+02 -0.16124801578E+02  0.23298397556E+02  0.00000000000E+00 0.  1.
</event>
<event>
 5    1  0.8900327E-005  0.9118800E+02  0.7818608E-02  0.1130116E+00
         25   -1    0    0    0    0  0.00000000000E+00  0.00000000000E+00  0.99999998245E-14  0.12500000000E+03  0.12500000000E+03 0.  0.
        -11    1    3    3    0    0  0.29901425234E+02  0.26120161953E+02  0.34902444207E+00  0.39704910399E+02  0.51100000000E-03 0. -1.
         23    2    1    0    0    0 -0.23472297174E+02  0.14966394430E+02 -0.10403620967E+02  0.95281705532E+02  0.90528594284E+02 0.  0.
         11    1    3    3    0    0 -0.53373722408E+02 -0.11153767523E+02 -0.10752645409E+02  0.55576795133E+02  0.51100000000E-03 0.  1.
         22    1    1    0    0    0  0.23472297174E+02 -0.14966394430E+02  0.10403620967E+02  0.29718294468E+02  0.00000000000E+00 0.  1.
</event>
<event>
 5    1  0.8900327E-005  0.9118800E+02  0.7818608E-02  0.1130116E+00
         25   -1    0    0    0    0  0.00000000000E+00  0.00000000000E+00  0.99999998245E-14  0.12500000000E+03  0.12500000000E+03 0.  0.
        -11    1    3    3    0    0 -0.65143504418E+01  0.27122064362E+02 -0.26182745049E+02  0.38256754639E+02  0.51100000000E-03 0.  1.
         23    2    1    0    0    0 -0.71056829505E+01 -0.27228688671E+02 -0.60726790011E+01  0.96211640422E+02  0.91803649740E+02 0.  0.
         11    1    3    3    0    0 -0.59133250869E+00 -0.54350753033E+02  0.20110066048E+02  0.57954885783E+02  0.51100000000E-03 0. -1.
         22    1    1    0    0    0  0.71056829505E+01  0.27228688671E+02  0.60726790011E+01  0.28788359578E+02  0.00000000000E+00 0. -1.
</event>
<event>
 5    1  0.8900327E-005  0.9118800E+02  0.7818608E-02  0.1130116E+00
         25   -1    0    0    0    0  0.00000000000E+00  0.00000000000E+00  0.99999998245E-14  0.12500000000E+03  0.12500000000E+03 0.  0.
        -11    1    3    3    0    0  0.68668947879E+01  0.37761855201E+02 -0.21579472807E+02  0.44031643157E+02  0.51100000000E-03 0. -1.
         23    2    1    0    0    0 -0.88153309004E+01  0.34825718448E+01  0.21636694343E+02  0.10137829584E+03  0.98587899657E+02 0.  0.
         11    1    3    3    0    0 -0.15682225688E+02 -0.34279283356E+02  0.43216167150E+02  0.57346652678E+02  0.51100000000E-03 0.  1.
         22    1    1    0    0    0  0.88153309004E+01 -0.34825718448E+01 -0.21636694343E+02  0.23621704165E+02  0.00000000000E+00 0.  1.
</event>
<event>
 5    1  0.8900327E-005  0.9118800E+02  0.7818608E-02  0.1130116E+00
         25   -1    0    0    0    0  0.00000000000E+00  0.00000000000E+00  0.99999998245E-14  0.12500000000E+03  0.12500000000E+03 0.  0.
        -11    1    3    3    0    0 -0.50138806198E+02 -0.13563537256E+02 -0.13610842552E+02  0.53694734054E+02  0.51100000000E-03 0.  1.
         23    2    1    0    0    0 -0.23037129480E+02 -0.70966411393E+01  0.17314670251E+02  0.95320554992E+02  0.90582220926E+02 0.  0.
         11    1    3    3    0    0  0.27101676719E+02  0.64668961171E+01  0.30925512803E+02  0.41625820937E+02  0.51100000000E-03 0. -1.
         22    1    1    0    0    0  0.23037129480E+02  0.70966411393E+01 -0.17314670251E+02  0.29679445008E+02  0.00000000000E+00 0. -1.
</event>
<event>
 5    1  0.8900327E-005  0.9118800E+02  0.7818608E-02  0.1130116E+00
         25   -1    0    0    0    0  0.00000000000E+00  0.00000000000E+00  0.99999998245E-14  0.12500000000E+03  0.12500000000E+03 0.  0.
        -11    1    3    3    0    0 -0.41288640600E+02  0.41212305136E+01 -0.29739558130E+02  0.51050736543E+02  0.51100000000E-03 0.  1.
         23    2    1    0    0    0 -0.29509395303E+02  0.65287246828E+01  0.10466588505E+02  0.93015970671E+02  0.87344104941E+02 0.  0.
         11    1    3    3    0    0  0.11779245297E+02  0.24074941692E+01  0.40206146635E+02  0.41965234128E+02  0.51100000000E-03 0. -1.
         22    1    1    0    0    0  0.29509395303E+02 -0.65287246828E+01 -0.10466588505E+02  0.31984029329E+02  0.00000000000E+00 0.  1.
</event>
<event>
 5    1  0.8900327E-005  0.9118800E+02  0.7818608E-02  0.1130116E+00
         25   -1    0    0    0    0  0.00000000000E+00  0.00000000000E+00  0.99999998245E-14  0.12500000000E+03  0.12500000000E+03 0.  0.
        -11    1    3    3    0    0 -0.50881056229E+02  0.84125782131E+01  0.10451368152E+02  0.52620190532E+02  0.51100000000E-03 0. -1.
         23    2    1    0    0    0 -0.15622992383E+02 -0.14475593681E+02  0.20062225795E+02  0.95740580879E+02  0.91159997915E+02 0.  0.
         11    1    3    3    0    0  0.35258063846E+02 -0.22888171894E+02  0.96108576429E+01  0.43120390347E+02  0.51100000000E-03 0.  1.
         22    1    1    0    0    0  0.15622992383E+02  0.14475593681E+02 -0.20062225795E+02  0.29259419121E+02  0.00000000000E+00 0.  1.
</event>
<event>
 5    1  0.8900327E-005  0.9118800E+02  0.7818608E-02  0.1130116E+00
         25   -1    0    0    0    0  0.00000000000E+00  0.00000000000E+00  0.99999998245E-14  0.12500000000E+03  0.12500000000E+03 0.  0.
        -11    1    3    3    0    0  0.31223377686E+02 -0.30593975334E+02 -0.28846462135E+01  0.43808809901E+02  0.51100000000E-03 0. -1.
         23    2    1    0    0    0  0.15060228015E+02  0.15344207631E+02 -0.20204879632E+02  0.95495892885E+02  0.90823858216E+02 0.  0.
         11    1    3    3    0    0 -0.16163149671E+02  0.45938182966E+02 -0.17320233418E+02  0.51687082984E+02  0.51100000000E-03 0.  1.
         22    1    1    0    0    0 -0.15060228015E+02 -0.15344207631E+02  0.20204879632E+02  0.29504107115E+02  0.00000000000E+00 0.  1.
</event>
<event>
 5    1  0.8900327E-005  0.9118800E+02  0.7818608E-02  0.1130116E+00
         25   -1    0    0    0    0  0.00000000000E+00  0.00000000000E+00  0.99999998245E-14  0.12500000000E+03  0.12500000000E+03 0.  0.
        -11    1    3    3    0    0  0.17619402814E+01 -0.51452884972E+01  0.34087390113E+02  0.34518525349E+02  0.51100000000E-03 0. -1.
         23    2    1    0    0    0  0.74643784391E+01  0.17202728318E+02 -0.22549790417E+02  0.95671790799E+02  0.91065623041E+02 0.  0.
         11    1    3    3    0    0  0.57024381578E+01  0.22348016815E+02 -0.56637180531E+02  0.61153265450E+02  0.51100000000E-03 0.  1.
         22    1    1    0    0    0 -0.74643784391E+01 -0.17202728318E+02  0.22549790417E+02  0.29328209201E+02  0.00000000000E+00 0.  1.
</event>
<event>
 5    1  0.8900327E-005  0.9118800E+02  0.7818608E-02  0.1130116E+00
         25   -1    0    0    0    0  0.00000000000E+00  0.00000000000E+00  0.99999998245E-14  0.12500000000E+03  0.12500000000E+03 0.  0.
        -11    1    3    3    0    0  0.29061683764E+02 -0.37996157164E+00  0.16404318804E+02  0.33374054439E+02  0.51100000000E-03 0. -1.
         23    2    1    0    0    0 -0.27399673555E+02 -0.77113838333E+01 -0.81702132024E+01  0.95386490662E+02  0.90673163976E+02 0.  0.
         11    1    3    3    0    0 -0.56461357319E+02 -0.73314222617E+01 -0.24574532006E+02  0.62012436223E+02  0.51100000000E-03 0.  1.
         22    1    1    0    0    0  0.27399673555E+02  0.77113838333E+01  0.81702132024E+01  0.29613509338E+02  0.00000000000E+00 0.  1.
</event>
<event>
 5    1  0.8900327E-005  0.9118800E+02  0.7818608E-02  0.1130116E+00
         25   -1    0    0    0    0  0.00000000000E+00  0.00000000000E+00  0.99999998245E-14  0.12500000000E+03  0.12500000000E+03 0.  0.
        -11    1    3    3    0    0  0.50729395223E+00 -0.41703279825E+02  0.36449526985E+02  0.55389429614E+02  0.51100000000E-03 0.  1.
         23    2    1    0    0    0  0.92104786725E+01 -0.38970623800E+01  0.28237035291E+02  0.95044196312E+02  0.90200050322E+02 0.  0.
         11    1    3    3    0    0  0.87031847202E+01  0.37806217445E+02 -0.82124916941E+01  0.39654766698E+02  0.51100000000E-03 0. -1.
         22    1    1    0    0    0 -0.92104786725E+01  0.38970623800E+01 -0.28237035291E+02  0.29955803688E+02  0.00000000000E+00 0. -1.
</event>
<event>
 5    1  0.8900327E-005  0.9118800E+02  0.7818608E-02  0.1130116E+00
         25   -1    0    0    0    0  0.00000000000E+00  0.00000000000E+00  0.99999998245E-14  0.12500000000E+03  0.12500000000E+03 0.  0.
        -11    1    3    3    0    0  0.15042465455E+02 -0.48784794714E+02  0.29900928298E+02  0.59163311905E+02  0.51100000000E-03 0. -1.
         23    2    1    0    0    0  0.17985628870E+01 -0.14206811074E+02  0.24554454050E+02  0.96574843482E+02  0.92296862734E+02 0.  0.
         11    1    3    3    0    0 -0.13243902568E+02  0.34577983639E+02 -0.53464742478E+01  0.37411531577E+02  0.51100000000E-03 0.  1.
         22    1    1    0    0    0 -0.17985628870E+01  0.14206811074E+02 -0.24554454050E+02  0.28425156518E+02  0.00000000000E+00 0. -1.
</event>
<event>
 5    1  0.8900327E-005  0.9118800E+02  0.7818608E-02  0.1130116E+00
         25   -1    0    0    0    0  0.00000000000E+00  0.00000000000E+00  0.99999998245E-14  0.12500000000E+03  0.12500000000E+03 0.  0.
        -11    1    3    3    0    0 -0.23601224157E+02 -0.60812453591E+01 -0.32272455700E+02  0.40441448095E+02  0.51100000000E-03 0.  1.
         23    2    1    0    0    0  0.14107778223E+02 -0.22194648614E+02  0.75868357841E+01  0.97628629726E+02  0.93713165731E+02 0.  0.
         11    1    3    3    0    0  0.37709002380E+02 -0.16113403254E+02  0.39859291484E+02  0.57187181631E+02  0.51100000000E-03 0. -1.
         22    1    1    0    0    0 -0.14107778223E+02  0.22194648614E+02 -0.75868357841E+01  0.27371370274E+02  0.00000000000E+00 0. -1.
</event>
<event>
 5    1  0.8900327E-005  0.9118800E+02  0.7818608E-02  0.1130116E+00
         25   -1    0    0    0    0  0.00000000000E+00  0.00000000000E+00  0.99999998245E-14  0.12500000000E+03  0.12500000000E+03 0.  0.
        -11    1    3    3    0    0  0.76594948739E+01  0.35083403374E+02  0.67675261580E+01  0.36541927489E+02  0.51100000000E-03 0.  1.
         23    2    1    0    0    0 -0.18639463581E+02 -0.17411815224E+02  0.14333251631E+02  0.95741787233E+02  0.91161652071E+02 0.  0.
         11    1    3    3    0    0 -0.26298958455E+02 -0.52495218598E+02  0.75657254730E+01  0.59199859744E+02  0.51100000000E-03 0. -1.
         22    1    1    0    0    0  0.18639463581E+02  0.17411815224E+02 -0.14333251631E+02  0.29258212767E+02  0.00000000000E+00 0. -1.
</event>
<event>
 5    1  0.8900327E-005  0.9118800E+02  0.7818608E-02  0.1130116E+00
         25   -1    0    0    0    0  0.00000000000E+00  0.00000000000E+00  0.99999998245E-14  0.12500000000E+03  0.12500000000E+03 0.  0.
        -11    1    3    3    0    0 -0.36636442360E+02 -0.43232127502E+02 -0.83767819367E+01  0.57283647169E+02  0.51100000000E-03 0.  1.
         23    2    1    0    0    0 -0.30445764050E+02 -0.82656448569E+01 -0.17758163501E+01  0.93402231768E+02  0.87895153121E+02 0.  0.
         11    1    3    3    0    0  0.61906783100E+01  0.34966482645E+02  0.66009655867E+01  0.36118584599E+02  0.51100000000E-03 0. -1.
         22    1    1    0    0    0  0.30445764050E+02  0.82656448569E+01  0.17758163501E+01  0.31597768232E+02  0.00000000000E+00 0.  1.
</event>
<event>
 5    1  0.8900327E-005  0.9118800E+02  0.7818608E-02  0.1130116E+00
         25   -1    0    0    0    0  0.00000000000E+00  0.00000000000E+00  0.99999998245E-14  0.12500000000E+03  0.12500000000E+03 0.  0.
        -11    1    3    3    0    0 -0.38606489088E+02  0.31255916407E+01 -0.18448100340E+02  0.42901780024E+02  0.51100000000E-03 0.  1.
         23    2    1    0    0    0 -0.73433258972E+01 -0.26491282430E+02  0.11337874839E+02  0.95263492373E+02  0.90503442438E+02 0.  0.
         11    1    3    3    0    0  0.31263163191E+02 -0.29616874070E+02  0.29785975179E+02  0.52361712348E+02  0.51100000000E-03 0. -1.
         22    1    1    0    0    0  0.73433258972E+01  0.26491282430E+02 -0.11337874839E+02  0.29736507627E+02  0.00000000000E+00 0. -1.
</event>
<event>
 5    1  0.8900327E-005  0.9118800E+02  0.7818608E-02  0.1130116E+00
         25   -1    0    0    0    0  0.00000000000E+00  0.00000000000E+00  0.99999998245E-14  0.12500000000E+03  0.12500000000E+03 0.  0.
        -11    1    3    3    0    0 -0.13686289280E+02  0.26403235151E+02 -0.15528269198E+02  0.33549552683E+02  0.51100000000E-03 0. -1.
         23    2    1    0    0    0 -0.50738751746E+01 -0.30222761947E+02  0.40662996755E+01  0.94085693570E+02  0.88861821907E+02 0.  0.
         11    1    3    3    0    0  0.86124141056E+01 -0.56625997097E+02  0.19594568873E+02  0.60536140888E+02  0.51100000000E-03 0.  1.
         22    1    1    0    0    0  0.50738751746E+01  0.30222761947E+02 -0.40662996755E+01  0.30914306430E+02  0.00000000000E+00 0.  1.
</event>
<event>
 5    1  0.8900327E-005  0.9118800E+02  0.7818608E-02  0.1130116E+00
         25   -1    0    0    0    0  0.00000000000E+00  0.00000000000E+00  0.99999998245E-14  0.12500000000E+03  0.12500000000E+03 0.  0.
        -11    1    3    3    0    0 -0.12974069031E+02  0.17397052615E+02 -0.30624421463E+02  0.37534505419E+02  0.51100000000E-03 0. -1.
         23    2    1    0    0    0 -0.28063350882E+02  0.45604775668E+01  0.18890160846E+02  0.90865152774E+02  0.84209786803E+02 0.  0.
         11    1    3    3    0    0 -0.15089281851E+02 -0.12836575048E+02  0.49514582309E+02  0.53330647354E+02  0.51100000000E-03 0.  1.
         22    1    1    0    0    0  0.28063350882E+02 -0.45604775668E+01 -0.18890160846E+02  0.34134847226E+02  0.00000000000E+00 0.  1.
</event>
<event>
 5    1  0.8900327E-005  0.9118800E+02  0.7818608E-02  0.1130116E+00
         25   -1    0    0    0    0  0.00000000000E+00  0.00000000000E+00  0.99999998245E-14  0.12500000000E+03  0.12500000000E+03 0.  0.
        -11    1    3    3    0    0  0.13203391244E+02 -0.31929885258E+02  0.15648683632E+02  0.37930573587E+02  0.51100000000E-03 0. -1.
         23    2    1    0    0    0  0.27072175695E+01  0.25283761447E+02  0.13664289554E+02  0.96132883260E+02  0.91696351154E+02 0.  0.
         11    1    3    3    0    0 -0.10496173674E+02  0.57213646706E+02 -0.19843940780E+01  0.58202309673E+02  0.51100000000E-03 0.  1.
         22    1    1    0    0    0 -0.27072175695E+01 -0.25283761447E+02 -0.13664289554E+02  0.28867116740E+02  0.00000000000E+00 0.  1.
</event>
<event>
 5    1  0.8900327E-005  0.9118800E+02  0.7818608E-02  0.1130116E+00
         25   -1    0    0    0    0  0.00000000000E+00  0.00000000000E+00  0.99999998245E-14  0.12500000000E+03  0.12500000000E+03 0.  0.
        -11    1    3    3    0    0  0.27691190849E+02  0.58897026269E+01  0.11636452084E+02  0.30608784115E+02  0.51100000000E-03 0. -1.
         23    2    1    0    0    0 -0.26848515236E+02 -0.42179873793E+00 -0.17681082605E+02  0.92849706585E+02  0.87105835891E+02 0.  0.
         11    1    3    3    0    0 -0.54539706085E+02 -0.63115013648E+01 -0.29317534690E+02  0.62240922470E+02  0.51100000000E-03 0.  1.
         22    1    1    0    0    0  0.26848515236E+02  0.42179873793E+00  0.17681082605E+02  0.32150293415E+02  0.00000000000E+00 0.  1.
</event>
<event>
 5    1  0.8900327E-005  0.9118800E+02  0.7818608E-02  0.1130116E+00
         25   -1    0    0    0    0  0.00000000000E+00  0.00000000000E+00  0.99999998245E-14  0.12500000000E+03  0.12500000000E+03 0.  0.
        -11    1    3    3    0    0 -0.44736968705E+00  0.45311527387E+02 -0.12173366379E+02  0.46920416697E+02  0.51100000000E-03 0. -1.
         23    2    1    0    0    0  0.14630606485E+02 -0.41617522936E+00 -0.24353562211E+02  0.96586555290E+02  0.92312722972E+02 0.  0.
         11    1    3    3    0    0  0.15077976172E+02 -0.45727702616E+02 -0.12180195831E+02  0.49666138593E+02  0.51100000000E-03 0.  1.
         22    1    1    0    0    0 -0.14630606485E+02  0.41617522936E+00  0.24353562211E+02  0.28413444710E+02  0.00000000000E+00 0. -1.
</event>
<event>
 5    1  0.8900327E-005  0.9118800E+02  0.7818608E-02  0.1130116E+00
         25   -1    0    0    0    0  0.00000000000E+00  0.00000000000E+00  0.99999998245E-14  0.12500000000E+03  0.12500000000E+03 0.  0.
        -11    1    3    3    0    0  0.57173732832E+01 -0.29709048866E+02  0.51603040001E+02  0.59817971207E+02  0.51100000000E-03 0. -1.
         23    2    1    0    0    0  0.29522944998E+01  0.35767936402E+01  0.14671724396E+02  0.10961270029E+03  0.10852730105E+03 0.  0.
         11    1    3    3    0    0 -0.27650787834E+01  0.33285842506E+02 -0.36931315605E+02  0.49794729085E+02  0.51100000000E-03 0.  1.
         22    1    1    0    0    0 -0.29522944998E+01 -0.35767936402E+01 -0.14671724396E+02  0.15387299708E+02  0.00000000000E+00 0. -1.
</event>
<event>
 5    1  0.8900327E-005  0.9118800E+02  0.7818608E-02  0.1130116E+00
         25   -1    0    0    0    0  0.00000000000E+00  0.00000000000E+00  0.99999998245E-14  0.12500000000E+03  0.12500000000E+03 0.  0.
        -11    1    3    3    0    0 -0.32093248071E+02  0.21813447160E+02 -0.23009327918E+02  0.45113548079E+02  0.51100000000E-03 0.  1.
         23    2    1    0    0    0  0.16794630057E+02  0.95375843199E+01 -0.22265987234E+02  0.95524598375E+02  0.90863356716E+02 0.  0.
         11    1    3    3    0    0  0.48887878128E+02 -0.12275862840E+02  0.74334068362E+00  0.50411050296E+02  0.51100000000E-03 0. -1.
         22    1    1    0    0    0 -0.16794630057E+02 -0.95375843199E+01  0.22265987234E+02  0.29475401625E+02  0.00000000000E+00 0. -1.
</event>
<event>
 5    1  0.8900327E-005  0.9118800E+02  0.7818608E-02  0.1130116E+00
         25   -1    0    0    0    0  0.00000000000E+00  0.00000000000E+00  0.99999998245E-14  0.12500000000E+03  0.12500000000E+03 0.  0.
        -11    1    3    3    0    0  0.31937174694E+02 -0.45354516910E+01  0.16222690551E+02  0.36107189567E+02  0.51100000000E-03 0.  1.
         23    2    1    0    0    0 -0.61654109157E+01  0.90331523997E+01 -0.27341332687E+02  0.95552443104E+02  0.90901654419E+02 0.  0.
         11    1    3    3    0    0 -0.38102585610E+02  0.13568604091E+02 -0.43564023238E+02  0.59445253537E+02  0.51100000000E-03 0. -1.
         22    1    1    0    0    0  0.61654109157E+01 -0.90331523997E+01  0.27341332687E+02  0.29447556896E+02  0.00000000000E+00 0. -1.
</event>
<event>
 5    1  0.8900327E-005  0.9118800E+02  0.7818608E-02  0.1130116E+00
         25   -1    0    0    0    0  0.00000000000E+00  0.00000000000E+00  0.99999998245E-14  0.12500000000E+03  0.12500000000E+03 0.  0.
        -11    1    3    3    0    0  0.16789311489E+02 -0.18591337413E+02  0.71559306765E+01  0.26052373235E+02  0.51100000000E-03 0. -1.
         23    2    1    0    0    0 -0.39775653173E+02 -0.60077852511E+01  0.78995641459E+01  0.84004888308E+02  0.73322725515E+02 0.  0.
         11    1    3    3    0    0 -0.56564964662E+02  0.12583552162E+02  0.74363346941E+00  0.57952515073E+02  0.51100000000E-03 0.  1.
         22    1    1    0    0    0  0.39775653173E+02  0.60077852511E+01 -0.78995641459E+01  0.40995111692E+02  0.00000000000E+00 0.  1.
</event>
<event>
 5    1  0.8900327E-005  0.9118800E+02  0.7818608E-02  0.1130116E+00
         25   -1    0    0    0    0  0.00000000000E+00  0.00000000000E+00  0.99999998245E-14  0.12500000000E+03  0.12500000000E+03 0.  0.
        -11    1    3    3    0    0 -0.45956395407E+02  0.28339325965E+01 -0.36795801963E+02  0.58940245123E+02  0.51100000000E-03 0. -1.
         23    2    1    0    0    0 -0.40165173708E+02  0.97646231960E+01 -0.17757954052E+02  0.80011846256E+02  0.66166166309E+02 0.  0.
         11    1    3    3    0    0  0.57912216986E+01  0.69306905994E+01  0.19037847912E+02  0.21071601133E+02  0.51100000000E-03 0.  1.
         22    1    1    0    0    0  0.40165173708E+02 -0.97646231960E+01  0.17757954052E+02  0.44988153744E+02  0.00000000000E+00 0. -1.
</event>
<event>
 5    1  0.8900327E-005  0.9118800E+02  0.7818608E-02  0.1130116E+00
         25   -1    0    0    0    0  0.00000000000E+00  0.00000000000E+00  0.99999998245E-14  0.12500000000E+03  0.12500000000E+03 0.  0.
        -11    1    3    3    0    0 -0.41682789172E+02  0.38310984928E+02  0.28321713252E+01  0.56685162733E+02  0.51100000000E-03 0. -1.
         23    2    1    0    0    0 -0.27710807256E+02  0.23621788276E+01 -0.66552620612E+01  0.96403475024E+02  0.92064481512E+02 0.  0.
         11    1    3    3    0    0  0.13971981916E+02 -0.35948806101E+02 -0.94874333864E+01  0.39718312291E+02  0.51100000000E-03 0.  1.
         22    1    1    0    0    0  0.27710807256E+02 -0.23621788276E+01  0.66552620612E+01  0.28596524976E+02  0.00000000000E+00 0. -1.
</event>
<event>
 5    1  0.8900327E-005  0.9118800E+02  0.7818608E-02  0.1130116E+00
         25   -1    0    0    0    0  0.00000000000E+00  0.00000000000E+00  0.99999998245E-14  0.12500000000E+03  0.12500000000E+03 0.  0.
        -11    1    3    3    0    0  0.22616079170E+02  0.26104241528E+02  0.10355033267E+02  0.36057525941E+02  0.51100000000E-03 0.  1.
         23    2    1    0    0    0 -0.13843736141E+02 -0.49663616954E+01 -0.25274170412E+02  0.95757950331E+02  0.91183812065E+02 0.  0.
         11    1    3    3    0    0 -0.36459815311E+02 -0.31070603224E+02 -0.35629203680E+02  0.59700424389E+02  0.51100000000E-03 0. -1.
         22    1    1    0    0    0  0.13843736141E+02  0.49663616954E+01  0.25274170412E+02  0.29242049669E+02  0.00000000000E+00 0. -1.
</event>
<event>
 5    1  0.8900327E-005  0.9118800E+02  0.7818608E-02  0.1130116E+00
         25   -1    0    0    0    0  0.00000000000E+00  0.00000000000E+00  0.99999998245E-14  0.12500000000E+03  0.12500000000E+03 0.  0.
        -11    1    3    3    0    0 -0.54176655609E+02 -0.10397080288E+02 -0.17804413800E+02  0.57967287694E+02  0.51100000000E-03 0.  1.
         23    2    1    0    0    0 -0.10661366070E+02 -0.10433745387E+01 -0.19763939132E+02  0.10251963864E+03  0.10002454529E+03 0.  0.
         11    1    3    3    0    0  0.43515289540E+02  0.93537057491E+01 -0.19595253316E+01  0.44552350945E+02  0.51100000000E-03 0. -1.
         22    1    1    0    0    0  0.10661366070E+02  0.10433745387E+01  0.19763939132E+02  0.22480361361E+02  0.00000000000E+00 0.  1.
</event>
<event>
 5    1  0.8900327E-005  0.9118800E+02  0.7818608E-02  0.1130116E+00
         25   -1    0    0    0    0  0.00000000000E+00  0.00000000000E+00  0.99999998245E-14  0.12500000000E+03  0.12500000000E+03 0.  0.
        -11    1    3    3    0    0 -0.21357557835E+02 -0.46193025225E+02  0.16631110192E+02  0.53540028788E+02  0.51100000000E-03 0.  1.
         23    2    1    0    0    0  0.59160200930E+01 -0.32382765993E+02 -0.59520067979E+01  0.91547508135E+02  0.85216647632E+02 0.  0.
         11    1    3    3    0    0  0.27273577928E+02  0.13810259232E+02 -0.22583116990E+02  0.38007479347E+02  0.51100000000E-03 0. -1.
         22    1    1    0    0    0 -0.59160200930E+01  0.32382765993E+02  0.59520067979E+01  0.33452491865E+02  0.00000000000E+00 0.  1.
</event>
<event>
 5    1  0.8900327E-005  0.9118800E+02  0.7818608E-02  0.1130116E+00
         25   -1    0    0    0    0  0.00000000000E+00  0.00000000000E+00  0.99999998245E-14  0.12500000000E+03  0.12500000000E+03 0.  0.
        -11    1    3    3    0    0 -0.23675104002E+02  0.38435186893E+02 -0.23069154522E+01  0.45200619466E+02  0.51100000000E-03 0.  1.
         23    2    1    0    0    0 -0.27397958804E+02 -0.11445918451E+02  0.55283241543E+00  0.95302141163E+02  0.90556806982E+02 0.  0.
         11    1    3    3    0    0 -0.37228548020E+01 -0.49881105344E+02  0.28597478676E+01  0.50101521697E+02  0.51100000000E-03 0. -1.
         22    1    1    0    0    0  0.27397958804E+02  0.11445918451E+02 -0.55283241543E+00  0.29697858837E+02  0.00000000000E+00 0. -1.
</event>
<event>
 5    1  0.8900327E-005  0.9118800E+02  0.7818608E-02  0.1130116E+00
         25   -1    0    0    0    0  0.00000000000E+00  0.00000000000E+00  0.99999998245E-14  0.12500000000E+03  0.12500000000E+03 0.  0.
        -11    1    3    3    0    0  0.17534383632E+02  0.35278713057E+02 -0.24677576691E+02  0.46486826047E+02  0.51100000000E-03 0.  1.
         23    2    1    0    0    0 -0.23302334677E+02  0.16477438612E+02 -0.32914002483E+01  0.96271301801E+02  0.91884848862E+02 0.  0.
         11    1    3    3    0    0 -0.40836718309E+02 -0.18801274445E+02  0.21386176442E+02  0.49784475754E+02  0.51100000000E-03 0. -1.
         22    1    1    0    0    0  0.23302334677E+02 -0.16477438612E+02  0.32914002483E+01  0.28728698199E+02  0.00000000000E+00 0.  1.
</event>
<event>
 5    1  0.8900327E-005  0.9118800E+02  0.7818608E-02  0.1130116E+00
         25   -1    0    0    0    0  0.00000000000E+00  0.00000000000E+00  0.99999998245E-14  0.12500000000E+03  0.12500000000E+03 0.  0.
        -11    1    3    3    0    0 -0.30598322621E+02 -0.17981455565E+02 -0.20449252774E+02  0.40960493536E+02  0.51100000000E-03 0.  1.
         23    2    1    0    0    0  0.19725980366E+02  0.52158795890E+01 -0.20076325555E+02  0.96375210934E+02  0.92026098111E+02 0.  0.
         11    1    3    3    0    0  0.50324302986E+02  0.23197335154E+02  0.37292721906E+00  0.55414717398E+02  0.51100000000E-03 0. -1.
         22    1    1    0    0    0 -0.19725980366E+02 -0.52158795890E+01  0.20076325555E+02  0.28624789066E+02  0.00000000000E+00 0. -1.
</event>
<event>
 5    1  0.8900327E-005  0.9118800E+02  0.7818608E-02  0.1130116E+00
         25   -1    0    0    0    0  0.00000000000E+00  0.00000000000E+00  0.99999998245E-14  0.12500000000E+03  0.12500000000E+03 0.  0.
        -11    1    3    3    0    0 -0.41256779613E+02  0.15922574508E+02 -0.15532127424E+02  0.46871070241E+02  0.51100000000E-03 0. -1.
         23    2    1    0    0    0 -0.81985718316E+01 -0.11381057726E+02 -0.29804427897E+02  0.92059918378E+02  0.85964990516E+02 0.  0.
         11    1    3    3    0    0  0.33058207781E+02 -0.27303632234E+02 -0.14272300472E+02  0.45188848136E+02  0.51100000000E-03 0.  1.
         22    1    1    0    0    0  0.81985718316E+01  0.11381057726E+02  0.29804427897E+02  0.32940081622E+02  0.00000000000E+00 0.  1.
</event>
<event>
 5    1  0.8900327E-005  0.9118800E+02  0.7818608E-02  0.1130116E+00
         25   -1    0    0    0    0  0.00000000000E+00  0.00000000000E+00  0.99999998245E-14  0.12500000000E+03  0.12500000000E+03 0.  0.
        -11    1    3    3    0    0  0.65216259182E+00  0.19014426073E+01  0.38748419095E+02  0.38800525546E+02  0.51100000000E-03 0. -1.
         23    2    1    0    0    0 -0.13155770613E+02 -0.18586119518E+02 -0.14846987193E+02  0.97816343736E+02  0.93963215856E+02 0.  0.
         11    1    3    3    0    0 -0.13807933205E+02 -0.20487562125E+02 -0.53595406288E+02  0.59015818190E+02  0.51100000000E-03 0.  1.
         22    1    1    0    0    0  0.13155770613E+02  0.18586119518E+02  0.14846987193E+02  0.27183656264E+02  0.00000000000E+00 0.  1.
</event>
<event>
 5    1  0.8900327E-005  0.9118800E+02  0.7818608E-02  0.1130116E+00
         25   -1    0    0    0    0  0.00000000000E+00  0.00000000000E+00  0.99999998245E-14  0.12500000000E+03  0.12500000000E+03 0.  0.
        -11    1    3    3    0    0 -0.92924235317E+01  0.25371587554E+02  0.18478638554E+02  0.32734182030E+02  0.51100000000E-03 0.  1.
         23    2    1    0    0    0 -0.39919179318E+01 -0.16301604217E+02 -0.26088380479E+02  0.93979340677E+02  0.88712091449E+02 0.  0.
         11    1    3    3    0    0  0.53005056000E+01 -0.41673191771E+02 -0.44567019032E+02  0.61245158647E+02  0.51100000000E-03 0. -1.
         22    1    1    0    0    0  0.39919179318E+01  0.16301604217E+02  0.26088380479E+02  0.31020659323E+02  0.00000000000E+00 0. -1.
</event>
<event>
 5    1  0.8900327E-005  0.9118800E+02  0.7818608E-02  0.1130116E+00
         25   -1    0    0    0    0  0.00000000000E+00  0.00000000000E+00  0.99999998245E-14  0.12500000000E+03  0.12500000000E+03 0.  0.
        -11    1    3    3    0    0 -0.46677026652E+02 -0.99344231430E+01 -0.56621679338E-01  0.47722539607E+02  0.51100000000E-03 0.  1.
         23    2    1    0    0    0 -0.30976916002E+01 -0.24757843129E+02  0.14674554852E+02  0.96053686768E+02  0.91588327269E+02 0.  0.
         11    1    3    3    0    0  0.43579335052E+02 -0.14823419986E+02  0.14731176531E+02  0.48331147161E+02  0.51100000000E-03 0. -1.
         22    1    1    0    0    0  0.30976916002E+01  0.24757843129E+02 -0.14674554852E+02  0.28946313232E+02  0.00000000000E+00 0. -1.
</event>
<event>
 5    1  0.8900327E-005  0.9118800E+02  0.7818608E-02  0.1130116E+00
         25   -1    0    0    0    0  0.00000000000E+00  0.00000000000E+00  0.99999998245E-14  0.12500000000E+03  0.12500000000E+03 0.  0.
        -11    1    3    3    0    0  0.55169313318E+02 -0.10541344732E+02  0.48970050328E+01  0.56380437558E+02  0.51100000000E-03 0. -1.
         23    2    1    0    0    0  0.27877405186E+02  0.10773408972E+02  0.13718162560E+02  0.92115291627E+02  0.86045469995E+02 0.  0.
         11    1    3    3    0    0 -0.27291908132E+02  0.21314753704E+02  0.88211575269E+01  0.35734854069E+02  0.51100000000E-03 0.  1.
         22    1    1    0    0    0 -0.27877405186E+02 -0.10773408972E+02 -0.13718162560E+02  0.32884708373E+02  0.00000000000E+00 0. -1.
</event>
<event>
 5    1  0.8900327E-005  0.9118800E+02  0.7818608E-02  0.1130116E+00
         25   -1    0    0    0    0  0.00000000000E+00  0.00000000000E+00  0.99999998245E-14  0.12500000000E+03  0.12500000000E+03 0.  0.
        -11    1    3    3    0    0 -0.42234772571E+02 -0.25087126963E+02  0.24162908182E+02  0.54744735687E+02  0.51100000000E-03 0.  1.
         23    2    1    0    0    0 -0.21791521548E+02 -0.14552646852E+02 -0.10852794464E+02  0.96637470327E+02  0.92381640934E+02 0.  0.
         11    1    3    3    0    0  0.20443251023E+02  0.10534480111E+02 -0.35015702646E+02  0.41892734640E+02  0.51100000000E-03 0. -1.
         22    1    1    0    0    0  0.21791521548E+02  0.14552646852E+02  0.10852794464E+02  0.28362529673E+02  0.00000000000E+00 0.  1.
</event>
<event>
 5    1  0.8900327E-005  0.9118800E+02  0.7818608E-02  0.1130116E+00
         25   -1    0    0    0    0  0.00000000000E+00  0.00000000000E+00  0.99999998245E-14  0.12500000000E+03  0.12500000000E+03 0.  0.
        -11    1    3    3    0    0  0.41460882900E+02 -0.19846095554E+02  0.59578082313E+01  0.46350488657E+02  0.51100000000E-03 0. -1.
         23    2    1    0    0    0 -0.65300033497E+01 -0.28681565427E+02 -0.54574728284E+00  0.95579412325E+02  0.90938732568E+02 0.  0.
         11    1    3    3    0    0 -0.47990886249E+02 -0.88354698726E+01 -0.65035555142E+01  0.49228923668E+02  0.51100000000E-03 0.  1.
         22    1    1    0    0    0  0.65300033497E+01  0.28681565427E+02  0.54574728284E+00  0.29420587675E+02  0.00000000000E+00 0. -1.
</event>
<event>
 5    1  0.8900327E-005  0.9118800E+02  0.7818608E-02  0.1130116E+00
         25   -1    0    0    0    0  0.00000000000E+00  0.00000000000E+00  0.99999998245E-14  0.12500000000E+03  0.12500000000E+03 0.  0.
        -11    1    3    3    0    0  0.21397777390E+02  0.30859937457E+02  0.10476651664E+02  0.38986675255E+02  0.51100000000E-03 0.  1.
         23    2    1    0    0    0  0.15128957693E+02 -0.24877443262E+02  0.10313624248E+01  0.95865205466E+02  0.91330725204E+02 0.  0.
         11    1    3    3    0    0 -0.62688196973E+01 -0.55737380719E+02 -0.94452892390E+01  0.56878530210E+02  0.51100000000E-03 0. -1.
         22    1    1    0    0    0 -0.15128957693E+02  0.24877443262E+02 -0.10313624248E+01  0.29134794534E+02  0.00000000000E+00 0. -1.
</event>
<event>
 5    1  0.8900327E-005  0.9118800E+02  0.7818608E-02  0.1130116E+00
         25   -1    0    0    0    0  0.00000000000E+00  0.00000000000E+00  0.99999998245E-14  0.12500000000E+03  0.12500000000E+03 0.  0.
        -11    1    3    3    0    0 -0.97182075429E+01 -0.10639890002E+02 -0.58443531917E+02  0.60193830584E+02  0.51100000000E-03 0.  1.
         23    2    1    0    0    0 -0.31513440536E+01 -0.16143951009E+02 -0.22596064275E+02  0.97051113721E+02  0.92939649398E+02 0.  0.
         11    1    3    3    0    0  0.65668634893E+01 -0.55040610069E+01  0.35847467642E+02  0.36857283138E+02  0.51100000000E-03 0. -1.
         22    1    1    0    0    0  0.31513440536E+01  0.16143951009E+02  0.22596064275E+02  0.27948886279E+02  0.00000000000E+00 0.  1.
</event>
<event>
 5    1  0.8900327E-005  0.9118800E+02  0.7818608E-02  0.1130116E+00
         25   -1    0    0    0    0  0.00000000000E+00  0.00000000000E+00  0.99999998245E-14  0.12500000000E+03  0.12500000000E+03 0.  0.
        -11    1    3    3    0    0  0.14743094659E+02  0.35204555744E+02  0.49458706841E+02  0.62473060337E+02  0.51100000000E-03 0.  1.
         23    2    1    0    0    0  0.75024313329E+01  0.15609991173E+02  0.23954332097E+02  0.95440427497E+02  0.90747489631E+02 0.  0.
         11    1    3    3    0    0 -0.72406633262E+01 -0.19594564572E+02 -0.25504374743E+02  0.32967367160E+02  0.51100000000E-03 0. -1.
         22    1    1    0    0    0 -0.75024313329E+01 -0.15609991173E+02 -0.23954332097E+02  0.29559572503E+02  0.00000000000E+00 0.  1.
</event>
<event>
 5    1  0.8900327E-005  0.9118800E+02  0.7818608E-02  0.1130116E+00
         25   -1    0    0    0    0  0.00000000000E+00  0.00000000000E+00  0.99999998245E-14  0.12500000000E+03  0.12500000000E+03 0.  0.
        -11    1    3    3    0    0  0.53265956854E+02 -0.16345460137E+02 -0.16574564954E+02  0.58130477637E+02  0.51100000000E-03 0. -1.
         23    2    1    0    0    0  0.20262884817E+02 -0.28492637256E+01 -0.22841967592E+02  0.94333107618E+02  0.89209175002E+02 0.  0.
         11    1    3    3    0    0 -0.33003072037E+02  0.13496196411E+02 -0.62674026377E+01  0.36202629981E+02  0.51100000000E-03 0.  1.
         22    1    1    0    0    0 -0.20262884817E+02  0.28492637256E+01  0.22841967592E+02  0.30666892382E+02  0.00000000000E+00 0. -1.
</event>
<event>
 5    1  0.8900327E-005  0.9118800E+02  0.7818608E-02  0.1130116E+00
         25   -1    0    0    0    0  0.00000000000E+00  0.00000000000E+00  0.99999998245E-14  0.12500000000E+03  0.12500000000E+03 0.  0.
        -11    1    3    3    0    0 -0.14103641668E+02 -0.33310404748E+02  0.69499668493E+00  0.36179811959E+02  0.51100000000E-03 0. -1.
         23    2    1    0    0    0 -0.80801612607E+01  0.19419255546E+02  0.23074350919E+02  0.93777857821E+02  0.88427735780E+02 0.  0.
         11    1    3    3    0    0  0.60234804070E+01  0.52729660294E+02  0.22379354234E+02  0.57598045861E+02  0.51100000000E-03 0.  1.
         22    1    1    0    0    0  0.80801612607E+01 -0.19419255546E+02 -0.23074350919E+02  0.31222142179E+02  0.00000000000E+00 0.  1.
</event>
<event>
 5    1  0.8900327E-005  0.9118800E+02  0.7818608E-02  0.1130116E+00
         25   -1    0    0    0    0  0.00000000000E+00  0.00000000000E+00  0.99999998245E-14  0.12500000000E+03  0.12500000000E+03 0.  0.
        -11    1    3    3    0    0  0.75304886938E+01  0.30563955966E+02  0.14902504247E+02  0.34827407273E+02  0.51100000000E-03 0.  1.
         23    2    1    0    0    0 -0.10721060952E+02 -0.99719154329E+01 -0.25950899803E+02  0.95203532996E+02  0.90420590846E+02 0.  0.
         11    1    3    3    0    0 -0.18251549646E+02 -0.40535871399E+02 -0.40853404050E+02  0.60376125723E+02  0.51100000000E-03 0. -1.
         22    1    1    0    0    0  0.10721060952E+02  0.99719154329E+01  0.25950899803E+02  0.29796467004E+02  0.00000000000E+00 0. -1.
</event>
<event>
 5    1  0.8900327E-005  0.9118800E+02  0.7818608E-02  0.1130116E+00
         25   -1    0    0    0    0  0.00000000000E+00  0.00000000000E+00  0.99999998245E-14  0.12500000000E+03  0.12500000000E+03 0.  0.
        -11    1    3    3    0    0 -0.44634721225E+02  0.10810555072E+02  0.12607582116E+01  0.45942528787E+02  0.51100000000E-03 0.  1.
         23    2    1    0    0    0 -0.76541531788E+01 -0.17851980289E+02 -0.19810158956E+02  0.97256141959E+02  0.93214996057E+02 0.  0.
         11    1    3    3    0    0  0.36980568046E+02 -0.28662535361E+02 -0.21070917168E+02  0.51313613173E+02  0.51100000000E-03 0. -1.
         22    1    1    0    0    0  0.76541531788E+01  0.17851980289E+02  0.19810158956E+02  0.27743858041E+02  0.00000000000E+00 0. -1.
</event>
<event>
 5    1  0.8900327E-005  0.9118800E+02  0.7818608E-02  0.1130116E+00
         25   -1    0    0    0    0  0.00000000000E+00  0.00000000000E+00  0.99999998245E-14  0.12500000000E+03  0.12500000000E+03 0.  0.
        -11    1    3    3    0    0  0.10163195323E+02 -0.11822912565E+02  0.41026233302E+02  0.43888764165E+02  0.51100000000E-03 0.  1.
         23    2    1    0    0    0 -0.85838874562E+01  0.25940291297E+02  0.11528746427E+02  0.95343738762E+02  0.90614207995E+02 0.  0.
         11    1    3    3    0    0 -0.18747082779E+02  0.37763203862E+02 -0.29497486875E+02  0.51454974597E+02  0.51100000000E-03 0. -1.
         22    1    1    0    0    0  0.85838874562E+01 -0.25940291297E+02 -0.11528746427E+02  0.29656261238E+02  0.00000000000E+00 0. -1.
</event>
<event>
 5    1  0.8900327E-005  0.9118800E+02  0.7818608E-02  0.1130116E+00
         25   -1    0    0    0    0  0.00000000000E+00  0.00000000000E+00  0.99999998245E-14  0.12500000000E+03  0.12500000000E+03 0.  0.
        -11    1    3    3    0    0 -0.20429763262E+02  0.38742190949E+02 -0.46809621073E+00  0.43801275105E+02  0.51100000000E-03 0.  1.
         23    2    1    0    0    0  0.20760593680E+02  0.14706327100E+02 -0.17141755921E+02  0.94322351740E+02  0.89194102580E+02 0.  0.
         11    1    3    3    0    0  0.41190356942E+02 -0.24035863849E+02 -0.16673659710E+02  0.50521076635E+02  0.51100000000E-03 0. -1.
         22    1    1    0    0    0 -0.20760593680E+02 -0.14706327100E+02  0.17141755921E+02  0.30677648260E+02  0.00000000000E+00 0. -1.
</event>
<event>
 5    1  0.8900327E-005  0.9118800E+02  0.7818608E-02  0.1130116E+00
         25   -1    0    0    0    0  0.00000000000E+00  0.00000000000E+00  0.99999998245E-14  0.12500000000E+03  0.12500000000E+03 0.  0.
        -11    1    3    3    0    0 -0.40424902361E+01  0.51638132684E+02  0.16122744613E+01  0.51821210943E+02  0.51100000000E-03 0. -1.
         23    2    1    0    0    0 -0.25131675037E+02  0.16232707298E+02  0.91468776172E+01  0.93714743943E+02  0.88338473984E+02 0.  0.
         11    1    3    3    0    0 -0.21089184801E+02 -0.35405425385E+02  0.75346031559E+01  0.41893533001E+02  0.51100000000E-03 0.  1.
         22    1    1    0    0    0  0.25131675037E+02 -0.16232707298E+02 -0.91468776172E+01  0.31285256057E+02  0.00000000000E+00 0.  1.
</event>
<event>
 5    1  0.8900327E-005  0.9118800E+02  0.7818608E-02  0.1130116E+00
         25   -1    0    0    0    0  0.00000000000E+00  0.00000000000E+00  0.99999998245E-14  0.12500000000E+03  0.12500000000E+03 0.  0.
        -11    1    3    3    0    0 -0.36707679368E+02  0.17316701804E+02 -0.18258566254E+02  0.44505023625E+02  0.51100000000E-03 0. -1.
         23    2    1    0    0    0 -0.11698319132E+02  0.13531751621E+02  0.24787401703E+02  0.94432464024E+02  0.89348284853E+02 0.  0.
         11    1    3    3    0    0  0.25009360236E+02 -0.37849501829E+01  0.43045967956E+02  0.49927440400E+02  0.51100000000E-03 0.  1.
         22    1    1    0    0    0  0.11698319132E+02 -0.13531751621E+02 -0.24787401703E+02  0.30567535976E+02  0.00000000000E+00 0.  1.
</event>
<event>
 5    1  0.8900327E-005  0.9118800E+02  0.7818608E-02  0.1130116E+00
         25   -1    0    0    0    0  0.00000000000E+00  0.00000000000E+00  0.99999998245E-14  0.12500000000E+03  0.12500000000E+03 0.  0.
        -11    1    3    3    0    0  0.13513972505E+02 -0.25206854895E+02  0.41587297473E+02  0.50472926385E+02  0.51100000000E-03 0.  1.
         23    2    1    0    0    0  0.11234426731E+02  0.15694949255E+02  0.21530014813E+02  0.96084860126E+02  0.91630862876E+02 0.  0.
         11    1    3    3    0    0 -0.22795457739E+01  0.40901804150E+02 -0.20057282659E+02  0.45611933741E+02  0.51100000000E-03 0. -1.
         22    1    1    0    0    0 -0.11234426731E+02 -0.15694949255E+02 -0.21530014813E+02  0.28915139874E+02  0.00000000000E+00 0. -1.
</event>
<event>
 5    1  0.8900327E-005  0.9118800E+02  0.7818608E-02  0.1130116E+00
         25   -1    0    0    0    0  0.00000000000E+00  0.00000000000E+00  0.99999998245E-14  0.12500000000E+03  0.12500000000E+03 0.  0.
        -11    1    3    3    0    0 -0.22001853690E+02  0.46734359421E+02 -0.34142934737E+02  0.61918671732E+02  0.51100000000E-03 0. -1.
         23    2    1    0    0    0 -0.13558441501E+02  0.15883693701E+02 -0.11015616836E+02  0.10138926355E+03  0.98601804685E+02 0.  0.
         11    1    3    3    0    0  0.84434121895E+01 -0.30850665721E+02  0.23127317901E+02  0.39470591817E+02  0.51100000000E-03 0.  1.
         22    1    1    0    0    0  0.13558441501E+02 -0.15883693701E+02  0.11015616836E+02  0.23610736452E+02  0.00000000000E+00 0. -1.
</event>
<event>
 5    1  0.8900327E-005  0.9118800E+02  0.7818608E-02  0.1130116E+00
         25   -1    0    0    0    0  0.00000000000E+00  0.00000000000E+00  0.99999998245E-14  0.12500000000E+03  0.12500000000E+03 0.  0.
        -11    1    3    3    0    0  0.38947848690E+02 -0.16182927453E+02  0.20556628698E+02  0.46919047755E+02  0.51100000000E-03 0. -1.
         23    2    1    0    0    0 -0.63973380770E+01 -0.45051248225E+01  0.29404388908E+02  0.94572378155E+02  0.89543813514E+02 0.  0.
         11    1    3    3    0    0 -0.45345186767E+02  0.11677802630E+02  0.88477602096E+01  0.47653330400E+02  0.51100000000E-03 0.  1.
         22    1    1    0    0    0  0.63973380770E+01  0.45051248225E+01 -0.29404388908E+02  0.30427621845E+02  0.00000000000E+00 0.  1.
</event>
<event>
 5    1  0.8900327E-005  0.9118800E+02  0.7818608E-02  0.1130116E+00
         25   -1    0    0    0    0  0.00000000000E+00  0.00000000000E+00  0.99999998245E-14  0.12500000000E+03  0.12500000000E+03 0.  0.
        -11    1    3    3    0    0 -0.47142643918E+02  0.99309710987E+01  0.36092207159E+02  0.60197180004E+02  0.51100000000E-03 0.  1.
         23    2    1    0    0    0 -0.19953444631E+02  0.16166854600E+02  0.14218268839E+02  0.95645846818E+02  0.91030004418E+02 0.  0.
         11    1    3    3    0    0  0.27189199287E+02  0.62358835012E+01 -0.21873938321E+02  0.35448666813E+02  0.51100000000E-03 0. -1.
         22    1    1    0    0    0  0.19953444631E+02 -0.16166854600E+02 -0.14218268839E+02  0.29354153182E+02  0.00000000000E+00 0.  1.
</event>
<event>
 5    1  0.8900327E-005  0.9118800E+02  0.7818608E-02  0.1130116E+00
         25   -1    0    0    0    0  0.00000000000E+00  0.00000000000E+00  0.99999998245E-14  0.12500000000E+03  0.12500000000E+03 0.  0.
        -11    1    3    3    0    0 -0.35164586230E+02 -0.66253243727E+01 -0.14859245115E+02  0.38745841241E+02  0.51100000000E-03 0. -1.
         23    2    1    0    0    0  0.22056026766E+02  0.89503067472E+01 -0.12545082247E+02  0.98093580763E+02  0.94331305466E+02 0.  0.
         11    1    3    3    0    0  0.57220612996E+02  0.15575631120E+02  0.23141628681E+01  0.59347739523E+02  0.51100000000E-03 0.  1.
         22    1    1    0    0    0 -0.22056026766E+02 -0.89503067472E+01  0.12545082247E+02  0.26906419237E+02  0.00000000000E+00 0.  1.
</event>
<event>
 5    1  0.8900327E-005  0.9118800E+02  0.7818608E-02  0.1130116E+00
         25   -1    0    0    0    0  0.00000000000E+00  0.00000000000E+00  0.99999998245E-14  0.12500000000E+03  0.12500000000E+03 0.  0.
        -11    1    3    3    0    0 -0.27823115035E+01  0.24430187959E+02 -0.20021148419E+02  0.31708385725E+02  0.51100000000E-03 0. -1.
         23    2    1    0    0    0  0.37486751523E+02 -0.46827431607E+01  0.42022881634E+01  0.86988898345E+02  0.78244645735E+02 0.  0.
         11    1    3    3    0    0  0.40269063026E+02 -0.29112931120E+02  0.24223436583E+02  0.55280512620E+02  0.51100000000E-03 0.  1.
         22    1    1    0    0    0 -0.37486751523E+02  0.46827431607E+01 -0.42022881634E+01  0.38011101655E+02  0.00000000000E+00 0.  1.
</event>
<event>
 5    1  0.8900327E-005  0.9118800E+02  0.7818608E-02  0.1130116E+00
         25   -1    0    0    0    0  0.00000000000E+00  0.00000000000E+00  0.99999998245E-14  0.12500000000E+03  0.12500000000E+03 0.  0.
        -11    1    3    3    0    0  0.18527509913E+02 -0.37051049069E+02  0.44627072040E+02  0.60890265395E+02  0.51100000000E-03 0.  1.
         23    2    1    0    0    0  0.10699004898E+02 -0.79192844862E+01  0.24387302051E+02  0.97216474776E+02  0.93161787734E+02 0.  0.
         11    1    3    3    0    0 -0.78285050151E+01  0.29131764583E+02 -0.20239769990E+02  0.36326209381E+02  0.51100000000E-03 0. -1.
         22    1    1    0    0    0 -0.10699004898E+02  0.79192844862E+01 -0.24387302051E+02  0.27783525224E+02  0.00000000000E+00 0.  1.
</event>
<event>
 5    1  0.8900327E-005  0.9118800E+02  0.7818608E-02  0.1130116E+00
         25   -1    0    0    0    0  0.00000000000E+00  0.00000000000E+00  0.99999998245E-14  0.12500000000E+03  0.12500000000E+03 0.  0.
        -11    1    3    3    0    0 -0.20960430449E+02  0.21872825786E+02 -0.12954118144E+02  0.32947979143E+02  0.51100000000E-03 0.  1.
         23    2    1    0    0    0  0.16840921434E+02  0.11817767894E+02  0.28439150208E+02  0.89899265858E+02  0.82763618001E+02 0.  0.
         11    1    3    3    0    0  0.37801351883E+02 -0.10055057892E+02  0.41393268352E+02  0.56951286715E+02  0.51100000000E-03 0. -1.
         22    1    1    0    0    0 -0.16840921434E+02 -0.11817767894E+02 -0.28439150208E+02  0.35100734142E+02  0.00000000000E+00 0. -1.
</event>
<event>
 5    1  0.8900327E-005  0.9118800E+02  0.7818608E-02  0.1130116E+00
         25   -1    0    0    0    0  0.00000000000E+00  0.00000000000E+00  0.99999998245E-14  0.12500000000E+03  0.12500000000E+03 0.  0.
        -11    1    3    3    0    0  0.41071678156E+02 -0.46932323829E+01  0.21656132905E+02  0.46667946916E+02  0.51100000000E-03 0.  1.
         23    2    1    0    0    0  0.11700558008E+02  0.26231203765E+02 -0.33099448454E+01  0.96087462174E+02  0.91634412441E+02 0.  0.
         11    1    3    3    0    0 -0.29371120147E+02  0.30924436148E+02 -0.24966077750E+02  0.49419515257E+02  0.51100000000E-03 0. -1.
         22    1    1    0    0    0 -0.11700558008E+02 -0.26231203765E+02  0.33099448454E+01  0.28912537826E+02  0.00000000000E+00 0. -1.
</event>
<event>
 5    1  0.8900327E-005  0.9118800E+02  0.7818608E-02  0.1130116E+00
         25   -1    0    0    0    0  0.00000000000E+00  0.00000000000E+00  0.99999998245E-14  0.12500000000E+03  0.12500000000E+03 0.  0.
        -11    1    3    3    0    0 -0.55667342879E+01  0.41024249639E+02 -0.87964223779E+01  0.42324397644E+02  0.51100000000E-03 0. -1.
         23    2    1    0    0    0 -0.16958511566E+02 -0.92802867055E+01 -0.22147138508E+02  0.95602541267E+02  0.90970518942E+02 0.  0.
         11    1    3    3    0    0 -0.11391777278E+02 -0.50304536344E+02 -0.13350716130E+02  0.53278143622E+02  0.51100000000E-03 0.  1.
         22    1    1    0    0    0  0.16958511566E+02  0.92802867055E+01  0.22147138508E+02  0.29397458733E+02  0.00000000000E+00 0.  1.
</event>
<event>
 5    1  0.8900327E-005  0.9118800E+02  0.7818608E-02  0.1130116E+00
         25   -1    0    0    0    0  0.00000000000E+00  0.00000000000E+00  0.99999998245E-14  0.12500000000E+03  0.12500000000E+03 0.  0.
        -11    1    3    3    0    0  0.45370341892E+02 -0.75450817862E+01  0.74390209803E+00  0.45999451879E+02  0.51100000000E-03 0. -1.
         23    2    1    0    0    0  0.10120695880E+02  0.22968081298E+02 -0.15652288101E+02  0.95420355540E+02  0.90719837329E+02 0.  0.
         11    1    3    3    0    0 -0.35249646012E+02  0.30513163084E+02 -0.16396190199E+02  0.49420903661E+02  0.51100000000E-03 0.  1.
         22    1    1    0    0    0 -0.10120695880E+02 -0.22968081298E+02  0.15652288101E+02  0.29579644460E+02  0.00000000000E+00 0. -1.
</event>
<event>
 5    1  0.8900327E-005  0.9118800E+02  0.7818608E-02  0.1130116E+00
         25   -1    0    0    0    0  0.00000000000E+00  0.00000000000E+00  0.99999998245E-14  0.12500000000E+03  0.12500000000E+03 0.  0.
        -11    1    3    3    0    0 -0.50571816640E+02  0.17876831908E+02 -0.42648530422E+01  0.53807794315E+02  0.51100000000E-03 0.  1.
         23    2    1    0    0    0 -0.21217361823E+02 -0.75473343585E+01 -0.19191848338E+02  0.95411729667E+02  0.90707951233E+02 0.  0.
         11    1    3    3    0    0  0.29354454817E+02 -0.25424166266E+02 -0.14926995296E+02  0.41603935352E+02  0.51100000000E-03 0. -1.
         22    1    1    0    0    0  0.21217361823E+02  0.75473343585E+01  0.19191848338E+02  0.29588270333E+02  0.00000000000E+00 0. -1.
</event>
<event>
 5    1  0.8900327E-005  0.9118800E+02  0.7818608E-02  0.1130116E+00
         25   -1    0    0    0    0  0.00000000000E+00  0.00000000000E+00  0.99999998245E-14  0.12500000000E+03  0.12500000000E+03 0.  0.
        -11    1    3    3    0    0 -0.25406899489E+02  0.46370956079E+01 -0.54015252318E+02  0.59872035881E+02  0.51100000000E-03 0. -1.
         23    2    1    0    0    0 -0.22826308790E+02 -0.52939492060E+01 -0.24597580627E+02  0.91027846052E+02  0.84450941457E+02 0.  0.
         11    1    3    3    0    0  0.25805906999E+01 -0.99310448139E+01  0.29417671691E+02  0.31155810171E+02  0.51100000000E-03 0.  1.
         22    1    1    0    0    0  0.22826308790E+02  0.52939492060E+01  0.24597580627E+02  0.33972153948E+02  0.00000000000E+00 0. -1.
</event>
<event>
 5    1  0.8900327E-005  0.9118800E+02  0.7818608E-02  0.1130116E+00
         25   -1    0    0    0    0  0.00000000000E+00  0.00000000000E+00  0.99999998245E-14  0.12500000000E+03  0.12500000000E+03 0.  0.
        -11    1    3    3    0    0 -0.76802804257E+01  0.28475644198E+02  0.24618172569E+02  0.38417488736E+02  0.51100000000E-03 0. -1.
         23    2    1    0    0    0  0.26415303315E+02 -0.12709554429E+02  0.56698184965E+01  0.95142875812E+02  0.90336697709E+02 0.  0.
         11    1    3    3    0    0  0.34095583741E+02 -0.41185198627E+02 -0.18948354072E+02  0.56725387076E+02  0.51100000000E-03 0.  1.
         22    1    1    0    0    0 -0.26415303315E+02  0.12709554429E+02 -0.56698184965E+01  0.29857124188E+02  0.00000000000E+00 0.  1.
</event>
<event>
 5    1  0.8900327E-005  0.9118800E+02  0.7818608E-02  0.1130116E+00
         25   -1    0    0    0    0  0.00000000000E+00  0.00000000000E+00  0.99999998245E-14  0.12500000000E+03  0.12500000000E+03 0.  0.
        -11    1    3    3    0    0 -0.13170840879E+02  0.33227398453E+02 -0.49987764497E+02  0.61451669278E+02  0.51100000000E-03 0. -1.
         23    2    1    0    0    0 -0.65692123086E+01  0.77943272865E+01 -0.26166179993E+02  0.96918421276E+02  0.92761011848E+02 0.  0.
         11    1    3    3    0    0  0.66016285706E+01 -0.25433071166E+02  0.23821584504E+02  0.35466751998E+02  0.51100000000E-03 0.  1.
         22    1    1    0    0    0  0.65692123086E+01 -0.77943272865E+01  0.26166179993E+02  0.28081578724E+02  0.00000000000E+00 0. -1.
</event>
<event>
 5    1  0.8900327E-005  0.9118800E+02  0.7818608E-02  0.1130116E+00
         25   -1    0    0    0    0  0.00000000000E+00  0.00000000000E+00  0.99999998245E-14  0.12500000000E+03  0.12500000000E+03 0.  0.
        -11    1    3    3    0    0  0.22965389537E+02  0.20158773502E+02  0.21249635827E+02  0.37220052239E+02  0.51100000000E-03 0. -1.
         23    2    1    0    0    0 -0.18129637923E+02 -0.19207104476E+02  0.15396790689E+02  0.94427826425E+02  0.89341796525E+02 0.  0.
         11    1    3    3    0    0 -0.41095027460E+02 -0.39365877977E+02 -0.58528451377E+01  0.57207774186E+02  0.51100000000E-03 0.  1.
         22    1    1    0    0    0  0.18129637923E+02  0.19207104476E+02 -0.15396790689E+02  0.30572173575E+02  0.00000000000E+00 0.  1.
</event>
<event>
 5    1  0.8900327E-005  0.9118800E+02  0.7818608E-02  0.1130116E+00
         25   -1    0    0    0    0  0.00000000000E+00  0.00000000000E+00  0.99999998245E-14  0.12500000000E+03  0.12500000000E+03 0.  0.
        -11    1    3    3    0    0 -0.43559602841E+02 -0.86879219030E+00  0.14136640757E+02  0.45804349266E+02  0.51100000000E-03 0. -1.
         23    2    1    0    0    0 -0.21441577159E+00  0.19675824916E+02  0.23156276072E+02  0.94612548942E+02  0.89599872966E+02 0.  0.
         11    1    3    3    0    0  0.43345187069E+02  0.20544617107E+02  0.90196353150E+01  0.48808199676E+02  0.51100000000E-03 0.  1.
         22    1    1    0    0    0  0.21441577159E+00 -0.19675824916E+02 -0.23156276072E+02  0.30387451058E+02  0.00000000000E+00 0.  1.
</event>
<event>
 5    1  0.8900327E-005  0.9118800E+02  0.7818608E-02  0.1130116E+00
         25   -1    0    0    0    0  0.00000000000E+00  0.00000000000E+00  0.99999998245E-14  0.12500000000E+03  0.12500000000E+03 0.  0.
        -11    1    3    3    0    0 -0.17961092288E+02 -0.36553077613E+02  0.47596324991E+01  0.41004663405E+02  0.51100000000E-03 0.  1.
         23    2    1    0    0    0 -0.11154612241E+02  0.83884227775E+01  0.29216843450E+02  0.92620763565E+02  0.86776672506E+02 0.  0.
         11    1    3    3    0    0  0.68064800469E+01  0.44941500391E+02  0.24457210951E+02  0.51616100160E+02  0.51100000000E-03 0. -1.
         22    1    1    0    0    0  0.11154612241E+02 -0.83884227775E+01 -0.29216843450E+02  0.32379236435E+02  0.00000000000E+00 0. -1.
</event>
<event>
 5    1  0.8900327E-005  0.9118800E+02  0.7818608E-02  0.1130116E+00
         25   -1    0    0    0    0  0.00000000000E+00  0.00000000000E+00  0.99999998245E-14  0.12500000000E+03  0.12500000000E+03 0.  0.
        -11    1    3    3    0    0 -0.11692254505E+02 -0.43593569017E+02 -0.37473184244E+02  0.58663000373E+02  0.51100000000E-03 0.  1.
         23    2    1    0    0    0  0.85486258919E+01 -0.23252263886E+02 -0.10342763556E+02  0.98153779811E+02  0.94411042536E+02 0.  0.
         11    1    3    3    0    0  0.20240880397E+02  0.20341305131E+02  0.27130420688E+02  0.39490779438E+02  0.51100000000E-03 0. -1.
         22    1    1    0    0    0 -0.85486258919E+01  0.23252263886E+02  0.10342763556E+02  0.26846220189E+02  0.00000000000E+00 0.  1.
</event>
<event>
 5    1  0.8900327E-005  0.9118800E+02  0.7818608E-02  0.1130116E+00
         25   -1    0    0    0    0  0.00000000000E+00  0.00000000000E+00  0.99999998245E-14  0.12500000000E+03  0.12500000000E+03 0.  0.
        -11    1    3    3    0    0 -0.35948148540E+02  0.17191287596E+02  0.41746522744E+02  0.57711194011E+02  0.51100000000E-03 0.  1.
         23    2    1    0    0    0 -0.32547927662E+01  0.60532793741E+01  0.30046256775E+02  0.94177712393E+02  0.88991168653E+02 0.  0.
         11    1    3    3    0    0  0.32693355774E+02 -0.11138008221E+02 -0.11700265969E+02  0.36466518382E+02  0.51100000000E-03 0. -1.
         22    1    1    0    0    0  0.32547927662E+01 -0.60532793741E+01 -0.30046256775E+02  0.30822287607E+02  0.00000000000E+00 0.  1.
</event>
<event>
 5    1  0.8900327E-005  0.9118800E+02  0.7818608E-02  0.1130116E+00
         25   -1    0    0    0    0  0.00000000000E+00  0.00000000000E+00  0.99999998245E-14  0.12500000000E+03  0.12500000000E+03 0.  0.
        -11    1    3    3    0    0  0.21660682895E+02  0.51689742473E+02 -0.74037264814E+01  0.56531671004E+02  0.51100000000E-03 0. -1.
         23    2    1    0    0    0 -0.75557008895E+01  0.30374337371E+02 -0.79686033486E+01  0.92701584776E+02  0.86893015796E+02 0.  0.
         11    1    3    3    0    0 -0.29216383785E+02 -0.21315405103E+02 -0.56487686716E+00  0.36169913772E+02  0.51100000000E-03 0.  1.
         22    1    1    0    0    0  0.75557008895E+01 -0.30374337371E+02  0.79686033486E+01  0.32298415224E+02  0.00000000000E+00 0. -1.
</event>
<event>
 5    1  0.8900327E-005  0.9118800E+02  0.7818608E-02  0.1130116E+00
         25   -1    0    0    0    0  0.00000000000E+00  0.00000000000E+00  0.99999998245E-14  0.12500000000E+03  0.12500000000E+03 0.  0.
        -11    1    3    3    0    0 -0.33483451961E+02  0.42930728311E+02 -0.21398558096E+02  0.58498609192E+02  0.51100000000E-03 0. -1.
         23    2    1    0    0    0 -0.16959942221E+02  0.59723081139E+01 -0.18677642512E+02  0.99073904379E+02  0.95621525269E+02 0.  0.
         11    1    3    3    0    0  0.16523509741E+02 -0.36958420197E+02  0.27209155840E+01  0.40575295187E+02  0.51100000000E-03 0.  1.
         22    1    1    0    0    0  0.16959942221E+02 -0.59723081139E+01  0.18677642512E+02  0.25926095621E+02  0.00000000000E+00 0. -1.
</event>
<event>
 5    1  0.8900327E-005  0.9118800E+02  0.7818608E-02  0.1130116E+00
         25   -1    0    0    0    0  0.00000000000E+00  0.00000000000E+00  0.99999998245E-14  0.12500000000E+03  0.12500000000E+03 0.  0.
        -11    1    3    3    0    0  0.27189795619E+01  0.33194349874E+02 -0.13728213936E+02  0.36023902781E+02  0.51100000000E-03 0.  1.
         23    2    1    0    0    0 -0.65338322884E+01 -0.17542261751E+02  0.19967996771E+02  0.97629526734E+02  0.93714362206E+02 0.  0.
         11    1    3    3    0    0 -0.92528118503E+01 -0.50736611626E+02  0.33696210707E+02  0.61605623953E+02  0.51100000000E-03 0. -1.
         22    1    1    0    0    0  0.65338322884E+01  0.17542261751E+02 -0.19967996771E+02  0.27370473266E+02  0.00000000000E+00 0. -1.
</event>
<event>
 5    1  0.8900327E-005  0.9118800E+02  0.7818608E-02  0.1130116E+00
         25   -1    0    0    0    0  0.00000000000E+00  0.00000000000E+00  0.99999998245E-14  0.12500000000E+03  0.12500000000E+03 0.  0.
        -11    1    3    3    0    0 -0.40994923453E+01  0.29690600477E+02  0.17945658470E+02  0.34933998517E+02  0.51100000000E-03 0.  1.
         23    2    1    0    0    0  0.22718674318E+02 -0.87034888902E+01 -0.18630328758E+02  0.94357251571E+02  0.89242999125E+02 0.  0.
         11    1    3    3    0    0  0.26818166663E+02 -0.38394089368E+02 -0.36575987229E+02  0.59423253054E+02  0.51100000000E-03 0. -1.
         22    1    1    0    0    0 -0.22718674318E+02  0.87034888902E+01  0.18630328758E+02  0.30642748429E+02  0.00000000000E+00 0. -1.
</event>
<event>
 5    1  0.8900327E-005  0.9118800E+02  0.7818608E-02  0.1130116E+00
         25   -1    0    0    0    0  0.00000000000E+00  0.00000000000E+00  0.99999998245E-14  0.12500000000E+03  0.12500000000E+03 0.  0.
        -11    1    3    3    0    0  0.50420453740E+02  0.10047321952E+02 -0.28662425173E+02  0.58861748622E+02  0.51100000000E-03 0. -1.
         23    2    1    0    0    0  0.25081989320E+02 -0.91106099212E+01 -0.66821206949E+01  0.97490726321E+02  0.93529041373E+02 0.  0.
         11    1    3    3    0    0 -0.25338464420E+02 -0.19157931873E+02  0.21980304478E+02  0.38628977699E+02  0.51100000000E-03 0.  1.
         22    1    1    0    0    0 -0.25081989320E+02  0.91106099212E+01  0.66821206949E+01  0.27509273679E+02  0.00000000000E+00 0. -1.
</event>
<event>
 5    1  0.8900327E-005  0.9118800E+02  0.7818608E-02  0.1130116E+00
         25   -1    0    0    0    0  0.00000000000E+00  0.00000000000E+00  0.99999998245E-14  0.12500000000E+03  0.12500000000E+03 0.  0.
        -11    1    3    3    0    0  0.42070449013E+02  0.32839999761E+02  0.27748747303E+02  0.60152981984E+02  0.51100000000E-03 0.  1.
         23    2    1    0    0    0  0.26023743314E+02  0.11734770333E+02  0.32204056343E+01  0.96271772361E+02  0.91885489008E+02 0.  0.
         11    1    3    3    0    0 -0.16046705700E+02 -0.21105229428E+02 -0.24528341668E+02  0.36118790377E+02  0.51100000000E-03 0. -1.
         22    1    1    0    0    0 -0.26023743314E+02 -0.11734770333E+02 -0.32204056343E+01  0.28728227639E+02  0.00000000000E+00 0.  1.
</event>
<event>
 5    1  0.8900327E-005  0.9118800E+02  0.7818608E-02  0.1130116E+00
         25   -1    0    0    0    0  0.00000000000E+00  0.00000000000E+00  0.99999998245E-14  0.12500000000E+03  0.12500000000E+03 0.  0.
        -11    1    3    3    0    0  0.12521387517E+02  0.66538442045E+01  0.46459785373E+02  0.48575409882E+02  0.51100000000E-03 0.  1.
         23    2    1    0    0    0  0.26003249506E+02  0.13630432404E+02  0.19799879702E+01  0.95574194577E+02  0.90931560221E+02 0.  0.
         11    1    3    3    0    0  0.13481861990E+02  0.69765881999E+01 -0.44479797402E+02  0.46998784695E+02  0.51100000000E-03 0. -1.
         22    1    1    0    0    0 -0.26003249506E+02 -0.13630432404E+02 -0.19799879702E+01  0.29425805423E+02  0.00000000000E+00 0. -1.
</event>
<event>
 5    1  0.8900327E-005  0.9118800E+02  0.7818608E-02  0.1130116E+00
         25   -1    0    0    0    0  0.00000000000E+00  0.00000000000E+00  0.99999998245E-14  0.12500000000E+03  0.12500000000E+03 0.  0.
        -11    1    3    3    0    0 -0.28503328982E+02 -0.19477533642E+02  0.49200158879E+02  0.60103824453E+02  0.51100000000E-03 0. -1.
         23    2    1    0    0    0 -0.24131866404E+02 -0.93160069921E+01  0.17266701961E+02  0.93898971737E+02  0.88598775015E+02 0.  0.
         11    1    3    3    0    0  0.43714625776E+01  0.10161526650E+02 -0.31933456919E+02  0.33795147284E+02  0.51100000000E-03 0.  1.
         22    1    1    0    0    0  0.24131866404E+02  0.93160069921E+01 -0.17266701961E+02  0.31101028263E+02  0.00000000000E+00 0. -1.
</event>
<event>
 5    1  0.8900327E-005  0.9118800E+02  0.7818608E-02  0.1130116E+00
         25   -1    0    0    0    0  0.00000000000E+00  0.00000000000E+00  0.99999998245E-14  0.12500000000E+03  0.12500000000E+03 0.  0.
        -11    1    3    3    0    0 -0.23902748885E+01 -0.56565540745E+02 -0.18585323593E+02  0.59588489385E+02  0.51100000000E-03 0. -1.
         23    2    1    0    0    0  0.85229861689E+01 -0.22575646185E+02 -0.17296101731E+02  0.95310671463E+02  0.90568581008E+02 0.  0.
         11    1    3    3    0    0  0.10913261057E+02  0.33989894561E+02  0.12892218623E+01  0.35722182078E+02  0.51100000000E-03 0.  1.
         22    1    1    0    0    0 -0.85229861689E+01  0.22575646185E+02  0.17296101731E+02  0.29689328537E+02  0.00000000000E+00 0. -1.
</event>
<event>
 5    1  0.8900327E-005  0.9118800E+02  0.7818608E-02  0.1130116E+00
         25   -1    0    0    0    0  0.00000000000E+00  0.00000000000E+00  0.99999998245E-14  0.12500000000E+03  0.12500000000E+03 0.  0.
        -11    1    3    3    0    0 -0.40939266883E+02  0.19972279244E+02  0.19300058629E+02  0.49471282321E+02  0.51100000000E-03 0.  1.
         23    2    1    0    0    0  0.10783687281E+01  0.29523564570E+02  0.40470194319E+01  0.95180843232E+02  0.90389218428E+02 0.  0.
         11    1    3    3    0    0  0.42017635611E+02  0.95512853260E+01 -0.15253039197E+02  0.45709560912E+02  0.51100000000E-03 0. -1.
         22    1    1    0    0    0 -0.10783687281E+01 -0.29523564570E+02 -0.40470194319E+01  0.29819156768E+02  0.00000000000E+00 0. -1.
</event>
<event>
 5    1  0.8900327E-005  0.9118800E+02  0.7818608E-02  0.1130116E+00
         25   -1    0    0    0    0  0.00000000000E+00  0.00000000000E+00  0.99999998245E-14  0.12500000000E+03  0.12500000000E+03 0.  0.
        -11    1    3    3    0    0 -0.26291560922E+02  0.25415511721E+01  0.11273173851E+02  0.28719159232E+02  0.51100000000E-03 0.  1.
         23    2    1    0    0    0  0.14558955452E+02 -0.18230070141E+02 -0.27633247828E+02  0.88835168648E+02  0.81140570382E+02 0.  0.
         11    1    3    3    0    0  0.40850516373E+02 -0.20771621313E+02 -0.38906421679E+02  0.60116009416E+02  0.51100000000E-03 0. -1.
         22    1    1    0    0    0 -0.14558955452E+02  0.18230070141E+02  0.27633247828E+02  0.36164831352E+02  0.00000000000E+00 0. -1.
</event>
<event>
 5    1  0.8900327E-005  0.9118800E+02  0.7818608E-02  0.1130116E+00
         25   -1    0    0    0    0  0.00000000000E+00  0.00000000000E+00  0.99999998245E-14  0.12500000000E+03  0.12500000000E+03 0.  0.
        -11    1    3    3    0    0 -0.35688863073E+02 -0.34689936140E+02  0.30756568203E+02  0.58506863740E+02  0.51100000000E-03 0.  1.
         23    2    1    0    0    0 -0.95816940962E+01 -0.11624713826E+02  0.27688927464E+02  0.93478268807E+02  0.88003222678E+02 0.  0.
         11    1    3    3    0    0  0.26107168977E+02  0.23065222314E+02 -0.30676407389E+01  0.34971405067E+02  0.51100000000E-03 0. -1.
         22    1    1    0    0    0  0.95816940962E+01  0.11624713826E+02 -0.27688927464E+02  0.31521731193E+02  0.00000000000E+00 0.  1.
</event>
<event>
 5    1  0.8900327E-005  0.9118800E+02  0.7818608E-02  0.1130116E+00
         25   -1    0    0    0    0  0.00000000000E+00  0.00000000000E+00  0.99999998245E-14  0.12500000000E+03  0.12500000000E+03 0.  0.
        -11    1    3    3    0    0 -0.37439744464E+02 -0.54768116946E+01 -0.48231566590E+02  0.61302642259E+02  0.51100000000E-03 0. -1.
         23    2    1    0    0    0 -0.16227546708E+02 -0.10934838652E+02 -0.20206630593E+02  0.96871511089E+02  0.92697776523E+02 0.  0.
         11    1    3    3    0    0  0.21212197756E+02 -0.54580269574E+01  0.28024935998E+02  0.35568868830E+02  0.51100000000E-03 0.  1.
         22    1    1    0    0    0  0.16227546708E+02  0.10934838652E+02  0.20206630593E+02  0.28128488911E+02  0.00000000000E+00 0. -1.
</event>
<event>
 5    1  0.8900327E-005  0.9118800E+02  0.7818608E-02  0.1130116E+00
         25   -1    0    0    0    0  0.00000000000E+00  0.00000000000E+00  0.99999998245E-14  0.12500000000E+03  0.12500000000E+03 0.  0.
        -11    1    3    3    0    0 -0.25324994078E+02  0.24967566267E+02  0.43828447442E+02  0.56441717690E+02  0.51100000000E-03 0.  1.
         23    2    1    0    0    0  0.56556796780E+01  0.66271849997E+01  0.27828947436E+02  0.95839125373E+02  0.91295023650E+02 0.  0.
         11    1    3    3    0    0  0.30980673756E+02 -0.18340381268E+02 -0.15999500006E+02  0.39397407683E+02  0.51100000000E-03 0. -1.
         22    1    1    0    0    0 -0.56556796780E+01 -0.66271849997E+01 -0.27828947436E+02  0.29160874627E+02  0.00000000000E+00 0.  1.
</event>
<event>
 5    1  0.8900327E-005  0.9118800E+02  0.7818608E-02  0.1130116E+00
         25   -1    0    0    0    0  0.00000000000E+00  0.00000000000E+00  0.99999998245E-14  0.12500000000E+03  0.12500000000E+03 0.  0.
        -11    1    3    3    0    0  0.36458243925E+02  0.16595017297E+02 -0.60682096255E+01  0.40514458129E+02  0.51100000000E-03 0. -1.
         23    2    1    0    0    0  0.85516682797E+01 -0.91972853292E+01 -0.34702216254E+02  0.88095191361E+02  0.79992486148E+02 0.  0.
         11    1    3    3    0    0 -0.27906575645E+02 -0.25792302626E+02 -0.28634006628E+02  0.47580733231E+02  0.51100000000E-03 0.  1.
         22    1    1    0    0    0 -0.85516682797E+01  0.91972853292E+01  0.34702216254E+02  0.36904808639E+02  0.00000000000E+00 0.  1.
</event>
<event>
 5    1  0.8900327E-005  0.9118800E+02  0.7818608E-02  0.1130116E+00
         25   -1    0    0    0    0  0.00000000000E+00  0.00000000000E+00  0.99999998245E-14  0.12500000000E+03  0.12500000000E+03 0.  0.
        -11    1    3    3    0    0  0.27698456749E+02 -0.18040797863E+02  0.19100645664E+02  0.38177343528E+02  0.51100000000E-03 0. -1.
         23    2    1    0    0    0 -0.76985909471E+01  0.25076797093E+02 -0.38255359978E+01  0.98490590714E+02  0.94855931172E+02 0.  0.
         11    1    3    3    0    0 -0.35397047696E+02  0.43117594956E+02 -0.22926181661E+02  0.60313247187E+02  0.51100000000E-03 0.  1.
         22    1    1    0    0    0  0.76985909471E+01 -0.25076797093E+02  0.38255359978E+01  0.26509409286E+02  0.00000000000E+00 0.  1.
</event>
<event>
 5    1  0.8900327E-005  0.9118800E+02  0.7818608E-02  0.1130116E+00
         25   -1    0    0    0    0  0.00000000000E+00  0.00000000000E+00  0.99999998245E-14  0.12500000000E+03  0.12500000000E+03 0.  0.
        -11    1    3    3    0    0 -0.22155512020E+02  0.46323440615E+01  0.82355974398E+01  0.24086311254E+02  0.51100000000E-03 0.  1.
         23    2    1    0    0    0  0.10988146003E+02  0.46100564077E+02  0.16486030809E+01  0.77579337279E+02  0.61398976537E+02 0.  0.
         11    1    3    3    0    0  0.33143658023E+02  0.41468220015E+02 -0.65869943589E+01  0.53493026025E+02  0.51100000000E-03 0. -1.
         22    1    1    0    0    0 -0.10988146003E+02 -0.46100564077E+02 -0.16486030809E+01  0.47420662721E+02  0.00000000000E+00 0. -1.
</event>
<event>
 5    1  0.8900327E-005  0.9118800E+02  0.7818608E-02  0.1130116E+00
         25   -1    0    0    0    0  0.00000000000E+00  0.00000000000E+00  0.99999998245E-14  0.12500000000E+03  0.12500000000E+03 0.  0.
        -11    1    3    3    0    0 -0.27306283263E+02 -0.44252525671E+02 -0.24082517760E+00  0.51999780104E+02  0.51100000000E-03 0.  1.
         23    2    1    0    0    0 -0.20337727982E+02 -0.16694795007E+02  0.24021649850E+02  0.89371654245E+02  0.81962879166E+02 0.  0.
         11    1    3    3    0    0  0.69685552817E+01  0.27557730664E+02  0.24262475027E+02  0.37371874140E+02  0.51100000000E-03 0. -1.
         22    1    1    0    0    0  0.20337727982E+02  0.16694795007E+02 -0.24021649850E+02  0.35628345755E+02  0.00000000000E+00 0.  1.
</event>
<event>
 5    1  0.8900327E-005  0.9118800E+02  0.7818608E-02  0.1130116E+00
         25   -1    0    0    0    0  0.00000000000E+00  0.00000000000E+00  0.99999998245E-14  0.12500000000E+03  0.12500000000E+03 0.  0.
        -11    1    3    3    0    0 -0.10011403246E+02 -0.28840642188E+02  0.46068164314E+02  0.55265600515E+02  0.51100000000E-03 0.  1.
         23    2    1    0    0    0  0.15754445118E+01 -0.27851901820E+02  0.67070513817E+01  0.96308625013E+02  0.91935609278E+02 0.  0.
         11    1    3    3    0    0  0.11586847758E+02  0.98874036781E+00 -0.39361112932E+02  0.41043024498E+02  0.51100000000E-03 0. -1.
         22    1    1    0    0    0 -0.15754445118E+01  0.27851901820E+02 -0.67070513817E+01  0.28691374987E+02  0.00000000000E+00 0.  1.
</event>
<event>
 5    1  0.8900327E-005  0.9118800E+02  0.7818608E-02  0.1130116E+00
         25   -1    0    0    0    0  0.00000000000E+00  0.00000000000E+00  0.99999998245E-14  0.12500000000E+03  0.12500000000E+03 0.  0.
        -11    1    3    3    0    0  0.33953813492E+02  0.11810646183E+02  0.59288370956E+01  0.36434927246E+02  0.51100000000E-03 0.  1.
         23    2    1    0    0    0 -0.21589679561E+02 -0.84518506494E+01  0.16561429640E+02  0.96507387016E+02  0.92205459459E+02 0.  0.
         11    1    3    3    0    0 -0.55543493052E+02 -0.20262496832E+02  0.10632592544E+02  0.60072459770E+02  0.51100000000E-03 0. -1.
         22    1    1    0    0    0  0.21589679561E+02  0.84518506494E+01 -0.16561429640E+02  0.28492612984E+02  0.00000000000E+00 0. -1.
</event>
<event>
 5    1  0.8900327E-005  0.9118800E+02  0.7818608E-02  0.1130116E+00
         25   -1    0    0    0    0  0.00000000000E+00  0.00000000000E+00  0.99999998245E-14  0.12500000000E+03  0.12500000000E+03 0.  0.
        -11    1    3    3    0    0 -0.55019770863E+02 -0.81762407961E+01 -0.18778990590E+02  0.58708403037E+02  0.51100000000E-03 0.  1.
         23    2    1    0    0    0 -0.20534010601E+02 -0.18304967514E+02 -0.60855475797E+01  0.96826407464E+02  0.92636935755E+02 0.  0.
         11    1    3    3    0    0  0.34485760262E+02 -0.10128726718E+02  0.12693443010E+02  0.38118004427E+02  0.51100000000E-03 0. -1.
         22    1    1    0    0    0  0.20534010601E+02  0.18304967514E+02  0.60855475797E+01  0.28173592536E+02  0.00000000000E+00 0.  1.
</event>
<event>
 5    1  0.8900327E-005  0.9118800E+02  0.7818608E-02  0.1130116E+00
         25   -1    0    0    0    0  0.00000000000E+00  0.00000000000E+00  0.99999998245E-14  0.12500000000E+03  0.12500000000E+03 0.  0.
        -11    1    3    3    0    0  0.34171046687E+01  0.35915534330E+02 -0.15558527595E+02  0.39289565940E+02  0.51100000000E-03 0.  1.
         23    2    1    0    0    0 -0.12877658182E+02 -0.11675645215E+01  0.25152579040E+02  0.96718389022E+02  0.92491065814E+02 0.  0.
         11    1    3    3    0    0 -0.16294762851E+02 -0.37083098852E+02  0.40711106635E+02  0.57428823082E+02  0.51100000000E-03 0. -1.
         22    1    1    0    0    0  0.12877658182E+02  0.11675645215E+01 -0.25152579040E+02  0.28281610978E+02  0.00000000000E+00 0. -1.
</event>
<event>
 5    1  0.8900327E-005  0.9118800E+02  0.7818608E-02  0.1130116E+00
         25   -1    0    0    0    0  0.00000000000E+00  0.00000000000E+00  0.99999998245E-14  0.12500000000E+03  0.12500000000E+03 0.  0.
        -11    1    3    3    0    0  0.57703755987E+02 -0.12387150423E+02 -0.15162547745E+02  0.60934947321E+02  0.51100000000E-03 0. -1.
         23    2    1    0    0    0  0.23088869168E+02 -0.61273475024E+01 -0.16217385707E+02  0.96127108458E+02  0.91688478635E+02 0.  0.
         11    1    3    3    0    0 -0.34614886819E+02  0.62598029210E+01 -0.10548379612E+01  0.35192161137E+02  0.51100000000E-03 0.  1.
         22    1    1    0    0    0 -0.23088869168E+02  0.61273475024E+01  0.16217385707E+02  0.28872891542E+02  0.00000000000E+00 0.  1.
</event>
<event>
 5    1  0.8900327E-005  0.9118800E+02  0.7818608E-02  0.1130116E+00
         25   -1    0    0    0    0  0.00000000000E+00  0.00000000000E+00  0.99999998245E-14  0.12500000000E+03  0.12500000000E+03 0.  0.
        -11    1    3    3    0    0 -0.13652107199E+02 -0.17471282907E+01  0.56006382282E+02  0.57672760857E+02  0.51100000000E-03 0.  1.
         23    2    1    0    0    0  0.25989237433E+01 -0.15720206655E+02  0.24045447336E+02  0.96154500533E+02  0.91725814977E+02 0.  0.
         11    1    3    3    0    0  0.16251030942E+02 -0.13973078364E+02 -0.31960934946E+02  0.38481739676E+02  0.51100000000E-03 0. -1.
         22    1    1    0    0    0 -0.25989237433E+01  0.15720206655E+02 -0.24045447336E+02  0.28845499467E+02  0.00000000000E+00 0.  1.
</event>
<event>
 5    1  0.8900327E-005  0.9118800E+02  0.7818608E-02  0.1130116E+00
         25   -1    0    0    0    0  0.00000000000E+00  0.00000000000E+00  0.99999998245E-14  0.12500000000E+03  0.12500000000E+03 0.  0.
        -11    1    3    3    0    0  0.26111969801E+02 -0.49277184945E+02  0.76968890060E+01  0.56296696383E+02  0.51100000000E-03 0. -1.
         23    2    1    0    0    0 -0.12315989970E+01 -0.38206855106E+02  0.41890958582E-01  0.86773276781E+02  0.77899417169E+02 0.  0.
         11    1    3    3    0    0 -0.27343568798E+02  0.11070329839E+02 -0.76549980474E+01  0.30476580398E+02  0.51100000000E-03 0.  1.
         22    1    1    0    0    0  0.12315989970E+01  0.38206855106E+02 -0.41890958582E-01  0.38226723219E+02  0.00000000000E+00 0. -1.
</event>
<event>
 5    1  0.8900327E-005  0.9118800E+02  0.7818608E-02  0.1130116E+00
         25   -1    0    0    0    0  0.00000000000E+00  0.00000000000E+00  0.99999998245E-14  0.12500000000E+03  0.12500000000E+03 0.  0.
        -11    1    3    3    0    0  0.19596699308E+02  0.19475132518E+02  0.61244402453E+01  0.28298766386E+02  0.51100000000E-03 0. -1.
         23    2    1    0    0    0 -0.97679855509E+01 -0.14729724202E+02 -0.32723456356E+02  0.87808563988E+02  0.79543327797E+02 0.  0.
         11    1    3    3    0    0 -0.29364684859E+02 -0.34204856720E+02 -0.38847896601E+02  0.59509797602E+02  0.51100000000E-03 0.  1.
         22    1    1    0    0    0  0.97679855509E+01  0.14729724202E+02  0.32723456356E+02  0.37191436012E+02  0.00000000000E+00 0.  1.
</event>
<event>
 5    1  0.8900327E-005  0.9118800E+02  0.7818608E-02  0.1130116E+00
         25   -1    0    0    0    0  0.00000000000E+00  0.00000000000E+00  0.99999998245E-14  0.12500000000E+03  0.12500000000E+03 0.  0.
        -11    1    3    3    0    0 -0.75503177503E+01 -0.51486849919E+02  0.20581784311E+02  0.55959921894E+02  0.51100000000E-03 0.  1.
         23    2    1    0    0    0 -0.15501215012E+02 -0.24071067874E+02 -0.68628027784E+01  0.95558498044E+02  0.90909980261E+02 0.  0.
         11    1    3    3    0    0 -0.79508972616E+01  0.27415782045E+02 -0.27444587089E+02  0.39598576150E+02  0.51100000000E-03 0. -1.
         22    1    1    0    0    0  0.15501215012E+02  0.24071067874E+02  0.68628027784E+01  0.29441501956E+02  0.00000000000E+00 0.  1.
</event>
<event>
 5    1  0.8900327E-005  0.9118800E+02  0.7818608E-02  0.1130116E+00
         25   -1    0    0    0    0  0.00000000000E+00  0.00000000000E+00  0.99999998245E-14  0.12500000000E+03  0.12500000000E+03 0.  0.
        -11    1    3    3    0    0 -0.16136247424E+02 -0.26725412901E+02  0.28703166256E+02  0.42408701101E+02  0.51100000000E-03 0. -1.
         23    2    1    0    0    0 -0.13601880458E+02 -0.12426461193E+02 -0.22665877934E+02  0.95790924145E+02  0.91229003262E+02 0.  0.
         11    1    3    3    0    0  0.25343669663E+01  0.14298951708E+02 -0.51369044190E+02  0.53382223044E+02  0.51100000000E-03 0.  1.
         22    1    1    0    0    0  0.13601880458E+02  0.12426461193E+02  0.22665877934E+02  0.29209075855E+02  0.00000000000E+00 0.  1.
</event>
<event>
 5    1  0.8900327E-005  0.9118800E+02  0.7818608E-02  0.1130116E+00
         25   -1    0    0    0    0  0.00000000000E+00  0.00000000000E+00  0.99999998245E-14  0.12500000000E+03  0.12500000000E+03 0.  0.
        -11    1    3    3    0    0 -0.24784324137E+02 -0.28527216141E+02  0.46496300109E+02  0.59916364274E+02  0.51100000000E-03 0.  1.
         23    2    1    0    0    0 -0.24350627720E+01 -0.10449146807E+02  0.30179615241E+02  0.92969961352E+02  0.87278235190E+02 0.  0.
         11    1    3    3    0    0  0.22349261365E+02  0.18078069334E+02 -0.16316684868E+02  0.33053597078E+02  0.51100000000E-03 0. -1.
         22    1    1    0    0    0  0.24350627720E+01  0.10449146807E+02 -0.30179615241E+02  0.32030038648E+02  0.00000000000E+00 0.  1.
</event>
<event>
 5    1  0.8900327E-005  0.9118800E+02  0.7818608E-02  0.1130116E+00
         25   -1    0    0    0    0  0.00000000000E+00  0.00000000000E+00  0.99999998245E-14  0.12500000000E+03  0.12500000000E+03 0.  0.
        -11    1    3    3    0    0 -0.38029447594E+01  0.48623226321E+02 -0.65821400803E+01  0.49213870961E+02  0.51100000000E-03 0. -1.
         23    2    1    0    0    0  0.15233738610E+02  0.10288280721E+02 -0.23436604649E+02  0.95214266004E+02  0.90435427245E+02 0.  0.
         11    1    3    3    0    0  0.19036683370E+02 -0.38334945600E+02 -0.16854464568E+02  0.46000395042E+02  0.51100000000E-03 0.  1.
         22    1    1    0    0    0 -0.15233738610E+02 -0.10288280721E+02  0.23436604649E+02  0.29785733996E+02  0.00000000000E+00 0.  1.
</event>
<event>
 5    1  0.8900327E-005  0.9118800E+02  0.7818608E-02  0.1130116E+00
         25   -1    0    0    0    0  0.00000000000E+00  0.00000000000E+00  0.99999998245E-14  0.12500000000E+03  0.12500000000E+03 0.  0.
        -11    1    3    3    0    0  0.32621579748E+02 -0.28752411192E+02 -0.11244476244E+02  0.44914439336E+02  0.51100000000E-03 0.  1.
         23    2    1    0    0    0  0.12379548617E+02  0.72343740052E+01  0.22554829000E+02  0.98273427036E+02  0.94569322505E+02 0.  0.
         11    1    3    3    0    0 -0.20242031132E+02  0.35986785197E+02  0.33799305243E+02  0.53358987700E+02  0.51100000000E-03 0. -1.
         22    1    1    0    0    0 -0.12379548617E+02 -0.72343740052E+01 -0.22554829000E+02  0.26726572964E+02  0.00000000000E+00 0. -1.
</event>
<event>
 5    1  0.8900327E-005  0.9118800E+02  0.7818608E-02  0.1130116E+00
         25   -1    0    0    0    0  0.00000000000E+00  0.00000000000E+00  0.99999998245E-14  0.12500000000E+03  0.12500000000E+03 0.  0.
        -11    1    3    3    0    0  0.11950039942E+02  0.45697751845E+02 -0.11403299044E+02  0.48591390263E+02  0.51100000000E-03 0. -1.
         23    2    1    0    0    0 -0.31487873787E+01  0.18616992770E+02  0.23222453788E+02  0.95070254901E+02  0.90236155311E+02 0.  0.
         11    1    3    3    0    0 -0.15098827320E+02 -0.27080759076E+02  0.34625752833E+02  0.46478864638E+02  0.51100000000E-03 0.  1.
         22    1    1    0    0    0  0.31487873787E+01 -0.18616992770E+02 -0.23222453788E+02  0.29929745099E+02  0.00000000000E+00 0.  1.
</event>
<event>
 5    1  0.8900327E-005  0.9118800E+02  0.7818608E-02  0.1130116E+00
         25   -1    0    0    0    0  0.00000000000E+00  0.00000000000E+00  0.99999998245E-14  0.12500000000E+03  0.12500000000E+03 0.  0.
        -11    1    3    3    0    0 -0.10967061234E+02 -0.31943827644E+02 -0.24286045480E+02  0.41599237517E+02  0.51100000000E-03 0.  1.
         23    2    1    0    0    0  0.79638369154E+00  0.18683294988E+02 -0.25244271910E+02  0.93583873523E+02  0.88153096262E+02 0.  0.
         11    1    3    3    0    0  0.11763444926E+02  0.50627122632E+02 -0.95822642960E+00  0.51984636006E+02  0.51100000000E-03 0. -1.
         22    1    1    0    0    0 -0.79638369154E+00 -0.18683294988E+02  0.25244271910E+02  0.31416126477E+02  0.00000000000E+00 0.  1.
</event>
<event>
 5    1  0.8900327E-005  0.9118800E+02  0.7818608E-02  0.1130116E+00
         25   -1    0    0    0    0  0.00000000000E+00  0.00000000000E+00  0.99999998245E-14  0.12500000000E+03  0.12500000000E+03 0.  0.
        -11    1    3    3    0    0 -0.40115781615E+02 -0.15161942170E+00 -0.32711445481E+01  0.40249215023E+02  0.51100000000E-03 0.  1.
         23    2    1    0    0    0  0.98700483819E+01 -0.30007421083E+01 -0.27323474531E+02  0.95793929249E+02  0.91233120698E+02 0.  0.
         11    1    3    3    0    0  0.49985829997E+02 -0.28491226866E+01 -0.24052329983E+02  0.55544714226E+02  0.51100000000E-03 0. -1.
         22    1    1    0    0    0 -0.98700483819E+01  0.30007421083E+01  0.27323474531E+02  0.29206070751E+02  0.00000000000E+00 0. -1.
</event>
<event>
 5    1  0.8900327E-005  0.9118800E+02  0.7818608E-02  0.1130116E+00
         25   -1    0    0    0    0  0.00000000000E+00  0.00000000000E+00  0.99999998245E-14  0.12500000000E+03  0.12500000000E+03 0.  0.
        -11    1    3    3    0    0 -0.32813856285E+02  0.50164104995E+02 -0.14078536005E+02  0.61574278481E+02  0.51100000000E-03 0.  1.
         23    2    1    0    0    0 -0.70995863470E+01  0.24509376575E+02 -0.61253091980E+01  0.98758180719E+02  0.95207905028E+02 0.  0.
         11    1    3    3    0    0  0.25714269938E+02 -0.25654728420E+02  0.79532268075E+01  0.37183902238E+02  0.51100000000E-03 0. -1.
         22    1    1    0    0    0  0.70995863470E+01 -0.24509376575E+02  0.61253091980E+01  0.26241819281E+02  0.00000000000E+00 0.  1.
</event>
<event>
 5    1  0.8900327E-005  0.9118800E+02  0.7818608E-02  0.1130116E+00
         25   -1    0    0    0    0  0.00000000000E+00  0.00000000000E+00  0.99999998245E-14  0.12500000000E+03  0.12500000000E+03 0.  0.
        -11    1    3    3    0    0  0.42819537346E+02 -0.43381367761E+02 -0.31621521766E+01  0.61036505913E+02  0.51100000000E-03 0.  1.
         23    2    1    0    0    0  0.26403208030E+02 -0.14483594815E+02  0.26218709254E+01  0.94771236873E+02  0.89820984286E+02 0.  0.
         11    1    3    3    0    0 -0.16416329316E+02  0.28897772946E+02  0.57840231021E+01  0.33734730960E+02  0.51100000000E-03 0. -1.
         22    1    1    0    0    0 -0.26403208030E+02  0.14483594815E+02 -0.26218709254E+01  0.30228763127E+02  0.00000000000E+00 0.  1.
</event>
<event>
 5    1  0.8900327E-005  0.9118800E+02  0.7818608E-02  0.1130116E+00
         25   -1    0    0    0    0  0.00000000000E+00  0.00000000000E+00  0.99999998245E-14  0.12500000000E+03  0.12500000000E+03 0.  0.
        -11    1    3    3    0    0 -0.56720884976E+02 -0.22390148321E+02 -0.16040013692E+01  0.61001232405E+02  0.51100000000E-03 0.  1.
         23    2    1    0    0    0 -0.19622668223E+02 -0.16957319703E+02  0.34604147216E+01  0.98835629766E+02  0.95309534893E+02 0.  0.
         11    1    3    3    0    0  0.37098216753E+02  0.54328286181E+01  0.50644160908E+01  0.37834397361E+02  0.51100000000E-03 0. -1.
         22    1    1    0    0    0  0.19622668223E+02  0.16957319703E+02 -0.34604147216E+01  0.26164370234E+02  0.00000000000E+00 0.  1.
</event>
<event>
 5    1  0.8900327E-005  0.9118800E+02  0.7818608E-02  0.1130116E+00
         25   -1    0    0    0    0  0.00000000000E+00  0.00000000000E+00  0.99999998245E-14  0.12500000000E+03  0.12500000000E+03 0.  0.
        -11    1    3    3    0    0  0.48900944517E+02  0.13154210284E+02  0.29573874443E+02  0.58642558545E+02  0.51100000000E-03 0. -1.
         23    2    1    0    0    0  0.31154488175E+02  0.15837409690E+02  0.40898451421E+01  0.89812608616E+02  0.82632633710E+02 0.  0.
         11    1    3    3    0    0 -0.17746456342E+02  0.26831994064E+01 -0.25484029301E+02  0.31170050071E+02  0.51100000000E-03 0.  1.
         22    1    1    0    0    0 -0.31154488175E+02 -0.15837409690E+02 -0.40898451421E+01  0.35187391384E+02  0.00000000000E+00 0. -1.
</event>
<event>
 5    1  0.8900327E-005  0.9118800E+02  0.7818608E-02  0.1130116E+00
         25   -1    0    0    0    0  0.00000000000E+00  0.00000000000E+00  0.99999998245E-14  0.12500000000E+03  0.12500000000E+03 0.  0.
        -11    1    3    3    0    0 -0.23843471602E+02 -0.55595402175E+02  0.13116362693E+02  0.61898294416E+02  0.51100000000E-03 0. -1.
         23    2    1    0    0    0 -0.65957074888E+01 -0.25366912756E+02  0.10381396749E+02  0.96808564802E+02  0.92612856562E+02 0.  0.
         11    1    3    3    0    0  0.17247764113E+02  0.30228489419E+02 -0.27349659440E+01  0.34910270387E+02  0.51100000000E-03 0.  1.
         22    1    1    0    0    0  0.65957074888E+01  0.25366912756E+02 -0.10381396749E+02  0.28191435198E+02  0.00000000000E+00 0. -1.
</event>
<event>
 5    1  0.8900327E-005  0.9118800E+02  0.7818608E-02  0.1130116E+00
         25   -1    0    0    0    0  0.00000000000E+00  0.00000000000E+00  0.99999998245E-14  0.12500000000E+03  0.12500000000E+03 0.  0.
        -11    1    3    3    0    0  0.38309431847E+02  0.47014505362E+02 -0.33712772376E+01  0.60739952201E+02  0.51100000000E-03 0.  1.
         23    2    1    0    0    0  0.12172613725E+02  0.28642097533E+02  0.42643083638E+01  0.93587795337E+02  0.88158657171E+02 0.  0.
         11    1    3    3    0    0 -0.26136818121E+02 -0.18372407829E+02  0.76355856014E+01  0.32847843136E+02  0.51100000000E-03 0. -1.
         22    1    1    0    0    0 -0.12172613725E+02 -0.28642097533E+02 -0.42643083638E+01  0.31412204663E+02  0.00000000000E+00 0.  1.
</event>
<event>
 5    1  0.8900327E-005  0.9118800E+02  0.7818608E-02  0.1130116E+00
         25   -1    0    0    0    0  0.00000000000E+00  0.00000000000E+00  0.99999998245E-14  0.12500000000E+03  0.12500000000E+03 0.  0.
        -11    1    3    3    0    0  0.36196722476E+02 -0.15508174750E+02  0.15182890452E+02  0.42204577534E+02  0.51100000000E-03 0. -1.
         23    2    1    0    0    0  0.21125638332E+02  0.17309358166E+02 -0.18840765598E+02  0.91820474335E+02  0.85616111706E+02 0.  0.
         11    1    3    3    0    0 -0.15071084144E+02  0.32817532916E+02 -0.34023656050E+02  0.49615896800E+02  0.51100000000E-03 0.  1.
         22    1    1    0    0    0 -0.21125638332E+02 -0.17309358166E+02  0.18840765598E+02  0.33179525665E+02  0.00000000000E+00 0. -1.
</event>
<event>
 5    1  0.8900327E-005  0.9118800E+02  0.7818608E-02  0.1130116E+00
         25   -1    0    0    0    0  0.00000000000E+00  0.00000000000E+00  0.99999998245E-14  0.12500000000E+03  0.12500000000E+03 0.  0.
        -11    1    3    3    0    0  0.51560513348E+02  0.23848596300E+02  0.70969289094E+01  0.57250401591E+02  0.51100000000E-03 0.  1.
         23    2    1    0    0    0  0.11161974034E+02  0.22308916569E+02  0.10737247073E+02  0.97841835527E+02  0.93997121667E+02 0.  0.
         11    1    3    3    0    0 -0.40398539314E+02 -0.15396797306E+01  0.36403181639E+01  0.40591433936E+02  0.51100000000E-03 0. -1.
         22    1    1    0    0    0 -0.11161974034E+02 -0.22308916569E+02 -0.10737247073E+02  0.27158164473E+02  0.00000000000E+00 0.  1.
</event>
<event>
 5    1  0.8900327E-005  0.9118800E+02  0.7818608E-02  0.1130116E+00
         25   -1    0    0    0    0  0.00000000000E+00  0.00000000000E+00  0.99999998245E-14  0.12500000000E+03  0.12500000000E+03 0.  0.
        -11    1    3    3    0    0  0.24106867471E+02  0.30990321182E+02  0.62534217574E+01  0.39757343349E+02  0.51100000000E-03 0. -1.
         23    2    1    0    0    0 -0.25799368411E+02  0.89142748520E+01 -0.87195835834E+01  0.96345107845E+02  0.91985199686E+02 0.  0.
         11    1    3    3    0    0 -0.49906235882E+02 -0.22076046330E+02 -0.14973005341E+02  0.56587764496E+02  0.51100000000E-03 0.  1.
         22    1    1    0    0    0  0.25799368411E+02 -0.89142748520E+01  0.87195835834E+01  0.28654892155E+02  0.00000000000E+00 0.  1.
</event>
<event>
 5    1  0.8900327E-005  0.9118800E+02  0.7818608E-02  0.1130116E+00
         25   -1    0    0    0    0  0.00000000000E+00  0.00000000000E+00  0.99999998245E-14  0.12500000000E+03  0.12500000000E+03 0.  0.
        -11    1    3    3    0    0 -0.15055218790E+02 -0.37758559235E+02  0.25646368504E+02  0.48063547789E+02  0.51100000000E-03 0.  1.
         23    2    1    0    0    0  0.22883678041E+02 -0.16699419233E+02  0.45643443864E+01  0.96305635343E+02  0.91931544291E+02 0.  0.
         11    1    3    3    0    0  0.37938896831E+02  0.21059140002E+02 -0.21082024118E+02  0.48242087554E+02  0.51100000000E-03 0. -1.
         22    1    1    0    0    0 -0.22883678041E+02  0.16699419233E+02 -0.45643443864E+01  0.28694364657E+02  0.00000000000E+00 0.  1.
</event>
<event>
 5    1  0.8900327E-005  0.9118800E+02  0.7818608E-02  0.1130116E+00
         25   -1    0    0    0    0  0.00000000000E+00  0.00000000000E+00  0.99999998245E-14  0.12500000000E+03  0.12500000000E+03 0.  0.
        -11    1    3    3    0    0 -0.16770069337E+02  0.19460853550E+02 -0.30557330851E+02  0.39921304031E+02  0.51100000000E-03 0. -1.
         23    2    1    0    0    0  0.24759358308E+02  0.10305803724E+02  0.76725458324E+01  0.97105495635E+02  0.93012762074E+02 0.  0.
         11    1    3    3    0    0  0.41529427646E+02 -0.91550498260E+01  0.38229876684E+02  0.57184191604E+02  0.51100000000E-03 0.  1.
         22    1    1    0    0    0 -0.24759358308E+02 -0.10305803724E+02 -0.76725458324E+01  0.27894504365E+02  0.00000000000E+00 0.  1.
</event>
<event>
 5    1  0.8900327E-005  0.9118800E+02  0.7818608E-02  0.1130116E+00
         25   -1    0    0    0    0  0.00000000000E+00  0.00000000000E+00  0.99999998245E-14  0.12500000000E+03  0.12500000000E+03 0.  0.
        -11    1    3    3    0    0 -0.10211908228E+02  0.21880180947E+02  0.56740917749E+02  0.61664877646E+02  0.51100000000E-03 0.  1.
         23    2    1    0    0    0 -0.10491516843E+01  0.16015111848E+02  0.24327210107E+02  0.95855572087E+02  0.91317539508E+02 0.  0.
         11    1    3    3    0    0  0.91627565433E+01 -0.58650690988E+01 -0.32413707642E+02  0.34190694441E+02  0.51100000000E-03 0. -1.
         22    1    1    0    0    0  0.10491516843E+01 -0.16015111848E+02 -0.24327210107E+02  0.29144427913E+02  0.00000000000E+00 0.  1.
</event>
<event>
 5    1  0.8900327E-005  0.9118800E+02  0.7818608E-02  0.1130116E+00
         25   -1    0    0    0    0  0.00000000000E+00  0.00000000000E+00  0.99999998245E-14  0.12500000000E+03  0.12500000000E+03 0.  0.
        -11    1    3    3    0    0 -0.32250126121E+02  0.40951542268E+02 -0.17531944875E-01  0.52125807011E+02  0.51100000000E-03 0.  1.
         23    2    1    0    0    0 -0.41720499917E+01  0.43117756968E+02 -0.69470958230E+01  0.81127353540E+02  0.68241031535E+02 0.  0.
         11    1    3    3    0    0  0.28078076129E+02  0.21662147000E+01 -0.69295638782E+01  0.29001546529E+02  0.51100000000E-03 0. -1.
         22    1    1    0    0    0  0.41720499917E+01 -0.43117756968E+02  0.69470958230E+01  0.43872646460E+02  0.00000000000E+00 0.  1.
</event>
<event>
 5    1  0.8900327E-005  0.9118800E+02  0.7818608E-02  0.1130116E+00
         25   -1    0    0    0    0  0.00000000000E+00  0.00000000000E+00  0.99999998245E-14  0.12500000000E+03  0.12500000000E+03 0.  0.
        -11    1    3    3    0    0  0.35512751694E+02  0.31471809147E+01  0.10048743637E+02  0.37041024953E+02  0.51100000000E-03 0.  1.
         23    2    1    0    0    0 -0.22884755829E+02  0.10885235179E+02  0.13939855156E+02  0.96077345280E+02  0.91620610782E+02 0.  0.
         11    1    3    3    0    0 -0.58397507523E+02  0.77380542639E+01  0.38911115192E+01  0.59036320328E+02  0.51100000000E-03 0. -1.
         22    1    1    0    0    0  0.22884755829E+02 -0.10885235179E+02 -0.13939855156E+02  0.28922654720E+02  0.00000000000E+00 0. -1.
</event>
<event>
 5    1  0.8900327E-005  0.9118800E+02  0.7818608E-02  0.1130116E+00
         25   -1    0    0    0    0  0.00000000000E+00  0.00000000000E+00  0.99999998245E-14  0.12500000000E+03  0.12500000000E+03 0.  0.
        -11    1    3    3    0    0 -0.31219552422E+02  0.22074824056E+02  0.47271331483E+02  0.60799153703E+02  0.51100000000E-03 0.  1.
         23    2    1    0    0    0 -0.61958368819E+01  0.16323860040E+02  0.22927821549E+02  0.96180877837E+02  0.91761753794E+02 0.  0.
         11    1    3    3    0    0  0.25023715540E+02 -0.57509640159E+01 -0.24343509934E+02  0.35381724134E+02  0.51100000000E-03 0. -1.
         22    1    1    0    0    0  0.61958368819E+01 -0.16323860040E+02 -0.22927821549E+02  0.28819122163E+02  0.00000000000E+00 0.  1.
</event>
<event>
 5    1  0.8900327E-005  0.9118800E+02  0.7818608E-02  0.1130116E+00
         25   -1    0    0    0    0  0.00000000000E+00  0.00000000000E+00  0.99999998245E-14  0.12500000000E+03  0.12500000000E+03 0.  0.
        -11    1    3    3    0    0 -0.24544458543E+02 -0.70582100377E+01 -0.14403907862E+02  0.29321005032E+02  0.51100000000E-03 0. -1.
         23    2    1    0    0    0  0.28344343467E+02  0.14512638581E+01  0.17486658251E+02  0.91663965591E+02  0.85387302321E+02 0.  0.
         11    1    3    3    0    0  0.52888802009E+02  0.85094738958E+01  0.31890566114E+02  0.62342960559E+02  0.51100000000E-03 0.  1.
         22    1    1    0    0    0 -0.28344343467E+02 -0.14512638581E+01 -0.17486658251E+02  0.33336034409E+02  0.00000000000E+00 0.  1.
</event>
<event>
 5    1  0.8900327E-005  0.9118800E+02  0.7818608E-02  0.1130116E+00
         25   -1    0    0    0    0  0.00000000000E+00  0.00000000000E+00  0.99999998245E-14  0.12500000000E+03  0.12500000000E+03 0.  0.
        -11    1    3    3    0    0  0.26044477283E+02 -0.40263388161E+02 -0.36086117914E+01  0.48088224156E+02  0.51100000000E-03 0.  1.
         23    2    1    0    0    0  0.23334330592E+02  0.58936430461E+01 -0.16175567474E+02  0.96002155328E+02  0.91517969994E+02 0.  0.
         11    1    3    3    0    0 -0.27101466913E+01  0.46157031207E+02 -0.12566955683E+02  0.47913931172E+02  0.51100000000E-03 0. -1.
         22    1    1    0    0    0 -0.23334330592E+02 -0.58936430461E+01  0.16175567474E+02  0.28997844672E+02  0.00000000000E+00 0.  1.
</event>
<event>
 5    1  0.8900327E-005  0.9118800E+02  0.7818608E-02  0.1130116E+00
         25   -1    0    0    0    0  0.00000000000E+00  0.00000000000E+00  0.99999998245E-14  0.12500000000E+03  0.12500000000E+03 0.  0.
        -11    1    3    3    0    0  0.19647443283E+02  0.50849365962E+02  0.16012613221E+02  0.56816228569E+02  0.51100000000E-03 0.  1.
         23    2    1    0    0    0 -0.94009050689E+01  0.26609494785E+02  0.96075948200E+01  0.95188121376E+02  0.90399282874E+02 0.  0.
         11    1    3    3    0    0 -0.29048348352E+02 -0.24239871177E+02 -0.64050184011E+01  0.38371892808E+02  0.51100000000E-03 0. -1.
         22    1    1    0    0    0  0.94009050689E+01 -0.26609494785E+02 -0.96075948200E+01  0.29811878624E+02  0.00000000000E+00 0.  1.
</event>
<event>
 5    1  0.8900327E-005  0.9118800E+02  0.7818608E-02  0.1130116E+00
         25   -1    0    0    0    0  0.00000000000E+00  0.00000000000E+00  0.99999998245E-14  0.12500000000E+03  0.12500000000E+03 0.  0.
        -11    1    3    3    0    0 -0.37158033303E+01  0.39022390942E+02  0.47643933163E+02  0.61696827769E+02  0.51100000000E-03 0.  1.
         23    2    1    0    0    0 -0.82572545789E+01  0.18648563449E+02  0.19107852172E+02  0.97052528083E+02  0.92941551638E+02 0.  0.
         11    1    3    3    0    0 -0.45414512486E+01 -0.20373827493E+02 -0.28536080991E+02  0.35355700315E+02  0.51100000000E-03 0. -1.
         22    1    1    0    0    0  0.82572545789E+01 -0.18648563449E+02 -0.19107852172E+02  0.27947471917E+02  0.00000000000E+00 0.  1.
</event>
<event>
 5    1  0.8900327E-005  0.9118800E+02  0.7818608E-02  0.1130116E+00
         25   -1    0    0    0    0  0.00000000000E+00  0.00000000000E+00  0.99999998245E-14  0.12500000000E+03  0.12500000000E+03 0.  0.
        -11    1    3    3    0    0  0.12365013474E+02  0.90728136783E+01 -0.37561721380E+02  0.40572064521E+02  0.51100000000E-03 0.  1.
         23    2    1    0    0    0  0.56419540776E+01 -0.29996455131E+02 -0.10623578328E+01  0.94459083668E+02  0.89385518497E+02 0.  0.
         11    1    3    3    0    0 -0.67230593963E+01 -0.39069268809E+02  0.36499363547E+02  0.53887019147E+02  0.51100000000E-03 0. -1.
         22    1    1    0    0    0 -0.56419540776E+01  0.29996455131E+02  0.10623578328E+01  0.30540916332E+02  0.00000000000E+00 0. -1.
</event>
<event>
 5    1  0.8900327E-005  0.9118800E+02  0.7818608E-02  0.1130116E+00
         25   -1    0    0    0    0  0.00000000000E+00  0.00000000000E+00  0.99999998245E-14  0.12500000000E+03  0.12500000000E+03 0.  0.
        -11    1    3    3    0    0 -0.35786163423E+02  0.37950302072E+02 -0.15420840144E+02  0.54393724187E+02  0.51100000000E-03 0. -1.
         23    2    1    0    0    0 -0.12903824897E+02  0.30199985255E+01 -0.24516563392E+02  0.97130824041E+02  0.93046794734E+02 0.  0.
         11    1    3    3    0    0  0.22882338526E+02 -0.34930303547E+02 -0.90957232479E+01  0.42737099854E+02  0.51100000000E-03 0.  1.
         22    1    1    0    0    0  0.12903824897E+02 -0.30199985255E+01  0.24516563392E+02  0.27869175959E+02  0.00000000000E+00 0. -1.
</event>
<event>
 5    1  0.8900327E-005  0.9118800E+02  0.7818608E-02  0.1130116E+00
         25   -1    0    0    0    0  0.00000000000E+00  0.00000000000E+00  0.99999998245E-14  0.12500000000E+03  0.12500000000E+03 0.  0.
        -11    1    3    3    0    0 -0.18140501942E+01  0.18728071335E+02  0.25558801190E+02  0.31737733891E+02  0.51100000000E-03 0. -1.
         23    2    1    0    0    0 -0.34157847635E+01 -0.53346471565E+01 -0.31071639897E+02  0.93289231297E+02  0.87734302438E+02 0.  0.
         11    1    3    3    0    0 -0.16017345693E+01 -0.24062718491E+02 -0.56630441087E+02  0.61551497405E+02  0.51100000000E-03 0.  1.
         22    1    1    0    0    0  0.34157847635E+01  0.53346471565E+01  0.31071639897E+02  0.31710768703E+02  0.00000000000E+00 0.  1.
</event>
<event>
 5    1  0.8900327E-005  0.9118800E+02  0.7818608E-02  0.1130116E+00
         25   -1    0    0    0    0  0.00000000000E+00  0.00000000000E+00  0.99999998245E-14  0.12500000000E+03  0.12500000000E+03 0.  0.
        -11    1    3    3    0    0  0.16252916426E+02 -0.30893350157E+02  0.40437614210E+01  0.35141263252E+02  0.51100000000E-03 0.  1.
         23    2    1    0    0    0 -0.21973887970E+02  0.17361979293E+02 -0.15168741041E+01  0.96953770582E+02  0.92808634542E+02 0.  0.
         11    1    3    3    0    0 -0.38226804397E+02  0.48255329450E+02 -0.55606355251E+01  0.61812507330E+02  0.51100000000E-03 0. -1.
         22    1    1    0    0    0  0.21973887970E+02 -0.17361979293E+02  0.15168741041E+01  0.28046229418E+02  0.00000000000E+00 0. -1.
</event>
<event>
 5    1  0.8900327E-005  0.9118800E+02  0.7818608E-02  0.1130116E+00
         25   -1    0    0    0    0  0.00000000000E+00  0.00000000000E+00  0.99999998245E-14  0.12500000000E+03  0.12500000000E+03 0.  0.
        -11    1    3    3    0    0  0.20346966963E+02  0.52534738348E+02 -0.23431614930E+02  0.61015886262E+02  0.51100000000E-03 0. -1.
         23    2    1    0    0    0  0.49854904867E+00  0.27092950706E+02 -0.82704561201E+01  0.96668445621E+02  0.92423543565E+02 0.  0.
         11    1    3    3    0    0 -0.19848417915E+02 -0.25441787642E+02  0.15161158810E+02  0.35652559359E+02  0.51100000000E-03 0.  1.
         22    1    1    0    0    0 -0.49854904867E+00 -0.27092950706E+02  0.82704561201E+01  0.28331554379E+02  0.00000000000E+00 0. -1.
</event>
<event>
 5    1  0.8900327E-005  0.9118800E+02  0.7818608E-02  0.1130116E+00
         25   -1    0    0    0    0  0.00000000000E+00  0.00000000000E+00  0.99999998245E-14  0.12500000000E+03  0.12500000000E+03 0.  0.
        -11    1    3    3    0    0  0.35198315028E+02  0.26136218295E+02  0.20636443233E+02  0.48454990220E+02  0.51100000000E-03 0.  1.
         23    2    1    0    0    0  0.17606554511E+02 -0.18504270554E+02  0.97799208392E+01  0.97649576930E+02  0.93741102151E+02 0.  0.
         11    1    3    3    0    0 -0.17591760517E+02 -0.44640488850E+02 -0.10856522394E+02  0.49194586710E+02  0.51100000000E-03 0. -1.
         22    1    1    0    0    0 -0.17606554511E+02  0.18504270554E+02 -0.97799208392E+01  0.27350423070E+02  0.00000000000E+00 0.  1.
</event>
<event>
 5    1  0.8900327E-005  0.9118800E+02  0.7818608E-02  0.1130116E+00
         25   -1    0    0    0    0  0.00000000000E+00  0.00000000000E+00  0.99999998245E-14  0.12500000000E+03  0.12500000000E+03 0.  0.
        -11    1    3    3    0    0  0.24519756111E+02  0.13798101536E+02 -0.37926461955E+02  0.47223114705E+02  0.51100000000E-03 0.  1.
         23    2    1    0    0    0  0.17895904641E+02  0.24381529006E+02  0.70873043967E+01  0.93936319548E+02  0.88651451692E+02 0.  0.
         11    1    3    3    0    0 -0.66238514702E+01  0.10583427470E+02  0.45013766352E+02  0.46713204844E+02  0.51100000000E-03 0. -1.
         22    1    1    0    0    0 -0.17895904641E+02 -0.24381529006E+02 -0.70873043967E+01  0.31063680452E+02  0.00000000000E+00 0.  1.
</event>
<event>
 5    1  0.8900327E-005  0.9118800E+02  0.7818608E-02  0.1130116E+00
         25   -1    0    0    0    0  0.00000000000E+00  0.00000000000E+00  0.99999998245E-14  0.12500000000E+03  0.12500000000E+03 0.  0.
        -11    1    3    3    0    0  0.15031520432E+02 -0.36323413062E+02  0.26689484649E+02  0.47514898022E+02  0.51100000000E-03 0. -1.
         23    2    1    0    0    0  0.20713423450E+02 -0.30340612466E+02 -0.11437022089E+02  0.86523979544E+02  0.77498354086E+02 0.  0.
         11    1    3    3    0    0  0.56819030183E+01  0.59828005960E+01 -0.38126506738E+02  0.39009081522E+02  0.51100000000E-03 0.  1.
         22    1    1    0    0    0 -0.20713423450E+02  0.30340612466E+02  0.11437022089E+02  0.38476020456E+02  0.00000000000E+00 0. -1.
</event>
<event>
 5    1  0.8900327E-005  0.9118800E+02  0.7818608E-02  0.1130116E+00
         25   -1    0    0    0    0  0.00000000000E+00  0.00000000000E+00  0.99999998245E-14  0.12500000000E+03  0.12500000000E+03 0.  0.
        -11    1    3    3    0    0 -0.11952809584E+02  0.31955251966E+02  0.18038915638E+02  0.38592878396E+02  0.51100000000E-03 0. -1.
         23    2    1    0    0    0 -0.59104721778E+01 -0.23091522120E+02  0.19821981191E+02  0.93998983670E+02  0.88739765142E+02 0.  0.
         11    1    3    3    0    0  0.60423374064E+01 -0.55046774086E+02  0.17830655526E+01  0.55406105274E+02  0.51100000000E-03 0.  1.
         22    1    1    0    0    0  0.59104721778E+01  0.23091522120E+02 -0.19821981191E+02  0.31001016330E+02  0.00000000000E+00 0.  1.
</event>
<event>
 5    1  0.8900327E-005  0.9118800E+02  0.7818608E-02  0.1130116E+00
         25   -1    0    0    0    0  0.00000000000E+00  0.00000000000E+00  0.99999998245E-14  0.12500000000E+03  0.12500000000E+03 0.  0.
        -11    1    3    3    0    0  0.29519078767E+01  0.57567479768E+02 -0.16195710476E+02  0.59875116076E+02  0.51100000000E-03 0.  1.
         23    2    1    0    0    0 -0.35407596187E+00  0.19599743345E+02 -0.18486276164E+02  0.98055284091E+02  0.94280544243E+02 0.  0.
         11    1    3    3    0    0 -0.33059838386E+01 -0.37967736423E+02 -0.22905656881E+01  0.38180168015E+02  0.51100000000E-03 0. -1.
         22    1    1    0    0    0  0.35407596187E+00 -0.19599743345E+02  0.18486276164E+02  0.26944715909E+02  0.00000000000E+00 0.  1.
</event>
<event>
 5    1  0.8900327E-005  0.9118800E+02  0.7818608E-02  0.1130116E+00
         25   -1    0    0    0    0  0.00000000000E+00  0.00000000000E+00  0.99999998245E-14  0.12500000000E+03  0.12500000000E+03 0.  0.
        -11    1    3    3    0    0  0.21716342514E+02  0.18613183659E+02 -0.25520868026E+02  0.38332295041E+02  0.51100000000E-03 0. -1.
         23    2    1    0    0    0 -0.27907204588E+02 -0.39986492576E+01 -0.66862124578E+01  0.96025757976E+02  0.91550202043E+02 0.  0.
         11    1    3    3    0    0 -0.49623547102E+02 -0.22611832916E+02  0.18834655568E+02  0.57693462935E+02  0.51100000000E-03 0.  1.
         22    1    1    0    0    0  0.27907204588E+02  0.39986492576E+01  0.66862124578E+01  0.28974242024E+02  0.00000000000E+00 0.  1.
</event>
<event>
 5    1  0.8900327E-005  0.9118800E+02  0.7818608E-02  0.1130116E+00
         25   -1    0    0    0    0  0.00000000000E+00  0.00000000000E+00  0.99999998245E-14  0.12500000000E+03  0.12500000000E+03 0.  0.
        -11    1    3    3    0    0  0.16909098271E+02  0.39082019508E+02  0.98573824116E+01  0.43709150546E+02  0.51100000000E-03 0.  1.
         23    2    1    0    0    0  0.26950207130E+02 -0.11198984161E+02  0.61628801369E+00  0.95809064395E+02  0.91253855254E+02 0.  0.
         11    1    3    3    0    0  0.10041108860E+02 -0.50281003669E+02 -0.92410943979E+01  0.52099913849E+02  0.51100000000E-03 0. -1.
         22    1    1    0    0    0 -0.26950207130E+02  0.11198984161E+02 -0.61628801369E+00  0.29190935605E+02  0.00000000000E+00 0. -1.
</event>
<event>
 5    1  0.8900327E-005  0.9118800E+02  0.7818608E-02  0.1130116E+00
         25   -1    0    0    0    0  0.00000000000E+00  0.00000000000E+00  0.99999998245E-14  0.12500000000E+03  0.12500000000E+03 0.  0.
        -11    1    3    3    0    0 -0.72910741012E+01  0.36020591499E+02  0.22255843534E+02  0.42964698825E+02  0.51100000000E-03 0. -1.
         23    2    1    0    0    0 -0.33417017122E+02  0.14100812325E+01  0.34181003182E+00  0.91551499339E+02  0.85222501927E+02 0.  0.
         11    1    3    3    0    0 -0.26125943020E+02 -0.34610510266E+02 -0.21914033502E+02  0.48586800514E+02  0.51100000000E-03 0.  1.
         22    1    1    0    0    0  0.33417017122E+02 -0.14100812325E+01 -0.34181003182E+00  0.33448500661E+02  0.00000000000E+00 0.  1.
</event>
<event>
 5    1  0.8900327E-005  0.9118800E+02  0.7818608E-02  0.1130116E+00
         25   -1    0    0    0    0  0.00000000000E+00  0.00000000000E+00  0.99999998245E-14  0.12500000000E+03  0.12500000000E+03 0.  0.
        -11    1    3    3    0    0 -0.79870039230E+01 -0.29569997239E+02  0.14206869716E+02  0.33764065451E+02  0.51100000000E-03 0.  1.
         23    2    1    0    0    0  0.26715062592E+02  0.90172929949E+01 -0.14736151091E+02  0.93185533303E+02  0.87586433457E+02 0.  0.
         11    1    3    3    0    0  0.34702066515E+02  0.38587290234E+02 -0.28943020807E+02  0.59421467852E+02  0.51100000000E-03 0. -1.
         22    1    1    0    0    0 -0.26715062592E+02 -0.90172929949E+01  0.14736151091E+02  0.31814466697E+02  0.00000000000E+00 0. -1.
</event>
<event>
 5    1  0.8900327E-005  0.9118800E+02  0.7818608E-02  0.1130116E+00
         25   -1    0    0    0    0  0.00000000000E+00  0.00000000000E+00  0.99999998245E-14  0.12500000000E+03  0.12500000000E+03 0.  0.
        -11    1    3    3    0    0 -0.31777565910E+02  0.13784624935E+01  0.44450156987E+02  0.54658305045E+02  0.51100000000E-03 0.  1.
         23    2    1    0    0    0 -0.12421797211E+02 -0.20975224977E+02  0.15078049284E+02  0.96336282883E+02  0.91973206537E+02 0.  0.
         11    1    3    3    0    0  0.19355768699E+02 -0.22353687471E+02 -0.29372107703E+02  0.41677977838E+02  0.51100000000E-03 0. -1.
         22    1    1    0    0    0  0.12421797211E+02  0.20975224977E+02 -0.15078049284E+02  0.28663717117E+02  0.00000000000E+00 0.  1.
</event>
<event>
 5    1  0.8900327E-005  0.9118800E+02  0.7818608E-02  0.1130116E+00
         25   -1    0    0    0    0  0.00000000000E+00  0.00000000000E+00  0.99999998245E-14  0.12500000000E+03  0.12500000000E+03 0.  0.
        -11    1    3    3    0    0 -0.20830463965E+02  0.14115739369E+02  0.23887657444E+02  0.34695568958E+02  0.51100000000E-03 0.  1.
         23    2    1    0    0    0  0.24783447677E+02 -0.15640531682E+02 -0.31966520262E+01  0.95520106950E+02  0.90857177688E+02 0.  0.
         11    1    3    3    0    0  0.45613911643E+02 -0.29756271051E+02 -0.27084309470E+02  0.60824537992E+02  0.51100000000E-03 0. -1.
         22    1    1    0    0    0 -0.24783447677E+02  0.15640531682E+02  0.31966520262E+01  0.29479893050E+02  0.00000000000E+00 0. -1.
</event>
<event>
 5    1  0.8900327E-005  0.9118800E+02  0.7818608E-02  0.1130116E+00
         25   -1    0    0    0    0  0.00000000000E+00  0.00000000000E+00  0.99999998245E-14  0.12500000000E+03  0.12500000000E+03 0.  0.
        -11    1    3    3    0    0  0.42709237881E+02 -0.26511506554E+02 -0.26518102762E+02  0.56834397635E+02  0.51100000000E-03 0.  1.
         23    2    1    0    0    0  0.14675041911E+02 -0.25176501713E+02  0.58794820090E+00  0.95852808425E+02  0.91313756392E+02 0.  0.
         11    1    3    3    0    0 -0.28034195970E+02  0.13350048415E+01  0.27106050963E+02  0.39018410791E+02  0.51100000000E-03 0. -1.
         22    1    1    0    0    0 -0.14675041911E+02  0.25176501713E+02 -0.58794820090E+00  0.29147191575E+02  0.00000000000E+00 0.  1.
</event>
<event>
 5    1  0.8900327E-005  0.9118800E+02  0.7818608E-02  0.1130116E+00
         25   -1    0    0    0    0  0.00000000000E+00  0.00000000000E+00  0.99999998245E-14  0.12500000000E+03  0.12500000000E+03 0.  0.
        -11    1    3    3    0    0  0.40168927685E+01 -0.47444878718E+02 -0.92904980458E+01  0.48512527230E+02  0.51100000000E-03 0. -1.
         23    2    1    0    0    0 -0.47351082734E+01 -0.16501261008E+02  0.24451368879E+02  0.95123884033E+02  0.90310414728E+02 0.  0.
         11    1    3    3    0    0 -0.87520010419E+01  0.30943617710E+02  0.33741866925E+02  0.46611356803E+02  0.51100000000E-03 0.  1.
         22    1    1    0    0    0  0.47351082734E+01  0.16501261008E+02 -0.24451368879E+02  0.29876115967E+02  0.00000000000E+00 0. -1.
</event>
<event>
 5    1  0.8900327E-005  0.9118800E+02  0.7818608E-02  0.1130116E+00
         25   -1    0    0    0    0  0.00000000000E+00  0.00000000000E+00  0.99999998245E-14  0.12500000000E+03  0.12500000000E+03 0.  0.
        -11    1    3    3    0    0 -0.32335605655E+02 -0.21014826709E+02  0.19137017483E+02  0.43051594315E+02  0.51100000000E-03 0.  1.
         23    2    1    0    0    0 -0.43443736897E+01  0.22789761461E+02  0.18962932896E+02  0.95036027730E+02  0.90188729520E+02 0.  0.
         11    1    3    3    0    0  0.27991231966E+02  0.43804588170E+02 -0.17408458658E+00  0.51984433414E+02  0.51100000000E-03 0. -1.
         22    1    1    0    0    0  0.43443736897E+01 -0.22789761461E+02 -0.18962932896E+02  0.29963972270E+02  0.00000000000E+00 0.  1.
</event>
<event>
 5    1  0.8900327E-005  0.9118800E+02  0.7818608E-02  0.1130116E+00
         25   -1    0    0    0    0  0.00000000000E+00  0.00000000000E+00  0.99999998245E-14  0.12500000000E+03  0.12500000000E+03 0.  0.
        -11    1    3    3    0    0  0.16199906755E+02 -0.39298340295E+02 -0.88818578526E+01  0.43424462323E+02  0.51100000000E-03 0.  1.
         23    2    1    0    0    0 -0.21335064805E+02 -0.34250497187E+02  0.61705349116E+01  0.84178963157E+02  0.73618888808E+02 0.  0.
         11    1    3    3    0    0 -0.37534971561E+02  0.50478431082E+01  0.15052392764E+02  0.40754500835E+02  0.51100000000E-03 0. -1.
         22    1    1    0    0    0  0.21335064805E+02  0.34250497187E+02 -0.61705349116E+01  0.40821036843E+02  0.00000000000E+00 0.  1.
</event>
<event>
 5    1  0.8900327E-005  0.9118800E+02  0.7818608E-02  0.1130116E+00
         25   -1    0    0    0    0  0.00000000000E+00  0.00000000000E+00  0.99999998245E-14  0.12500000000E+03  0.12500000000E+03 0.  0.
        -11    1    3    3    0    0  0.42146812661E+02  0.11527365014E+02  0.96200343408E-01  0.43694887761E+02  0.51100000000E-03 0.  1.
         23    2    1    0    0    0 -0.80355821941E+01  0.19852086116E+02 -0.17314006149E+02  0.97460016099E+02  0.93487988665E+02 0.  0.
         11    1    3    3    0    0 -0.50182394855E+02  0.83247211021E+01 -0.17410206492E+02  0.53765128338E+02  0.51100000000E-03 0. -1.
         22    1    1    0    0    0  0.80355821941E+01 -0.19852086116E+02  0.17314006149E+02  0.27539983901E+02  0.00000000000E+00 0. -1.
</event>
<event>
 5    1  0.8900327E-005  0.9118800E+02  0.7818608E-02  0.1130116E+00
         25   -1    0    0    0    0  0.00000000000E+00  0.00000000000E+00  0.99999998245E-14  0.12500000000E+03  0.12500000000E+03 0.  0.
        -11    1    3    3    0    0 -0.15473414927E+02  0.10321701466E+02 -0.31540282066E+02  0.36616300792E+02  0.51100000000E-03 0.  1.
         23    2    1    0    0    0 -0.19366524588E+02 -0.18411251615E+02  0.17123006327E+02  0.93263052977E+02  0.87696996780E+02 0.  0.
         11    1    3    3    0    0 -0.38931096608E+01 -0.28732953081E+02  0.48663288393E+02  0.56646752185E+02  0.51100000000E-03 0. -1.
         22    1    1    0    0    0  0.19366524588E+02  0.18411251615E+02 -0.17123006327E+02  0.31736947023E+02  0.00000000000E+00 0. -1.
</event>
<event>
 5    1  0.8900327E-005  0.9118800E+02  0.7818608E-02  0.1130116E+00
         25   -1    0    0    0    0  0.00000000000E+00  0.00000000000E+00  0.99999998245E-14  0.12500000000E+03  0.12500000000E+03 0.  0.
        -11    1    3    3    0    0 -0.85737400154E+01  0.30348694961E+02 -0.88997019297E+01  0.32768231542E+02  0.51100000000E-03 0.  1.
         23    2    1    0    0    0  0.15150815047E+02 -0.26218040792E+02 -0.56638102751E+01  0.94193968019E+02  0.89013998926E+02 0.  0.
         11    1    3    3    0    0  0.23724555063E+02 -0.56566735753E+02  0.32358916547E+01  0.61425736477E+02  0.51100000000E-03 0. -1.
         22    1    1    0    0    0 -0.15150815047E+02  0.26218040792E+02  0.56638102751E+01  0.30806031981E+02  0.00000000000E+00 0. -1.
</event>
<event>
 5    1  0.8900327E-005  0.9118800E+02  0.7818608E-02  0.1130116E+00
         25   -1    0    0    0    0  0.00000000000E+00  0.00000000000E+00  0.99999998245E-14  0.12500000000E+03  0.12500000000E+03 0.  0.
        -11    1    3    3    0    0  0.10071134649E+02 -0.36125609564E+02 -0.33002606887E+02  0.49956575955E+02  0.51100000000E-03 0.  1.
         23    2    1    0    0    0  0.16333452072E+02  0.51513899948E+01 -0.28234347620E+02  0.91977328076E+02  0.85844813582E+02 0.  0.
         11    1    3    3    0    0  0.62623174228E+01  0.41276999559E+02  0.47682592673E+01  0.42020752121E+02  0.51100000000E-03 0. -1.
         22    1    1    0    0    0 -0.16333452072E+02 -0.51513899948E+01  0.28234347620E+02  0.33022671924E+02  0.00000000000E+00 0.  1.
</event>
<event>
 5    1  0.8900327E-005  0.9118800E+02  0.7818608E-02  0.1130116E+00
         25   -1    0    0    0    0  0.00000000000E+00  0.00000000000E+00  0.99999998245E-14  0.12500000000E+03  0.12500000000E+03 0.  0.
        -11    1    3    3    0    0  0.24551340048E+02 -0.21256759199E+02  0.27061478179E+02  0.42272233337E+02  0.51100000000E-03 0.  1.
         23    2    1    0    0    0 -0.13798854430E+02  0.16695156779E+02  0.17689781266E+02  0.97034574834E+02  0.92917402614E+02 0.  0.
         11    1    3    3    0    0 -0.38350194479E+02  0.37951915978E+02 -0.93716969135E+01  0.54762341497E+02  0.51100000000E-03 0. -1.
         22    1    1    0    0    0  0.13798854430E+02 -0.16695156779E+02 -0.17689781266E+02  0.27965425166E+02  0.00000000000E+00 0. -1.
</event>
<event>
 5    1  0.8900327E-005  0.9118800E+02  0.7818608E-02  0.1130116E+00
         25   -1    0    0    0    0  0.00000000000E+00  0.00000000000E+00  0.99999998245E-14  0.12500000000E+03  0.12500000000E+03 0.  0.
        -11    1    3    3    0    0  0.24741391467E+02  0.18006817668E+02 -0.38655573972E+02  0.49301473950E+02  0.51100000000E-03 0.  1.
         23    2    1    0    0    0 -0.66209210548E+01 -0.12101113508E+02 -0.27576426000E+02  0.94166044453E+02  0.88974777961E+02 0.  0.
         11    1    3    3    0    0 -0.31362312522E+02 -0.30107931176E+02  0.11079147972E+02  0.44864570503E+02  0.51100000000E-03 0. -1.
         22    1    1    0    0    0  0.66209210548E+01  0.12101113508E+02  0.27576426000E+02  0.30833955547E+02  0.00000000000E+00 0.  1.
</event>
<event>
 5    1  0.8900327E-005  0.9118800E+02  0.7818608E-02  0.1130116E+00
         25   -1    0    0    0    0  0.00000000000E+00  0.00000000000E+00  0.99999998245E-14  0.12500000000E+03  0.12500000000E+03 0.  0.
        -11    1    3    3    0    0  0.21176067516E+02 -0.74352792872E+01 -0.39416757975E+02  0.45358461427E+02  0.51100000000E-03 0.  1.
         23    2    1    0    0    0  0.13054539985E+02  0.26208129956E+02 -0.30495721266E+01  0.95562150551E+02  0.90915002270E+02 0.  0.
         11    1    3    3    0    0 -0.81215275309E+01  0.33643409243E+02  0.36367185848E+02  0.50203689124E+02  0.51100000000E-03 0. -1.
         22    1    1    0    0    0 -0.13054539985E+02 -0.26208129956E+02  0.30495721266E+01  0.29437849449E+02  0.00000000000E+00 0. -1.
</event>
<event>
 5    1  0.8900327E-005  0.9118800E+02  0.7818608E-02  0.1130116E+00
         25   -1    0    0    0    0  0.00000000000E+00  0.00000000000E+00  0.99999998245E-14  0.12500000000E+03  0.12500000000E+03 0.  0.
        -11    1    3    3    0    0 -0.23683189527E+02  0.52288016879E+02 -0.24004407145E+02  0.62218499966E+02  0.51100000000E-03 0. -1.
         23    2    1    0    0    0 -0.12799354982E+02  0.23490374538E+02 -0.15170919065E+02  0.94246496636E+02  0.89087732932E+02 0.  0.
         11    1    3    3    0    0  0.10883834545E+02 -0.28797642341E+02  0.88334880809E+01  0.32027996671E+02  0.51100000000E-03 0.  1.
         22    1    1    0    0    0  0.12799354982E+02 -0.23490374538E+02  0.15170919065E+02  0.30753503364E+02  0.00000000000E+00 0. -1.
</event>
<event>
 5    1  0.8900327E-005  0.9118800E+02  0.7818608E-02  0.1130116E+00
         25   -1    0    0    0    0  0.00000000000E+00  0.00000000000E+00  0.99999998245E-14  0.12500000000E+03  0.12500000000E+03 0.  0.
        -11    1    3    3    0    0  0.20130320910E+02  0.30204688710E+02  0.32851897141E+02  0.48957125998E+02  0.51100000000E-03 0.  1.
         23    2    1    0    0    0  0.66764299127E+01 -0.13393225322E+02  0.25867991142E+02  0.95115118093E+02  0.90298280843E+02 0.  0.
         11    1    3    3    0    0 -0.13453890997E+02 -0.43597914032E+02 -0.69839059990E+01  0.46157992094E+02  0.51100000000E-03 0. -1.
         22    1    1    0    0    0 -0.66764299127E+01  0.13393225322E+02 -0.25867991142E+02  0.29884881907E+02  0.00000000000E+00 0.  1.
</event>
<event>
 5    1  0.8900327E-005  0.9118800E+02  0.7818608E-02  0.1130116E+00
         25   -1    0    0    0    0  0.00000000000E+00  0.00000000000E+00  0.99999998245E-14  0.12500000000E+03  0.12500000000E+03 0.  0.
        -11    1    3    3    0    0  0.34015578966E+02 -0.96777356594E+01 -0.36043220546E+02  0.50495860498E+02  0.51100000000E-03 0.  1.
         23    2    1    0    0    0  0.74638277083E+01 -0.29160039229E+02 -0.77375160522E+01  0.93921297219E+02  0.88630267430E+02 0.  0.
         11    1    3    3    0    0 -0.26551751257E+02 -0.19482303569E+02  0.28305704494E+02  0.43425436721E+02  0.51100000000E-03 0. -1.
         22    1    1    0    0    0 -0.74638277083E+01  0.29160039229E+02  0.77375160522E+01  0.31078702781E+02  0.00000000000E+00 0.  1.
</event>
<event>
 5    1  0.8900327E-005  0.9118800E+02  0.7818608E-02  0.1130116E+00
         25   -1    0    0    0    0  0.00000000000E+00  0.00000000000E+00  0.99999998245E-14  0.12500000000E+03  0.12500000000E+03 0.  0.
        -11    1    3    3    0    0 -0.28673374658E+02  0.85590845190E+01  0.39412816574E+02  0.49485254901E+02  0.51100000000E-03 0.  1.
         23    2    1    0    0    0  0.40839364689E+01  0.26620307507E+02  0.14705082021E+02  0.94315170751E+02  0.89184038301E+02 0.  0.
         11    1    3    3    0    0  0.32757311127E+02  0.18061222988E+02 -0.24707734553E+02  0.44829915850E+02  0.51100000000E-03 0. -1.
         22    1    1    0    0    0 -0.40839364689E+01 -0.26620307507E+02 -0.14705082021E+02  0.30684829249E+02  0.00000000000E+00 0.  1.
</event>
<event>
 5    1  0.8900327E-005  0.9118800E+02  0.7818608E-02  0.1130116E+00
         25   -1    0    0    0    0  0.00000000000E+00  0.00000000000E+00  0.99999998245E-14  0.12500000000E+03  0.12500000000E+03 0.  0.
        -11    1    3    3    0    0  0.41739180193E+02  0.26149940337E+02  0.26937061856E+02  0.56138969037E+02  0.51100000000E-03 0.  1.
         23    2    1    0    0    0  0.30051881404E+02 -0.27291088672E+01  0.45945723043E+01  0.94476669484E+02  0.89410107767E+02 0.  0.
         11    1    3    3    0    0 -0.11687298789E+02 -0.28879049204E+02 -0.22342489552E+02  0.38337700447E+02  0.51100000000E-03 0. -1.
         22    1    1    0    0    0 -0.30051881404E+02  0.27291088672E+01 -0.45945723043E+01  0.30523330516E+02  0.00000000000E+00 0.  1.
</event>
<event>
 5    1  0.8900327E-005  0.9118800E+02  0.7818608E-02  0.1130116E+00
         25   -1    0    0    0    0  0.00000000000E+00  0.00000000000E+00  0.99999998245E-14  0.12500000000E+03  0.12500000000E+03 0.  0.
        -11    1    3    3    0    0  0.30085279702E+02  0.17348859947E+02  0.74873724270E+01  0.35527000188E+02  0.51100000000E-03 0.  1.
         23    2    1    0    0    0 -0.13118712751E+02 -0.25101090924E+02 -0.83650995136E+00  0.96665125044E+02  0.92419052479E+02 0.  0.
         11    1    3    3    0    0 -0.43203992454E+02 -0.42449950871E+02 -0.83238823784E+01  0.61138124857E+02  0.51100000000E-03 0. -1.
         22    1    1    0    0    0  0.13118712751E+02  0.25101090924E+02  0.83650995136E+00  0.28334874956E+02  0.00000000000E+00 0. -1.
</event>
<event>
 5    1  0.8900327E-005  0.9118800E+02  0.7818608E-02  0.1130116E+00
         25   -1    0    0    0    0  0.00000000000E+00  0.00000000000E+00  0.99999998245E-14  0.12500000000E+03  0.12500000000E+03 0.  0.
        -11    1    3    3    0    0 -0.16156656476E+02 -0.20461081011E+02  0.22142104146E+02  0.34204768102E+02  0.51100000000E-03 0. -1.
         23    2    1    0    0    0  0.22445052726E+02  0.18800956455E+02 -0.45093643500E+01  0.95375842251E+02  0.90658483126E+02 0.  0.
         11    1    3    3    0    0  0.38601709202E+02  0.39262037466E+02 -0.26651468496E+02  0.61171074149E+02  0.51100000000E-03 0.  1.
         22    1    1    0    0    0 -0.22445052726E+02 -0.18800956455E+02  0.45093643500E+01  0.29624157749E+02  0.00000000000E+00 0.  1.
</event>
<event>
 5    1  0.8900327E-005  0.9118800E+02  0.7818608E-02  0.1130116E+00
         25   -1    0    0    0    0  0.00000000000E+00  0.00000000000E+00  0.99999998245E-14  0.12500000000E+03  0.12500000000E+03 0.  0.
        -11    1    3    3    0    0  0.20136817896E+02 -0.52966378094E+02 -0.17205190016E+02  0.59219483340E+02  0.51100000000E-03 0.  1.
         23    2    1    0    0    0 -0.46019439622E+01 -0.25850685739E+02 -0.11375374472E+02  0.96384707134E+02  0.92038995994E+02 0.  0.
         11    1    3    3    0    0 -0.24738761858E+02  0.27115692355E+02  0.58298155436E+01  0.37165223794E+02  0.51100000000E-03 0. -1.
         22    1    1    0    0    0  0.46019439622E+01  0.25850685739E+02  0.11375374472E+02  0.28615292866E+02  0.00000000000E+00 0.  1.
</event>
<event>
 5    1  0.8900327E-005  0.9118800E+02  0.7818608E-02  0.1130116E+00
         25   -1    0    0    0    0  0.00000000000E+00  0.00000000000E+00  0.99999998245E-14  0.12500000000E+03  0.12500000000E+03 0.  0.
        -11    1    3    3    0    0  0.35108161359E+02  0.39254753783E+02  0.21071984440E+01  0.52706346621E+02  0.51100000000E-03 0.  1.
         23    2    1    0    0    0 -0.58567958331E+01  0.28288326619E+02  0.66494328975E+01  0.95356342362E+02  0.90631592673E+02 0.  0.
         11    1    3    3    0    0 -0.40964957193E+02 -0.10966427165E+02  0.45422344535E+01  0.42649995740E+02  0.51100000000E-03 0. -1.
         22    1    1    0    0    0  0.58567958331E+01 -0.28288326619E+02 -0.66494328975E+01  0.29643657638E+02  0.00000000000E+00 0. -1.
</event>
<event>
 5    1  0.8900327E-005  0.9118800E+02  0.7818608E-02  0.1130116E+00
         25   -1    0    0    0    0  0.00000000000E+00  0.00000000000E+00  0.99999998245E-14  0.12500000000E+03  0.12500000000E+03 0.  0.
        -11    1    3    3    0    0  0.20731846757E+02  0.52157365486E+01 -0.28404237364E+02  0.35550162844E+02  0.51100000000E-03 0.  1.
         23    2    1    0    0    0 -0.72104982123E+01 -0.23811889257E+02  0.15929874483E+02  0.95457517784E+02  0.90771027569E+02 0.  0.
         11    1    3    3    0    0 -0.27942344969E+02 -0.29027625805E+02  0.44334111848E+02  0.59907354940E+02  0.51100000000E-03 0. -1.
         22    1    1    0    0    0  0.72104982123E+01  0.23811889257E+02 -0.15929874483E+02  0.29542482216E+02  0.00000000000E+00 0. -1.
</event>
<event>
 5    1  0.8900327E-005  0.9118800E+02  0.7818608E-02  0.1130116E+00
         25   -1    0    0    0    0  0.00000000000E+00  0.00000000000E+00  0.99999998245E-14  0.12500000000E+03  0.12500000000E+03 0.  0.
        -11    1    3    3    0    0 -0.18828033045E+02 -0.32382987031E+02 -0.64559333367E+01  0.38010942542E+02  0.51100000000E-03 0.  1.
         23    2    1    0    0    0 -0.12364963186E+02  0.25039976329E+02 -0.84257767271E+01  0.95830042122E+02  0.91282586130E+02 0.  0.
         11    1    3    3    0    0  0.64630698588E+01  0.57422963360E+02 -0.19698433904E+01  0.57819099580E+02  0.51100000000E-03 0. -1.
         22    1    1    0    0    0  0.12364963186E+02 -0.25039976329E+02  0.84257767271E+01  0.29169957878E+02  0.00000000000E+00 0. -1.
</event>
<event>
 5    1  0.8900327E-005  0.9118800E+02  0.7818608E-02  0.1130116E+00
         25   -1    0    0    0    0  0.00000000000E+00  0.00000000000E+00  0.99999998245E-14  0.12500000000E+03  0.12500000000E+03 0.  0.
        -11    1    3    3    0    0 -0.68402161686E+01  0.47130950661E+02  0.15908600479E+02  0.50211538882E+02  0.51100000000E-03 0.  1.
         23    2    1    0    0    0 -0.10795913861E+02 -0.14723940925E-01  0.24436162034E+02  0.98285247749E+02  0.94584945616E+02 0.  0.
         11    1    3    3    0    0 -0.39556976921E+01 -0.47145674602E+02  0.85275615557E+01  0.48073708867E+02  0.51100000000E-03 0. -1.
         22    1    1    0    0    0  0.10795913861E+02  0.14723940925E-01 -0.24436162034E+02  0.26714752251E+02  0.00000000000E+00 0.  1.
</event>
<event>
 5    1  0.8900327E-005  0.9118800E+02  0.7818608E-02  0.1130116E+00
         25   -1    0    0    0    0  0.00000000000E+00  0.00000000000E+00  0.99999998245E-14  0.12500000000E+03  0.12500000000E+03 0.  0.
        -11    1    3    3    0    0  0.36674766728E+02 -0.22954422240E+01  0.29554986869E+02  0.47157235061E+02  0.51100000000E-03 0. -1.
         23    2    1    0    0    0  0.20408326872E+02  0.10027110562E+02 -0.16082054356E+02  0.97149053440E+02  0.93071281070E+02 0.  0.
         11    1    3    3    0    0 -0.16266439855E+02  0.12322552786E+02 -0.45637041225E+02  0.49991818379E+02  0.51100000000E-03 0.  1.
         22    1    1    0    0    0 -0.20408326872E+02 -0.10027110562E+02  0.16082054356E+02  0.27850946560E+02  0.00000000000E+00 0. -1.
</event>
<event>
 5    1  0.8900327E-005  0.9118800E+02  0.7818608E-02  0.1130116E+00
         25   -1    0    0    0    0  0.00000000000E+00  0.00000000000E+00  0.99999998245E-14  0.12500000000E+03  0.12500000000E+03 0.  0.
        -11    1    3    3    0    0  0.31767606537E+02 -0.11073577836E+02  0.17377597045E+02  0.37865364524E+02  0.51100000000E-03 0. -1.
         23    2    1    0    0    0 -0.26069289235E+02 -0.86083487553E+01  0.68543543730E+01  0.96703468704E+02  0.92470899077E+02 0.  0.
         11    1    3    3    0    0 -0.57836895772E+02  0.24652290803E+01 -0.10523242672E+02  0.58838104181E+02  0.51100000000E-03 0.  1.
         22    1    1    0    0    0  0.26069289235E+02  0.86083487553E+01 -0.68543543730E+01  0.28296531296E+02  0.00000000000E+00 0.  1.
</event>
<event>
 5    1  0.8900327E-005  0.9118800E+02  0.7818608E-02  0.1130116E+00
         25   -1    0    0    0    0  0.00000000000E+00  0.00000000000E+00  0.99999998245E-14  0.12500000000E+03  0.12500000000E+03 0.  0.
        -11    1    3    3    0    0  0.15022247997E+02  0.48238969283E+02  0.17147839098E+02  0.53354610657E+02  0.51100000000E-03 0.  1.
         23    2    1    0    0    0 -0.10089096102E+02  0.25983294346E+02 -0.87990427160E+01  0.95770826253E+02  0.91201461410E+02 0.  0.
         11    1    3    3    0    0 -0.25111344099E+02 -0.22255674937E+02 -0.25946881814E+02  0.42416215596E+02  0.51100000000E-03 0. -1.
         22    1    1    0    0    0  0.10089096102E+02 -0.25983294346E+02  0.87990427160E+01  0.29229173747E+02  0.00000000000E+00 0.  1.
</event>
<event>
 5    1  0.8900327E-005  0.9118800E+02  0.7818608E-02  0.1130116E+00
         25   -1    0    0    0    0  0.00000000000E+00  0.00000000000E+00  0.99999998245E-14  0.12500000000E+03  0.12500000000E+03 0.  0.
        -11    1    3    3    0    0  0.30315809006E+02  0.18840316512E+02  0.12881906304E+02  0.37946664047E+02  0.51100000000E-03 0.  1.
         23    2    1    0    0    0 -0.26525873191E+02  0.76462161209E+01 -0.43372443888E+00  0.97390677546E+02  0.93395232140E+02 0.  0.
         11    1    3    3    0    0 -0.56841682197E+02 -0.11194100392E+02 -0.13315630743E+02  0.59444013499E+02  0.51100000000E-03 0. -1.
         22    1    1    0    0    0  0.26525873191E+02 -0.76462161209E+01  0.43372443888E+00  0.27609322454E+02  0.00000000000E+00 0. -1.
</event>
<event>
 5    1  0.8900327E-005  0.9118800E+02  0.7818608E-02  0.1130116E+00
         25   -1    0    0    0    0  0.00000000000E+00  0.00000000000E+00  0.99999998245E-14  0.12500000000E+03  0.12500000000E+03 0.  0.
        -11    1    3    3    0    0 -0.43003208815E+02  0.24169906178E+01  0.12214197130E+02  0.44769458606E+02  0.51100000000E-03 0.  1.
         23    2    1    0    0    0 -0.37266755976E+00  0.17794735697E+02  0.27193007787E+02  0.92499981967E+02  0.86602514351E+02 0.  0.
         11    1    3    3    0    0  0.42630541255E+02  0.15377745079E+02  0.14978810657E+02  0.47730523362E+02  0.51100000000E-03 0. -1.
         22    1    1    0    0    0  0.37266755976E+00 -0.17794735697E+02 -0.27193007787E+02  0.32500018033E+02  0.00000000000E+00 0. -1.
</event>
<event>
 5    1  0.8900327E-005  0.9118800E+02  0.7818608E-02  0.1130116E+00
         25   -1    0    0    0    0  0.00000000000E+00  0.00000000000E+00  0.99999998245E-14  0.12500000000E+03  0.12500000000E+03 0.  0.
        -11    1    3    3    0    0  0.26397178941E+02  0.16606296750E+02  0.15846406734E+02  0.34981262905E+02  0.51100000000E-03 0.  1.
         23    2    1    0    0    0 -0.14633369364E+02 -0.25551903664E+02  0.15962982211E+01  0.95511299658E+02  0.90845059935E+02 0.  0.
         11    1    3    3    0    0 -0.41030548306E+02 -0.42158200414E+02 -0.14250108513E+02  0.60530036753E+02  0.51100000000E-03 0. -1.
         22    1    1    0    0    0  0.14633369364E+02  0.25551903664E+02 -0.15962982211E+01  0.29488700342E+02  0.00000000000E+00 0. -1.
</event>
<event>
 5    1  0.8900327E-005  0.9118800E+02  0.7818608E-02  0.1130116E+00
         25   -1    0    0    0    0  0.00000000000E+00  0.00000000000E+00  0.99999998245E-14  0.12500000000E+03  0.12500000000E+03 0.  0.
        -11    1    3    3    0    0 -0.51909785492E+02 -0.27066654562E+02  0.92848271304E+01  0.59274257769E+02  0.51100000000E-03 0.  1.
         23    2    1    0    0    0 -0.21290159031E+02 -0.11753717454E+02  0.18168805494E+02  0.94643349351E+02  0.89642832049E+02 0.  0.
         11    1    3    3    0    0  0.30619626461E+02  0.15312937108E+02  0.88839783638E+01  0.35369091582E+02  0.51100000000E-03 0. -1.
         22    1    1    0    0    0  0.21290159031E+02  0.11753717454E+02 -0.18168805494E+02  0.30356650649E+02  0.00000000000E+00 0.  1.
</event>
<event>
 5    1  0.8900327E-005  0.9118800E+02  0.7818608E-02  0.1130116E+00
         25   -1    0    0    0    0  0.00000000000E+00  0.00000000000E+00  0.99999998245E-14  0.12500000000E+03  0.12500000000E+03 0.  0.
        -11    1    3    3    0    0 -0.36212696146E+02  0.37419253868E+02 -0.78912644741E+01  0.52667181218E+02  0.51100000000E-03 0. -1.
         23    2    1    0    0    0 -0.42412522098E+01  0.16712401425E+02 -0.25167097837E+02  0.94493027105E+02  0.89432973651E+02 0.  0.
         11    1    3    3    0    0  0.31971443936E+02 -0.20706852443E+02 -0.17275833363E+02  0.41825845886E+02  0.51100000000E-03 0.  1.
         22    1    1    0    0    0  0.42412522098E+01 -0.16712401425E+02  0.25167097837E+02  0.30506972895E+02  0.00000000000E+00 0. -1.
</event>
<event>
 5    1  0.8900327E-005  0.9118800E+02  0.7818608E-02  0.1130116E+00
         25   -1    0    0    0    0  0.00000000000E+00  0.00000000000E+00  0.99999998245E-14  0.12500000000E+03  0.12500000000E+03 0.  0.
        -11    1    3    3    0    0  0.25186588157E+02  0.33870053481E+02 -0.43651873856E+02  0.60720925860E+02  0.51100000000E-03 0. -1.
         23    2    1    0    0    0  0.70617329563E+01  0.12410557048E+02 -0.29614888371E+02  0.92122475583E+02  0.86055905641E+02 0.  0.
         11    1    3    3    0    0 -0.18124855201E+02 -0.21459496433E+02  0.14036985486E+02  0.31401549723E+02  0.51100000000E-03 0.  1.
         22    1    1    0    0    0 -0.70617329563E+01 -0.12410557048E+02  0.29614888371E+02  0.32877524417E+02  0.00000000000E+00 0. -1.
</event>
<event>
 5    1  0.8900327E-005  0.9118800E+02  0.7818608E-02  0.1130116E+00
         25   -1    0    0    0    0  0.00000000000E+00  0.00000000000E+00  0.99999998245E-14  0.12500000000E+03  0.12500000000E+03 0.  0.
        -11    1    3    3    0    0  0.15014310483E+02 -0.15540666492E+02 -0.32194652484E+02  0.38774185783E+02  0.51100000000E-03 0. -1.
         23    2    1    0    0    0  0.14013015406E+02  0.15080229541E+02  0.18049120474E+02  0.97622113419E+02  0.93704473504E+02 0.  0.
         11    1    3    3    0    0 -0.10012950770E+01  0.30620896033E+02  0.50243772958E+02  0.58847927636E+02  0.51100000000E-03 0.  1.
         22    1    1    0    0    0 -0.14013015406E+02 -0.15080229541E+02 -0.18049120474E+02  0.27377886581E+02  0.00000000000E+00 0.  1.
</event>
<event>
 5    1  0.8900327E-005  0.9118800E+02  0.7818608E-02  0.1130116E+00
         25   -1    0    0    0    0  0.00000000000E+00  0.00000000000E+00  0.99999998245E-14  0.12500000000E+03  0.12500000000E+03 0.  0.
        -11    1    3    3    0    0  0.32286413064E+00 -0.32872133180E+02  0.77061967165E+01  0.33764875968E+02  0.51100000000E-03 0.  1.
         23    2    1    0    0    0 -0.19479086456E+02  0.13440758754E+02  0.28236781602E+02  0.88157027261E+02  0.80089055527E+02 0.  0.
         11    1    3    3    0    0 -0.19801950586E+02  0.46312891933E+02  0.20530584886E+02  0.54392151293E+02  0.51100000000E-03 0. -1.
         22    1    1    0    0    0  0.19479086456E+02 -0.13440758754E+02 -0.28236781602E+02  0.36842972739E+02  0.00000000000E+00 0. -1.
</event>
<event>
 5    1  0.8900327E-005  0.9118800E+02  0.7818608E-02  0.1130116E+00
         25   -1    0    0    0    0  0.00000000000E+00  0.00000000000E+00  0.99999998245E-14  0.12500000000E+03  0.12500000000E+03 0.  0.
        -11    1    3    3    0    0 -0.42912835515E+02 -0.27667905879E+02  0.20256578578E+01  0.51099195274E+02  0.51100000000E-03 0. -1.
         23    2    1    0    0    0 -0.16278129068E+01 -0.23763563747E+02  0.17586544335E+02  0.95391837637E+02  0.90680534898E+02 0.  0.
         11    1    3    3    0    0  0.41285022609E+02  0.39043421313E+01  0.15560886477E+02  0.44292642363E+02  0.51100000000E-03 0.  1.
         22    1    1    0    0    0  0.16278129068E+01  0.23763563747E+02 -0.17586544335E+02  0.29608162363E+02  0.00000000000E+00 0. -1.
</event>
<event>
 5    1  0.8900327E-005  0.9118800E+02  0.7818608E-02  0.1130116E+00
         25   -1    0    0    0    0  0.00000000000E+00  0.00000000000E+00  0.99999998245E-14  0.12500000000E+03  0.12500000000E+03 0.  0.
        -11    1    3    3    0    0 -0.29506464779E+02 -0.18707353399E+02  0.34141039137E+02  0.48848818702E+02  0.51100000000E-03 0.  1.
         23    2    1    0    0    0 -0.28093438216E+02 -0.22495809424E+00 -0.87505413542E+01  0.95574435419E+02  0.90931891296E+02 0.  0.
         11    1    3    3    0    0  0.14130265633E+01  0.18482395304E+02 -0.42891580492E+02  0.46725616717E+02  0.51100000000E-03 0. -1.
         22    1    1    0    0    0  0.28093438216E+02  0.22495809424E+00  0.87505413542E+01  0.29425564581E+02  0.00000000000E+00 0.  1.
</event>
<event>
 5    1  0.8900327E-005  0.9118800E+02  0.7818608E-02  0.1130116E+00
         25   -1    0    0    0    0  0.00000000000E+00  0.00000000000E+00  0.99999998245E-14  0.12500000000E+03  0.12500000000E+03 0.  0.
        -11    1    3    3    0    0 -0.10841737223E+02  0.15975122718E+02  0.32445752016E+02  0.37755458361E+02  0.51100000000E-03 0.  1.
         23    2    1    0    0    0  0.20798268668E+02  0.69230234312E+01 -0.17075023735E+02  0.97214164246E+02  0.93158687525E+02 0.  0.
         11    1    3    3    0    0  0.31640005891E+02 -0.90520992865E+01 -0.49520775751E+02  0.59458705885E+02  0.51100000000E-03 0. -1.
         22    1    1    0    0    0 -0.20798268668E+02 -0.69230234312E+01  0.17075023735E+02  0.27785835754E+02  0.00000000000E+00 0. -1.
</event>
<event>
 5    1  0.8900327E-005  0.9118800E+02  0.7818608E-02  0.1130116E+00
         25   -1    0    0    0    0  0.00000000000E+00  0.00000000000E+00  0.99999998245E-14  0.12500000000E+03  0.12500000000E+03 0.  0.
        -11    1    3    3    0    0 -0.10222183929E+02 -0.23791926957E+02  0.23051109689E+02  0.34668465365E+02  0.51100000000E-03 0.  1.
         23    2    1    0    0    0  0.19279979405E+02  0.70136162650E+01 -0.20759261574E+02  0.95813438707E+02  0.91259847013E+02 0.  0.
         11    1    3    3    0    0  0.29502163334E+02  0.30805543222E+02 -0.43810371263E+02  0.61144973343E+02  0.51100000000E-03 0. -1.
         22    1    1    0    0    0 -0.19279979405E+02 -0.70136162650E+01  0.20759261574E+02  0.29186561293E+02  0.00000000000E+00 0. -1.
</event>
<event>
 5    1  0.8900327E-005  0.9118800E+02  0.7818608E-02  0.1130116E+00
         25   -1    0    0    0    0  0.00000000000E+00  0.00000000000E+00  0.99999998245E-14  0.12500000000E+03  0.12500000000E+03 0.  0.
        -11    1    3    3    0    0  0.27158947055E+02  0.98291960223E+01  0.38059544441E+02  0.47778137499E+02  0.51100000000E-03 0.  1.
         23    2    1    0    0    0  0.76060343590E+01  0.23822812176E+02 -0.71555028223E+01  0.98988860861E+02  0.95510288531E+02 0.  0.
         11    1    3    3    0    0 -0.19552912696E+02  0.13993616154E+02 -0.45215047264E+02  0.51210723362E+02  0.51100000000E-03 0. -1.
         22    1    1    0    0    0 -0.76060343590E+01 -0.23822812176E+02  0.71555028223E+01  0.26011139139E+02  0.00000000000E+00 0. -1.
</event>
<event>
 5    1  0.8900327E-005  0.9118800E+02  0.7818608E-02  0.1130116E+00
         25   -1    0    0    0    0  0.00000000000E+00  0.00000000000E+00  0.99999998245E-14  0.12500000000E+03  0.12500000000E+03 0.  0.
        -11    1    3    3    0    0 -0.22285554986E+02  0.30582809242E+02  0.90895702918E+01  0.38917534230E+02  0.51100000000E-03 0.  1.
         23    2    1    0    0    0 -0.17392107247E+02 -0.24181125462E+02 -0.25044940116E+01  0.95108785349E+02  0.90289513993E+02 0.  0.
         11    1    3    3    0    0  0.48934477387E+01 -0.54763934704E+02 -0.11594064303E+02  0.56191251119E+02  0.51100000000E-03 0. -1.
         22    1    1    0    0    0  0.17392107247E+02  0.24181125462E+02  0.25044940116E+01  0.29891214651E+02  0.00000000000E+00 0. -1.
</event>
<event>
 5    1  0.8900327E-005  0.9118800E+02  0.7818608E-02  0.1130116E+00
         25   -1    0    0    0    0  0.00000000000E+00  0.00000000000E+00  0.99999998245E-14  0.12500000000E+03  0.12500000000E+03 0.  0.
        -11    1    3    3    0    0 -0.89098504157E+01 -0.28998719224E+02 -0.15006367159E+02  0.33845268601E+02  0.51100000000E-03 0.  1.
         23    2    1    0    0    0  0.10228250468E+02  0.27480808938E+02  0.12354896942E+01  0.95651432704E+02  0.91037674487E+02 0.  0.
         11    1    3    3    0    0  0.19138100883E+02  0.56479528163E+02  0.16241856853E+02  0.61806164104E+02  0.51100000000E-03 0. -1.
         22    1    1    0    0    0 -0.10228250468E+02 -0.27480808938E+02 -0.12354896942E+01  0.29348567296E+02  0.00000000000E+00 0. -1.
</event>
<event>
 5    1  0.8900327E-005  0.9118800E+02  0.7818608E-02  0.1130116E+00
         25   -1    0    0    0    0  0.00000000000E+00  0.00000000000E+00  0.99999998245E-14  0.12500000000E+03  0.12500000000E+03 0.  0.
        -11    1    3    3    0    0 -0.26183273577E+02 -0.44246536667E+02 -0.17255165439E+02  0.54231545772E+02  0.51100000000E-03 0.  1.
         23    2    1    0    0    0 -0.13278027131E+02 -0.28652251891E+01 -0.23331511582E+02  0.98002315793E+02  0.94210291095E+02 0.  0.
         11    1    3    3    0    0  0.12905246446E+02  0.41381311478E+02 -0.60763461425E+01  0.43770770020E+02  0.51100000000E-03 0. -1.
         22    1    1    0    0    0  0.13278027131E+02  0.28652251891E+01  0.23331511582E+02  0.26997684207E+02  0.00000000000E+00 0.  1.
</event>
<event>
 5    1  0.8900327E-005  0.9118800E+02  0.7818608E-02  0.1130116E+00
         25   -1    0    0    0    0  0.00000000000E+00  0.00000000000E+00  0.99999998245E-14  0.12500000000E+03  0.12500000000E+03 0.  0.
        -11    1    3    3    0    0  0.30823644175E+02  0.15437817067E+02 -0.50477305321E+01  0.34841108188E+02  0.51100000000E-03 0. -1.
         23    2    1    0    0    0 -0.15974381292E+02 -0.16469986239E+02 -0.21222109317E+02  0.93745892618E+02  0.88382538742E+02 0.  0.
         11    1    3    3    0    0 -0.46798025467E+02 -0.31907803305E+02 -0.16174378785E+02  0.58904784430E+02  0.51100000000E-03 0.  1.
         22    1    1    0    0    0  0.15974381292E+02  0.16469986239E+02  0.21222109317E+02  0.31254107382E+02  0.00000000000E+00 0.  1.
</event>
<event>
 5    1  0.8900327E-005  0.9118800E+02  0.7818608E-02  0.1130116E+00
         25   -1    0    0    0    0  0.00000000000E+00  0.00000000000E+00  0.99999998245E-14  0.12500000000E+03  0.12500000000E+03 0.  0.
        -11    1    3    3    0    0  0.26951523795E+02  0.29442475803E+02  0.43798647499E+00  0.39917863780E+02  0.51100000000E-03 0. -1.
         23    2    1    0    0    0 -0.41359473844E+01 -0.67608132282E+01 -0.28292478632E+02  0.95618390048E+02  0.90992293695E+02 0.  0.
         11    1    3    3    0    0 -0.31087471180E+02 -0.36203289031E+02 -0.28730465107E+02  0.55700526268E+02  0.51100000000E-03 0.  1.
         22    1    1    0    0    0  0.41359473844E+01  0.67608132282E+01  0.28292478632E+02  0.29381609952E+02  0.00000000000E+00 0.  1.
</event>
<event>
 5    1  0.8900327E-005  0.9118800E+02  0.7818608E-02  0.1130116E+00
         25   -1    0    0    0    0  0.00000000000E+00  0.00000000000E+00  0.99999998245E-14  0.12500000000E+03  0.12500000000E+03 0.  0.
        -11    1    3    3    0    0  0.29865621780E+02  0.40838932002E+02 -0.15282540440E+02  0.52851960928E+02  0.51100000000E-03 0.  1.
         23    2    1    0    0    0  0.23995483416E+02 -0.26672730876E+01 -0.14655247094E+02  0.96756879820E+02  0.92543070810E+02 0.  0.
         11    1    3    3    0    0 -0.58701383636E+01 -0.43506205090E+02  0.62729334584E+00  0.43904918892E+02  0.51100000000E-03 0. -1.
         22    1    1    0    0    0 -0.23995483416E+02  0.26672730876E+01  0.14655247094E+02  0.28243120180E+02  0.00000000000E+00 0.  1.
</event>
<event>
 5    1  0.8900327E-005  0.9118800E+02  0.7818608E-02  0.1130116E+00
         25   -1    0    0    0    0  0.00000000000E+00  0.00000000000E+00  0.99999998245E-14  0.12500000000E+03  0.12500000000E+03 0.  0.
        -11    1    3    3    0    0  0.41623340591E+02 -0.62053975605E+01 -0.18057573591E+02  0.45793945071E+02  0.51100000000E-03 0. -1.
         23    2    1    0    0    0  0.96009498270E+01  0.27633016291E+02 -0.35556394161E-01  0.95746571292E+02  0.91168211691E+02 0.  0.
         11    1    3    3    0    0 -0.32022390764E+02  0.33838413852E+02  0.18022017197E+02  0.49952626221E+02  0.51100000000E-03 0.  1.
         22    1    1    0    0    0 -0.96009498270E+01 -0.27633016291E+02  0.35556394161E-01  0.29253428708E+02  0.00000000000E+00 0.  1.
</event>
<event>
 5    1  0.8900327E-005  0.9118800E+02  0.7818608E-02  0.1130116E+00
         25   -1    0    0    0    0  0.00000000000E+00  0.00000000000E+00  0.99999998245E-14  0.12500000000E+03  0.12500000000E+03 0.  0.
        -11    1    3    3    0    0 -0.31158661062E+02  0.90769579407E+01  0.20031582999E+02  0.38138138947E+02  0.51100000000E-03 0. -1.
         23    2    1    0    0    0  0.96136662542E+01  0.34936963109E+02  0.82092332947E+01  0.87846191562E+02  0.79602436461E+02 0.  0.
         11    1    3    3    0    0  0.40772327316E+02  0.25860005169E+02 -0.11822349704E+02  0.49708052616E+02  0.51100000000E-03 0.  1.
         22    1    1    0    0    0 -0.96136662542E+01 -0.34936963109E+02 -0.82092332947E+01  0.37153808438E+02  0.00000000000E+00 0.  1.
</event>
<event>
 5    1  0.8900327E-005  0.9118800E+02  0.7818608E-02  0.1130116E+00
         25   -1    0    0    0    0  0.00000000000E+00  0.00000000000E+00  0.99999998245E-14  0.12500000000E+03  0.12500000000E+03 0.  0.
        -11    1    3    3    0    0 -0.57834456387E+02 -0.33390395929E+01  0.18052033020E+02  0.60678245092E+02  0.51100000000E-03 0.  1.
         23    2    1    0    0    0 -0.29042623607E+02 -0.41507412757E+01 -0.17153631601E+01  0.95612160510E+02  0.90983735510E+02 0.  0.
         11    1    3    3    0    0  0.28791832779E+02 -0.81170168276E+00 -0.19767396180E+02  0.34933915418E+02  0.51100000000E-03 0. -1.
         22    1    1    0    0    0  0.29042623607E+02  0.41507412757E+01  0.17153631601E+01  0.29387839490E+02  0.00000000000E+00 0.  1.
</event>
<event>
 5    1  0.8900327E-005  0.9118800E+02  0.7818608E-02  0.1130116E+00
         25   -1    0    0    0    0  0.00000000000E+00  0.00000000000E+00  0.99999998245E-14  0.12500000000E+03  0.12500000000E+03 0.  0.
        -11    1    3    3    0    0 -0.13529740125E+02  0.38374597795E+02 -0.45805843757E+02  0.61268580417E+02  0.51100000000E-03 0.  1.
         23    2    1    0    0    0 -0.83578742636E+01  0.23718239110E+02 -0.15144266063E+02  0.95644289767E+02  0.91027866292E+02 0.  0.
         11    1    3    3    0    0  0.51718658614E+01 -0.14656358685E+02  0.30661577694E+02  0.34375709350E+02  0.51100000000E-03 0. -1.
         22    1    1    0    0    0  0.83578742636E+01 -0.23718239110E+02  0.15144266063E+02  0.29355710233E+02  0.00000000000E+00 0.  1.
</event>
<event>
 5    1  0.8900327E-005  0.9118800E+02  0.7818608E-02  0.1130116E+00
         25   -1    0    0    0    0  0.00000000000E+00  0.00000000000E+00  0.99999998245E-14  0.12500000000E+03  0.12500000000E+03 0.  0.
        -11    1    3    3    0    0 -0.14095238191E+02 -0.29142470078E+02 -0.36880070144E+02  0.49072384046E+02  0.51100000000E-03 0. -1.
         23    2    1    0    0    0 -0.57972394585E+01 -0.26526643480E+02  0.94785676286E+01  0.96240409531E+02  0.91842813452E+02 0.  0.
         11    1    3    3    0    0  0.82979987325E+01  0.26158265978E+01  0.46358637772E+02  0.47168025485E+02  0.51100000000E-03 0.  1.
         22    1    1    0    0    0  0.57972394585E+01  0.26526643480E+02 -0.94785676286E+01  0.28759590469E+02  0.00000000000E+00 0. -1.
</event>
<event>
 5    1  0.8900327E-005  0.9118800E+02  0.7818608E-02  0.1130116E+00
         25   -1    0    0    0    0  0.00000000000E+00  0.00000000000E+00  0.99999998245E-14  0.12500000000E+03  0.12500000000E+03 0.  0.
        -11    1    3    3    0    0 -0.17802809306E+02 -0.39546723048E+02  0.10202662073E+02  0.44553087846E+02  0.51100000000E-03 0.  1.
         23    2    1    0    0    0  0.25429511609E+02 -0.12130890273E+02  0.76312579006E+01  0.95810024724E+02  0.91255170708E+02 0.  0.
         11    1    3    3    0    0  0.43232320915E+02  0.27415832775E+02 -0.25714041722E+01  0.51256936878E+02  0.51100000000E-03 0. -1.
         22    1    1    0    0    0 -0.25429511609E+02  0.12130890273E+02 -0.76312579006E+01  0.29189975276E+02  0.00000000000E+00 0. -1.
</event>
<event>
 5    1  0.8900327E-005  0.9118800E+02  0.7818608E-02  0.1130116E+00
         25   -1    0    0    0    0  0.00000000000E+00  0.00000000000E+00  0.99999998245E-14  0.12500000000E+03  0.12500000000E+03 0.  0.
        -11    1    3    3    0    0 -0.53868798990E+02  0.98645232791E+00 -0.25450528816E+01  0.53937907702E+02  0.51100000000E-03 0. -1.
         23    2    1    0    0    0 -0.21581031984E+02 -0.21814689834E+02  0.41725057021E+01  0.94031767279E+02  0.88785932555E+02 0.  0.
         11    1    3    3    0    0  0.32287767007E+02 -0.22801142162E+02  0.67175585837E+01  0.40093859577E+02  0.51100000000E-03 0.  1.
         22    1    1    0    0    0  0.21581031984E+02  0.21814689834E+02 -0.41725057021E+01  0.30968232721E+02  0.00000000000E+00 0. -1.
</event>
<event>
 5    1  0.8900327E-005  0.9118800E+02  0.7818608E-02  0.1130116E+00
         25   -1    0    0    0    0  0.00000000000E+00  0.00000000000E+00  0.99999998245E-14  0.12500000000E+03  0.12500000000E+03 0.  0.
        -11    1    3    3    0    0  0.19619731149E+02 -0.88051199572E+01 -0.93365517727E+01  0.23444299671E+02  0.51100000000E-03 0.  1.
         23    2    1    0    0    0 -0.37578280496E+02  0.38815645658E+01 -0.18817647135E+02  0.82794579113E+02  0.71229521817E+02 0.  0.
         11    1    3    3    0    0 -0.57198011645E+02  0.12686684523E+02 -0.94810953619E+01  0.59350279442E+02  0.51100000000E-03 0. -1.
         22    1    1    0    0    0  0.37578280496E+02 -0.38815645658E+01  0.18817647135E+02  0.42205420887E+02  0.00000000000E+00 0. -1.
</event>
<event>
 5    1  0.8900327E-005  0.9118800E+02  0.7818608E-02  0.1130116E+00
         25   -1    0    0    0    0  0.00000000000E+00  0.00000000000E+00  0.99999998245E-14  0.12500000000E+03  0.12500000000E+03 0.  0.
        -11    1    3    3    0    0  0.61592797439E+01 -0.71978087865E+01  0.34879836620E+02  0.36143438979E+02  0.51100000000E-03 0.  1.
         23    2    1    0    0    0 -0.49118163448E+01  0.13228800539E+02 -0.22720989987E+02  0.98253589222E+02  0.94543097609E+02 0.  0.
         11    1    3    3    0    0 -0.11071096089E+02  0.20426609326E+02 -0.57600826607E+02  0.62110150243E+02  0.51100000000E-03 0. -1.
         22    1    1    0    0    0  0.49118163448E+01 -0.13228800539E+02  0.22720989987E+02  0.26746410778E+02  0.00000000000E+00 0. -1.
</event>
<event>
 5    1  0.8900327E-005  0.9118800E+02  0.7818608E-02  0.1130116E+00
         25   -1    0    0    0    0  0.00000000000E+00  0.00000000000E+00  0.99999998245E-14  0.12500000000E+03  0.12500000000E+03 0.  0.
        -11    1    3    3    0    0 -0.18934607487E+02  0.27027897066E+02  0.13878102886E+02  0.35799836878E+02  0.51100000000E-03 0. -1.
         23    2    1    0    0    0 -0.18911390341E+02 -0.26301710243E+02 -0.46857725835E+01  0.92268102545E+02  0.86267175891E+02 0.  0.
         11    1    3    3    0    0  0.23217145892E-01 -0.53329607309E+02 -0.18563875469E+02  0.56468265667E+02  0.51100000000E-03 0.  1.
         22    1    1    0    0    0  0.18911390341E+02  0.26301710243E+02  0.46857725835E+01  0.32731897455E+02  0.00000000000E+00 0.  1.
</event>
<event>
 5    1  0.8900327E-005  0.9118800E+02  0.7818608E-02  0.1130116E+00
         25   -1    0    0    0    0  0.00000000000E+00  0.00000000000E+00  0.99999998245E-14  0.12500000000E+03  0.12500000000E+03 0.  0.
        -11    1    3    3    0    0  0.12273911744E+01  0.37438181382E+02 -0.31328256566E+02  0.48832198128E+02  0.51100000000E-03 0.  1.
         23    2    1    0    0    0  0.26356899054E+02  0.39004518484E+01 -0.63840811401E+01  0.97601895242E+02  0.93677498955E+02 0.  0.
         11    1    3    3    0    0  0.25129507879E+02 -0.33537729534E+02  0.24944175426E+02  0.48769697113E+02  0.51100000000E-03 0. -1.
         22    1    1    0    0    0 -0.26356899054E+02 -0.39004518484E+01  0.63840811401E+01  0.27398104758E+02  0.00000000000E+00 0.  1.
</event>
<event>
 5    1  0.8900327E-005  0.9118800E+02  0.7818608E-02  0.1130116E+00
         25   -1    0    0    0    0  0.00000000000E+00  0.00000000000E+00  0.99999998245E-14  0.12500000000E+03  0.12500000000E+03 0.  0.
        -11    1    3    3    0    0  0.39199001534E+02 -0.33999948401E+02 -0.25004807584E+00  0.51890468651E+02  0.51100000000E-03 0. -1.
         23    2    1    0    0    0  0.22625177732E+01 -0.22750363330E+02  0.19218702209E+02  0.95132684538E+02  0.90322594817E+02 0.  0.
         11    1    3    3    0    0 -0.36936483761E+02  0.11249585072E+02  0.19468750284E+02  0.43242215887E+02  0.51100000000E-03 0.  1.
         22    1    1    0    0    0 -0.22625177732E+01  0.22750363330E+02 -0.19218702209E+02  0.29867315462E+02  0.00000000000E+00 0. -1.
</event>
<event>
 5    1  0.8900327E-005  0.9118800E+02  0.7818608E-02  0.1130116E+00
         25   -1    0    0    0    0  0.00000000000E+00  0.00000000000E+00  0.99999998245E-14  0.12500000000E+03  0.12500000000E+03 0.  0.
        -11    1    3    3    0    0  0.25874285974E+02  0.53086477608E+02 -0.54963296043E+01  0.59311570699E+02  0.51100000000E-03 0.  1.
         23    2    1    0    0    0  0.47816283096E+01  0.30023351968E+02  0.83157705856E+01  0.93481470956E+02  0.88007770901E+02 0.  0.
         11    1    3    3    0    0 -0.21092657664E+02 -0.23063125640E+02  0.13812100190E+02  0.34169900256E+02  0.51100000000E-03 0. -1.
         22    1    1    0    0    0 -0.47816283096E+01 -0.30023351968E+02 -0.83157705856E+01  0.31518529044E+02  0.00000000000E+00 0.  1.
</event>
<event>
 5    1  0.8900327E-005  0.9118800E+02  0.7818608E-02  0.1130116E+00
         25   -1    0    0    0    0  0.00000000000E+00  0.00000000000E+00  0.99999998245E-14  0.12500000000E+03  0.12500000000E+03 0.  0.
        -11    1    3    3    0    0 -0.68687225399E+01  0.13853945340E+02  0.35318067574E+02  0.38554857648E+02  0.51100000000E-03 0. -1.
         23    2    1    0    0    0  0.25872232796E+02 -0.36547776212E+01 -0.98958373172E+01  0.97059752586E+02  0.92951267590E+02 0.  0.
         11    1    3    3    0    0  0.32740955336E+02 -0.17508722962E+02 -0.45213904891E+02  0.58504894939E+02  0.51100000000E-03 0.  1.
         22    1    1    0    0    0 -0.25872232796E+02  0.36547776212E+01  0.98958373172E+01  0.27940247414E+02  0.00000000000E+00 0.  1.
</event>
<event>
 5    1  0.8900327E-005  0.9118800E+02  0.7818608E-02  0.1130116E+00
         25   -1    0    0    0    0  0.00000000000E+00  0.00000000000E+00  0.99999998245E-14  0.12500000000E+03  0.12500000000E+03 0.  0.
        -11    1    3    3    0    0 -0.12940260666E+02  0.57506787352E+02 -0.60919169335E+01  0.59258690416E+02  0.51100000000E-03 0.  1.
         23    2    1    0    0    0  0.72091247595E+01  0.27978902731E+02 -0.78830095153E+01  0.95051171695E+02  0.90209716349E+02 0.  0.
         11    1    3    3    0    0  0.20149385426E+02 -0.29527884621E+02 -0.17910925818E+01  0.35792481279E+02  0.51100000000E-03 0. -1.
         22    1    1    0    0    0 -0.72091247595E+01 -0.27978902731E+02  0.78830095153E+01  0.29948828305E+02  0.00000000000E+00 0.  1.
</event>
<event>
 5    1  0.8900327E-005  0.9118800E+02  0.7818608E-02  0.1130116E+00
         25   -1    0    0    0    0  0.00000000000E+00  0.00000000000E+00  0.99999998245E-14  0.12500000000E+03  0.12500000000E+03 0.  0.
        -11    1    3    3    0    0 -0.11519554004E+02  0.44210027298E+02  0.44998700370E+01  0.45907248542E+02  0.51100000000E-03 0.  1.
         23    2    1    0    0    0  0.60778344752E+01  0.48682637007E+01  0.28650114406E+02  0.95310454385E+02  0.90568281403E+02 0.  0.
         11    1    3    3    0    0  0.17597388480E+02 -0.39341763597E+02  0.24150244369E+02  0.49403205843E+02  0.51100000000E-03 0. -1.
         22    1    1    0    0    0 -0.60778344752E+01 -0.48682637007E+01 -0.28650114406E+02  0.29689545615E+02  0.00000000000E+00 0. -1.
</event>
<event>
 5    1  0.8900327E-005  0.9118800E+02  0.7818608E-02  0.1130116E+00
         25   -1    0    0    0    0  0.00000000000E+00  0.00000000000E+00  0.99999998245E-14  0.12500000000E+03  0.12500000000E+03 0.  0.
        -11    1    3    3    0    0  0.15633967606E+02 -0.24788077438E+02 -0.24124692906E+02  0.37958800485E+02  0.51100000000E-03 0. -1.
         23    2    1    0    0    0  0.18521071496E+02  0.11782273095E+02  0.19974362160E+02  0.95321267003E+02  0.90583203469E+02 0.  0.
         11    1    3    3    0    0  0.28871038900E+01  0.36570350533E+02  0.44099055066E+02  0.57362466517E+02  0.51100000000E-03 0.  1.
         22    1    1    0    0    0 -0.18521071496E+02 -0.11782273095E+02 -0.19974362160E+02  0.29678732997E+02  0.00000000000E+00 0.  1.
</event>
<event>
 5    1  0.8900327E-005  0.9118800E+02  0.7818608E-02  0.1130116E+00
         25   -1    0    0    0    0  0.00000000000E+00  0.00000000000E+00  0.99999998245E-14  0.12500000000E+03  0.12500000000E+03 0.  0.
        -11    1    3    3    0    0 -0.37045167745E+02 -0.14660313909E+02 -0.52396559043E+01  0.40183619193E+02  0.51100000000E-03 0.  1.
         23    2    1    0    0    0 -0.42584303446E+00 -0.51587755601E+01  0.31593937203E+02  0.92984828978E+02  0.87299526027E+02 0.  0.
         11    1    3    3    0    0  0.36619324711E+02  0.95015383490E+01  0.36833593107E+02  0.52801209785E+02  0.51100000000E-03 0. -1.
         22    1    1    0    0    0  0.42584303446E+00  0.51587755601E+01 -0.31593937203E+02  0.32015171022E+02  0.00000000000E+00 0.  1.
</event>
<event>
 5    1  0.8900327E-005  0.9118800E+02  0.7818608E-02  0.1130116E+00
         25   -1    0    0    0    0  0.00000000000E+00  0.00000000000E+00  0.99999998245E-14  0.12500000000E+03  0.12500000000E+03 0.  0.
        -11    1    3    3    0    0  0.27428750490E+01  0.35246750774E+02  0.18855497988E+01  0.35403560583E+02  0.51100000000E-03 0.  1.
         23    2    1    0    0    0 -0.17586775820E+02 -0.22255527467E+02 -0.23276524365E+01  0.96539129450E+02  0.92248481627E+02 0.  0.
         11    1    3    3    0    0 -0.20329650869E+02 -0.57502278241E+02 -0.42132022353E+01  0.61135568867E+02  0.51100000000E-03 0. -1.
         22    1    1    0    0    0  0.17586775820E+02  0.22255527467E+02  0.23276524365E+01  0.28460870550E+02  0.00000000000E+00 0. -1.
</event>
<event>
 5    1  0.8900327E-005  0.9118800E+02  0.7818608E-02  0.1130116E+00
         25   -1    0    0    0    0  0.00000000000E+00  0.00000000000E+00  0.99999998245E-14  0.12500000000E+03  0.12500000000E+03 0.  0.
        -11    1    3    3    0    0 -0.12875209600E+02  0.25920900549E+02  0.19561441458E+00  0.28943088514E+02  0.51100000000E-03 0.  1.
         23    2    1    0    0    0 -0.65316271074E+01 -0.33312425248E+02 -0.10497531135E+02  0.89467226557E+02  0.82108505280E+02 0.  0.
         11    1    3    3    0    0  0.63435824924E+01 -0.59233325797E+02 -0.10693145550E+02  0.60524138043E+02  0.51100000000E-03 0. -1.
         22    1    1    0    0    0  0.65316271074E+01  0.33312425248E+02  0.10497531135E+02  0.35532773443E+02  0.00000000000E+00 0. -1.
</event>
<event>
 5    1  0.8900327E-005  0.9118800E+02  0.7818608E-02  0.1130116E+00
         25   -1    0    0    0    0  0.00000000000E+00  0.00000000000E+00  0.99999998245E-14  0.12500000000E+03  0.12500000000E+03 0.  0.
        -11    1    3    3    0    0 -0.55308350432E+02  0.19346956093E+02  0.20339154707E+02  0.62024185218E+02  0.51100000000E-03 0.  1.
         23    2    1    0    0    0 -0.22980575942E+02  0.12993548100E+02  0.11950225710E+02  0.96021610511E+02  0.91544539038E+02 0.  0.
         11    1    3    3    0    0  0.32327774489E+02 -0.63534079927E+01 -0.83889289966E+01  0.33997425293E+02  0.51100000000E-03 0. -1.
         22    1    1    0    0    0  0.22980575942E+02 -0.12993548100E+02 -0.11950225710E+02  0.28978389489E+02  0.00000000000E+00 0.  1.
</event>
<event>
 5    1  0.8900327E-005  0.9118800E+02  0.7818608E-02  0.1130116E+00
         25   -1    0    0    0    0  0.00000000000E+00  0.00000000000E+00  0.99999998245E-14  0.12500000000E+03  0.12500000000E+03 0.  0.
        -11    1    3    3    0    0 -0.62403236111E+01 -0.25804201454E+02 -0.32120204590E+02  0.41671404999E+02  0.51100000000E-03 0. -1.
         23    2    1    0    0    0  0.25217457391E+02  0.11775628894E+02 -0.10205763818E+02  0.95356396842E+02  0.90631667812E+02 0.  0.
         11    1    3    3    0    0  0.31457781002E+02  0.37579830348E+02  0.21914440772E+02  0.53684991843E+02  0.51100000000E-03 0.  1.
         22    1    1    0    0    0 -0.25217457391E+02 -0.11775628894E+02  0.10205763818E+02  0.29643603158E+02  0.00000000000E+00 0.  1.
</event>
<event>
 5    1  0.8900327E-005  0.9118800E+02  0.7818608E-02  0.1130116E+00
         25   -1    0    0    0    0  0.00000000000E+00  0.00000000000E+00  0.99999998245E-14  0.12500000000E+03  0.12500000000E+03 0.  0.
        -11    1    3    3    0    0  0.47808640938E+02 -0.27238592082E+02 -0.23882197412E+02  0.59983050943E+02  0.51100000000E-03 0. -1.
         23    2    1    0    0    0  0.29626693277E+02 -0.24481513808E+01 -0.11563398559E+02  0.93102561451E+02  0.87467939057E+02 0.  0.
         11    1    3    3    0    0 -0.18181947661E+02  0.24790440701E+02  0.12318798853E+02  0.33119510509E+02  0.51100000000E-03 0.  1.
         22    1    1    0    0    0 -0.29626693277E+02  0.24481513808E+01  0.11563398559E+02  0.31897438549E+02  0.00000000000E+00 0. -1.
</event>
<event>
 5    1  0.8900327E-005  0.9118800E+02  0.7818608E-02  0.1130116E+00
         25   -1    0    0    0    0  0.00000000000E+00  0.00000000000E+00  0.99999998245E-14  0.12500000000E+03  0.12500000000E+03 0.  0.
        -11    1    3    3    0    0 -0.20190403118E+01 -0.30441006466E+02 -0.18424327695E+02  0.35639686442E+02  0.51100000000E-03 0. -1.
         23    2    1    0    0    0  0.54733073391E+01  0.25944974723E+02  0.64319678533E+01  0.97715040461E+02  0.93828354537E+02 0.  0.
         11    1    3    3    0    0  0.74923476510E+01  0.56385981188E+02  0.24856295548E+02  0.62075354019E+02  0.51100000000E-03 0.  1.
         22    1    1    0    0    0 -0.54733073391E+01 -0.25944974723E+02 -0.64319678533E+01  0.27284959539E+02  0.00000000000E+00 0.  1.
</event>
<event>
 5    1  0.8900327E-005  0.9118800E+02  0.7818608E-02  0.1130116E+00
         25   -1    0    0    0    0  0.00000000000E+00  0.00000000000E+00  0.99999998245E-14  0.12500000000E+03  0.12500000000E+03 0.  0.
        -11    1    3    3    0    0 -0.56461164779E+02  0.10854456245E+02 -0.86068495250E+01  0.58135705101E+02  0.51100000000E-03 0.  1.
         23    2    1    0    0    0 -0.24803800991E+02  0.14412591807E+02  0.95026054402E+01  0.94779959359E+02  0.89833122176E+02 0.  0.
         11    1    3    3    0    0  0.31657363789E+02  0.35581355616E+01  0.18109454965E+02  0.36644254258E+02  0.51100000000E-03 0. -1.
         22    1    1    0    0    0  0.24803800991E+02 -0.14412591807E+02 -0.95026054402E+01  0.30220040641E+02  0.00000000000E+00 0.  1.
</event>
<event>
 5    1  0.8900327E-005  0.9118800E+02  0.7818608E-02  0.1130116E+00
         25   -1    0    0    0    0  0.00000000000E+00  0.00000000000E+00  0.99999998245E-14  0.12500000000E+03  0.12500000000E+03 0.  0.
        -11    1    3    3    0    0  0.57515674914E+02  0.27576003457E+01 -0.22500208304E+02  0.61821651502E+02  0.51100000000E-03 0.  1.
         23    2    1    0    0    0  0.31346614551E+02  0.25284742820E+01 -0.53787278075E+01  0.93094919859E+02  0.87457017813E+02 0.  0.
         11    1    3    3    0    0 -0.26169060363E+02 -0.22912606368E+00  0.17121480496E+02  0.31273268357E+02  0.51100000000E-03 0. -1.
         22    1    1    0    0    0 -0.31346614551E+02 -0.25284742820E+01  0.53787278075E+01  0.31905080141E+02  0.00000000000E+00 0.  1.
</event>
<event>
 5    1  0.8900327E-005  0.9118800E+02  0.7818608E-02  0.1130116E+00
         25   -1    0    0    0    0  0.00000000000E+00  0.00000000000E+00  0.99999998245E-14  0.12500000000E+03  0.12500000000E+03 0.  0.
        -11    1    3    3    0    0 -0.47447893257E+02  0.75590377668E+01  0.28749514384E+01  0.48132182296E+02  0.51100000000E-03 0. -1.
         23    2    1    0    0    0 -0.46268895544E+01  0.19966453384E+02  0.20443927730E+02  0.96051398156E+02  0.91585203712E+02 0.  0.
         11    1    3    3    0    0  0.42821003703E+02  0.12407415617E+02  0.17568976292E+02  0.47919215860E+02  0.51100000000E-03 0.  1.
         22    1    1    0    0    0  0.46268895544E+01 -0.19966453384E+02 -0.20443927730E+02  0.28948601844E+02  0.00000000000E+00 0.  1.
</event>
<event>
 5    1  0.8900327E-005  0.9118800E+02  0.7818608E-02  0.1130116E+00
         25   -1    0    0    0    0  0.00000000000E+00  0.00000000000E+00  0.99999998245E-14  0.12500000000E+03  0.12500000000E+03 0.  0.
        -11    1    3    3    0    0 -0.45064413393E+02  0.91935931603E+01  0.81140928762E+01  0.46702912256E+02  0.51100000000E-03 0. -1.
         23    2    1    0    0    0 -0.12598508210E+02  0.18695628771E+02  0.30356262175E+02  0.87187943755E+02  0.78561987873E+02 0.  0.
         11    1    3    3    0    0  0.32465905183E+02  0.95020356105E+01  0.22242169299E+02  0.40485031499E+02  0.51100000000E-03 0.  1.
         22    1    1    0    0    0  0.12598508210E+02 -0.18695628771E+02 -0.30356262175E+02  0.37812056245E+02  0.00000000000E+00 0. -1.
</event>
<event>
 5    1  0.8900327E-005  0.9118800E+02  0.7818608E-02  0.1130116E+00
         25   -1    0    0    0    0  0.00000000000E+00  0.00000000000E+00  0.99999998245E-14  0.12500000000E+03  0.12500000000E+03 0.  0.
        -11    1    3    3    0    0 -0.24541926884E+01 -0.90154932063E+01 -0.59205154386E+02  0.59937905249E+02  0.51100000000E-03 0. -1.
         23    2    1    0    0    0 -0.84123174001E+01  0.62569650751E+01 -0.25881358205E+02  0.97075791891E+02  0.92972834595E+02 0.  0.
         11    1    3    3    0    0 -0.59581247117E+01  0.15272458281E+02  0.33323796181E+02  0.37137886642E+02  0.51100000000E-03 0.  1.
         22    1    1    0    0    0  0.84123174001E+01 -0.62569650751E+01  0.25881358205E+02  0.27924208109E+02  0.00000000000E+00 0. -1.
</event>
<event>
 5    1  0.8900327E-005  0.9118800E+02  0.7818608E-02  0.1130116E+00
         25   -1    0    0    0    0  0.00000000000E+00  0.00000000000E+00  0.99999998245E-14  0.12500000000E+03  0.12500000000E+03 0.  0.
        -11    1    3    3    0    0 -0.14592498089E+02 -0.53339573303E+02  0.53015165444E+01  0.55553192154E+02  0.51100000000E-03 0. -1.
         23    2    1    0    0    0 -0.72289512100E+01 -0.30594703192E+02  0.23625531511E+02  0.85674952788E+02  0.76116609207E+02 0.  0.
         11    1    3    3    0    0  0.73635468786E+01  0.22744870110E+02  0.18324014966E+02  0.30121760634E+02  0.51100000000E-03 0.  1.
         22    1    1    0    0    0  0.72289512100E+01  0.30594703192E+02 -0.23625531511E+02  0.39325047212E+02  0.00000000000E+00 0. -1.
</event>
<event>
 5    1  0.8900327E-005  0.9118800E+02  0.7818608E-02  0.1130116E+00
         25   -1    0    0    0    0  0.00000000000E+00  0.00000000000E+00  0.99999998245E-14  0.12500000000E+03  0.12500000000E+03 0.  0.
        -11    1    3    3    0    0  0.46147762807E+01 -0.13330782396E+02 -0.44659838977E+02  0.46834892304E+02  0.51100000000E-03 0. -1.
         23    2    1    0    0    0  0.12685825290E+02  0.22662304401E+02 -0.10915777468E+02  0.96827949990E+02  0.92639017144E+02 0.  0.
         11    1    3    3    0    0  0.80710490098E+01  0.35993086797E+02  0.33744061510E+02  0.49993057685E+02  0.51100000000E-03 0.  1.
         22    1    1    0    0    0 -0.12685825290E+02 -0.22662304401E+02  0.10915777468E+02  0.28172050010E+02  0.00000000000E+00 0.  1.
</event>
<event>
 5    1  0.8900327E-005  0.9118800E+02  0.7818608E-02  0.1130116E+00
         25   -1    0    0    0    0  0.00000000000E+00  0.00000000000E+00  0.99999998245E-14  0.12500000000E+03  0.12500000000E+03 0.  0.
        -11    1    3    3    0    0 -0.32652471586E+01  0.42265602541E+02 -0.14767124076E+02  0.44889987201E+02  0.51100000000E-03 0. -1.
         23    2    1    0    0    0 -0.19024964556E+02  0.11051613134E+02  0.20768303376E+02  0.94744259151E+02  0.89783432701E+02 0.  0.
         11    1    3    3    0    0 -0.15759717398E+02 -0.31213989407E+02  0.35535427452E+02  0.49854271949E+02  0.51100000000E-03 0.  1.
         22    1    1    0    0    0  0.19024964556E+02 -0.11051613134E+02 -0.20768303376E+02  0.30255740849E+02  0.00000000000E+00 0. -1.
</event>
<event>
 5    1  0.8900327E-005  0.9118800E+02  0.7818608E-02  0.1130116E+00
         25   -1    0    0    0    0  0.00000000000E+00  0.00000000000E+00  0.99999998245E-14  0.12500000000E+03  0.12500000000E+03 0.  0.
        -11    1    3    3    0    0 -0.31046280321E+01 -0.68947171392E+01  0.51126903479E+02  0.51683034927E+02  0.51100000000E-03 0. -1.
         23    2    1    0    0    0  0.77461325891E+01 -0.25525904639E+02  0.13371641407E+02  0.95160844991E+02  0.90361558463E+02 0.  0.
         11    1    3    3    0    0  0.10850760621E+02 -0.18631187499E+02 -0.37755262071E+02  0.43477810065E+02  0.51100000000E-03 0.  1.
         22    1    1    0    0    0 -0.77461325891E+01  0.25525904639E+02 -0.13371641407E+02  0.29839155009E+02  0.00000000000E+00 0.  1.
</event>
<event>
 5    1  0.8900327E-005  0.9118800E+02  0.7818608E-02  0.1130116E+00
         25   -1    0    0    0    0  0.00000000000E+00  0.00000000000E+00  0.99999998245E-14  0.12500000000E+03  0.12500000000E+03 0.  0.
        -11    1    3    3    0    0  0.19025140769E+02 -0.10880006218E+01  0.43078604516E+02  0.47105263973E+02  0.51100000000E-03 0.  1.
         23    2    1    0    0    0 -0.15314945605E+02 -0.20390037799E+02  0.17378935686E+02  0.94140178129E+02  0.88938431132E+02 0.  0.
         11    1    3    3    0    0 -0.34340086374E+02 -0.19302037177E+02 -0.25699668830E+02  0.47034914155E+02  0.51100000000E-03 0. -1.
         22    1    1    0    0    0  0.15314945605E+02  0.20390037799E+02 -0.17378935686E+02  0.30859821871E+02  0.00000000000E+00 0. -1.
</event>
<event>
 5    1  0.8900327E-005  0.9118800E+02  0.7818608E-02  0.1130116E+00
         25   -1    0    0    0    0  0.00000000000E+00  0.00000000000E+00  0.99999998245E-14  0.12500000000E+03  0.12500000000E+03 0.  0.
        -11    1    3    3    0    0  0.13837573431E+02  0.18481575791E+02 -0.29856264592E+02  0.37741801996E+02  0.51100000000E-03 0. -1.
         23    2    1    0    0    0 -0.27176020328E+02  0.57350400405E+00  0.83279696565E+01  0.96570788504E+02  0.92291370810E+02 0.  0.
         11    1    3    3    0    0 -0.41013593759E+02 -0.17908071787E+02  0.38184234249E+02  0.58828986508E+02  0.51100000000E-03 0.  1.
         22    1    1    0    0    0  0.27176020328E+02 -0.57350400405E+00 -0.83279696565E+01  0.28429211496E+02  0.00000000000E+00 0.  1.
</event>
<event>
 5    1  0.8900327E-005  0.9118800E+02  0.7818608E-02  0.1130116E+00
         25   -1    0    0    0    0  0.00000000000E+00  0.00000000000E+00  0.99999998245E-14  0.12500000000E+03  0.12500000000E+03 0.  0.
        -11    1    3    3    0    0  0.39403115430E+02 -0.46207372614E+02 -0.12905654395E+02  0.62082869659E+02  0.51100000000E-03 0. -1.
         23    2    1    0    0    0  0.22830372002E+02 -0.19386253884E+02 -0.44941403575E+01  0.94713864179E+02  0.89741105658E+02 0.  0.
         11    1    3    3    0    0 -0.16572743428E+02  0.26821118731E+02  0.84115140376E+01  0.32630994520E+02  0.51100000000E-03 0.  1.
         22    1    1    0    0    0 -0.22830372002E+02  0.19386253884E+02  0.44941403575E+01  0.30286135821E+02  0.00000000000E+00 0. -1.
</event>
<event>
 5    1  0.8900327E-005  0.9118800E+02  0.7818608E-02  0.1130116E+00
         25   -1    0    0    0    0  0.00000000000E+00  0.00000000000E+00  0.99999998245E-14  0.12500000000E+03  0.12500000000E+03 0.  0.
        -11    1    3    3    0    0  0.93829718717E+01  0.19911614216E+02 -0.57537010159E+02  0.61603734304E+02  0.51100000000E-03 0. -1.
         23    2    1    0    0    0  0.11449825275E+02  0.10971685226E+02 -0.25129301746E+02  0.95285387740E+02  0.90533678457E+02 0.  0.
         11    1    3    3    0    0  0.20668534034E+01 -0.89399289895E+01  0.32407708413E+02  0.33681653436E+02  0.51100000000E-03 0.  1.
         22    1    1    0    0    0 -0.11449825275E+02 -0.10971685226E+02  0.25129301746E+02  0.29714612260E+02  0.00000000000E+00 0. -1.
</event>
<event>
 5    1  0.8900327E-005  0.9118800E+02  0.7818608E-02  0.1130116E+00
         25   -1    0    0    0    0  0.00000000000E+00  0.00000000000E+00  0.99999998245E-14  0.12500000000E+03  0.12500000000E+03 0.  0.
        -11    1    3    3    0    0  0.15275162795E+02 -0.31814903862E+02  0.45906964729E+02  0.57904819463E+02  0.51100000000E-03 0.  1.
         23    2    1    0    0    0 -0.94100360707E+01 -0.13337475512E+02  0.24942012144E+02  0.95191595117E+02  0.90404086076E+02 0.  0.
         11    1    3    3    0    0 -0.24685198866E+02  0.18477428349E+02 -0.20964952586E+02  0.37286775654E+02  0.51100000000E-03 0. -1.
         22    1    1    0    0    0  0.94100360707E+01  0.13337475512E+02 -0.24942012144E+02  0.29808404883E+02  0.00000000000E+00 0.  1.
</event>
<event>
 5    1  0.8900327E-005  0.9118800E+02  0.7818608E-02  0.1130116E+00
         25   -1    0    0    0    0  0.00000000000E+00  0.00000000000E+00  0.99999998245E-14  0.12500000000E+03  0.12500000000E+03 0.  0.
        -11    1    3    3    0    0  0.19530782918E+02 -0.15688248088E+02  0.50686699707E+02  0.56539491835E+02  0.51100000000E-03 0. -1.
         23    2    1    0    0    0 -0.66880022715E+01 -0.18478209640E+02  0.21510677677E+02  0.95864405618E+02  0.91329630484E+02 0.  0.
         11    1    3    3    0    0 -0.26218785189E+02 -0.27899615526E+01 -0.29176022030E+02  0.39324913783E+02  0.51100000000E-03 0.  1.
         22    1    1    0    0    0  0.66880022715E+01  0.18478209640E+02 -0.21510677677E+02  0.29135594382E+02  0.00000000000E+00 0. -1.
</event>
<event>
 5    1  0.8900327E-005  0.9118800E+02  0.7818608E-02  0.1130116E+00
         25   -1    0    0    0    0  0.00000000000E+00  0.00000000000E+00  0.99999998245E-14  0.12500000000E+03  0.12500000000E+03 0.  0.
        -11    1    3    3    0    0 -0.64043137968E+01  0.21100949006E+02 -0.29066530175E+02  0.36484633215E+02  0.51100000000E-03 0. -1.
         23    2    1    0    0    0 -0.19501528969E+02 -0.89900784930E+00  0.23196223693E+02  0.94681974984E+02  0.89696676338E+02 0.  0.
         11    1    3    3    0    0 -0.13097215172E+02 -0.21999956855E+02  0.52262753868E+02  0.58197341769E+02  0.51100000000E-03 0.  1.
         22    1    1    0    0    0  0.19501528969E+02  0.89900784930E+00 -0.23196223693E+02  0.30318025016E+02  0.00000000000E+00 0.  1.
</event>
<event>
 5    1  0.8900327E-005  0.9118800E+02  0.7818608E-02  0.1130116E+00
         25   -1    0    0    0    0  0.00000000000E+00  0.00000000000E+00  0.99999998245E-14  0.12500000000E+03  0.12500000000E+03 0.  0.
        -11    1    3    3    0    0  0.10613147818E+02  0.33289346011E+02  0.25069062094E+01  0.35030044868E+02  0.51100000000E-03 0. -1.
         23    2    1    0    0    0 -0.36387425299E+02  0.15265174131E+02 -0.13634718492E+01  0.85516721050E+02  0.75856313267E+02 0.  0.
         11    1    3    3    0    0 -0.47000573117E+02 -0.18024171880E+02 -0.38703780586E+01  0.50486676182E+02  0.51100000000E-03 0.  1.
         22    1    1    0    0    0  0.36387425299E+02 -0.15265174131E+02  0.13634718492E+01  0.39483278950E+02  0.00000000000E+00 0.  1.
</event>
<event>
 5    1  0.8900327E-005  0.9118800E+02  0.7818608E-02  0.1130116E+00
         25   -1    0    0    0    0  0.00000000000E+00  0.00000000000E+00  0.99999998245E-14  0.12500000000E+03  0.12500000000E+03 0.  0.
        -11    1    3    3    0    0 -0.38885322588E+02  0.68504113023E+01  0.18898179036E+02  0.43773709220E+02  0.51100000000E-03 0.  1.
         23    2    1    0    0    0  0.36126963105E+01 -0.22622851462E+02  0.18596788162E+02  0.95492619350E+02  0.90819352769E+02 0.  0.
         11    1    3    3    0    0  0.42498018898E+02 -0.29473262764E+02 -0.30139087351E+00  0.51718910129E+02  0.51100000000E-03 0. -1.
         22    1    1    0    0    0 -0.36126963105E+01  0.22622851462E+02 -0.18596788162E+02  0.29507380650E+02  0.00000000000E+00 0. -1.
</event>
<event>
 5    1  0.8900327E-005  0.9118800E+02  0.7818608E-02  0.1130116E+00
         25   -1    0    0    0    0  0.00000000000E+00  0.00000000000E+00  0.99999998245E-14  0.12500000000E+03  0.12500000000E+03 0.  0.
        -11    1    3    3    0    0 -0.39337494632E+02  0.12304075279E+02 -0.16747344672E+01  0.41250860454E+02  0.51100000000E-03 0. -1.
         23    2    1    0    0    0 -0.48493015907E+01 -0.21854314435E+02  0.20526356876E+02  0.94628004479E+02  0.89621432257E+02 0.  0.
         11    1    3    3    0    0  0.34488193041E+02 -0.34158389715E+02  0.22201091343E+02  0.53377144025E+02  0.51100000000E-03 0.  1.
         22    1    1    0    0    0  0.48493015907E+01  0.21854314435E+02 -0.20526356876E+02  0.30371995521E+02  0.00000000000E+00 0.  1.
</event>
<event>
 5    1  0.8900327E-005  0.9118800E+02  0.7818608E-02  0.1130116E+00
         25   -1    0    0    0    0  0.00000000000E+00  0.00000000000E+00  0.99999998245E-14  0.12500000000E+03  0.12500000000E+03 0.  0.
        -11    1    3    3    0    0 -0.15532200102E+02  0.35037672752E+02  0.31165711400E+02  0.49398272432E+02  0.51100000000E-03 0. -1.
         23    2    1    0    0    0  0.18596861750E+02  0.18023140406E+02 -0.69798709827E+00  0.99093166094E+02  0.95646701582E+02 0.  0.
         11    1    3    3    0    0  0.34129061853E+02 -0.17014532347E+02 -0.31863698498E+02  0.49694893663E+02  0.51100000000E-03 0.  1.
         22    1    1    0    0    0 -0.18596861750E+02 -0.18023140406E+02  0.69798709827E+00  0.25906833906E+02  0.00000000000E+00 0.  1.
</event>
<event>
 5    1  0.8900327E-005  0.9118800E+02  0.7818608E-02  0.1130116E+00
         25   -1    0    0    0    0  0.00000000000E+00  0.00000000000E+00  0.99999998245E-14  0.12500000000E+03  0.12500000000E+03 0.  0.
        -11    1    3    3    0    0 -0.48559516444E+00 -0.12115790087E+02  0.38141355800E+02  0.40022383670E+02  0.51100000000E-03 0. -1.
         23    2    1    0    0    0 -0.27467902022E+02  0.39483824363E+01 -0.82561326659E+01  0.96047640995E+02  0.91580075610E+02 0.  0.
         11    1    3    3    0    0 -0.26982306858E+02  0.16064172523E+02 -0.46397488466E+02  0.56025257325E+02  0.51100000000E-03 0.  1.
         22    1    1    0    0    0  0.27467902022E+02 -0.39483824363E+01  0.82561326659E+01  0.28952359005E+02  0.00000000000E+00 0.  1.
</event>
<event>
 5    1  0.8900327E-005  0.9118800E+02  0.7818608E-02  0.1130116E+00
         25   -1    0    0    0    0  0.00000000000E+00  0.00000000000E+00  0.99999998245E-14  0.12500000000E+03  0.12500000000E+03 0.  0.
        -11    1    3    3    0    0 -0.47195212996E+02 -0.33892599815E+02 -0.62131661700E+01  0.58435433481E+02  0.51100000000E-03 0.  1.
         23    2    1    0    0    0 -0.26436331610E+02 -0.12825022309E+02  0.12100575208E+02  0.93222889581E+02  0.87639730689E+02 0.  0.
         11    1    3    3    0    0  0.20758881386E+02  0.21067577507E+02  0.18313741378E+02  0.34787456100E+02  0.51100000000E-03 0. -1.
         22    1    1    0    0    0  0.26436331610E+02  0.12825022309E+02 -0.12100575208E+02  0.31777110419E+02  0.00000000000E+00 0. -1.
</event>
<event>
 5    1  0.8900327E-005  0.9118800E+02  0.7818608E-02  0.1130116E+00
         25   -1    0    0    0    0  0.00000000000E+00  0.00000000000E+00  0.99999998245E-14  0.12500000000E+03  0.12500000000E+03 0.  0.
        -11    1    3    3    0    0 -0.25386141761E+02  0.28498404476E+02  0.21504805144E+02  0.43807212828E+02  0.51100000000E-03 0.  1.
         23    2    1    0    0    0 -0.35537093056E+02 -0.11244667268E+02  0.10381600197E+02  0.86307556972E+02  0.77148488274E+02 0.  0.
         11    1    3    3    0    0 -0.10150951295E+02 -0.39743071744E+02 -0.11123204947E+02  0.42500344144E+02  0.51100000000E-03 0. -1.
         22    1    1    0    0    0  0.35537093056E+02  0.11244667268E+02 -0.10381600197E+02  0.38692443028E+02  0.00000000000E+00 0.  1.
</event>
<event>
 5    1  0.8900327E-005  0.9118800E+02  0.7818608E-02  0.1130116E+00
         25   -1    0    0    0    0  0.00000000000E+00  0.00000000000E+00  0.99999998245E-14  0.12500000000E+03  0.12500000000E+03 0.  0.
        -11    1    3    3    0    0 -0.27959436999E+02 -0.14942537251E+02  0.25394921850E+02  0.40619103792E+02  0.51100000000E-03 0.  1.
         23    2    1    0    0    0  0.19131387745E+01 -0.16448208228E+02 -0.22486058206E+02  0.97074626815E+02  0.92971268163E+02 0.  0.
         11    1    3    3    0    0  0.29872575774E+02 -0.15056709764E+01 -0.47880980056E+02  0.56455523023E+02  0.51100000000E-03 0. -1.
         22    1    1    0    0    0 -0.19131387745E+01  0.16448208228E+02  0.22486058206E+02  0.27925373185E+02  0.00000000000E+00 0. -1.
</event>
<event>
 5    1  0.8900327E-005  0.9118800E+02  0.7818608E-02  0.1130116E+00
         25   -1    0    0    0    0  0.00000000000E+00  0.00000000000E+00  0.99999998245E-14  0.12500000000E+03  0.12500000000E+03 0.  0.
        -11    1    3    3    0    0 -0.13340509474E+02  0.42530259416E+02 -0.95753902392E+01  0.45590352680E+02  0.51100000000E-03 0.  1.
         23    2    1    0    0    0  0.86399342372E+01  0.10090887544E+02  0.24246365849E+02  0.97352925436E+02  0.93344691114E+02 0.  0.
         11    1    3    3    0    0  0.21980443712E+02 -0.32439371872E+02  0.33821756088E+02  0.51762572756E+02  0.51100000000E-03 0. -1.
         22    1    1    0    0    0 -0.86399342372E+01 -0.10090887544E+02 -0.24246365849E+02  0.27647074564E+02  0.00000000000E+00 0.  1.
</event>
<event>
 5    1  0.8900327E-005  0.9118800E+02  0.7818608E-02  0.1130116E+00
         25   -1    0    0    0    0  0.00000000000E+00  0.00000000000E+00  0.99999998245E-14  0.12500000000E+03  0.12500000000E+03 0.  0.
        -11    1    3    3    0    0 -0.49270606310E+02  0.27449748844E+02 -0.11318293794E+02  0.57525517229E+02  0.51100000000E-03 0. -1.
         23    2    1    0    0    0 -0.28115771801E+02 -0.41724241830E+01 -0.61205538182E+01  0.95924805649E+02  0.91412260733E+02 0.  0.
         11    1    3    3    0    0  0.21154834510E+02 -0.31622173027E+02  0.51977399759E+01  0.38399288420E+02  0.51100000000E-03 0.  1.
         22    1    1    0    0    0  0.28115771801E+02  0.41724241830E+01  0.61205538182E+01  0.29075194351E+02  0.00000000000E+00 0. -1.
</event>
<event>
 5    1  0.8900327E-005  0.9118800E+02  0.7818608E-02  0.1130116E+00
         25   -1    0    0    0    0  0.00000000000E+00  0.00000000000E+00  0.99999998245E-14  0.12500000000E+03  0.12500000000E+03 0.  0.
        -11    1    3    3    0    0 -0.29768421877E+02  0.37172907050E+02 -0.15101887391E+02  0.49960494019E+02  0.51100000000E-03 0.  1.
         23    2    1    0    0    0  0.13989249404E+02  0.24021960779E+02 -0.64373900819E+01  0.96465920558E+02  0.92149227558E+02 0.  0.
         11    1    3    3    0    0  0.43757671280E+02 -0.13150946272E+02  0.86644973088E+01  0.46505426539E+02  0.51100000000E-03 0. -1.
         22    1    1    0    0    0 -0.13989249404E+02 -0.24021960779E+02  0.64373900819E+01  0.28534079442E+02  0.00000000000E+00 0. -1.
</event>
<event>
 5    1  0.8900327E-005  0.9118800E+02  0.7818608E-02  0.1130116E+00
         25   -1    0    0    0    0  0.00000000000E+00  0.00000000000E+00  0.99999998245E-14  0.12500000000E+03  0.12500000000E+03 0.  0.
        -11    1    3    3    0    0 -0.67314581933E+01 -0.12041067038E+02 -0.43039178322E+02  0.45195914591E+02  0.51100000000E-03 0. -1.
         23    2    1    0    0    0  0.21510258126E+01  0.26760602706E+02 -0.12399374401E+02  0.95428032619E+02  0.90730414717E+02 0.  0.
         11    1    3    3    0    0  0.88824840060E+01  0.38801669744E+02  0.30639803921E+02  0.50232118028E+02  0.51100000000E-03 0.  1.
         22    1    1    0    0    0 -0.21510258126E+01 -0.26760602706E+02  0.12399374401E+02  0.29571967381E+02  0.00000000000E+00 0.  1.
</event>
<event>
 5    1  0.8900327E-005  0.9118800E+02  0.7818608E-02  0.1130116E+00
         25   -1    0    0    0    0  0.00000000000E+00  0.00000000000E+00  0.99999998245E-14  0.12500000000E+03  0.12500000000E+03 0.  0.
        -11    1    3    3    0    0  0.19348944825E+02  0.13141970705E+02 -0.26660272051E+02  0.35466366686E+02  0.51100000000E-03 0.  1.
         23    2    1    0    0    0 -0.15276539665E+01  0.96811995670E+01  0.28667736177E+02  0.94703161069E+02  0.89726196104E+02 0.  0.
         11    1    3    3    0    0 -0.20876598792E+02 -0.34607711377E+01  0.55328008228E+02  0.59236794382E+02  0.51100000000E-03 0. -1.
         22    1    1    0    0    0  0.15276539665E+01 -0.96811995670E+01 -0.28667736177E+02  0.30296838931E+02  0.00000000000E+00 0. -1.
</event>
<event>
 5    1  0.8900327E-005  0.9118800E+02  0.7818608E-02  0.1130116E+00
         25   -1    0    0    0    0  0.00000000000E+00  0.00000000000E+00  0.99999998245E-14  0.12500000000E+03  0.12500000000E+03 0.  0.
        -11    1    3    3    0    0  0.44428560226E+00  0.44108985320E+02 -0.38286059057E+02  0.58409094275E+02  0.51100000000E-03 0. -1.
         23    2    1    0    0    0  0.14276401549E+02  0.13424052355E+02 -0.21108271626E+02  0.96197570348E+02  0.91784489904E+02 0.  0.
         11    1    3    3    0    0  0.13832115947E+02 -0.30684932964E+02  0.17177787432E+02  0.37788476073E+02  0.51100000000E-03 0.  1.
         22    1    1    0    0    0 -0.14276401549E+02 -0.13424052355E+02  0.21108271626E+02  0.28802429652E+02  0.00000000000E+00 0. -1.
</event>
<event>
 5    1  0.8900327E-005  0.9118800E+02  0.7818608E-02  0.1130116E+00
         25   -1    0    0    0    0  0.00000000000E+00  0.00000000000E+00  0.99999998245E-14  0.12500000000E+03  0.12500000000E+03 0.  0.
        -11    1    3    3    0    0 -0.35392074804E+02 -0.17768982690E+02  0.14264618123E+02  0.42092933317E+02  0.51100000000E-03 0.  1.
         23    2    1    0    0    0  0.15921413749E+02 -0.22145591683E+01  0.23526647664E+02  0.96506161396E+02  0.92203797910E+02 0.  0.
         11    1    3    3    0    0  0.51313488553E+02  0.15554423521E+02  0.92620295410E+01  0.54413228080E+02  0.51100000000E-03 0. -1.
         22    1    1    0    0    0 -0.15921413749E+02  0.22145591683E+01 -0.23526647664E+02  0.28493838604E+02  0.00000000000E+00 0.  1.
</event>
<event>
 5    1  0.8900327E-005  0.9118800E+02  0.7818608E-02  0.1130116E+00
         25   -1    0    0    0    0  0.00000000000E+00  0.00000000000E+00  0.99999998245E-14  0.12500000000E+03  0.12500000000E+03 0.  0.
        -11    1    3    3    0    0  0.29619753906E+01 -0.43021437007E+02  0.13436782524E+02  0.45168179786E+02  0.51100000000E-03 0.  1.
         23    2    1    0    0    0  0.23318675669E+02  0.30748865825E+01  0.17441565999E+02  0.95718200415E+02  0.91129304309E+02 0.  0.
         11    1    3    3    0    0  0.20356700278E+02  0.46096323589E+02  0.40047834747E+01  0.50550020629E+02  0.51100000000E-03 0. -1.
         22    1    1    0    0    0 -0.23318675669E+02 -0.30748865825E+01 -0.17441565999E+02  0.29281799585E+02  0.00000000000E+00 0. -1.
</event>
<event>
 5    1  0.8900327E-005  0.9118800E+02  0.7818608E-02  0.1130116E+00
         25   -1    0    0    0    0  0.00000000000E+00  0.00000000000E+00  0.99999998245E-14  0.12500000000E+03  0.12500000000E+03 0.  0.
        -11    1    3    3    0    0  0.22646110459E+02  0.17050847651E+01  0.56967066774E+02  0.61326995117E+02  0.51100000000E-03 0.  1.
         23    2    1    0    0    0  0.46655503968E+01  0.74809050865E+01  0.11910785976E+02  0.11018115646E+03  0.10918007654E+03 0.  0.
         11    1    3    3    0    0 -0.17980560063E+02  0.57758203214E+01 -0.45056280798E+02  0.48854161339E+02  0.51100000000E-03 0. -1.
         22    1    1    0    0    0 -0.46655503968E+01 -0.74809050865E+01 -0.11910785976E+02  0.14818843544E+02  0.00000000000E+00 0.  1.
</event>
<event>
 5    1  0.8900327E-005  0.9118800E+02  0.7818608E-02  0.1130116E+00
         25   -1    0    0    0    0  0.00000000000E+00  0.00000000000E+00  0.99999998245E-14  0.12500000000E+03  0.12500000000E+03 0.  0.
        -11    1    3    3    0    0 -0.19327241439E+02 -0.12619508607E+02  0.29924413158E+02  0.37792390269E+02  0.51100000000E-03 0. -1.
         23    2    1    0    0    0 -0.27309686127E+02  0.28172137786E+02  0.21697117934E+02  0.80164152395E+02  0.66453277562E+02 0.  0.
         11    1    3    3    0    0 -0.79824446883E+01  0.40791646394E+02 -0.82272952237E+01  0.42371762126E+02  0.51100000000E-03 0.  1.
         22    1    1    0    0    0  0.27309686127E+02 -0.28172137786E+02 -0.21697117934E+02  0.44835847605E+02  0.00000000000E+00 0.  1.
</event>
<event>
 5    1  0.8900327E-005  0.9118800E+02  0.7818608E-02  0.1130116E+00
         25   -1    0    0    0    0  0.00000000000E+00  0.00000000000E+00  0.99999998245E-14  0.12500000000E+03  0.12500000000E+03 0.  0.
        -11    1    3    3    0    0  0.15672322777E+02 -0.43564740842E+02  0.18949829695E+02  0.50026037137E+02  0.51100000000E-03 0.  1.
         23    2    1    0    0    0  0.11337532249E+02 -0.17932262676E+02 -0.19330113809E+02  0.96298798247E+02  0.91922247371E+02 0.  0.
         11    1    3    3    0    0 -0.43347905278E+01  0.25632478166E+02 -0.38279943504E+02  0.46272761110E+02  0.51100000000E-03 0. -1.
         22    1    1    0    0    0 -0.11337532249E+02  0.17932262676E+02  0.19330113809E+02  0.28701201753E+02  0.00000000000E+00 0. -1.
</event>
<event>
 5    1  0.8900327E-005  0.9118800E+02  0.7818608E-02  0.1130116E+00
         25   -1    0    0    0    0  0.00000000000E+00  0.00000000000E+00  0.99999998245E-14  0.12500000000E+03  0.12500000000E+03 0.  0.
        -11    1    3    3    0    0  0.40341364816E+02  0.19457672168E+02  0.26955584609E+02  0.52274566122E+02  0.51100000000E-03 0.  1.
         23    2    1    0    0    0  0.26636143068E+02  0.55708806942E+01 -0.11547399599E+02  0.95438855456E+02  0.90745324199E+02 0.  0.
         11    1    3    3    0    0 -0.13705221747E+02 -0.13886791474E+02 -0.38502984207E+02  0.43164289334E+02  0.51100000000E-03 0. -1.
         22    1    1    0    0    0 -0.26636143068E+02 -0.55708806942E+01  0.11547399599E+02  0.29561144544E+02  0.00000000000E+00 0.  1.
</event>
<event>
 5    1  0.8900327E-005  0.9118800E+02  0.7818608E-02  0.1130116E+00
         25   -1    0    0    0    0  0.00000000000E+00  0.00000000000E+00  0.99999998245E-14  0.12500000000E+03  0.12500000000E+03 0.  0.
        -11    1    3    3    0    0  0.11101648947E+01  0.26016421892E+02  0.24499916542E+02  0.35753777213E+02  0.51100000000E-03 0.  1.
         23    2    1    0    0    0 -0.23238443644E+02 -0.17733896365E+02 -0.70440062649E+01  0.94931172827E+02  0.90043285184E+02 0.  0.
         11    1    3    3    0    0 -0.24348608539E+02 -0.43750318257E+02 -0.31543922807E+02  0.59177395614E+02  0.51100000000E-03 0. -1.
         22    1    1    0    0    0  0.23238443644E+02  0.17733896365E+02  0.70440062649E+01  0.30068827173E+02  0.00000000000E+00 0. -1.
</event>
<event>
 5    1  0.8900327E-005  0.9118800E+02  0.7818608E-02  0.1130116E+00
         25   -1    0    0    0    0  0.00000000000E+00  0.00000000000E+00  0.99999998245E-14  0.12500000000E+03  0.12500000000E+03 0.  0.
        -11    1    3    3    0    0  0.18376940064E+02  0.12928381467E+02  0.48538988141E+02  0.53487272724E+02  0.51100000000E-03 0. -1.
         23    2    1    0    0    0  0.12047635767E+01 -0.16708370763E+02  0.24448802186E+02  0.95362776156E+02  0.90640465792E+02 0.  0.
         11    1    3    3    0    0 -0.17172176488E+02 -0.29636752230E+02 -0.24090185955E+02  0.41875503432E+02  0.51100000000E-03 0.  1.
         22    1    1    0    0    0 -0.12047635767E+01  0.16708370763E+02 -0.24448802186E+02  0.29637223844E+02  0.00000000000E+00 0. -1.
</event>
<event>
 5    1  0.8900327E-005  0.9118800E+02  0.7818608E-02  0.1130116E+00
         25   -1    0    0    0    0  0.00000000000E+00  0.00000000000E+00  0.99999998245E-14  0.12500000000E+03  0.12500000000E+03 0.  0.
        -11    1    3    3    0    0 -0.34466360997E+02 -0.45768252861E+02  0.10927720215E+02  0.58327335612E+02  0.51100000000E-03 0.  1.
         23    2    1    0    0    0 -0.22654134167E+02 -0.17970781407E+02 -0.92380086480E+01  0.94643788395E+02  0.89643444260E+02 0.  0.
         11    1    3    3    0    0  0.11812226830E+02  0.27797471454E+02 -0.20165728863E+02  0.36316452783E+02  0.51100000000E-03 0. -1.
         22    1    1    0    0    0  0.22654134167E+02  0.17970781407E+02  0.92380086480E+01  0.30356211605E+02  0.00000000000E+00 0.  1.
</event>
<event>
 5    1  0.8900327E-005  0.9118800E+02  0.7818608E-02  0.1130116E+00
         25   -1    0    0    0    0  0.00000000000E+00  0.00000000000E+00  0.99999998245E-14  0.12500000000E+03  0.12500000000E+03 0.  0.
        -11    1    3    3    0    0 -0.29695222115E+02 -0.32060164880E+02 -0.40939866914E+02  0.59880991072E+02  0.51100000000E-03 0. -1.
         23    2    1    0    0    0 -0.79575521143E+01 -0.25197238107E+02 -0.14256715454E+02  0.94975387107E+02  0.90104643480E+02 0.  0.
         11    1    3    3    0    0  0.21737670001E+02  0.68629267736E+01  0.26683151460E+02  0.35094396035E+02  0.51100000000E-03 0.  1.
         22    1    1    0    0    0  0.79575521143E+01  0.25197238107E+02  0.14256715454E+02  0.30024612893E+02  0.00000000000E+00 0. -1.
</event>
<event>
 5    1  0.8900327E-005  0.9118800E+02  0.7818608E-02  0.1130116E+00
         25   -1    0    0    0    0  0.00000000000E+00  0.00000000000E+00  0.99999998245E-14  0.12500000000E+03  0.12500000000E+03 0.  0.
        -11    1    3    3    0    0 -0.12822002658E+02 -0.77019289569E+01  0.31372984937E+02  0.34756116670E+02  0.51100000000E-03 0.  1.
         23    2    1    0    0    0  0.14415305749E+02 -0.19267533436E+02 -0.19779389980E+02  0.93850952622E+02  0.88531001099E+02 0.  0.
         11    1    3    3    0    0  0.27237308407E+02 -0.11565604480E+02 -0.51152374918E+02  0.59094835952E+02  0.51100000000E-03 0. -1.
         22    1    1    0    0    0 -0.14415305749E+02  0.19267533436E+02  0.19779389980E+02  0.31149047378E+02  0.00000000000E+00 0. -1.
</event>
<event>
 5    1  0.8900327E-005  0.9118800E+02  0.7818608E-02  0.1130116E+00
         25   -1    0    0    0    0  0.00000000000E+00  0.00000000000E+00  0.99999998245E-14  0.12500000000E+03  0.12500000000E+03 0.  0.
        -11    1    3    3    0    0  0.36829481708E+02  0.35241675805E+02  0.12566236216E+02  0.52500445039E+02  0.51100000000E-03 0.  1.
         23    2    1    0    0    0  0.36982955124E+01  0.24056303969E+02 -0.14454779069E+02  0.96692336933E+02  0.92455850184E+02 0.  0.
         11    1    3    3    0    0 -0.33131186196E+02 -0.11185371835E+02 -0.27021015286E+02  0.44191891894E+02  0.51100000000E-03 0. -1.
         22    1    1    0    0    0 -0.36982955124E+01 -0.24056303969E+02  0.14454779069E+02  0.28307663067E+02  0.00000000000E+00 0.  1.
</event>
<event>
 5    1  0.8900327E-005  0.9118800E+02  0.7818608E-02  0.1130116E+00
         25   -1    0    0    0    0  0.00000000000E+00  0.00000000000E+00  0.99999998245E-14  0.12500000000E+03  0.12500000000E+03 0.  0.
        -11    1    3    3    0    0  0.29847487296E+02  0.14070211202E+02  0.22888101391E+02  0.40158542388E+02  0.51100000000E-03 0.  1.
         23    2    1    0    0    0 -0.17817239184E+02 -0.13932571214E+02 -0.46336434957E+01  0.10191231487E+03  0.99262675345E+02 0.  0.
         11    1    3    3    0    0 -0.47664726480E+02 -0.28002782416E+02 -0.27521744887E+02  0.61753772479E+02  0.51100000000E-03 0. -1.
         22    1    1    0    0    0  0.17817239184E+02  0.13932571214E+02  0.46336434957E+01  0.23087685133E+02  0.00000000000E+00 0. -1.
</event>
<event>
 5    1  0.8900327E-005  0.9118800E+02  0.7818608E-02  0.1130116E+00
         25   -1    0    0    0    0  0.00000000000E+00  0.00000000000E+00  0.99999998245E-14  0.12500000000E+03  0.12500000000E+03 0.  0.
        -11    1    3    3    0    0 -0.31041326348E+02 -0.34625371297E+02 -0.16570312658E+02  0.49366542726E+02  0.51100000000E-03 0.  1.
         23    2    1    0    0    0 -0.21430549059E+02 -0.11171426226E+02  0.19840917406E+02  0.93731306385E+02  0.88361906929E+02 0.  0.
         11    1    3    3    0    0  0.96107772882E+01  0.23453945071E+02  0.36411230064E+02  0.44364763659E+02  0.51100000000E-03 0. -1.
         22    1    1    0    0    0  0.21430549059E+02  0.11171426226E+02 -0.19840917406E+02  0.31268693615E+02  0.00000000000E+00 0. -1.
</event>
<event>
 5    1  0.8900327E-005  0.9118800E+02  0.7818608E-02  0.1130116E+00
         25   -1    0    0    0    0  0.00000000000E+00  0.00000000000E+00  0.99999998245E-14  0.12500000000E+03  0.12500000000E+03 0.  0.
        -11    1    3    3    0    0  0.31559234337E+02 -0.37877628395E+01 -0.28202972204E+01  0.31910601623E+02  0.51100000000E-03 0.  1.
         23    2    1    0    0    0  0.10264243063E+01 -0.37269351365E+02  0.20049136090E+02  0.82667672448E+02  0.71006465283E+02 0.  0.
         11    1    3    3    0    0 -0.30532810031E+02 -0.33481588525E+02  0.22869433310E+02  0.50757070825E+02  0.51100000000E-03 0. -1.
         22    1    1    0    0    0 -0.10264243063E+01  0.37269351365E+02 -0.20049136090E+02  0.42332327552E+02  0.00000000000E+00 0. -1.
</event>
<event>
 5    1  0.8900327E-005  0.9118800E+02  0.7818608E-02  0.1130116E+00
         25   -1    0    0    0    0  0.00000000000E+00  0.00000000000E+00  0.99999998245E-14  0.12500000000E+03  0.12500000000E+03 0.  0.
        -11    1    3    3    0    0  0.12984458974E+02 -0.54724606520E+01 -0.42003171826E+02  0.44303616603E+02  0.51100000000E-03 0. -1.
         23    2    1    0    0    0 -0.92986047589E+01  0.26728508049E+02 -0.96460837648E+01  0.95101436071E+02  0.90279338820E+02 0.  0.
         11    1    3    3    0    0 -0.22283063733E+02  0.32200968701E+02  0.32357088061E+02  0.50797819468E+02  0.51100000000E-03 0.  1.
         22    1    1    0    0    0  0.92986047589E+01 -0.26728508049E+02  0.96460837648E+01  0.29898563929E+02  0.00000000000E+00 0.  1.
</event>
<event>
 4    1  0.8900327E-005  0.9118800E+02  0.7818608E-02  0.1130116E+00
         25   -1    0    0    0    0  0.00000000000E+00  0.00000000000E+00  0.99999998245E-14  0.12500000000E+03  0.12500000000E+03 0.  0.
        -11    1    1    0    0    0  0.13812480379E+02 -0.49032450696E+01  0.11951460032E+02  0.18912002105E+02  0.51100000000E-03 0.  1.
         11    1    1    0    0    0 -0.32311421504E+02  0.89891656434E+01  0.39171434122E+02  0.51567764253E+02  0.51100000000E-03 0. -1.
         22    1    1    0    0    0  0.18498941125E+02 -0.40859205738E+01 -0.51122894155E+02  0.54520233642E+02  0.00000000000E+00 0. -1.
</event>
<event>
 5    1  0.8900327E-005  0.9118800E+02  0.7818608E-02  0.1130116E+00
         25   -1    0    0    0    0  0.00000000000E+00  0.00000000000E+00  0.99999998245E-14  0.12500000000E+03  0.12500000000E+03 0.  0.
        -11    1    3    3    0    0  0.21796562894E+02 -0.57384441110E+02  0.22780360870E+01  0.61426815677E+02  0.51100000000E-03 0.  1.
         23    2    1    0    0    0  0.63752610713E+01 -0.28277269525E+02  0.81565594973E+01  0.94887255383E+02  0.89982297402E+02 0.  0.
         11    1    3    3    0    0 -0.15421301822E+02  0.29107171585E+02  0.58785234103E+01  0.33460439706E+02  0.51100000000E-03 0. -1.
         22    1    1    0    0    0 -0.63752610713E+01  0.28277269525E+02 -0.81565594973E+01  0.30112744617E+02  0.00000000000E+00 0.  1.
</event>
<event>
 5    1  0.8900327E-005  0.9118800E+02  0.7818608E-02  0.1130116E+00
         25   -1    0    0    0    0  0.00000000000E+00  0.00000000000E+00  0.99999998245E-14  0.12500000000E+03  0.12500000000E+03 0.  0.
        -11    1    3    3    0    0 -0.82543414381E+01 -0.55091784535E+02  0.27745714782E+02  0.62233942225E+02  0.51100000000E-03 0.  1.
         23    2    1    0    0    0 -0.63672529456E+01 -0.26644295376E+02  0.98849084388E+01  0.95876610757E+02  0.91346333748E+02 0.  0.
         11    1    3    3    0    0  0.18870884924E+01  0.28447489159E+02 -0.17860806343E+02  0.33642668531E+02  0.51100000000E-03 0. -1.
         22    1    1    0    0    0  0.63672529456E+01  0.26644295376E+02 -0.98849084388E+01  0.29123389243E+02  0.00000000000E+00 0.  1.
</event>
<event>
 5    1  0.8900327E-005  0.9118800E+02  0.7818608E-02  0.1130116E+00
         25   -1    0    0    0    0  0.00000000000E+00  0.00000000000E+00  0.99999998245E-14  0.12500000000E+03  0.12500000000E+03 0.  0.
        -11    1    3    3    0    0 -0.78067806222E+01  0.27852501388E+02  0.53124451110E+02  0.60488965632E+02  0.51100000000E-03 0. -1.
         23    2    1    0    0    0 -0.12385459012E+02  0.16858918371E+02  0.18607851169E+02  0.97002234934E+02  0.92873886176E+02 0.  0.
         11    1    3    3    0    0 -0.45786783898E+01 -0.10993583017E+02 -0.34516599941E+02  0.36513269301E+02  0.51100000000E-03 0.  1.
         22    1    1    0    0    0  0.12385459012E+02 -0.16858918371E+02 -0.18607851169E+02  0.27997765066E+02  0.00000000000E+00 0. -1.
</event>
<event>
 5    1  0.8900327E-005  0.9118800E+02  0.7818608E-02  0.1130116E+00
         25   -1    0    0    0    0  0.00000000000E+00  0.00000000000E+00  0.99999998245E-14  0.12500000000E+03  0.12500000000E+03 0.  0.
        -11    1    3    3    0    0  0.92072547172E+01  0.47987342878E+02  0.26177534710E+02  0.55433040144E+02  0.51100000000E-03 0. -1.
         23    2    1    0    0    0  0.91790388071E+01  0.75037202014E+01  0.26555167413E+02  0.95918433903E+02  0.91403547392E+02 0.  0.
         11    1    3    3    0    0 -0.28215910085E-01 -0.40483622676E+02  0.37763270380E+00  0.40485393759E+02  0.51100000000E-03 0.  1.
         22    1    1    0    0    0 -0.91790388071E+01 -0.75037202014E+01 -0.26555167413E+02  0.29081566097E+02  0.00000000000E+00 0. -1.
</event>
<event>
 5    1  0.8900327E-005  0.9118800E+02  0.7818608E-02  0.1130116E+00
         25   -1    0    0    0    0  0.00000000000E+00  0.00000000000E+00  0.99999998245E-14  0.12500000000E+03  0.12500000000E+03 0.  0.
        -11    1    3    3    0    0 -0.13829517606E+02  0.26123854521E+02 -0.33125696256E+02  0.44396205750E+02  0.51100000000E-03 0.  1.
         23    2    1    0    0    0 -0.25156726784E+02 -0.16028537747E+02 -0.13932198357E+02  0.92077650815E+02  0.85990771039E+02 0.  0.
         11    1    3    3    0    0 -0.11327209178E+02 -0.42152392268E+02  0.19193497899E+02  0.47681445066E+02  0.51100000000E-03 0. -1.
         22    1    1    0    0    0  0.25156726784E+02  0.16028537747E+02  0.13932198357E+02  0.32922349185E+02  0.00000000000E+00 0.  1.
</event>
<event>
 5    1  0.8900327E-005  0.9118800E+02  0.7818608E-02  0.1130116E+00
         25   -1    0    0    0    0  0.00000000000E+00  0.00000000000E+00  0.99999998245E-14  0.12500000000E+03  0.12500000000E+03 0.  0.
        -11    1    3    3    0    0  0.19070961643E+02  0.19733051604E+02 -0.29536159765E+02  0.40317237474E+02  0.51100000000E-03 0.  1.
         23    2    1    0    0    0 -0.23533127179E+02 -0.24617613610E+01  0.66060408537E+01  0.10043359775E+03  0.97382747123E+02 0.  0.
         11    1    3    3    0    0 -0.42604088822E+02 -0.22194812965E+02  0.36142200619E+02  0.60116360275E+02  0.51100000000E-03 0. -1.
         22    1    1    0    0    0  0.23533127179E+02  0.24617613610E+01 -0.66060408537E+01  0.24566402251E+02  0.00000000000E+00 0. -1.
</event>
<event>
 5    1  0.8900327E-005  0.9118800E+02  0.7818608E-02  0.1130116E+00
         25   -1    0    0    0    0  0.00000000000E+00  0.00000000000E+00  0.99999998245E-14  0.12500000000E+03  0.12500000000E+03 0.  0.
        -11    1    3    3    0    0 -0.15946775790E+02 -0.59653603024E+02 -0.90604869976E+01  0.62409489957E+02  0.51100000000E-03 0.  1.
         23    2    1    0    0    0 -0.62024773943E+01 -0.28794718472E+02 -0.24116371980E+01  0.95446277194E+02  0.90755546929E+02 0.  0.
         11    1    3    3    0    0  0.97442983957E+01  0.30858884552E+02  0.66488497996E+01  0.33036787236E+02  0.51100000000E-03 0. -1.
         22    1    1    0    0    0  0.62024773943E+01  0.28794718472E+02  0.24116371980E+01  0.29553722806E+02  0.00000000000E+00 0.  1.
</event>
<event>
 5    1  0.8900327E-005  0.9118800E+02  0.7818608E-02  0.1130116E+00
         25   -1    0    0    0    0  0.00000000000E+00  0.00000000000E+00  0.99999998245E-14  0.12500000000E+03  0.12500000000E+03 0.  0.
        -11    1    3    3    0    0  0.11846904322E+02 -0.36401582498E+02 -0.25839808634E+02  0.46185712735E+02  0.51100000000E-03 0. -1.
         23    2    1    0    0    0  0.26926594451E+02  0.75635114703E+01 -0.90827426576E+01  0.95593463164E+02  0.90958044125E+02 0.  0.
         11    1    3    3    0    0  0.15079690130E+02  0.43965093968E+02  0.16757065977E+02  0.49407750429E+02  0.51100000000E-03 0.  1.
         22    1    1    0    0    0 -0.26926594451E+02 -0.75635114703E+01  0.90827426576E+01  0.29406536836E+02  0.00000000000E+00 0. -1.
</event>
<event>
 5    1  0.8900327E-005  0.9118800E+02  0.7818608E-02  0.1130116E+00
         25   -1    0    0    0    0  0.00000000000E+00  0.00000000000E+00  0.99999998245E-14  0.12500000000E+03  0.12500000000E+03 0.  0.
        -11    1    3    3    0    0 -0.33511450912E+02 -0.16206015452E+02  0.13938715231E+02  0.39748459865E+02  0.51100000000E-03 0.  1.
         23    2    1    0    0    0 -0.50537414992E+01  0.28912983212E+02 -0.24327662243E+01  0.95548017845E+02  0.90895568986E+02 0.  0.
         11    1    3    3    0    0  0.28457709413E+02  0.45118998664E+02 -0.16371481456E+02  0.55799557980E+02  0.51100000000E-03 0. -1.
         22    1    1    0    0    0  0.50537414992E+01 -0.28912983212E+02  0.24327662243E+01  0.29451982155E+02  0.00000000000E+00 0. -1.
</event>
<event>
 5    1  0.8900327E-005  0.9118800E+02  0.7818608E-02  0.1130116E+00
         25   -1    0    0    0    0  0.00000000000E+00  0.00000000000E+00  0.99999998245E-14  0.12500000000E+03  0.12500000000E+03 0.  0.
        -11    1    3    3    0    0  0.19675779731E+01  0.65419789859E+01  0.26711461904E+02  0.27571199638E+02  0.51100000000E-03 0. -1.
         23    2    1    0    0    0  0.15589367635E+02 -0.19295151211E+01 -0.32492395100E+02  0.88909736061E+02  0.81255362993E+02 0.  0.
         11    1    3    3    0    0  0.13621789662E+02 -0.84714941070E+01 -0.59203857005E+02  0.61338536423E+02  0.51100000000E-03 0.  1.
         22    1    1    0    0    0 -0.15589367635E+02  0.19295151211E+01  0.32492395100E+02  0.36090263939E+02  0.00000000000E+00 0.  1.
</event>
<event>
 5    1  0.8900327E-005  0.9118800E+02  0.7818608E-02  0.1130116E+00
         25   -1    0    0    0    0  0.00000000000E+00  0.00000000000E+00  0.99999998245E-14  0.12500000000E+03  0.12500000000E+03 0.  0.
        -11    1    3    3    0    0  0.23984348316E+02  0.11767456513E+02  0.26169751122E+02  0.37397565041E+02  0.51100000000E-03 0.  1.
         23    2    1    0    0    0 -0.11667656557E+02 -0.27094641441E+02  0.19381418939E+01  0.95436336520E+02  0.90741854346E+02 0.  0.
         11    1    3    3    0    0 -0.35652004872E+02 -0.38862097954E+02 -0.24231609228E+02  0.58038771480E+02  0.51100000000E-03 0. -1.
         22    1    1    0    0    0  0.11667656557E+02  0.27094641441E+02 -0.19381418939E+01  0.29563663480E+02  0.00000000000E+00 0. -1.
</event>
<event>
 5    1  0.8900327E-005  0.9118800E+02  0.7818608E-02  0.1130116E+00
         25   -1    0    0    0    0  0.00000000000E+00  0.00000000000E+00  0.99999998245E-14  0.12500000000E+03  0.12500000000E+03 0.  0.
        -11    1    3    3    0    0  0.16025847835E+02 -0.31293577127E+02  0.95222541786E+01  0.36425116240E+02  0.51100000000E-03 0. -1.
         23    2    1    0    0    0  0.60900299615E+01  0.15378417783E+02 -0.24789918528E+02  0.95198586291E+02  0.90413752121E+02 0.  0.
         11    1    3    3    0    0 -0.99358178736E+01  0.46671994909E+02 -0.34312172707E+02  0.58773470050E+02  0.51100000000E-03 0.  1.
         22    1    1    0    0    0 -0.60900299615E+01 -0.15378417783E+02  0.24789918528E+02  0.29801413709E+02  0.00000000000E+00 0.  1.
</event>
<event>
 5    1  0.8900327E-005  0.9118800E+02  0.7818608E-02  0.1130116E+00
         25   -1    0    0    0    0  0.00000000000E+00  0.00000000000E+00  0.99999998245E-14  0.12500000000E+03  0.12500000000E+03 0.  0.
        -11    1    3    3    0    0  0.48257918198E+02 -0.19187297419E+02 -0.19908598812E+02  0.55617725214E+02  0.51100000000E-03 0. -1.
         23    2    1    0    0    0  0.29637234034E+02  0.78785039119E+01  0.56617293714E+00  0.94328237467E+02  0.89202350680E+02 0.  0.
         11    1    3    3    0    0 -0.18620684164E+02  0.27065801331E+02  0.20474771750E+02  0.38710512253E+02  0.51100000000E-03 0.  1.
         22    1    1    0    0    0 -0.29637234034E+02 -0.78785039119E+01 -0.56617293714E+00  0.30671762533E+02  0.00000000000E+00 0. -1.
</event>
<event>
 5    1  0.8900327E-005  0.9118800E+02  0.7818608E-02  0.1130116E+00
         25   -1    0    0    0    0  0.00000000000E+00  0.00000000000E+00  0.99999998245E-14  0.12500000000E+03  0.12500000000E+03 0.  0.
        -11    1    3    3    0    0 -0.40812741625E+02  0.20773261373E+02 -0.32802757610E+00  0.45796461319E+02  0.51100000000E-03 0. -1.
         23    2    1    0    0    0 -0.18418661003E+02 -0.20585122399E+02 -0.12949945177E+02  0.94492698949E+02  0.89432514989E+02 0.  0.
         11    1    3    3    0    0  0.22394080622E+02 -0.41358383772E+02 -0.12621917601E+02  0.48696237630E+02  0.51100000000E-03 0.  1.
         22    1    1    0    0    0  0.18418661003E+02  0.20585122399E+02  0.12949945177E+02  0.30507301051E+02  0.00000000000E+00 0. -1.
</event>
<event>
 5    1  0.8900327E-005  0.9118800E+02  0.7818608E-02  0.1130116E+00
         25   -1    0    0    0    0  0.00000000000E+00  0.00000000000E+00  0.99999998245E-14  0.12500000000E+03  0.12500000000E+03 0.  0.
        -11    1    3    3    0    0 -0.31123514690E+02  0.18031487866E+02 -0.83731007038E+00  0.35979283063E+02  0.51100000000E-03 0.  1.
         23    2    1    0    0    0  0.15050570458E+02 -0.14110006788E+02 -0.20827396868E+02  0.95684604336E+02  0.91083209671E+02 0.  0.
         11    1    3    3    0    0  0.46174085148E+02 -0.32141494654E+02 -0.19990086797E+02  0.59705321273E+02  0.51100000000E-03 0. -1.
         22    1    1    0    0    0 -0.15050570458E+02  0.14110006788E+02  0.20827396868E+02  0.29315395664E+02  0.00000000000E+00 0. -1.
</event>
<event>
 5    1  0.8900327E-005  0.9118800E+02  0.7818608E-02  0.1130116E+00
         25   -1    0    0    0    0  0.00000000000E+00  0.00000000000E+00  0.99999998245E-14  0.12500000000E+03  0.12500000000E+03 0.  0.
        -11    1    3    3    0    0  0.32987204495E+02  0.21986093498E+02 -0.16845321497E+02  0.43073295954E+02  0.51100000000E-03 0.  1.
         23    2    1    0    0    0 -0.19677242872E+01 -0.15243119715E+02 -0.25847708334E+02  0.94927942145E+02  0.90038800171E+02 0.  0.
         11    1    3    3    0    0 -0.34954928782E+02 -0.37229213213E+02 -0.90023868366E+01  0.51854646192E+02  0.51100000000E-03 0. -1.
         22    1    1    0    0    0  0.19677242872E+01  0.15243119715E+02  0.25847708334E+02  0.30072057855E+02  0.00000000000E+00 0. -1.
</event>
<event>
 5    1  0.8900327E-005  0.9118800E+02  0.7818608E-02  0.1130116E+00
         25   -1    0    0    0    0  0.00000000000E+00  0.00000000000E+00  0.99999998245E-14  0.12500000000E+03  0.12500000000E+03 0.  0.
        -11    1    3    3    0    0  0.15949404359E+02 -0.24474616030E+02 -0.52943377929E+02  0.60468103956E+02  0.51100000000E-03 0.  1.
         23    2    1    0    0    0 -0.32587356829E+01 -0.14620437529E+02 -0.26002590064E+02  0.94991480513E+02  0.90126966709E+02 0.  0.
         11    1    3    3    0    0 -0.19208140042E+02  0.98541785012E+01  0.26940787865E+02  0.34523376557E+02  0.51100000000E-03 0. -1.
         22    1    1    0    0    0  0.32587356829E+01  0.14620437529E+02  0.26002590064E+02  0.30008519487E+02  0.00000000000E+00 0.  1.
</event>
<event>
 5    1  0.8900327E-005  0.9118800E+02  0.7818608E-02  0.1130116E+00
         25   -1    0    0    0    0  0.00000000000E+00  0.00000000000E+00  0.99999998245E-14  0.12500000000E+03  0.12500000000E+03 0.  0.
        -11    1    3    3    0    0 -0.72560377554E+01  0.39342028923E+01  0.60890557256E+02  0.61447440952E+02  0.51100000000E-03 0.  1.
         23    2    1    0    0    0 -0.10279667260E+02  0.60288174595E+01  0.27646110558E+02  0.94894757468E+02  0.89992718411E+02 0.  0.
         11    1    3    3    0    0 -0.30236295047E+01  0.20946145673E+01 -0.33244446699E+02  0.33447316516E+02  0.51100000000E-03 0. -1.
         22    1    1    0    0    0  0.10279667260E+02 -0.60288174595E+01 -0.27646110558E+02  0.30105242532E+02  0.00000000000E+00 0.  1.
</event>
<event>
 5    1  0.8900327E-005  0.9118800E+02  0.7818608E-02  0.1130116E+00
         25   -1    0    0    0    0  0.00000000000E+00  0.00000000000E+00  0.99999998245E-14  0.12500000000E+03  0.12500000000E+03 0.  0.
        -11    1    3    3    0    0  0.40508415933E+02 -0.18747940714E+02  0.56685545829E+01  0.44994994763E+02  0.51100000000E-03 0. -1.
         23    2    1    0    0    0  0.13294722364E+02  0.19131786945E+02 -0.16314957993E+02  0.96557904986E+02  0.92273919645E+02 0.  0.
         11    1    3    3    0    0 -0.27213693570E+02  0.37879727659E+02 -0.21983512576E+02  0.51562910223E+02  0.51100000000E-03 0.  1.
         22    1    1    0    0    0 -0.13294722364E+02 -0.19131786945E+02  0.16314957993E+02  0.28442095014E+02  0.00000000000E+00 0.  1.
</event>
<event>
 5    1  0.8900327E-005  0.9118800E+02  0.7818608E-02  0.1130116E+00
         25   -1    0    0    0    0  0.00000000000E+00  0.00000000000E+00  0.99999998245E-14  0.12500000000E+03  0.12500000000E+03 0.  0.
        -11    1    3    3    0    0 -0.52651294731E+02 -0.14476548394E+02 -0.14801618939E+02  0.56575765251E+02  0.51100000000E-03 0. -1.
         23    2    1    0    0    0 -0.14730144596E+02 -0.15703052959E+02 -0.20888370502E+02  0.95001882488E+02  0.90141392390E+02 0.  0.
         11    1    3    3    0    0  0.37921150135E+02 -0.12265045646E+01 -0.60867515630E+01  0.38426117237E+02  0.51100000000E-03 0.  1.
         22    1    1    0    0    0  0.14730144596E+02  0.15703052959E+02  0.20888370502E+02  0.29998117512E+02  0.00000000000E+00 0.  1.
</event>
<event>
 5    1  0.8900327E-005  0.9118800E+02  0.7818608E-02  0.1130116E+00
         25   -1    0    0    0    0  0.00000000000E+00  0.00000000000E+00  0.99999998245E-14  0.12500000000E+03  0.12500000000E+03 0.  0.
        -11    1    3    3    0    0 -0.40954255215E+02  0.14599693657E+02  0.95236671860E+01  0.44509575509E+02  0.51100000000E-03 0. -1.
         23    2    1    0    0    0 -0.62482085637E+00 -0.16796907376E+02  0.22187179885E+02  0.97164816334E+02  0.93092449121E+02 0.  0.
         11    1    3    3    0    0  0.40329434358E+02 -0.31396601034E+02  0.12663512699E+02  0.52655240824E+02  0.51100000000E-03 0.  1.
         22    1    1    0    0    0  0.62482085637E+00  0.16796907376E+02 -0.22187179885E+02  0.27835183666E+02  0.00000000000E+00 0.  1.
</event>
<event>
 5    1  0.8900327E-005  0.9118800E+02  0.7818608E-02  0.1130116E+00
         25   -1    0    0    0    0  0.00000000000E+00  0.00000000000E+00  0.99999998245E-14  0.12500000000E+03  0.12500000000E+03 0.  0.
        -11    1    3    3    0    0 -0.41380375878E+02  0.26341381998E+02 -0.37102195177E+02  0.61504282782E+02  0.51100000000E-03 0. -1.
         23    2    1    0    0    0 -0.20134956470E+02  0.21467907929E+02 -0.17912280195E+02  0.90545140768E+02  0.83733417415E+02 0.  0.
         11    1    3    3    0    0  0.21245419408E+02 -0.48734740686E+01  0.19189914982E+02  0.29040857986E+02  0.51100000000E-03 0.  1.
         22    1    1    0    0    0  0.20134956470E+02 -0.21467907929E+02  0.17912280195E+02  0.34454859232E+02  0.00000000000E+00 0. -1.
</event>
<event>
 5    1  0.8900327E-005  0.9118800E+02  0.7818608E-02  0.1130116E+00
         25   -1    0    0    0    0  0.00000000000E+00  0.00000000000E+00  0.99999998245E-14  0.12500000000E+03  0.12500000000E+03 0.  0.
        -11    1    3    3    0    0  0.12567471884E+01  0.14455247553E+02 -0.38234318209E+02  0.40894946931E+02  0.51100000000E-03 0.  1.
         23    2    1    0    0    0  0.33180504590E+02  0.34777547150E+01 -0.35279628802E+00  0.91635870641E+02  0.85346163711E+02 0.  0.
         11    1    3    3    0    0  0.31923757401E+02 -0.10977492838E+02  0.37881521921E+02  0.50740923710E+02  0.51100000000E-03 0. -1.
         22    1    1    0    0    0 -0.33180504590E+02 -0.34777547150E+01  0.35279628802E+00  0.33364129359E+02  0.00000000000E+00 0. -1.
</event>
<event>
 5    1  0.8900327E-005  0.9118800E+02  0.7818608E-02  0.1130116E+00
         25   -1    0    0    0    0  0.00000000000E+00  0.00000000000E+00  0.99999998245E-14  0.12500000000E+03  0.12500000000E+03 0.  0.
        -11    1    3    3    0    0 -0.38247083417E+02  0.29304642300E+02  0.35281671715E+02  0.59719325260E+02  0.51100000000E-03 0.  1.
         23    2    1    0    0    0 -0.22440803902E+02  0.30728893775E+02  0.30318135279E+02  0.76347724419E+02  0.58838177272E+02 0.  0.
         11    1    3    3    0    0  0.15806279515E+02  0.14242514745E+01 -0.49635364357E+01  0.16628399159E+02  0.51100000000E-03 0. -1.
         22    1    1    0    0    0  0.22440803902E+02 -0.30728893775E+02 -0.30318135279E+02  0.48652275581E+02  0.00000000000E+00 0.  1.
</event>
<event>
 5    1  0.8900327E-005  0.9118800E+02  0.7818608E-02  0.1130116E+00
         25   -1    0    0    0    0  0.00000000000E+00  0.00000000000E+00  0.99999998245E-14  0.12500000000E+03  0.12500000000E+03 0.  0.
        -11    1    3    3    0    0 -0.33071720967E+02  0.26860729202E+02 -0.17450910454E+02  0.46040979322E+02  0.51100000000E-03 0. -1.
         23    2    1    0    0    0  0.17371861437E+02  0.17110270201E+02 -0.12340451870E+02  0.97671815493E+02  0.93770751693E+02 0.  0.
         11    1    3    3    0    0  0.50443582404E+02 -0.97504590016E+01  0.51104585842E+01  0.51630836170E+02  0.51100000000E-03 0.  1.
         22    1    1    0    0    0 -0.17371861437E+02 -0.17110270201E+02  0.12340451870E+02  0.27328184507E+02  0.00000000000E+00 0.  1.
</event>
<event>
 5    1  0.8900327E-005  0.9118800E+02  0.7818608E-02  0.1130116E+00
         25   -1    0    0    0    0  0.00000000000E+00  0.00000000000E+00  0.99999998245E-14  0.12500000000E+03  0.12500000000E+03 0.  0.
        -11    1    3    3    0    0  0.35490759268E+02 -0.35588895452E+02 -0.36116328455E+02  0.61891458653E+02  0.51100000000E-03 0. -1.
         23    2    1    0    0    0  0.20885627651E+02 -0.12375927487E+02 -0.15577990570E+02  0.96154778320E+02  0.91726193533E+02 0.  0.
         11    1    3    3    0    0 -0.14605131617E+02  0.23212967964E+02  0.20538337885E+02  0.34263319667E+02  0.51100000000E-03 0.  1.
         22    1    1    0    0    0 -0.20885627651E+02  0.12375927487E+02  0.15577990570E+02  0.28845221680E+02  0.00000000000E+00 0. -1.
</event>
<event>
 5    1  0.8900327E-005  0.9118800E+02  0.7818608E-02  0.1130116E+00
         25   -1    0    0    0    0  0.00000000000E+00  0.00000000000E+00  0.99999998245E-14  0.12500000000E+03  0.12500000000E+03 0.  0.
        -11    1    3    3    0    0 -0.10113395954E+02  0.95679276036E+01  0.37429995862E+02  0.39935330308E+02  0.51100000000E-03 0.  1.
         23    2    1    0    0    0  0.24882622112E+02  0.93069293320E+01 -0.79750853307E+01  0.97262555943E+02  0.93223596722E+02 0.  0.
         11    1    3    3    0    0  0.34996018066E+02 -0.26099827169E+00 -0.45405081193E+02  0.57327225635E+02  0.51100000000E-03 0. -1.
         22    1    1    0    0    0 -0.24882622112E+02 -0.93069293320E+01  0.79750853307E+01  0.27737444057E+02  0.00000000000E+00 0. -1.
</event>
<event>
 5    1  0.8900327E-005  0.9118800E+02  0.7818608E-02  0.1130116E+00
         25   -1    0    0    0    0  0.00000000000E+00  0.00000000000E+00  0.99999998245E-14  0.12500000000E+03  0.12500000000E+03 0.  0.
        -11    1    3    3    0    0  0.23184817832E+02  0.79208877268E+01  0.42914584399E+02  0.49415967001E+02  0.51100000000E-03 0.  1.
         23    2    1    0    0    0  0.23165445832E+01  0.27676017971E+02  0.53412385370E+01  0.96718253614E+02  0.92490882813E+02 0.  0.
         11    1    3    3    0    0 -0.20868273249E+02  0.19755130244E+02 -0.37573345862E+02  0.47302286613E+02  0.51100000000E-03 0. -1.
         22    1    1    0    0    0 -0.23165445832E+01 -0.27676017971E+02 -0.53412385370E+01  0.28281746386E+02  0.00000000000E+00 0. -1.
</event>
<event>
 5    1  0.8900327E-005  0.9118800E+02  0.7818608E-02  0.1130116E+00
         25   -1    0    0    0    0  0.00000000000E+00  0.00000000000E+00  0.99999998245E-14  0.12500000000E+03  0.12500000000E+03 0.  0.
        -11    1    3    3    0    0  0.21269499886E+02 -0.49711446341E+02 -0.17584258726E+02  0.56857942962E+02  0.51100000000E-03 0. -1.
         23    2    1    0    0    0 -0.36535288766E+01 -0.28562277701E+02  0.38541307984E+01  0.95948213395E+02  0.91444263619E+02 0.  0.
         11    1    3    3    0    0 -0.24923028763E+02  0.21149168640E+02  0.21438389524E+02  0.39090270433E+02  0.51100000000E-03 0.  1.
         22    1    1    0    0    0  0.36535288766E+01  0.28562277701E+02 -0.38541307984E+01  0.29051786605E+02  0.00000000000E+00 0. -1.
</event>
<event>
 5    1  0.8900327E-005  0.9118800E+02  0.7818608E-02  0.1130116E+00
         25   -1    0    0    0    0  0.00000000000E+00  0.00000000000E+00  0.99999998245E-14  0.12500000000E+03  0.12500000000E+03 0.  0.
        -11    1    3    3    0    0  0.40223774381E+02  0.56935211452E+01 -0.21851661421E+02  0.46128768850E+02  0.51100000000E-03 0.  1.
         23    2    1    0    0    0  0.13862344341E+02  0.14615486054E+02  0.20146079137E+02  0.96510676951E+02  0.92209919411E+02 0.  0.
         11    1    3    3    0    0 -0.26361430041E+02  0.89219649085E+01  0.41997740558E+02  0.50381908101E+02  0.51100000000E-03 0. -1.
         22    1    1    0    0    0 -0.13862344341E+02 -0.14615486054E+02 -0.20146079137E+02  0.28489323049E+02  0.00000000000E+00 0. -1.
</event>
<event>
 5    1  0.8900327E-005  0.9118800E+02  0.7818608E-02  0.1130116E+00
         25   -1    0    0    0    0  0.00000000000E+00  0.00000000000E+00  0.99999998245E-14  0.12500000000E+03  0.12500000000E+03 0.  0.
        -11    1    3    3    0    0  0.19848979089E+02 -0.45652633638E+02 -0.37512966985E+02  0.62332717101E+02  0.51100000000E-03 0.  1.
         23    2    1    0    0    0  0.12436353779E+02 -0.22139055116E+02 -0.16595234686E+02  0.94665160771E+02  0.89673241231E+02 0.  0.
         11    1    3    3    0    0 -0.74126253100E+01  0.23513578522E+02  0.20917732299E+02  0.32332443670E+02  0.51100000000E-03 0. -1.
         22    1    1    0    0    0 -0.12436353779E+02  0.22139055116E+02  0.16595234686E+02  0.30334839229E+02  0.00000000000E+00 0.  1.
</event>
<event>
 5    1  0.8900327E-005  0.9118800E+02  0.7818608E-02  0.1130116E+00
         25   -1    0    0    0    0  0.00000000000E+00  0.00000000000E+00  0.99999998245E-14  0.12500000000E+03  0.12500000000E+03 0.  0.
        -11    1    3    3    0    0 -0.30976328010E+02 -0.45607342270E+01 -0.50569089386E+02  0.59477441062E+02  0.51100000000E-03 0.  1.
         23    2    1    0    0    0 -0.23389782563E+02  0.69376269358E+01 -0.18493945604E+02  0.94385646833E+02  0.89282762660E+02 0.  0.
         11    1    3    3    0    0  0.75865454464E+01  0.11498361163E+02  0.32075143782E+02  0.34908205771E+02  0.51100000000E-03 0. -1.
         22    1    1    0    0    0  0.23389782563E+02 -0.69376269358E+01  0.18493945604E+02  0.30614353167E+02  0.00000000000E+00 0.  1.
</event>
<event>
 5    1  0.8900327E-005  0.9118800E+02  0.7818608E-02  0.1130116E+00
         25   -1    0    0    0    0  0.00000000000E+00  0.00000000000E+00  0.99999998245E-14  0.12500000000E+03  0.12500000000E+03 0.  0.
        -11    1    3    3    0    0  0.10813495432E+01 -0.63779876670E+01  0.43256791377E+02  0.43737833097E+02  0.51100000000E-03 0. -1.
         23    2    1    0    0    0  0.26474936131E+02 -0.11081833355E+02 -0.24068567627E+01  0.96198572377E+02  0.91785854543E+02 0.  0.
         11    1    3    3    0    0  0.25393586588E+02 -0.47038456879E+01 -0.45663648140E+02  0.52460739280E+02  0.51100000000E-03 0.  1.
         22    1    1    0    0    0 -0.26474936131E+02  0.11081833355E+02  0.24068567627E+01  0.28801427623E+02  0.00000000000E+00 0.  1.
</event>
<event>
 5    1  0.8900327E-005  0.9118800E+02  0.7818608E-02  0.1130116E+00
         25   -1    0    0    0    0  0.00000000000E+00  0.00000000000E+00  0.99999998245E-14  0.12500000000E+03  0.12500000000E+03 0.  0.
        -11    1    3    3    0    0  0.15171185382E+02 -0.21777539434E+02  0.22102624590E+02  0.34539138723E+02  0.51100000000E-03 0. -1.
         23    2    1    0    0    0 -0.24447843538E+02  0.12095377262E+02 -0.10219248642E+02  0.95872208330E+02  0.91340309188E+02 0.  0.
         11    1    3    3    0    0 -0.39619028919E+02  0.33872916696E+02 -0.32321873232E+02  0.61333069607E+02  0.51100000000E-03 0.  1.
         22    1    1    0    0    0  0.24447843538E+02 -0.12095377262E+02  0.10219248642E+02  0.29127791670E+02  0.00000000000E+00 0.  1.
</event>
<event>
 5    1  0.8900327E-005  0.9118800E+02  0.7818608E-02  0.1130116E+00
         25   -1    0    0    0    0  0.00000000000E+00  0.00000000000E+00  0.99999998245E-14  0.12500000000E+03  0.12500000000E+03 0.  0.
        -11    1    3    3    0    0 -0.36340023124E+02  0.40572337901E+02 -0.15720591434E+02  0.56690818293E+02  0.51100000000E-03 0.  1.
         23    2    1    0    0    0  0.26030030786E+00  0.26178763154E+02 -0.12017052984E+02  0.96193664604E+02  0.91779170572E+02 0.  0.
         11    1    3    3    0    0  0.36600323432E+02 -0.14393574747E+02  0.37035384492E+01  0.39502846311E+02  0.51100000000E-03 0. -1.
         22    1    1    0    0    0 -0.26030030786E+00 -0.26178763154E+02  0.12017052984E+02  0.28806335396E+02  0.00000000000E+00 0.  1.
</event>
<event>
 5    1  0.8900327E-005  0.9118800E+02  0.7818608E-02  0.1130116E+00
         25   -1    0    0    0    0  0.00000000000E+00  0.00000000000E+00  0.99999998245E-14  0.12500000000E+03  0.12500000000E+03 0.  0.
        -11    1    3    3    0    0  0.27846584278E+02  0.71039707902E+01  0.21641194383E+02  0.35975546578E+02  0.51100000000E-03 0.  1.
         23    2    1    0    0    0 -0.19433572509E+00 -0.16975554910E+02 -0.24561048454E+02  0.95142801001E+02  0.90336594193E+02 0.  0.
         11    1    3    3    0    0 -0.28040920004E+02 -0.24079525700E+02 -0.46202242837E+02  0.59167254424E+02  0.51100000000E-03 0. -1.
         22    1    1    0    0    0  0.19433572509E+00  0.16975554910E+02  0.24561048454E+02  0.29857198999E+02  0.00000000000E+00 0. -1.
</event>
<event>
 5    1  0.8900327E-005  0.9118800E+02  0.7818608E-02  0.1130116E+00
         25   -1    0    0    0    0  0.00000000000E+00  0.00000000000E+00  0.99999998245E-14  0.12500000000E+03  0.12500000000E+03 0.  0.
        -11    1    3    3    0    0 -0.50173637700E+02  0.31427144378E+02 -0.25134274503E+01  0.59256869996E+02  0.51100000000E-03 0. -1.
         23    2    1    0    0    0 -0.17234498692E+02  0.23754543021E+02 -0.10181244200E+02  0.93936130428E+02  0.88651185029E+02 0.  0.
         11    1    3    3    0    0  0.32939139008E+02 -0.76726013571E+01 -0.76678167496E+01  0.34679260433E+02  0.51100000000E-03 0.  1.
         22    1    1    0    0    0  0.17234498692E+02 -0.23754543021E+02  0.10181244200E+02  0.31063869572E+02  0.00000000000E+00 0. -1.
</event>
<event>
 5    1  0.8900327E-005  0.9118800E+02  0.7818608E-02  0.1130116E+00
         25   -1    0    0    0    0  0.00000000000E+00  0.00000000000E+00  0.99999998245E-14  0.12500000000E+03  0.12500000000E+03 0.  0.
        -11    1    3    3    0    0 -0.21356162807E+02 -0.11780202232E+02  0.24541716697E+02  0.34599923601E+02  0.51100000000E-03 0.  1.
         23    2    1    0    0    0 -0.35146658833E+02  0.18815988059E+02 -0.11161955622E+02  0.83600503783E+02  0.72630062273E+02 0.  0.
         11    1    3    3    0    0 -0.13790496025E+02  0.30596190291E+02 -0.35703672318E+02  0.49000580182E+02  0.51100000000E-03 0. -1.
         22    1    1    0    0    0  0.35146658833E+02 -0.18815988059E+02  0.11161955622E+02  0.41399496217E+02  0.00000000000E+00 0. -1.
</event>
<event>
 5    1  0.8900327E-005  0.9118800E+02  0.7818608E-02  0.1130116E+00
         25   -1    0    0    0    0  0.00000000000E+00  0.00000000000E+00  0.99999998245E-14  0.12500000000E+03  0.12500000000E+03 0.  0.
        -11    1    3    3    0    0 -0.59580381000E+02  0.30236478855E+01  0.80770188817E+01  0.60201349494E+02  0.51100000000E-03 0. -1.
         23    2    1    0    0    0 -0.27078759893E+02  0.10322405973E+02 -0.42304779212E+01  0.95713343553E+02  0.91122642018E+02 0.  0.
         11    1    3    3    0    0  0.32501621107E+02  0.72987580872E+01 -0.12307496803E+02  0.35511994059E+02  0.51100000000E-03 0.  1.
         22    1    1    0    0    0  0.27078759893E+02 -0.10322405973E+02  0.42304779212E+01  0.29286656447E+02  0.00000000000E+00 0. -1.
</event>
<event>
 5    1  0.8900327E-005  0.9118800E+02  0.7818608E-02  0.1130116E+00
         25   -1    0    0    0    0  0.00000000000E+00  0.00000000000E+00  0.99999998245E-14  0.12500000000E+03  0.12500000000E+03 0.  0.
        -11    1    3    3    0    0 -0.20131848525E+02 -0.17137510368E+02 -0.46465178829E+02  0.53460250939E+02  0.51100000000E-03 0.  1.
         23    2    1    0    0    0 -0.15682670812E+02 -0.25122372165E+02 -0.62097252861E+01  0.94740448861E+02  0.89778127711E+02 0.  0.
         11    1    3    3    0    0  0.44491777121E+01 -0.79848617972E+01  0.40255453543E+02  0.41280197922E+02  0.51100000000E-03 0. -1.
         22    1    1    0    0    0  0.15682670812E+02  0.25122372165E+02  0.62097252861E+01  0.30259551139E+02  0.00000000000E+00 0. -1.
</event>
<event>
 5    1  0.8900327E-005  0.9118800E+02  0.7818608E-02  0.1130116E+00
         25   -1    0    0    0    0  0.00000000000E+00  0.00000000000E+00  0.99999998245E-14  0.12500000000E+03  0.12500000000E+03 0.  0.
        -11    1    3    3    0    0  0.12174994831E+02 -0.54867181010E+01 -0.38182503322E+02  0.40450440478E+02  0.51100000000E-03 0. -1.
         23    2    1    0    0    0 -0.14263605016E+02 -0.26420946345E+02  0.42758756085E+01  0.94671796195E+02  0.89682490201E+02 0.  0.
         11    1    3    3    0    0 -0.26438599848E+02 -0.20934228244E+02  0.42458378931E+02  0.54221355717E+02  0.51100000000E-03 0.  1.
         22    1    1    0    0    0  0.14263605016E+02  0.26420946345E+02 -0.42758756085E+01  0.30328203805E+02  0.00000000000E+00 0. -1.
</event>
<event>
 5    1  0.8900327E-005  0.9118800E+02  0.7818608E-02  0.1130116E+00
         25   -1    0    0    0    0  0.00000000000E+00  0.00000000000E+00  0.99999998245E-14  0.12500000000E+03  0.12500000000E+03 0.  0.
        -11    1    3    3    0    0  0.29616182504E+02  0.29671856072E+01  0.22279711928E+02  0.37179403174E+02  0.51100000000E-03 0. -1.
         23    2    1    0    0    0 -0.46072921421E+01 -0.25209324338E+02 -0.15177710555E+02  0.95215774776E+02  0.90437512649E+02 0.  0.
         11    1    3    3    0    0 -0.34223474646E+02 -0.28176509946E+02 -0.37457422482E+02  0.58036371603E+02  0.51100000000E-03 0.  1.
         22    1    1    0    0    0  0.46072921421E+01  0.25209324338E+02  0.15177710555E+02  0.29784225224E+02  0.00000000000E+00 0.  1.
</event>
<event>
 5    1  0.8900327E-005  0.9118800E+02  0.7818608E-02  0.1130116E+00
         25   -1    0    0    0    0  0.00000000000E+00  0.00000000000E+00  0.99999998245E-14  0.12500000000E+03  0.12500000000E+03 0.  0.
        -11    1    3    3    0    0  0.16770624436E+02  0.52198055297E+02  0.75612967734E+01  0.55344954873E+02  0.51100000000E-03 0. -1.
         23    2    1    0    0    0 -0.11480486844E+02  0.26145166915E+02 -0.54732793023E+01  0.95925473047E+02  0.91413173349E+02 0.  0.
         11    1    3    3    0    0 -0.28251111280E+02 -0.26052888381E+02 -0.13034576076E+02  0.40580518174E+02  0.51100000000E-03 0.  1.
         22    1    1    0    0    0  0.11480486844E+02 -0.26145166915E+02  0.54732793023E+01  0.29074526953E+02  0.00000000000E+00 0. -1.
</event>
<event>
 5    1  0.8900327E-005  0.9118800E+02  0.7818608E-02  0.1130116E+00
         25   -1    0    0    0    0  0.00000000000E+00  0.00000000000E+00  0.99999998245E-14  0.12500000000E+03  0.12500000000E+03 0.  0.
        -11    1    3    3    0    0 -0.17812870519E+02  0.21538646500E+02  0.55617720406E+02  0.62245822933E+02  0.51100000000E-03 0.  1.
         23    2    1    0    0    0 -0.77524413248E+01  0.88010017731E+01  0.32129311436E+02  0.90796920722E+02  0.84108442980E+02 0.  0.
         11    1    3    3    0    0  0.10060429194E+02 -0.12737644727E+02 -0.23488408970E+02  0.28551097789E+02  0.51100000000E-03 0. -1.
         22    1    1    0    0    0  0.77524413248E+01 -0.88010017731E+01 -0.32129311436E+02  0.34203079278E+02  0.00000000000E+00 0.  1.
</event>
<event>
 5    1  0.8900327E-005  0.9118800E+02  0.7818608E-02  0.1130116E+00
         25   -1    0    0    0    0  0.00000000000E+00  0.00000000000E+00  0.99999998245E-14  0.12500000000E+03  0.12500000000E+03 0.  0.
        -11    1    3    3    0    0  0.24424681725E+02 -0.97123980239E+01  0.35108492719E+02  0.43857747480E+02  0.51100000000E-03 0. -1.
         23    2    1    0    0    0 -0.22221490227E+02 -0.53100756316E+01  0.42991858227E+00  0.10214882145E+03  0.99560059073E+02 0.  0.
         11    1    3    3    0    0 -0.46646171952E+02  0.44023223924E+01 -0.34678574137E+02  0.58291073971E+02  0.51100000000E-03 0.  1.
         22    1    1    0    0    0  0.22221490227E+02  0.53100756316E+01 -0.42991858227E+00  0.22851178549E+02  0.00000000000E+00 0.  1.
</event>
<event>
 5    1  0.8900327E-005  0.9118800E+02  0.7818608E-02  0.1130116E+00
         25   -1    0    0    0    0  0.00000000000E+00  0.00000000000E+00  0.99999998245E-14  0.12500000000E+03  0.12500000000E+03 0.  0.
        -11    1    3    3    0    0 -0.41280463171E+02 -0.32900999991E+02  0.18428745041E+02  0.55912172951E+02  0.51100000000E-03 0. -1.
         23    2    1    0    0    0 -0.16821322638E+02 -0.35448956329E+01  0.24976261700E+02  0.94679432247E+02  0.89693132746E+02 0.  0.
         11    1    3    3    0    0  0.24459140533E+02  0.29356104358E+02  0.65475166591E+01  0.38767259296E+02  0.51100000000E-03 0.  1.
         22    1    1    0    0    0  0.16821322638E+02  0.35448956329E+01 -0.24976261700E+02  0.30320567753E+02  0.00000000000E+00 0. -1.
</event>
<event>
 5    1  0.8900327E-005  0.9118800E+02  0.7818608E-02  0.1130116E+00
         25   -1    0    0    0    0  0.00000000000E+00  0.00000000000E+00  0.99999998245E-14  0.12500000000E+03  0.12500000000E+03 0.  0.
        -11    1    3    3    0    0 -0.32830876034E+02  0.18531388199E+02  0.26211542757E+02  0.45916486622E+02  0.51100000000E-03 0.  1.
         23    2    1    0    0    0  0.11370550159E+01  0.29133092771E+02 -0.74592342223E+01  0.94905645651E+02  0.90007840841E+02 0.  0.
         11    1    3    3    0    0  0.33967931050E+02  0.10601704572E+02 -0.33670776980E+02  0.48989159029E+02  0.51100000000E-03 0. -1.
         22    1    1    0    0    0 -0.11370550159E+01 -0.29133092771E+02  0.74592342223E+01  0.30094354349E+02  0.00000000000E+00 0. -1.
</event>
<event>
 5    1  0.8900327E-005  0.9118800E+02  0.7818608E-02  0.1130116E+00
         25   -1    0    0    0    0  0.00000000000E+00  0.00000000000E+00  0.99999998245E-14  0.12500000000E+03  0.12500000000E+03 0.  0.
        -11    1    3    3    0    0  0.36911977327E+02 -0.13786469620E+01  0.15713696366E+02  0.40141188216E+02  0.51100000000E-03 0. -1.
         23    2    1    0    0    0 -0.10306149448E+02 -0.26239714083E+02 -0.29060390276E+01  0.96659492340E+02  0.92411433735E+02 0.  0.
         11    1    3    3    0    0 -0.47218126776E+02 -0.24861067121E+02 -0.18619735394E+02  0.56518304124E+02  0.51100000000E-03 0.  1.
         22    1    1    0    0    0  0.10306149448E+02  0.26239714083E+02  0.29060390276E+01  0.28340507660E+02  0.00000000000E+00 0.  1.
</event>
<event>
 5    1  0.8900327E-005  0.9118800E+02  0.7818608E-02  0.1130116E+00
         25   -1    0    0    0    0  0.00000000000E+00  0.00000000000E+00  0.99999998245E-14  0.12500000000E+03  0.12500000000E+03 0.  0.
        -11    1    3    3    0    0  0.34965549435E+02 -0.32020217103E+02 -0.26602596064E+02  0.54365265273E+02  0.51100000000E-03 0. -1.
         23    2    1    0    0    0  0.16423649938E+02 -0.22687125512E+02  0.90034554134E+01  0.95580548091E+02  0.90940293724E+02 0.  0.
         11    1    3    3    0    0 -0.18541899497E+02  0.93330915912E+01  0.35606051478E+02  0.41215282817E+02  0.51100000000E-03 0.  1.
         22    1    1    0    0    0 -0.16423649938E+02  0.22687125512E+02 -0.90034554134E+01  0.29419451909E+02  0.00000000000E+00 0. -1.
</event>
<event>
 5    1  0.8900327E-005  0.9118800E+02  0.7818608E-02  0.1130116E+00
         25   -1    0    0    0    0  0.00000000000E+00  0.00000000000E+00  0.99999998245E-14  0.12500000000E+03  0.12500000000E+03 0.  0.
        -11    1    3    3    0    0 -0.86181799132E+01  0.51187741159E+02 -0.35742801691E+01  0.52031080605E+02  0.51100000000E-03 0. -1.
         23    2    1    0    0    0 -0.12778596135E+02  0.13019393794E+02 -0.23469762233E+02  0.95274137973E+02  0.90518144553E+02 0.  0.
         11    1    3    3    0    0 -0.41604162218E+01 -0.38168347365E+02 -0.19895482064E+02  0.43243057368E+02  0.51100000000E-03 0.  1.
         22    1    1    0    0    0  0.12778596135E+02 -0.13019393794E+02  0.23469762233E+02  0.29725862027E+02  0.00000000000E+00 0.  1.
</event>
<event>
 5    1  0.8900327E-005  0.9118800E+02  0.7818608E-02  0.1130116E+00
         25   -1    0    0    0    0  0.00000000000E+00  0.00000000000E+00  0.99999998245E-14  0.12500000000E+03  0.12500000000E+03 0.  0.
        -11    1    3    3    0    0 -0.18152277103E+02  0.20142802374E+02 -0.29053642713E+02  0.39741059456E+02  0.51100000000E-03 0.  1.
         23    2    1    0    0    0  0.10109434731E+02 -0.24948143046E+02 -0.10696420858E+02  0.96034090189E+02  0.91561577898E+02 0.  0.
         11    1    3    3    0    0  0.28261711834E+02 -0.45090945420E+02  0.18357221855E+02  0.56293030733E+02  0.51100000000E-03 0. -1.
         22    1    1    0    0    0 -0.10109434731E+02  0.24948143046E+02  0.10696420858E+02  0.28965909811E+02  0.00000000000E+00 0. -1.
</event>
<event>
 5    1  0.8900327E-005  0.9118800E+02  0.7818608E-02  0.1130116E+00
         25   -1    0    0    0    0  0.00000000000E+00  0.00000000000E+00  0.99999998245E-14  0.12500000000E+03  0.12500000000E+03 0.  0.
        -11    1    3    3    0    0  0.84230147711E+01  0.61088815524E+02  0.72138412305E+01  0.62087277807E+02  0.51100000000E-03 0. -1.
         23    2    1    0    0    0  0.13328630537E+01  0.29179683520E+02 -0.93453300566E+00  0.95774945574E+02  0.91207107144E+02 0.  0.
         11    1    3    3    0    0 -0.70901517175E+01 -0.31909132004E+02 -0.81483742361E+01  0.33687667767E+02  0.51100000000E-03 0.  1.
         22    1    1    0    0    0 -0.13328630537E+01 -0.29179683520E+02  0.93453300566E+00  0.29225054426E+02  0.00000000000E+00 0. -1.
</event>
<event>
 5    1  0.8900327E-005  0.9118800E+02  0.7818608E-02  0.1130116E+00
         25   -1    0    0    0    0  0.00000000000E+00  0.00000000000E+00  0.99999998245E-14  0.12500000000E+03  0.12500000000E+03 0.  0.
        -11    1    3    3    0    0 -0.21885822588E+02  0.45521534439E+02  0.11000359080E+02  0.51693396369E+02  0.51100000000E-03 0. -1.
         23    2    1    0    0    0  0.14374081142E+02  0.25872158231E+02 -0.30110228696E+01  0.95250226238E+02  0.90485117889E+02 0.  0.
         11    1    3    3    0    0  0.36259903729E+02 -0.19649376208E+02 -0.14011381950E+02  0.43556829869E+02  0.51100000000E-03 0.  1.
         22    1    1    0    0    0 -0.14374081142E+02 -0.25872158231E+02  0.30110228696E+01  0.29749773762E+02  0.00000000000E+00 0. -1.
</event>
<event>
 5    1  0.8900327E-005  0.9118800E+02  0.7818608E-02  0.1130116E+00
         25   -1    0    0    0    0  0.00000000000E+00  0.00000000000E+00  0.99999998245E-14  0.12500000000E+03  0.12500000000E+03 0.  0.
        -11    1    3    3    0    0 -0.26035030555E+02  0.19680658891E+02  0.29804379251E+01  0.32772460403E+02  0.51100000000E-03 0.  1.
         23    2    1    0    0    0  0.81876039540E+01 -0.16345914848E+02 -0.28168786147E+02  0.91418661377E+02  0.85027438772E+02 0.  0.
         11    1    3    3    0    0  0.34222634509E+02 -0.36026573739E+02 -0.31149224072E+02  0.58646200974E+02  0.51100000000E-03 0. -1.
         22    1    1    0    0    0 -0.81876039540E+01  0.16345914848E+02  0.28168786147E+02  0.33581338623E+02  0.00000000000E+00 0. -1.
</event>
<event>
 5    1  0.8900327E-005  0.9118800E+02  0.7818608E-02  0.1130116E+00
         25   -1    0    0    0    0  0.00000000000E+00  0.00000000000E+00  0.99999998245E-14  0.12500000000E+03  0.12500000000E+03 0.  0.
        -11    1    3    3    0    0 -0.88321607923E+01  0.44001610171E+02  0.11041183185E+02  0.46217491151E+02  0.51100000000E-03 0.  1.
         23    2    1    0    0    0  0.20738931765E+02  0.89403374488E+01  0.22103678517E+02  0.93399279621E+02  0.87890954627E+02 0.  0.
         11    1    3    3    0    0  0.29571092558E+02 -0.35061272723E+02  0.11062495332E+02  0.47181788470E+02  0.51100000000E-03 0. -1.
         22    1    1    0    0    0 -0.20738931765E+02 -0.89403374488E+01 -0.22103678517E+02  0.31600720379E+02  0.00000000000E+00 0.  1.
</event>
<event>
 5    1  0.8900327E-005  0.9118800E+02  0.7818608E-02  0.1130116E+00
         25   -1    0    0    0    0  0.00000000000E+00  0.00000000000E+00  0.99999998245E-14  0.12500000000E+03  0.12500000000E+03 0.  0.
        -11    1    3    3    0    0  0.13294409302E+02 -0.58429648778E+02  0.17245147177E+02  0.62355114276E+02  0.51100000000E-03 0.  1.
         23    2    1    0    0    0  0.57598893437E+01 -0.27978402044E+02  0.51572413414E+01  0.95973039353E+02  0.91478193238E+02 0.  0.
         11    1    3    3    0    0 -0.75345199582E+01  0.30451246734E+02 -0.12087905835E+02  0.33617925076E+02  0.51100000000E-03 0. -1.
         22    1    1    0    0    0 -0.57598893437E+01  0.27978402044E+02 -0.51572413414E+01  0.29026960647E+02  0.00000000000E+00 0.  1.
</event>
<event>
 5    1  0.8900327E-005  0.9118800E+02  0.7818608E-02  0.1130116E+00
         25   -1    0    0    0    0  0.00000000000E+00  0.00000000000E+00  0.99999998245E-14  0.12500000000E+03  0.12500000000E+03 0.  0.
        -11    1    3    3    0    0 -0.17027514351E+02  0.23019478930E+02 -0.32081784041E+02  0.43000854906E+02  0.51100000000E-03 0. -1.
         23    2    1    0    0    0  0.39449237653E+01  0.29262293801E+02  0.12711399290E+02  0.92853088268E+02  0.87110688592E+02 0.  0.
         11    1    3    3    0    0  0.20972438116E+02  0.62428148707E+01  0.44793183331E+02  0.49852233362E+02  0.51100000000E-03 0.  1.
         22    1    1    0    0    0 -0.39449237653E+01 -0.29262293801E+02 -0.12711399290E+02  0.32146911732E+02  0.00000000000E+00 0. -1.
</event>
<event>
 5    1  0.8900327E-005  0.9118800E+02  0.7818608E-02  0.1130116E+00
         25   -1    0    0    0    0  0.00000000000E+00  0.00000000000E+00  0.99999998245E-14  0.12500000000E+03  0.12500000000E+03 0.  0.
        -11    1    3    3    0    0  0.52536153162E+02  0.30205022450E+02 -0.14446689258E+02  0.62298455849E+02  0.51100000000E-03 0.  1.
         23    2    1    0    0    0  0.25161912899E+02  0.17109786045E+02 -0.44479228719E+01  0.94248566585E+02  0.89090637253E+02 0.  0.
         11    1    3    3    0    0 -0.27374240264E+02 -0.13095236406E+02  0.99987663866E+01  0.31950110736E+02  0.51100000000E-03 0. -1.
         22    1    1    0    0    0 -0.25161912899E+02 -0.17109786045E+02  0.44479228719E+01  0.30751433415E+02  0.00000000000E+00 0.  1.
</event>
<event>
 5    1  0.8900327E-005  0.9118800E+02  0.7818608E-02  0.1130116E+00
         25   -1    0    0    0    0  0.00000000000E+00  0.00000000000E+00  0.99999998245E-14  0.12500000000E+03  0.12500000000E+03 0.  0.
        -11    1    3    3    0    0  0.46303079163E+02 -0.24008627618E+02  0.97461897080E+01  0.53060131494E+02  0.51100000000E-03 0.  1.
         23    2    1    0    0    0  0.13834481546E+02 -0.19693918180E+02 -0.17154225002E+02  0.95444785091E+02  0.90753491794E+02 0.  0.
         11    1    3    3    0    0 -0.32468597617E+02  0.43147094381E+01 -0.26900414710E+02  0.42384653598E+02  0.51100000000E-03 0. -1.
         22    1    1    0    0    0 -0.13834481546E+02  0.19693918180E+02  0.17154225002E+02  0.29555214909E+02  0.00000000000E+00 0.  1.
</event>
<event>
 5    1  0.8900327E-005  0.9118800E+02  0.7818608E-02  0.1130116E+00
         25   -1    0    0    0    0  0.00000000000E+00  0.00000000000E+00  0.99999998245E-14  0.12500000000E+03  0.12500000000E+03 0.  0.
        -11    1    3    3    0    0 -0.15319404822E+02 -0.53267576199E+02  0.21347161575E+02  0.59395455599E+02  0.51100000000E-03 0. -1.
         23    2    1    0    0    0 -0.18570151988E+02 -0.23245546172E+02  0.21681369037E+01  0.95168694642E+02  0.90372416480E+02 0.  0.
         11    1    3    3    0    0 -0.32507471665E+01  0.30022030026E+02 -0.19179024672E+02  0.35773239043E+02  0.51100000000E-03 0.  1.
         22    1    1    0    0    0  0.18570151988E+02  0.23245546172E+02 -0.21681369037E+01  0.29831305358E+02  0.00000000000E+00 0. -1.
</event>
<event>
 5    1  0.8900327E-005  0.9118800E+02  0.7818608E-02  0.1130116E+00
         25   -1    0    0    0    0  0.00000000000E+00  0.00000000000E+00  0.99999998245E-14  0.12500000000E+03  0.12500000000E+03 0.  0.
        -11    1    3    3    0    0  0.10907311948E+02 -0.28604813401E+02 -0.38379639721E+02  0.49093803571E+02  0.51100000000E-03 0. -1.
         23    2    1    0    0    0 -0.22347416616E+02 -0.17054596578E+02 -0.75411487851E+01  0.95894412583E+02  0.91370690847E+02 0.  0.
         11    1    3    3    0    0 -0.33254728564E+02  0.11550216822E+02  0.30838490936E+02  0.46800609013E+02  0.51100000000E-03 0.  1.
         22    1    1    0    0    0  0.22347416616E+02  0.17054596578E+02  0.75411487851E+01  0.29105587417E+02  0.00000000000E+00 0. -1.
</event>
<event>
 5    1  0.8900327E-005  0.9118800E+02  0.7818608E-02  0.1130116E+00
         25   -1    0    0    0    0  0.00000000000E+00  0.00000000000E+00  0.99999998245E-14  0.12500000000E+03  0.12500000000E+03 0.  0.
        -11    1    3    3    0    0 -0.43338588661E+02 -0.13314153242E+02  0.50417765403E+00  0.45340424998E+02  0.51100000000E-03 0.  1.
         23    2    1    0    0    0  0.51472855024E+01 -0.28408460342E+02  0.64843222182E+00  0.96121710034E+02  0.91681118603E+02 0.  0.
         11    1    3    3    0    0  0.48485874163E+02 -0.15094307100E+02  0.14425456778E+00  0.50781285035E+02  0.51100000000E-03 0. -1.
         22    1    1    0    0    0 -0.51472855024E+01  0.28408460342E+02 -0.64843222182E+00  0.28878289966E+02  0.00000000000E+00 0.  1.
</event>
<event>
 5    1  0.8900327E-005  0.9118800E+02  0.7818608E-02  0.1130116E+00
         25   -1    0    0    0    0  0.00000000000E+00  0.00000000000E+00  0.99999998245E-14  0.12500000000E+03  0.12500000000E+03 0.  0.
        -11    1    3    3    0    0 -0.30507587215E+02  0.40153680122E+01  0.18392242640E+02  0.35848439960E+02  0.51100000000E-03 0.  1.
         23    2    1    0    0    0  0.77873531372E+01  0.71376668214E+01 -0.27405702840E+02  0.95628896774E+02  0.91006726090E+02 0.  0.
         11    1    3    3    0    0  0.38294940353E+02  0.31222988093E+01 -0.45797945480E+02  0.59780456814E+02  0.51100000000E-03 0. -1.
         22    1    1    0    0    0 -0.77873531372E+01 -0.71376668214E+01  0.27405702840E+02  0.29371103226E+02  0.00000000000E+00 0. -1.
</event>
<event>
 5    1  0.8900327E-005  0.9118800E+02  0.7818608E-02  0.1130116E+00
         25   -1    0    0    0    0  0.00000000000E+00  0.00000000000E+00  0.99999998245E-14  0.12500000000E+03  0.12500000000E+03 0.  0.
        -11    1    3    3    0    0  0.81000614257E+01  0.12258037399E+02  0.47595906166E+02  0.49812054365E+02  0.51100000000E-03 0. -1.
         23    2    1    0    0    0  0.30003217495E+00  0.24609892569E+02 -0.81066108046E+00  0.10037493141E+03  0.97307414173E+02 0.  0.
         11    1    3    3    0    0 -0.78000292508E+01  0.12351855170E+02 -0.48406567247E+02  0.50562877048E+02  0.51100000000E-03 0.  1.
         22    1    1    0    0    0 -0.30003217495E+00 -0.24609892569E+02  0.81066108046E+00  0.24625068588E+02  0.00000000000E+00 0. -1.
</event>
<event>
 5    1  0.8900327E-005  0.9118800E+02  0.7818608E-02  0.1130116E+00
         25   -1    0    0    0    0  0.00000000000E+00  0.00000000000E+00  0.99999998245E-14  0.12500000000E+03  0.12500000000E+03 0.  0.
        -11    1    3    3    0    0  0.48190563132E+02  0.17303917863E+01  0.20503762523E+02  0.52399703325E+02  0.51100000000E-03 0. -1.
         23    2    1    0    0    0  0.12389135874E+02  0.24104184844E+02  0.11458894438E+02  0.95575372960E+02  0.90933180083E+02 0.  0.
         11    1    3    3    0    0 -0.35801427258E+02  0.22373793058E+02 -0.90448680853E+01  0.43175669635E+02  0.51100000000E-03 0.  1.
         22    1    1    0    0    0 -0.12389135874E+02 -0.24104184844E+02 -0.11458894438E+02  0.29424627040E+02  0.00000000000E+00 0. -1.
</event>
<event>
 5    1  0.8900327E-005  0.9118800E+02  0.7818608E-02  0.1130116E+00
         25   -1    0    0    0    0  0.00000000000E+00  0.00000000000E+00  0.99999998245E-14  0.12500000000E+03  0.12500000000E+03 0.  0.
        -11    1    3    3    0    0 -0.36718046844E+02  0.31272650183E+02  0.14943728937E+02  0.50492659351E+02  0.51100000000E-03 0.  1.
         23    2    1    0    0    0  0.68803124474E+01  0.28325980422E+02  0.82927463831E+01  0.94693738125E+02  0.89713067784E+02 0.  0.
         11    1    3    3    0    0  0.43598359292E+02 -0.29466697610E+01 -0.66509825539E+01  0.44201078774E+02  0.51100000000E-03 0. -1.
         22    1    1    0    0    0 -0.68803124474E+01 -0.28325980422E+02 -0.82927463831E+01  0.30306261875E+02  0.00000000000E+00 0.  1.
</event>
<event>
 5    1  0.8900327E-005  0.9118800E+02  0.7818608E-02  0.1130116E+00
         25   -1    0    0    0    0  0.00000000000E+00  0.00000000000E+00  0.99999998245E-14  0.12500000000E+03  0.12500000000E+03 0.  0.
        -11    1    3    3    0    0 -0.47865995600E+02  0.21720395448E+02  0.22596550501E+02  0.57214798855E+02  0.51100000000E-03 0. -1.
         23    2    1    0    0    0 -0.30383452785E+02  0.60447889528E+00 -0.26661325095E+01  0.94493806196E+02  0.89434062576E+02 0.  0.
         11    1    3    3    0    0  0.17482542815E+02 -0.21115916553E+02 -0.25262683011E+02  0.37279007341E+02  0.51100000000E-03 0.  1.
         22    1    1    0    0    0  0.30383452785E+02 -0.60447889528E+00  0.26661325095E+01  0.30506193804E+02  0.00000000000E+00 0. -1.
</event>
<event>
 5    1  0.8900327E-005  0.9118800E+02  0.7818608E-02  0.1130116E+00
         25   -1    0    0    0    0  0.00000000000E+00  0.00000000000E+00  0.99999998245E-14  0.12500000000E+03  0.12500000000E+03 0.  0.
        -11    1    3    3    0    0  0.60704031740E+02 -0.25675056790E+01  0.10011642964E+02  0.61577630273E+02  0.51100000000E-03 0.  1.
         23    2    1    0    0    0  0.26846504431E+02  0.46913407879E+01 -0.42563210071E+00  0.97743356017E+02  0.93866069504E+02 0.  0.
         11    1    3    3    0    0 -0.33857527309E+02  0.72588464670E+01 -0.10437275065E+02  0.36165725744E+02  0.51100000000E-03 0. -1.
         22    1    1    0    0    0 -0.26846504431E+02 -0.46913407879E+01  0.42563210071E+00  0.27256643983E+02  0.00000000000E+00 0.  1.
</event>
<event>
 5    1  0.8900327E-005  0.9118800E+02  0.7818608E-02  0.1130116E+00
         25   -1    0    0    0    0  0.00000000000E+00  0.00000000000E+00  0.99999998245E-14  0.12500000000E+03  0.12500000000E+03 0.  0.
        -11    1    3    3    0    0  0.44144053612E+02  0.16983036740E+02  0.14715801415E+02  0.49534592133E+02  0.51100000000E-03 0. -1.
         23    2    1    0    0    0  0.37277793926E+01 -0.12173751226E+01  0.28715352575E+02  0.96018112296E+02  0.91539762256E+02 0.  0.
         11    1    3    3    0    0 -0.40416274220E+02 -0.18200411863E+02  0.13999551160E+02  0.46483520163E+02  0.51100000000E-03 0.  1.
         22    1    1    0    0    0 -0.37277793926E+01  0.12173751226E+01 -0.28715352575E+02  0.28981887704E+02  0.00000000000E+00 0. -1.
</event>
<event>
 5    1  0.8900327E-005  0.9118800E+02  0.7818608E-02  0.1130116E+00
         25   -1    0    0    0    0  0.00000000000E+00  0.00000000000E+00  0.99999998245E-14  0.12500000000E+03  0.12500000000E+03 0.  0.
        -11    1    3    3    0    0 -0.24369120389E+02 -0.39223082926E+02  0.34796725992E+02  0.57819688712E+02  0.51100000000E-03 0.  1.
         23    2    1    0    0    0 -0.23336970264E+02 -0.18196407707E+02  0.39796453734E+01  0.95140981063E+02  0.90334075884E+02 0.  0.
         11    1    3    3    0    0  0.10321501250E+01  0.21026675219E+02 -0.30817080618E+02  0.37321292351E+02  0.51100000000E-03 0. -1.
         22    1    1    0    0    0  0.23336970264E+02  0.18196407707E+02 -0.39796453734E+01  0.29859018937E+02  0.00000000000E+00 0.  1.
</event>
<event>
 5    1  0.8900327E-005  0.9118800E+02  0.7818608E-02  0.1130116E+00
         25   -1    0    0    0    0  0.00000000000E+00  0.00000000000E+00  0.99999998245E-14  0.12500000000E+03  0.12500000000E+03 0.  0.
        -11    1    3    3    0    0  0.58337279268E+02  0.43553215268E+01  0.62343622477E+00  0.58502954207E+02  0.51100000000E-03 0.  1.
         23    2    1    0    0    0  0.21962884186E+02 -0.13360366785E+02  0.34572662861E+01  0.99061218753E+02  0.95604940710E+02 0.  0.
         11    1    3    3    0    0 -0.36374395081E+02 -0.17715688312E+02  0.28338300614E+01  0.40558264546E+02  0.51100000000E-03 0. -1.
         22    1    1    0    0    0 -0.21962884186E+02  0.13360366785E+02 -0.34572662861E+01  0.25938781247E+02  0.00000000000E+00 0.  1.
</event>
<event>
 5    1  0.8900327E-005  0.9118800E+02  0.7818608E-02  0.1130116E+00
         25   -1    0    0    0    0  0.00000000000E+00  0.00000000000E+00  0.99999998245E-14  0.12500000000E+03  0.12500000000E+03 0.  0.
        -11    1    3    3    0    0  0.16841306196E+02 -0.11402319884E+02  0.57957719830E+02  0.61422632485E+02  0.51100000000E-03 0.  1.
         23    2    1    0    0    0  0.97014472920E+01  0.26502963654E+01  0.27527548527E+02  0.95692866426E+02  0.91094547623E+02 0.  0.
         11    1    3    3    0    0 -0.71398589040E+01  0.14052616250E+02 -0.30430171303E+02  0.34270233942E+02  0.51100000000E-03 0. -1.
         22    1    1    0    0    0 -0.97014472920E+01 -0.26502963654E+01 -0.27527548527E+02  0.29307133574E+02  0.00000000000E+00 0.  1.
</event>
<event>
 5    1  0.8900327E-005  0.9118800E+02  0.7818608E-02  0.1130116E+00
         25   -1    0    0    0    0  0.00000000000E+00  0.00000000000E+00  0.99999998245E-14  0.12500000000E+03  0.12500000000E+03 0.  0.
        -11    1    3    3    0    0 -0.14064405337E+02 -0.17733170284E+02  0.34467229946E+02  0.41234242641E+02  0.51100000000E-03 0.  1.
         23    2    1    0    0    0  0.55635032856E+01 -0.23680595338E+02 -0.16118226934E+02  0.95819177465E+02  0.91267707138E+02 0.  0.
         11    1    3    3    0    0  0.19627908623E+02 -0.59474250539E+01 -0.50585456880E+02  0.54584934823E+02  0.51100000000E-03 0. -1.
         22    1    1    0    0    0 -0.55635032856E+01  0.23680595338E+02  0.16118226934E+02  0.29180822535E+02  0.00000000000E+00 0. -1.
</event>
<event>
 5    1  0.8900327E-005  0.9118800E+02  0.7818608E-02  0.1130116E+00
         25   -1    0    0    0    0  0.00000000000E+00  0.00000000000E+00  0.99999998245E-14  0.12500000000E+03  0.12500000000E+03 0.  0.
        -11    1    3    3    0    0  0.16796173586E+02 -0.31686519390E+00 -0.40269381114E+02  0.43632956652E+02  0.51100000000E-03 0. -1.
         23    2    1    0    0    0  0.28225125033E+00  0.31508732883E+02 -0.66253928963E+01  0.92800997769E+02  0.87035908924E+02 0.  0.
         11    1    3    3    0    0 -0.16513922335E+02  0.31825598077E+02  0.33643988217E+02  0.49168041117E+02  0.51100000000E-03 0.  1.
         22    1    1    0    0    0 -0.28225125033E+00 -0.31508732883E+02  0.66253928963E+01  0.32199002231E+02  0.00000000000E+00 0.  1.
</event>
<event>
 5    1  0.8900327E-005  0.9118800E+02  0.7818608E-02  0.1130116E+00
         25   -1    0    0    0    0  0.00000000000E+00  0.00000000000E+00  0.99999998245E-14  0.12500000000E+03  0.12500000000E+03 0.  0.
        -11    1    3    3    0    0  0.58314914264E+01 -0.24462318342E+02  0.23719053693E+02  0.34568841741E+02  0.51100000000E-03 0.  1.
         23    2    1    0    0    0 -0.94397134098E+01  0.33338314393E+01 -0.28014790173E+02  0.95250191769E+02  0.90485070273E+02 0.  0.
         11    1    3    3    0    0 -0.15271204836E+02  0.27796149781E+02 -0.51733843866E+02  0.60681350028E+02  0.51100000000E-03 0. -1.
         22    1    1    0    0    0  0.94397134098E+01 -0.33338314393E+01  0.28014790173E+02  0.29749808231E+02  0.00000000000E+00 0. -1.
</event>
<event>
 5    1  0.8900327E-005  0.9118800E+02  0.7818608E-02  0.1130116E+00
         25   -1    0    0    0    0  0.00000000000E+00  0.00000000000E+00  0.99999998245E-14  0.12500000000E+03  0.12500000000E+03 0.  0.
        -11    1    3    3    0    0 -0.15256654613E+02 -0.20236831745E+02  0.29816374815E+02  0.39131970005E+02  0.51100000000E-03 0. -1.
         23    2    1    0    0    0 -0.48732735407E+01  0.26868075904E+02 -0.30844331705E+01  0.97519897639E+02  0.93568020230E+02 0.  0.
         11    1    3    3    0    0  0.10383381073E+02  0.47104907649E+02 -0.32900807985E+02  0.58387927635E+02  0.51100000000E-03 0.  1.
         22    1    1    0    0    0  0.48732735407E+01 -0.26868075904E+02  0.30844331705E+01  0.27480102361E+02  0.00000000000E+00 0.  1.
</event>
<event>
 5    1  0.8900327E-005  0.9118800E+02  0.7818608E-02  0.1130116E+00
         25   -1    0    0    0    0  0.00000000000E+00  0.00000000000E+00  0.99999998245E-14  0.12500000000E+03  0.12500000000E+03 0.  0.
        -11    1    3    3    0    0  0.30130553397E+02 -0.31957157663E+02 -0.20961828907E+02  0.48667324205E+02  0.51100000000E-03 0. -1.
         23    2    1    0    0    0  0.22373416978E+02  0.14238086476E+02 -0.87354112494E+01  0.97078676545E+02  0.92976712871E+02 0.  0.
         11    1    3    3    0    0 -0.77571364189E+01  0.46195244138E+02  0.12226417658E+02  0.48411352340E+02  0.51100000000E-03 0.  1.
         22    1    1    0    0    0 -0.22373416978E+02 -0.14238086476E+02  0.87354112494E+01  0.27921323455E+02  0.00000000000E+00 0.  1.
</event>
<event>
 5    1  0.8900327E-005  0.9118800E+02  0.7818608E-02  0.1130116E+00
         25   -1    0    0    0    0  0.00000000000E+00  0.00000000000E+00  0.99999998245E-14  0.12500000000E+03  0.12500000000E+03 0.  0.
        -11    1    3    3    0    0  0.59795938946E+02 -0.10827060104E+02 -0.47240372950E+01  0.60951587949E+02  0.51100000000E-03 0.  1.
         23    2    1    0    0    0  0.25187564630E+02 -0.14198544303E+02  0.29805271792E+00  0.96084590480E+02  0.91630495033E+02 0.  0.
         11    1    3    3    0    0 -0.34608374316E+02 -0.33714841984E+01  0.50220900129E+01  0.35133002531E+02  0.51100000000E-03 0. -1.
         22    1    1    0    0    0 -0.25187564630E+02  0.14198544303E+02 -0.29805271792E+00  0.28915409520E+02  0.00000000000E+00 0.  1.
</event>
<event>
 5    1  0.8900327E-005  0.9118800E+02  0.7818608E-02  0.1130116E+00
         25   -1    0    0    0    0  0.00000000000E+00  0.00000000000E+00  0.99999998245E-14  0.12500000000E+03  0.12500000000E+03 0.  0.
        -11    1    3    3    0    0  0.21983678779E+02  0.14144577622E+02 -0.16299663141E+02  0.30806334211E+02  0.51100000000E-03 0. -1.
         23    2    1    0    0    0 -0.32158328953E+02  0.12819205611E+00  0.81201174646E+01  0.91832080832E+02  0.85633055581E+02 0.  0.
         11    1    3    3    0    0 -0.54142007732E+02 -0.14016385566E+02  0.24419780606E+02  0.61025746621E+02  0.51100000000E-03 0.  1.
         22    1    1    0    0    0  0.32158328953E+02 -0.12819205611E+00 -0.81201174646E+01  0.33167919168E+02  0.00000000000E+00 0.  1.
</event>
<event>
 5    1  0.8900327E-005  0.9118800E+02  0.7818608E-02  0.1130116E+00
         25   -1    0    0    0    0  0.00000000000E+00  0.00000000000E+00  0.99999998245E-14  0.12500000000E+03  0.12500000000E+03 0.  0.
        -11    1    3    3    0    0 -0.31898427376E+02  0.26702821740E+02  0.45980612573E+01  0.41853225987E+02  0.51100000000E-03 0. -1.
         23    2    1    0    0    0  0.19036738398E+02  0.18141469988E+02 -0.11986769000E+02  0.96100294583E+02  0.91651915668E+02 0.  0.
         11    1    3    3    0    0  0.50935165774E+02 -0.85613517529E+01 -0.16584830257E+02  0.54247068595E+02  0.51100000000E-03 0.  1.
         22    1    1    0    0    0 -0.19036738398E+02 -0.18141469988E+02  0.11986769000E+02  0.28899705417E+02  0.00000000000E+00 0.  1.
</event>
<event>
 5    1  0.8900327E-005  0.9118800E+02  0.7818608E-02  0.1130116E+00
         25   -1    0    0    0    0  0.00000000000E+00  0.00000000000E+00  0.99999998245E-14  0.12500000000E+03  0.12500000000E+03 0.  0.
        -11    1    3    3    0    0 -0.23641894618E+02 -0.24602832028E+02  0.15457643355E+02  0.37459007772E+02  0.51100000000E-03 0.  1.
         23    2    1    0    0    0  0.40904617578E+01 -0.28478516783E+02  0.40699247263E+02  0.75158385627E+02  0.56254745637E+02 0.  0.
         11    1    3    3    0    0  0.27732356376E+02 -0.38756847549E+01  0.25241603909E+02  0.37699377855E+02  0.51100000000E-03 0. -1.
         22    1    1    0    0    0 -0.40904617578E+01  0.28478516783E+02 -0.40699247263E+02  0.49841614373E+02  0.00000000000E+00 0.  1.
</event>
<event>
 5    1  0.8900327E-005  0.9118800E+02  0.7818608E-02  0.1130116E+00
         25   -1    0    0    0    0  0.00000000000E+00  0.00000000000E+00  0.99999998245E-14  0.12500000000E+03  0.12500000000E+03 0.  0.
        -11    1    3    3    0    0 -0.22006256215E+02  0.18003684190E+02 -0.13932598988E+02  0.31662679479E+02  0.51100000000E-03 0.  1.
         23    2    1    0    0    0  0.28318765034E+02 -0.14322170775E+02  0.77075857587E+00  0.93256164417E+02  0.87687177536E+02 0.  0.
         11    1    3    3    0    0  0.50325021249E+02 -0.32325854965E+02  0.14703357563E+02  0.61593484938E+02  0.51100000000E-03 0. -1.
         22    1    1    0    0    0 -0.28318765034E+02  0.14322170775E+02 -0.77075857587E+00  0.31743835583E+02  0.00000000000E+00 0. -1.
</event>
<event>
 5    1  0.8900327E-005  0.9118800E+02  0.7818608E-02  0.1130116E+00
         25   -1    0    0    0    0  0.00000000000E+00  0.00000000000E+00  0.99999998245E-14  0.12500000000E+03  0.12500000000E+03 0.  0.
        -11    1    3    3    0    0  0.34962178066E+02 -0.36650909299E+02  0.17541757520E+01  0.50682543153E+02  0.51100000000E-03 0. -1.
         23    2    1    0    0    0  0.17617529836E+02 -0.59487561264E+01 -0.24210156137E+02  0.94473016573E+02  0.89405000661E+02 0.  0.
         11    1    3    3    0    0 -0.17344648230E+02  0.30702153173E+02 -0.25964331889E+02  0.43790473420E+02  0.51100000000E-03 0.  1.
         22    1    1    0    0    0 -0.17617529836E+02  0.59487561264E+01  0.24210156137E+02  0.30526983427E+02  0.00000000000E+00 0. -1.
</event>
<event>
 5    1  0.8900327E-005  0.9118800E+02  0.7818608E-02  0.1130116E+00
         25   -1    0    0    0    0  0.00000000000E+00  0.00000000000E+00  0.99999998245E-14  0.12500000000E+03  0.12500000000E+03 0.  0.
        -11    1    3    3    0    0  0.35814104851E+02  0.36545070423E+02  0.11736445905E+02  0.52497013641E+02  0.51100000000E-03 0.  1.
         23    2    1    0    0    0 -0.48512486833E+01  0.25815777673E+02  0.15122865063E+02  0.94690099995E+02  0.89707998521E+02 0.  0.
         11    1    3    3    0    0 -0.40665353535E+02 -0.10729292750E+02  0.33864191577E+01  0.42193086353E+02  0.51100000000E-03 0. -1.
         22    1    1    0    0    0  0.48512486833E+01 -0.25815777673E+02 -0.15122865063E+02  0.30309900005E+02  0.00000000000E+00 0.  1.
</event>
<event>
 5    1  0.8900327E-005  0.9118800E+02  0.7818608E-02  0.1130116E+00
         25   -1    0    0    0    0  0.00000000000E+00  0.00000000000E+00  0.99999998245E-14  0.12500000000E+03  0.12500000000E+03 0.  0.
        -11    1    3    3    0    0 -0.21920363290E+02  0.34357451160E+02  0.18989108829E+02  0.44961350418E+02  0.51100000000E-03 0. -1.
         23    2    1    0    0    0 -0.28268813811E+02 -0.87609525860E+01 -0.54172318101E+01  0.94913017350E+02  0.90018077837E+02 0.  0.
         11    1    3    3    0    0 -0.63484505215E+01 -0.43118403746E+02 -0.24406340639E+02  0.49951666932E+02  0.51100000000E-03 0.  1.
         22    1    1    0    0    0  0.28268813811E+02  0.87609525860E+01  0.54172318101E+01  0.30086982650E+02  0.00000000000E+00 0.  1.
</event>
<event>
 5    1  0.8900327E-005  0.9118800E+02  0.7818608E-02  0.1130116E+00
         25   -1    0    0    0    0  0.00000000000E+00  0.00000000000E+00  0.99999998245E-14  0.12500000000E+03  0.12500000000E+03 0.  0.
        -11    1    3    3    0    0 -0.38555393940E+01 -0.24849645257E+02 -0.22384563442E+02  0.33666581861E+02  0.51100000000E-03 0.  1.
         23    2    1    0    0    0  0.25335580272E+02  0.14498398180E+02  0.11912782600E+02  0.93472082740E+02  0.87994435534E+02 0.  0.
         11    1    3    3    0    0  0.29191119666E+02  0.39348043437E+02  0.34297346042E+02  0.59805500879E+02  0.51100000000E-03 0. -1.
         22    1    1    0    0    0 -0.25335580272E+02 -0.14498398180E+02 -0.11912782600E+02  0.31527917260E+02  0.00000000000E+00 0. -1.
</event>
<event>
 5    1  0.8900327E-005  0.9118800E+02  0.7818608E-02  0.1130116E+00
         25   -1    0    0    0    0  0.00000000000E+00  0.00000000000E+00  0.99999998245E-14  0.12500000000E+03  0.12500000000E+03 0.  0.
        -11    1    3    3    0    0  0.35373903901E+02 -0.39809520253E+02  0.28079362954E+02  0.60204332104E+02  0.51100000000E-03 0.  1.
         23    2    1    0    0    0  0.19455783459E+02 -0.81655630252E+01  0.18598632921E+02  0.96873267590E+02  0.92700145078E+02 0.  0.
         11    1    3    3    0    0 -0.15918120442E+02  0.31643957228E+02 -0.94807300330E+01  0.36668935486E+02  0.51100000000E-03 0. -1.
         22    1    1    0    0    0 -0.19455783459E+02  0.81655630252E+01 -0.18598632921E+02  0.28126732410E+02  0.00000000000E+00 0.  1.
</event>
<event>
 5    1  0.8900327E-005  0.9118800E+02  0.7818608E-02  0.1130116E+00
         25   -1    0    0    0    0  0.00000000000E+00  0.00000000000E+00  0.99999998245E-14  0.12500000000E+03  0.12500000000E+03 0.  0.
        -11    1    3    3    0    0  0.31425293864E+02  0.50434566030E+01  0.42222810678E+02  0.52874864452E+02  0.51100000000E-03 0.  1.
         23    2    1    0    0    0  0.20012035575E+02  0.22765629050E+02  0.70509270268E+01  0.93879733198E+02  0.88571628073E+02 0.  0.
         11    1    3    3    0    0 -0.11413258289E+02  0.17722172447E+02 -0.35171883652E+02  0.41004868746E+02  0.51100000000E-03 0. -1.
         22    1    1    0    0    0 -0.20012035575E+02 -0.22765629050E+02 -0.70509270268E+01  0.31120266802E+02  0.00000000000E+00 0.  1.
</event>
<event>
 5    1  0.8900327E-005  0.9118800E+02  0.7818608E-02  0.1130116E+00
         25   -1    0    0    0    0  0.00000000000E+00  0.00000000000E+00  0.99999998245E-14  0.12500000000E+03  0.12500000000E+03 0.  0.
        -11    1    3    3    0    0  0.18540664296E+02 -0.22176384442E+02 -0.46474954384E+02  0.54730883829E+02  0.51100000000E-03 0.  1.
         23    2    1    0    0    0 -0.44398151050E+01 -0.26294308188E+02 -0.13563156443E+02  0.95082416308E+02  0.90253000377E+02 0.  0.
         11    1    3    3    0    0 -0.22980479401E+02 -0.41179237461E+01  0.32911797941E+02  0.40351532479E+02  0.51100000000E-03 0. -1.
         22    1    1    0    0    0  0.44398151050E+01  0.26294308188E+02  0.13563156443E+02  0.29917583692E+02  0.00000000000E+00 0.  1.
</event>
<event>
 5    1  0.8900327E-005  0.9118800E+02  0.7818608E-02  0.1130116E+00
         25   -1    0    0    0    0  0.00000000000E+00  0.00000000000E+00  0.99999998245E-14  0.12500000000E+03  0.12500000000E+03 0.  0.
        -11    1    3    3    0    0  0.71832527909E+01  0.32393087225E+02 -0.51315612977E+01  0.33574456693E+02  0.51100000000E-03 0.  1.
         23    2    1    0    0    0  0.40169114524E+01 -0.27385450489E+02  0.10422026759E+02  0.95424383051E+02  0.90725386540E+02 0.  0.
         11    1    3    3    0    0 -0.31663413385E+01 -0.59778537715E+02  0.15553588057E+02  0.61849926358E+02  0.51100000000E-03 0. -1.
         22    1    1    0    0    0 -0.40169114524E+01  0.27385450489E+02 -0.10422026759E+02  0.29575616949E+02  0.00000000000E+00 0. -1.
</event>
<event>
 5    1  0.8900327E-005  0.9118800E+02  0.7818608E-02  0.1130116E+00
         25   -1    0    0    0    0  0.00000000000E+00  0.00000000000E+00  0.99999998245E-14  0.12500000000E+03  0.12500000000E+03 0.  0.
        -11    1    3    3    0    0 -0.11523135528E+02 -0.62103257038E+01  0.57640424743E+02  0.59108115877E+02  0.51100000000E-03 0. -1.
         23    2    1    0    0    0  0.51085201974E+01  0.70518451054E+01  0.28585405553E+02  0.95117715806E+02  0.90301876789E+02 0.  0.
         11    1    3    3    0    0  0.16631655725E+02  0.13262170809E+02 -0.29055019190E+02  0.36009599930E+02  0.51100000000E-03 0.  1.
         22    1    1    0    0    0 -0.51085201974E+01 -0.70518451054E+01 -0.28585405553E+02  0.29882284194E+02  0.00000000000E+00 0. -1.
</event>
<event>
 5    1  0.8900327E-005  0.9118800E+02  0.7818608E-02  0.1130116E+00
         25   -1    0    0    0    0  0.00000000000E+00  0.00000000000E+00  0.99999998245E-14  0.12500000000E+03  0.12500000000E+03 0.  0.
        -11    1    3    3    0    0  0.49403583309E+01  0.56050238602E+02 -0.99239230979E+01  0.57135983738E+02  0.51100000000E-03 0.  1.
         23    2    1    0    0    0 -0.10852834305E+02  0.10312533001E+02 -0.12361660988E+02  0.10558497974E+03  0.10378460837E+03 0.  0.
         11    1    3    3    0    0 -0.15793192636E+02 -0.45737705601E+02 -0.24377378899E+01  0.48448996001E+02  0.51100000000E-03 0. -1.
         22    1    1    0    0    0  0.10852834305E+02 -0.10312533001E+02  0.12361660988E+02  0.19415020261E+02  0.00000000000E+00 0.  1.
</event>
<event>
 5    1  0.8900327E-005  0.9118800E+02  0.7818608E-02  0.1130116E+00
         25   -1    0    0    0    0  0.00000000000E+00  0.00000000000E+00  0.99999998245E-14  0.12500000000E+03  0.12500000000E+03 0.  0.
        -11    1    3    3    0    0 -0.39658823533E+02 -0.24580550557E+02  0.21096563348E+02  0.51206354441E+02  0.51100000000E-03 0.  1.
         23    2    1    0    0    0 -0.10261998148E+02  0.10860762551E+02  0.23317051652E+02  0.97306143878E+02  0.93282023828E+02 0.  0.
         11    1    3    3    0    0  0.29396825386E+02  0.35441313108E+02  0.22204883037E+01  0.46099789437E+02  0.51100000000E-03 0. -1.
         22    1    1    0    0    0  0.10261998148E+02 -0.10860762551E+02 -0.23317051652E+02  0.27693856122E+02  0.00000000000E+00 0. -1.
</event>
<event>
 5    1  0.8900327E-005  0.9118800E+02  0.7818608E-02  0.1130116E+00
         25   -1    0    0    0    0  0.00000000000E+00  0.00000000000E+00  0.99999998245E-14  0.12500000000E+03  0.12500000000E+03 0.  0.
        -11    1    3    3    0    0 -0.27846451623E+02 -0.16586484651E+02  0.37395705876E+02  0.49487121146E+02  0.51100000000E-03 0.  1.
         23    2    1    0    0    0 -0.10183179397E+02  0.20407499994E+02  0.22099375986E+02  0.93242392760E+02  0.87667543538E+02 0.  0.
         11    1    3    3    0    0  0.17663272225E+02  0.36993984645E+02 -0.15296329890E+02  0.43755271614E+02  0.51100000000E-03 0. -1.
         22    1    1    0    0    0  0.10183179397E+02 -0.20407499994E+02 -0.22099375986E+02  0.31757607240E+02  0.00000000000E+00 0.  1.
</event>
<event>
 5    1  0.8900327E-005  0.9118800E+02  0.7818608E-02  0.1130116E+00
         25   -1    0    0    0    0  0.00000000000E+00  0.00000000000E+00  0.99999998245E-14  0.12500000000E+03  0.12500000000E+03 0.  0.
        -11    1    3    3    0    0 -0.41608783382E+02 -0.12854958687E+02  0.27760656284E+02  0.51644891857E+02  0.51100000000E-03 0. -1.
         23    2    1    0    0    0 -0.10372361278E+02 -0.25504875253E+02 -0.30388055080E+01  0.97299478722E+02  0.93273091943E+02 0.  0.
         11    1    3    3    0    0  0.31236422103E+02 -0.12649916565E+02 -0.30799461792E+02  0.45654586866E+02  0.51100000000E-03 0.  1.
         22    1    1    0    0    0  0.10372361278E+02  0.25504875253E+02  0.30388055080E+01  0.27700521278E+02  0.00000000000E+00 0. -1.
</event>
<event>
 5    1  0.8900327E-005  0.9118800E+02  0.7818608E-02  0.1130116E+00
         25   -1    0    0    0    0  0.00000000000E+00  0.00000000000E+00  0.99999998245E-14  0.12500000000E+03  0.12500000000E+03 0.  0.
        -11    1    3    3    0    0  0.18243737669E+02  0.23862144512E+02 -0.10967492752E+02  0.31976894821E+02  0.51100000000E-03 0.  1.
         23    2    1    0    0    0 -0.17166864494E+02  0.16612927896E+02 -0.40048053006E+02  0.78368067171E+02  0.62984258293E+02 0.  0.
         11    1    3    3    0    0 -0.35410602163E+02 -0.72492166168E+01 -0.29080560254E+02  0.46391172350E+02  0.51100000000E-03 0. -1.
         22    1    1    0    0    0  0.17166864494E+02 -0.16612927896E+02  0.40048053006E+02  0.46631932829E+02  0.00000000000E+00 0. -1.
</event>
<event>
 5    1  0.8900327E-005  0.9118800E+02  0.7818608E-02  0.1130116E+00
         25   -1    0    0    0    0  0.00000000000E+00  0.00000000000E+00  0.99999998245E-14  0.12500000000E+03  0.12500000000E+03 0.  0.
        -11    1    3    3    0    0 -0.37997782249E+02  0.37852722830E+00  0.12998970464E+02  0.40161523528E+02  0.51100000000E-03 0. -1.
         23    2    1    0    0    0  0.66317618670E+01  0.29342153777E+02  0.54855989677E-01  0.94917691862E+02  0.90024568677E+02 0.  0.
         11    1    3    3    0    0  0.44629544116E+02  0.28963626549E+02 -0.12944114474E+02  0.54756168334E+02  0.51100000000E-03 0.  1.
         22    1    1    0    0    0 -0.66317618670E+01 -0.29342153777E+02 -0.54855989677E-01  0.30082308138E+02  0.00000000000E+00 0.  1.
</event>
<event>
 5    1  0.8900327E-005  0.9118800E+02  0.7818608E-02  0.1130116E+00
         25   -1    0    0    0    0  0.00000000000E+00  0.00000000000E+00  0.99999998245E-14  0.12500000000E+03  0.12500000000E+03 0.  0.
        -11    1    3    3    0    0  0.15817583827E+02  0.28598825385E+02 -0.46321342200E+02  0.56689994840E+02  0.51100000000E-03 0.  1.
         23    2    1    0    0    0  0.23376095113E+02  0.15681080589E+02 -0.11497324543E+02  0.94593971275E+02  0.89573951675E+02 0.  0.
         11    1    3    3    0    0  0.75585112866E+01 -0.12917744796E+02  0.34824017658E+02  0.37903976435E+02  0.51100000000E-03 0. -1.
         22    1    1    0    0    0 -0.23376095113E+02 -0.15681080589E+02  0.11497324543E+02  0.30406028725E+02  0.00000000000E+00 0.  1.
</event>
<event>
 5    1  0.8900327E-005  0.9118800E+02  0.7818608E-02  0.1130116E+00
         25   -1    0    0    0    0  0.00000000000E+00  0.00000000000E+00  0.99999998245E-14  0.12500000000E+03  0.12500000000E+03 0.  0.
        -11    1    3    3    0    0  0.39971591348E+02  0.38593341398E+02  0.18032870248E+02  0.58415396299E+02  0.51100000000E-03 0. -1.
         23    2    1    0    0    0  0.26751269670E+02  0.52089593497E+01  0.13433225993E+02  0.94615542673E+02  0.89604049397E+02 0.  0.
         11    1    3    3    0    0 -0.13220321677E+02 -0.33384382048E+02 -0.45996442554E+01  0.36200146374E+02  0.51100000000E-03 0.  1.
         22    1    1    0    0    0 -0.26751269670E+02 -0.52089593497E+01 -0.13433225993E+02  0.30384457327E+02  0.00000000000E+00 0. -1.
</event>
<event>
 5    1  0.8900327E-005  0.9118800E+02  0.7818608E-02  0.1130116E+00
         25   -1    0    0    0    0  0.00000000000E+00  0.00000000000E+00  0.99999998245E-14  0.12500000000E+03  0.12500000000E+03 0.  0.
        -11    1    3    3    0    0 -0.36275478126E+02  0.79437363683E+01 -0.63086767491E+01  0.37667129747E+02  0.51100000000E-03 0. -1.
         23    2    1    0    0    0  0.14450163045E+02  0.33122297667E+01  0.23890835858E+02  0.96883276933E+02  0.92713641031E+02 0.  0.
         11    1    3    3    0    0  0.50725641171E+02 -0.46315066015E+01  0.30199512607E+02  0.59216147186E+02  0.51100000000E-03 0.  1.
         22    1    1    0    0    0 -0.14450163045E+02 -0.33122297667E+01 -0.23890835858E+02  0.28116723067E+02  0.00000000000E+00 0.  1.
</event>
<event>
 5    1  0.8900327E-005  0.9118800E+02  0.7818608E-02  0.1130116E+00
         25   -1    0    0    0    0  0.00000000000E+00  0.00000000000E+00  0.99999998245E-14  0.12500000000E+03  0.12500000000E+03 0.  0.
        -11    1    3    3    0    0  0.32425359397E+02  0.25877038589E+02 -0.30645501068E+01  0.41598275515E+02  0.51100000000E-03 0.  1.
         23    2    1    0    0    0  0.60517509757E+01 -0.17818603638E+02  0.19940988778E+02  0.97581587229E+02  0.93650396727E+02 0.  0.
         11    1    3    3    0    0 -0.26373608422E+02 -0.43695642227E+02  0.23005538885E+02  0.55983311714E+02  0.51100000000E-03 0. -1.
         22    1    1    0    0    0 -0.60517509757E+01  0.17818603638E+02 -0.19940988778E+02  0.27418412771E+02  0.00000000000E+00 0. -1.
</event>
<event>
 5    1  0.8900327E-005  0.9118800E+02  0.7818608E-02  0.1130116E+00
         25   -1    0    0    0    0  0.00000000000E+00  0.00000000000E+00  0.99999998245E-14  0.12500000000E+03  0.12500000000E+03 0.  0.
        -11    1    3    3    0    0 -0.30341273636E+02  0.22261283690E+02  0.32299882540E+02  0.49592741907E+02  0.51100000000E-03 0.  1.
         23    2    1    0    0    0  0.12378595138E+02  0.69236801588E+01  0.25953216385E+02  0.95424056984E+02  0.90724937289E+02 0.  0.
         11    1    3    3    0    0  0.42719868775E+02 -0.15337603531E+02 -0.63466661556E+01  0.45831315078E+02  0.51100000000E-03 0. -1.
         22    1    1    0    0    0 -0.12378595138E+02 -0.69236801588E+01 -0.25953216385E+02  0.29575943016E+02  0.00000000000E+00 0. -1.
</event>
<event>
 5    1  0.8900327E-005  0.9118800E+02  0.7818608E-02  0.1130116E+00
         25   -1    0    0    0    0  0.00000000000E+00  0.00000000000E+00  0.99999998245E-14  0.12500000000E+03  0.12500000000E+03 0.  0.
        -11    1    3    3    0    0 -0.25669171011E+02 -0.31111424319E+02  0.47650033289E+02  0.62428781313E+02  0.51100000000E-03 0. -1.
         23    2    1    0    0    0 -0.14152530339E+02 -0.14707925513E+02  0.21843108422E+02  0.95104539251E+02  0.90283635353E+02 0.  0.
         11    1    3    3    0    0  0.11516640671E+02  0.16403498806E+02 -0.25806924867E+02  0.32675757938E+02  0.51100000000E-03 0.  1.
         22    1    1    0    0    0  0.14152530339E+02  0.14707925513E+02 -0.21843108422E+02  0.29895460749E+02  0.00000000000E+00 0. -1.
</event>
<event>
 5    1  0.8900327E-005  0.9118800E+02  0.7818608E-02  0.1130116E+00
         25   -1    0    0    0    0  0.00000000000E+00  0.00000000000E+00  0.99999998245E-14  0.12500000000E+03  0.12500000000E+03 0.  0.
        -11    1    3    3    0    0 -0.29468144094E+02 -0.19974016180E+01  0.33015804887E+02  0.44299035003E+02  0.51100000000E-03 0. -1.
         23    2    1    0    0    0 -0.21665102025E+02 -0.16925407500E+02 -0.13933159996E+02  0.94178270452E+02  0.88991952519E+02 0.  0.
         11    1    3    3    0    0  0.78030420686E+01 -0.14928005882E+02 -0.46948964883E+02  0.49879235450E+02  0.51100000000E-03 0.  1.
         22    1    1    0    0    0  0.21665102025E+02  0.16925407500E+02  0.13933159996E+02  0.30821729548E+02  0.00000000000E+00 0.  1.
</event>
<event>
 5    1  0.8900327E-005  0.9118800E+02  0.7818608E-02  0.1130116E+00
         25   -1    0    0    0    0  0.00000000000E+00  0.00000000000E+00  0.99999998245E-14  0.12500000000E+03  0.12500000000E+03 0.  0.
        -11    1    3    3    0    0 -0.85647734199E+01 -0.11251325789E+02  0.32957511937E+02  0.35862867552E+02  0.51100000000E-03 0. -1.
         23    2    1    0    0    0 -0.23019785086E+01  0.35473134157E+02  0.11699915118E+02  0.87576339493E+02  0.79177552836E+02 0.  0.
         11    1    3    3    0    0  0.62627949113E+01  0.46724459946E+02 -0.21257596819E+02  0.51713471940E+02  0.51100000000E-03 0.  1.
         22    1    1    0    0    0  0.23019785086E+01 -0.35473134157E+02 -0.11699915118E+02  0.37423660507E+02  0.00000000000E+00 0.  1.
</event>
<event>
 5    1  0.8900327E-005  0.9118800E+02  0.7818608E-02  0.1130116E+00
         25   -1    0    0    0    0  0.00000000000E+00  0.00000000000E+00  0.99999998245E-14  0.12500000000E+03  0.12500000000E+03 0.  0.
        -11    1    3    3    0    0  0.12970107056E+02 -0.82409713362E+01  0.49576569604E+02  0.51903502190E+02  0.51100000000E-03 0. -1.
         23    2    1    0    0    0 -0.19923524795E+02 -0.92349581632E+00  0.20278719450E+02  0.96556615051E+02  0.92272172202E+02 0.  0.
         11    1    3    3    0    0 -0.32893631851E+02  0.73174755198E+01 -0.29297850153E+02  0.44653112862E+02  0.51100000000E-03 0.  1.
         22    1    1    0    0    0  0.19923524795E+02  0.92349581632E+00 -0.20278719450E+02  0.28443384949E+02  0.00000000000E+00 0. -1.
</event>
<event>
 5    1  0.8900327E-005  0.9118800E+02  0.7818608E-02  0.1130116E+00
         25   -1    0    0    0    0  0.00000000000E+00  0.00000000000E+00  0.99999998245E-14  0.12500000000E+03  0.12500000000E+03 0.  0.
        -11    1    3    3    0    0 -0.50638092308E+01 -0.28123241082E+02 -0.33521993678E+02  0.44048642582E+02  0.51100000000E-03 0.  1.
         23    2    1    0    0    0  0.53466265430E+01  0.20540912072E+02 -0.20504270308E+02  0.95488297491E+02  0.90813404147E+02 0.  0.
         11    1    3    3    0    0  0.10410435774E+02  0.48664153154E+02  0.13017723370E+02  0.51439654909E+02  0.51100000000E-03 0. -1.
         22    1    1    0    0    0 -0.53466265430E+01 -0.20540912072E+02  0.20504270308E+02  0.29511702509E+02  0.00000000000E+00 0. -1.
</event>
<event>
 5    1  0.8900327E-005  0.9118800E+02  0.7818608E-02  0.1130116E+00
         25   -1    0    0    0    0  0.00000000000E+00  0.00000000000E+00  0.99999998245E-14  0.12500000000E+03  0.12500000000E+03 0.  0.
        -11    1    3    3    0    0  0.39249508460E+02 -0.21910217037E+01 -0.28167630512E+02  0.48360520049E+02  0.51100000000E-03 0. -1.
         23    2    1    0    0    0 -0.56822847820E+01  0.34964990688E+01 -0.30566004348E+02  0.93714308576E+02  0.88337857932E+02 0.  0.
         11    1    3    3    0    0 -0.44931793242E+02  0.56875207725E+01 -0.23983738361E+01  0.45353788528E+02  0.51100000000E-03 0.  1.
         22    1    1    0    0    0  0.56822847820E+01 -0.34964990688E+01  0.30566004348E+02  0.31285691424E+02  0.00000000000E+00 0. -1.
</event>
<event>
 5    1  0.8900327E-005  0.9118800E+02  0.7818608E-02  0.1130116E+00
         25   -1    0    0    0    0  0.00000000000E+00  0.00000000000E+00  0.99999998245E-14  0.12500000000E+03  0.12500000000E+03 0.  0.
        -11    1    3    3    0    0  0.28551366719E+02 -0.31596551470E+02  0.17097324381E+02  0.45889444402E+02  0.51100000000E-03 0.  1.
         23    2    1    0    0    0 -0.16128576056E+02 -0.24149580024E+02 -0.36871373834E+01  0.95726664641E+02  0.91140913757E+02 0.  0.
         11    1    3    3    0    0 -0.44679942775E+02  0.74469714454E+01 -0.20784461764E+02  0.49837220239E+02  0.51100000000E-03 0. -1.
         22    1    1    0    0    0  0.16128576056E+02  0.24149580024E+02  0.36871373834E+01  0.29273335359E+02  0.00000000000E+00 0.  1.
</event>
<event>
 5    1  0.8900327E-005  0.9118800E+02  0.7818608E-02  0.1130116E+00
         25   -1    0    0    0    0  0.00000000000E+00  0.00000000000E+00  0.99999998245E-14  0.12500000000E+03  0.12500000000E+03 0.  0.
        -11    1    3    3    0    0  0.33361894468E+02  0.58372659549E+01  0.82300940704E+01  0.34854327206E+02  0.51100000000E-03 0. -1.
         23    2    1    0    0    0 -0.21812620628E+02 -0.11053932811E+02 -0.14153368111E+02  0.96745837862E+02  0.92528154988E+02 0.  0.
         11    1    3    3    0    0 -0.55174515096E+02 -0.16891198766E+02 -0.22383462181E+02  0.61891510656E+02  0.51100000000E-03 0.  1.
         22    1    1    0    0    0  0.21812620628E+02  0.11053932811E+02  0.14153368111E+02  0.28254162138E+02  0.00000000000E+00 0.  1.
</event>
<event>
 5    1  0.8900327E-005  0.9118800E+02  0.7818608E-02  0.1130116E+00
         25   -1    0    0    0    0  0.00000000000E+00  0.00000000000E+00  0.99999998245E-14  0.12500000000E+03  0.12500000000E+03 0.  0.
        -11    1    3    3    0    0  0.14029651992E+02 -0.27044813354E+02 -0.20955957101E+02  0.36978442405E+02  0.51100000000E-03 0.  1.
         23    2    1    0    0    0 -0.54653544662E+01  0.26979651064E+02 -0.11413261923E+02  0.95200097002E+02  0.90415840705E+02 0.  0.
         11    1    3    3    0    0 -0.19495006459E+02  0.54024464418E+02  0.95426951777E+01  0.58221654597E+02  0.51100000000E-03 0. -1.
         22    1    1    0    0    0  0.54653544662E+01 -0.26979651064E+02  0.11413261923E+02  0.29799902998E+02  0.00000000000E+00 0. -1.
</event>
<event>
 5    1  0.8900327E-005  0.9118800E+02  0.7818608E-02  0.1130116E+00
         25   -1    0    0    0    0  0.00000000000E+00  0.00000000000E+00  0.99999998245E-14  0.12500000000E+03  0.12500000000E+03 0.  0.
        -11    1    3    3    0    0  0.57452934502E+02  0.14076049820E+02  0.17195611591E+02  0.61600843498E+02  0.51100000000E-03 0.  1.
         23    2    1    0    0    0  0.27551481739E+02  0.44703834052E+01  0.15546642911E+02  0.93050562139E+02  0.87393595502E+02 0.  0.
         11    1    3    3    0    0 -0.29901452763E+02 -0.96056664152E+01 -0.16489686795E+01  0.31449718641E+02  0.51100000000E-03 0. -1.
         22    1    1    0    0    0 -0.27551481739E+02 -0.44703834052E+01 -0.15546642911E+02  0.31949437861E+02  0.00000000000E+00 0.  1.
</event>
<event>
 5    1  0.8900327E-005  0.9118800E+02  0.7818608E-02  0.1130116E+00
         25   -1    0    0    0    0  0.00000000000E+00  0.00000000000E+00  0.99999998245E-14  0.12500000000E+03  0.12500000000E+03 0.  0.
        -11    1    3    3    0    0  0.67989246554E+01 -0.29291807086E+02 -0.32442311302E+01  0.30245005782E+02  0.51100000000E-03 0. -1.
         23    2    1    0    0    0 -0.14012297205E+02  0.21942816976E+02 -0.24269674553E+02  0.89407180602E+02  0.82017041830E+02 0.  0.
         11    1    3    3    0    0 -0.20811221861E+02  0.51234624062E+02 -0.21025443423E+02  0.59162174820E+02  0.51100000000E-03 0.  1.
         22    1    1    0    0    0  0.14012297205E+02 -0.21942816976E+02  0.24269674553E+02  0.35592819398E+02  0.00000000000E+00 0.  1.
</event>
<event>
 5    1  0.8900327E-005  0.9118800E+02  0.7818608E-02  0.1130116E+00
         25   -1    0    0    0    0  0.00000000000E+00  0.00000000000E+00  0.99999998245E-14  0.12500000000E+03  0.12500000000E+03 0.  0.
        -11    1    3    3    0    0 -0.32689932228E+02 -0.12634930330E+02 -0.28079191529E+02  0.44907840414E+02  0.51100000000E-03 0.  1.
         23    2    1    0    0    0 -0.21946459664E+02  0.14365246035E+02  0.13393937574E+02  0.95548260677E+02  0.90895902928E+02 0.  0.
         11    1    3    3    0    0  0.10743472564E+02  0.27000176365E+02  0.41473129103E+02  0.50640420262E+02  0.51100000000E-03 0. -1.
         22    1    1    0    0    0  0.21946459664E+02 -0.14365246035E+02 -0.13393937574E+02  0.29451739323E+02  0.00000000000E+00 0. -1.
</event>
<event>
 5    1  0.8900327E-005  0.9118800E+02  0.7818608E-02  0.1130116E+00
         25   -1    0    0    0    0  0.00000000000E+00  0.00000000000E+00  0.99999998245E-14  0.12500000000E+03  0.12500000000E+03 0.  0.
        -11    1    3    3    0    0  0.29865277089E+02 -0.17022223629E+02 -0.17521539585E+02  0.38583613395E+02  0.51100000000E-03 0.  1.
         23    2    1    0    0    0 -0.92073704248E+01 -0.15985716830E+02  0.23419924588E+02  0.95187055154E+02  0.90397808538E+02 0.  0.
         11    1    3    3    0    0 -0.39072647514E+02  0.10365067993E+01  0.40941464173E+02  0.56603441759E+02  0.51100000000E-03 0. -1.
         22    1    1    0    0    0  0.92073704248E+01  0.15985716830E+02 -0.23419924588E+02  0.29812944846E+02  0.00000000000E+00 0.  1.
</event>
<event>
 5    1  0.8900327E-005  0.9118800E+02  0.7818608E-02  0.1130116E+00
         25   -1    0    0    0    0  0.00000000000E+00  0.00000000000E+00  0.99999998245E-14  0.12500000000E+03  0.12500000000E+03 0.  0.
        -11    1    3    3    0    0 -0.17914040877E+02  0.77918904836E+01 -0.32004110777E+02  0.37495193355E+02  0.51100000000E-03 0. -1.
         23    2    1    0    0    0  0.18170209143E+02 -0.26085750610E+02 -0.98816707949E+01  0.91709306062E+02  0.85453651271E+02 0.  0.
         11    1    3    3    0    0  0.36084250020E+02 -0.33877641093E+02  0.22122439982E+02  0.54214112707E+02  0.51100000000E-03 0.  1.
         22    1    1    0    0    0 -0.18170209143E+02  0.26085750610E+02  0.98816707949E+01  0.33290693938E+02  0.00000000000E+00 0.  1.
</event>
<event>
 5    1  0.8900327E-005  0.9118800E+02  0.7818608E-02  0.1130116E+00
         25   -1    0    0    0    0  0.00000000000E+00  0.00000000000E+00  0.99999998245E-14  0.12500000000E+03  0.12500000000E+03 0.  0.
        -11    1    3    3    0    0  0.33118066557E+02  0.29276733884E+02  0.32357158770E+02  0.54780646248E+02  0.51100000000E-03 0. -1.
         23    2    1    0    0    0  0.29127103698E+01  0.62627985315E+01  0.31486988206E+02  0.92764352753E+02  0.86983263840E+02 0.  0.
         11    1    3    3    0    0 -0.30205356187E+02 -0.23013935352E+02 -0.87017056360E+00  0.37983706505E+02  0.51100000000E-03 0.  1.
         22    1    1    0    0    0 -0.29127103698E+01 -0.62627985315E+01 -0.31486988206E+02  0.32235647247E+02  0.00000000000E+00 0. -1.
</event>
<event>
 5    1  0.8900327E-005  0.9118800E+02  0.7818608E-02  0.1130116E+00
         25   -1    0    0    0    0  0.00000000000E+00  0.00000000000E+00  0.99999998245E-14  0.12500000000E+03  0.12500000000E+03 0.  0.
        -11    1    3    3    0    0 -0.19915007871E+02  0.33605336760E+01  0.34331817205E+02  0.39831826445E+02  0.51100000000E-03 0.  1.
         23    2    1    0    0    0 -0.81216515161E+01 -0.31263662452E+02 -0.35663009851E+01  0.92502364455E+02  0.86605953109E+02 0.  0.
         11    1    3    3    0    0  0.11793356355E+02 -0.34624196128E+02 -0.37898118191E+02  0.52670538010E+02  0.51100000000E-03 0. -1.
         22    1    1    0    0    0  0.81216515161E+01  0.31263662452E+02  0.35663009851E+01  0.32497635545E+02  0.00000000000E+00 0. -1.
</event>
<event>
 5    1  0.8900327E-005  0.9118800E+02  0.7818608E-02  0.1130116E+00
         25   -1    0    0    0    0  0.00000000000E+00  0.00000000000E+00  0.99999998245E-14  0.12500000000E+03  0.12500000000E+03 0.  0.
        -11    1    3    3    0    0  0.13419934055E+02 -0.42403677778E+02 -0.32125086074E+02  0.54865177250E+02  0.51100000000E-03 0. -1.
         23    2    1    0    0    0  0.13175659561E+02 -0.26090936341E+02  0.49349711125E+01  0.95357312809E+02  0.90632931114E+02 0.  0.
         11    1    3    3    0    0 -0.24427449406E+00  0.16312741437E+02  0.37060057187E+02  0.40492135559E+02  0.51100000000E-03 0.  1.
         22    1    1    0    0    0 -0.13175659561E+02  0.26090936341E+02 -0.49349711125E+01  0.29642687191E+02  0.00000000000E+00 0. -1.
</event>
<event>
 5    1  0.8900327E-005  0.9118800E+02  0.7818608E-02  0.1130116E+00
         25   -1    0    0    0    0  0.00000000000E+00  0.00000000000E+00  0.99999998245E-14  0.12500000000E+03  0.12500000000E+03 0.  0.
        -11    1    3    3    0    0 -0.34048014115E+00  0.28839185978E+02 -0.22519744014E+02  0.36591712796E+02  0.51100000000E-03 0.  1.
         23    2    1    0    0    0  0.21122834722E+02 -0.21804275406E+02 -0.10353949378E+02  0.92925012231E+02  0.87213835243E+02 0.  0.
         11    1    3    3    0    0  0.21463314863E+02 -0.50643461384E+02  0.12165794636E+02  0.56333299435E+02  0.51100000000E-03 0. -1.
         22    1    1    0    0    0 -0.21122834722E+02  0.21804275406E+02  0.10353949378E+02  0.32074987769E+02  0.00000000000E+00 0. -1.
</event>
<event>
 5    1  0.8900327E-005  0.9118800E+02  0.7818608E-02  0.1130116E+00
         25   -1    0    0    0    0  0.00000000000E+00  0.00000000000E+00  0.99999998245E-14  0.12500000000E+03  0.12500000000E+03 0.  0.
        -11    1    3    3    0    0 -0.17592677643E+02 -0.46631000589E+02  0.53033935739E+01  0.50120639523E+02  0.51100000000E-03 0.  1.
         23    2    1    0    0    0 -0.13818898696E+02 -0.48946151912E+01 -0.20844983755E+02  0.99516033143E+02  0.96197756136E+02 0.  0.
         11    1    3    3    0    0  0.37737789467E+01  0.41736385398E+02 -0.26148377329E+02  0.49395393619E+02  0.51100000000E-03 0. -1.
         22    1    1    0    0    0  0.13818898696E+02  0.48946151912E+01  0.20844983755E+02  0.25483966857E+02  0.00000000000E+00 0. -1.
</event>
<event>
 5    1  0.8900327E-005  0.9118800E+02  0.7818608E-02  0.1130116E+00
         25   -1    0    0    0    0  0.00000000000E+00  0.00000000000E+00  0.99999998245E-14  0.12500000000E+03  0.12500000000E+03 0.  0.
        -11    1    3    3    0    0  0.20713664024E+01 -0.55594862241E+02 -0.52649836176E+01  0.55882012483E+02  0.51100000000E-03 0.  1.
         23    2    1    0    0    0 -0.17466081708E+02 -0.22337169315E+02 -0.10407651700E+02  0.94795160038E+02  0.89854270958E+02 0.  0.
         11    1    3    3    0    0 -0.19537448110E+02  0.33257692926E+02 -0.51426680826E+01  0.38913147555E+02  0.51100000000E-03 0. -1.
         22    1    1    0    0    0  0.17466081708E+02  0.22337169315E+02  0.10407651700E+02  0.30204839962E+02  0.00000000000E+00 0.  1.
</event>
<event>
 5    1  0.8900327E-005  0.9118800E+02  0.7818608E-02  0.1130116E+00
         25   -1    0    0    0    0  0.00000000000E+00  0.00000000000E+00  0.99999998245E-14  0.12500000000E+03  0.12500000000E+03 0.  0.
        -11    1    3    3    0    0  0.30533126428E+02  0.31213675640E+02  0.38920551554E+02  0.58492518239E+02  0.51100000000E-03 0.  1.
         23    2    1    0    0    0  0.26531209368E+02  0.16574292656E+02  0.83514661305E+01  0.92621623973E+02  0.86777911898E+02 0.  0.
         11    1    3    3    0    0 -0.40019170602E+01 -0.14639382984E+02 -0.30569085423E+02  0.34129105734E+02  0.51100000000E-03 0. -1.
         22    1    1    0    0    0 -0.26531209368E+02 -0.16574292656E+02 -0.83514661305E+01  0.32378376027E+02  0.00000000000E+00 0.  1.
</event>
<event>
 5    1  0.8900327E-005  0.9118800E+02  0.7818608E-02  0.1130116E+00
         25   -1    0    0    0    0  0.00000000000E+00  0.00000000000E+00  0.99999998245E-14  0.12500000000E+03  0.12500000000E+03 0.  0.
        -11    1    3    3    0    0 -0.42585014587E+02  0.17304992951E+02 -0.32449176325E+02  0.56266289133E+02  0.51100000000E-03 0.  1.
         23    2    1    0    0    0 -0.12337008238E+02  0.24984132494E+02 -0.77135075643E+01  0.96087946325E+02  0.91635072878E+02 0.  0.
         11    1    3    3    0    0  0.30248006349E+02  0.76791395429E+01  0.24735668761E+02  0.39821657192E+02  0.51100000000E-03 0. -1.
         22    1    1    0    0    0  0.12337008238E+02 -0.24984132494E+02  0.77135075643E+01  0.28912053675E+02  0.00000000000E+00 0.  1.
</event>
<event>
 5    1  0.8900327E-005  0.9118800E+02  0.7818608E-02  0.1130116E+00
         25   -1    0    0    0    0  0.00000000000E+00  0.00000000000E+00  0.99999998245E-14  0.12500000000E+03  0.12500000000E+03 0.  0.
        -11    1    3    3    0    0  0.20772793899E+02 -0.80703924517E+01  0.54734187978E+02  0.59097136432E+02  0.51100000000E-03 0.  1.
         23    2    1    0    0    0  0.36019967625E+00 -0.15104213627E+02  0.23185033642E+02  0.97326677140E+02  0.93309534803E+02 0.  0.
         11    1    3    3    0    0 -0.20412594222E+02 -0.70338211750E+01 -0.31549154335E+02  0.38229540708E+02  0.51100000000E-03 0. -1.
         22    1    1    0    0    0 -0.36019967625E+00  0.15104213627E+02 -0.23185033642E+02  0.27673322860E+02  0.00000000000E+00 0.  1.
</event>
<event>
 5    1  0.8900327E-005  0.9118800E+02  0.7818608E-02  0.1130116E+00
         25   -1    0    0    0    0  0.00000000000E+00  0.00000000000E+00  0.99999998245E-14  0.12500000000E+03  0.12500000000E+03 0.  0.
        -11    1    3    3    0    0 -0.21630560016E+02 -0.47322330777E+02  0.95615716061E+01  0.52902814373E+02  0.51100000000E-03 0. -1.
         23    2    1    0    0    0  0.36280206038E+01 -0.24506229223E+02 -0.16034128598E+02  0.95490491631E+02  0.90816424218E+02 0.  0.
         11    1    3    3    0    0  0.25258580620E+02  0.22816101553E+02 -0.25595700205E+02  0.42587677258E+02  0.51100000000E-03 0.  1.
         22    1    1    0    0    0 -0.36280206038E+01  0.24506229223E+02  0.16034128598E+02  0.29509508369E+02  0.00000000000E+00 0.  1.
</event>
<event>
 5    1  0.8900327E-005  0.9118800E+02  0.7818608E-02  0.1130116E+00
         25   -1    0    0    0    0  0.00000000000E+00  0.00000000000E+00  0.99999998245E-14  0.12500000000E+03  0.12500000000E+03 0.  0.
        -11    1    3    3    0    0  0.59659589354E+00  0.36727262454E+02 -0.74891211111E+01  0.37487793604E+02  0.51100000000E-03 0.  1.
         23    2    1    0    0    0  0.19569043262E+02 -0.16849562367E+02 -0.15492932044E+02  0.94885449538E+02  0.89979788756E+02 0.  0.
         11    1    3    3    0    0  0.18972447369E+02 -0.53576824821E+02 -0.80038109334E+01  0.57397655935E+02  0.51100000000E-03 0. -1.
         22    1    1    0    0    0 -0.19569043262E+02  0.16849562367E+02  0.15492932044E+02  0.30114550462E+02  0.00000000000E+00 0. -1.
</event>
<event>
 5    1  0.8900327E-005  0.9118800E+02  0.7818608E-02  0.1130116E+00
         25   -1    0    0    0    0  0.00000000000E+00  0.00000000000E+00  0.99999998245E-14  0.12500000000E+03  0.12500000000E+03 0.  0.
        -11    1    3    3    0    0 -0.37583502635E+02  0.30337264778E+02 -0.24175063176E+02  0.54012063322E+02  0.51100000000E-03 0. -1.
         23    2    1    0    0    0 -0.13335101238E+02  0.63634116147E+01 -0.32662151418E+02  0.89151233387E+02  0.81626027386E+02 0.  0.
         11    1    3    3    0    0  0.24248401397E+02 -0.23973853163E+02 -0.84870882415E+01  0.35139170065E+02  0.51100000000E-03 0.  1.
         22    1    1    0    0    0  0.13335101238E+02 -0.63634116147E+01  0.32662151418E+02  0.35848766613E+02  0.00000000000E+00 0. -1.
</event>
<event>
 5    1  0.8900327E-005  0.9118800E+02  0.7818608E-02  0.1130116E+00
         25   -1    0    0    0    0  0.00000000000E+00  0.00000000000E+00  0.99999998245E-14  0.12500000000E+03  0.12500000000E+03 0.  0.
        -11    1    3    3    0    0  0.15876986894E+02 -0.31388265658E+02  0.50745656636E+02  0.61744826516E+02  0.51100000000E-03 0.  1.
         23    2    1    0    0    0  0.11245897890E+01 -0.13358289203E+02  0.26101937698E+02  0.95656862059E+02  0.91045129001E+02 0.  0.
         11    1    3    3    0    0 -0.14752397105E+02  0.18029976455E+02 -0.24643718938E+02  0.33912035543E+02  0.51100000000E-03 0. -1.
         22    1    1    0    0    0 -0.11245897890E+01  0.13358289203E+02 -0.26101937698E+02  0.29343137941E+02  0.00000000000E+00 0.  1.
</event>
<event>
 5    1  0.8900327E-005  0.9118800E+02  0.7818608E-02  0.1130116E+00
         25   -1    0    0    0    0  0.00000000000E+00  0.00000000000E+00  0.99999998245E-14  0.12500000000E+03  0.12500000000E+03 0.  0.
        -11    1    3    3    0    0  0.95812369848E+00  0.15461935051E+02  0.36260412648E+02  0.39431040592E+02  0.51100000000E-03 0.  1.
         23    2    1    0    0    0  0.15778506072E+01  0.18878258423E+02 -0.20954753736E+02  0.96751460963E+02  0.92535751149E+02 0.  0.
         11    1    3    3    0    0  0.61972690867E+00  0.34163233715E+01 -0.57215166384E+02  0.57320420370E+02  0.51100000000E-03 0. -1.
         22    1    1    0    0    0 -0.15778506072E+01 -0.18878258423E+02  0.20954753736E+02  0.28248539037E+02  0.00000000000E+00 0. -1.
</event>
<event>
 5    1  0.8900327E-005  0.9118800E+02  0.7818608E-02  0.1130116E+00
         25   -1    0    0    0    0  0.00000000000E+00  0.00000000000E+00  0.99999998245E-14  0.12500000000E+03  0.12500000000E+03 0.  0.
        -11    1    3    3    0    0 -0.99036131538E+01  0.32674131657E+01 -0.32727514526E+02  0.34348911913E+02  0.51100000000E-03 0.  1.
         23    2    1    0    0    0  0.91046534750E+01  0.19189437724E+02  0.21992974152E+02  0.94425171348E+02  0.89338081672E+02 0.  0.
         11    1    3    3    0    0  0.19008266629E+02  0.15922024558E+02  0.54720488678E+02  0.60076259435E+02  0.51100000000E-03 0. -1.
         22    1    1    0    0    0 -0.91046534750E+01 -0.19189437724E+02 -0.21992974152E+02  0.30574828652E+02  0.00000000000E+00 0. -1.
</event>
<event>
 5    1  0.8900327E-005  0.9118800E+02  0.7818608E-02  0.1130116E+00
         25   -1    0    0    0    0  0.00000000000E+00  0.00000000000E+00  0.99999998245E-14  0.12500000000E+03  0.12500000000E+03 0.  0.
        -11    1    3    3    0    0 -0.21836762075E+02 -0.12225028204E+02  0.30910350734E+02  0.39771161352E+02  0.51100000000E-03 0.  1.
         23    2    1    0    0    0 -0.24394223166E+02 -0.22894992484E+02 -0.15977160511E+02  0.87925366318E+02  0.79726667931E+02 0.  0.
         11    1    3    3    0    0 -0.25574610911E+01 -0.10669964280E+02 -0.46887511244E+02  0.48154204966E+02  0.51100000000E-03 0. -1.
         22    1    1    0    0    0  0.24394223166E+02  0.22894992484E+02  0.15977160511E+02  0.37074633682E+02  0.00000000000E+00 0. -1.
</event>
<event>
 5    1  0.8900327E-005  0.9118800E+02  0.7818608E-02  0.1130116E+00
         25   -1    0    0    0    0  0.00000000000E+00  0.00000000000E+00  0.99999998245E-14  0.12500000000E+03  0.12500000000E+03 0.  0.
        -11    1    3    3    0    0 -0.57365154644E+02 -0.91120241194E+00  0.17499855532E+02  0.59981965632E+02  0.51100000000E-03 0.  1.
         23    2    1    0    0    0 -0.22422312992E+02 -0.62009120291E+01  0.18407237089E+02  0.95334568819E+02  0.90601557408E+02 0.  0.
         11    1    3    3    0    0  0.34942841652E+02 -0.52897096172E+01  0.90738155673E+00  0.35352603187E+02  0.51100000000E-03 0. -1.
         22    1    1    0    0    0  0.22422312992E+02  0.62009120291E+01 -0.18407237089E+02  0.29665431181E+02  0.00000000000E+00 0.  1.
</event>
<event>
 5    1  0.8900327E-005  0.9118800E+02  0.7818608E-02  0.1130116E+00
         25   -1    0    0    0    0  0.00000000000E+00  0.00000000000E+00  0.99999998245E-14  0.12500000000E+03  0.12500000000E+03 0.  0.
        -11    1    3    3    0    0  0.24951155339E+02 -0.39440235746E+02 -0.46564312310E+01  0.46901755836E+02  0.51100000000E-03 0.  1.
         23    2    1    0    0    0  0.49621688822E+01 -0.11130731362E+01 -0.28351061307E+02  0.96196445895E+02  0.91782958515E+02 0.  0.
         11    1    3    3    0    0 -0.19988986457E+02  0.38327162610E+02 -0.23694630076E+02  0.49294690059E+02  0.51100000000E-03 0. -1.
         22    1    1    0    0    0 -0.49621688822E+01  0.11130731362E+01  0.28351061307E+02  0.28803554105E+02  0.00000000000E+00 0. -1.
</event>
<event>
 5    1  0.8900327E-005  0.9118800E+02  0.7818608E-02  0.1130116E+00
         25   -1    0    0    0    0  0.00000000000E+00  0.00000000000E+00  0.99999998245E-14  0.12500000000E+03  0.12500000000E+03 0.  0.
        -11    1    3    3    0    0 -0.41937860069E+02 -0.21747800248E+00  0.83751279312E+01  0.42766507596E+02  0.51100000000E-03 0.  1.
         23    2    1    0    0    0 -0.34217907169E+01  0.12324162021E+02 -0.26084917666E+02  0.95948037056E+02  0.91444022571E+02 0.  0.
         11    1    3    3    0    0  0.38516069352E+02  0.12541640023E+02 -0.34460045598E+02  0.53181529460E+02  0.51100000000E-03 0. -1.
         22    1    1    0    0    0  0.34217907169E+01 -0.12324162021E+02  0.26084917666E+02  0.29051962944E+02  0.00000000000E+00 0. -1.
</event>
<event>
 5    1  0.8900327E-005  0.9118800E+02  0.7818608E-02  0.1130116E+00
         25   -1    0    0    0    0  0.00000000000E+00  0.00000000000E+00  0.99999998245E-14  0.12500000000E+03  0.12500000000E+03 0.  0.
        -11    1    3    3    0    0  0.22783486937E+02  0.15433029381E+02  0.24899955222E+02  0.37111634877E+02  0.51100000000E-03 0. -1.
         23    2    1    0    0    0  0.11120279631E+02  0.11714088688E+02 -0.28686678451E+02  0.92078790827E+02  0.85992428194E+02 0.  0.
         11    1    3    3    0    0 -0.11663207306E+02 -0.37189406932E+01 -0.53586633673E+02  0.54967155950E+02  0.51100000000E-03 0.  1.
         22    1    1    0    0    0 -0.11120279631E+02 -0.11714088688E+02  0.28686678451E+02  0.32921209173E+02  0.00000000000E+00 0.  1.
</event>
<event>
 5    1  0.8900327E-005  0.9118800E+02  0.7818608E-02  0.1130116E+00
         25   -1    0    0    0    0  0.00000000000E+00  0.00000000000E+00  0.99999998245E-14  0.12500000000E+03  0.12500000000E+03 0.  0.
        -11    1    3    3    0    0  0.55534614676E+01 -0.22612326379E+02  0.44339792335E+02  0.50081687503E+02  0.51100000000E-03 0.  1.
         23    2    1    0    0    0 -0.15140091522E+02  0.10721983704E+02  0.25120942628E+02  0.93771086085E+02  0.88418162846E+02 0.  0.
         11    1    3    3    0    0 -0.20693552990E+02  0.33334310083E+02 -0.19218849708E+02  0.43689398581E+02  0.51100000000E-03 0. -1.
         22    1    1    0    0    0  0.15140091522E+02 -0.10721983704E+02 -0.25120942628E+02  0.31228913915E+02  0.00000000000E+00 0.  1.
</event>
<event>
 5    1  0.8900327E-005  0.9118800E+02  0.7818608E-02  0.1130116E+00
         25   -1    0    0    0    0  0.00000000000E+00  0.00000000000E+00  0.99999998245E-14  0.12500000000E+03  0.12500000000E+03 0.  0.
        -11    1    3    3    0    0  0.21744437398E+02  0.25032976153E+02  0.78621292214E+01  0.34077610377E+02  0.51100000000E-03 0. -1.
         23    2    1    0    0    0 -0.10531473826E+02 -0.27066803403E+02 -0.62573264456E+00  0.95949779196E+02  0.91446403970E+02 0.  0.
         11    1    3    3    0    0 -0.32275911225E+02 -0.52099779556E+02 -0.84878618660E+01  0.61872168820E+02  0.51100000000E-03 0.  1.
         22    1    1    0    0    0  0.10531473826E+02  0.27066803403E+02  0.62573264456E+00  0.29050220804E+02  0.00000000000E+00 0.  1.
</event>
<event>
 5    1  0.8900327E-005  0.9118800E+02  0.7818608E-02  0.1130116E+00
         25   -1    0    0    0    0  0.00000000000E+00  0.00000000000E+00  0.99999998245E-14  0.12500000000E+03  0.12500000000E+03 0.  0.
        -11    1    3    3    0    0  0.11434958664E+02 -0.56801038095E+02  0.29387669566E+01  0.58015106307E+02  0.51100000000E-03 0.  1.
         23    2    1    0    0    0  0.11431151164E+02 -0.22424380085E+02  0.16427701506E+02  0.94943496279E+02  0.90060391237E+02 0.  0.
         11    1    3    3    0    0 -0.38074997005E-02  0.34376658010E+02  0.13488934550E+02  0.36928389973E+02  0.51100000000E-03 0. -1.
         22    1    1    0    0    0 -0.11431151164E+02  0.22424380085E+02 -0.16427701506E+02  0.30056503721E+02  0.00000000000E+00 0.  1.
</event>
<event>
 5    1  0.8900327E-005  0.9118800E+02  0.7818608E-02  0.1130116E+00
         25   -1    0    0    0    0  0.00000000000E+00  0.00000000000E+00  0.99999998245E-14  0.12500000000E+03  0.12500000000E+03 0.  0.
        -11    1    3    3    0    0  0.41237840148E+01 -0.36802393360E+02  0.46291369115E+02  0.59281638021E+02  0.51100000000E-03 0.  1.
         23    2    1    0    0    0  0.15666940571E+02 -0.16096616474E+02  0.17837403868E+02  0.96316780768E+02  0.91946697558E+02 0.  0.
         11    1    3    3    0    0  0.11543156556E+02  0.20705776886E+02 -0.28453965247E+02  0.37035142747E+02  0.51100000000E-03 0. -1.
         22    1    1    0    0    0 -0.15666940571E+02  0.16096616474E+02 -0.17837403868E+02  0.28683219232E+02  0.00000000000E+00 0.  1.
</event>
<event>
 5    1  0.8900327E-005  0.9118800E+02  0.7818608E-02  0.1130116E+00
         25   -1    0    0    0    0  0.00000000000E+00  0.00000000000E+00  0.99999998245E-14  0.12500000000E+03  0.12500000000E+03 0.  0.
        -11    1    3    3    0    0 -0.48657584736E+02 -0.24131022279E+02  0.29488660978E+02  0.61801682139E+02  0.51100000000E-03 0. -1.
         23    2    1    0    0    0 -0.18231359465E+02 -0.10858880248E+02  0.18728654090E+02  0.96696992524E+02  0.92462144313E+02 0.  0.
         11    1    3    3    0    0  0.30426225271E+02  0.13272142031E+02 -0.10760006889E+02  0.34895310385E+02  0.51100000000E-03 0.  1.
         22    1    1    0    0    0  0.18231359465E+02  0.10858880248E+02 -0.18728654090E+02  0.28303007476E+02  0.00000000000E+00 0. -1.
</event>
<event>
 5    1  0.8900327E-005  0.9118800E+02  0.7818608E-02  0.1130116E+00
         25   -1    0    0    0    0  0.00000000000E+00  0.00000000000E+00  0.99999998245E-14  0.12500000000E+03  0.12500000000E+03 0.  0.
        -11    1    3    3    0    0  0.23251301652E+02 -0.48811027144E+02  0.48080720551E+01  0.54279434011E+02  0.51100000000E-03 0. -1.
         23    2    1    0    0    0 -0.38681440765E+01 -0.19606587811E+02  0.19807195493E+02  0.96862732586E+02  0.92685938236E+02 0.  0.
         11    1    3    3    0    0 -0.27119445728E+02  0.29204439333E+02  0.14999123438E+02  0.42583298576E+02  0.51100000000E-03 0.  1.
         22    1    1    0    0    0  0.38681440765E+01  0.19606587811E+02 -0.19807195493E+02  0.28137267414E+02  0.00000000000E+00 0.  1.
</event>
<event>
 5    1  0.8900327E-005  0.9118800E+02  0.7818608E-02  0.1130116E+00
         25   -1    0    0    0    0  0.00000000000E+00  0.00000000000E+00  0.99999998245E-14  0.12500000000E+03  0.12500000000E+03 0.  0.
        -11    1    3    3    0    0  0.25208748451E+02  0.22029914258E+02 -0.18886236176E+02  0.38438106585E+02  0.51100000000E-03 0.  1.
         23    2    1    0    0    0  0.11875246807E+02 -0.24416969358E+02  0.11492114984E+02  0.95516469239E+02  0.90852172840E+02 0.  0.
         11    1    3    3    0    0 -0.13333501644E+02 -0.46446883616E+02  0.30378351160E+02  0.57078362653E+02  0.51100000000E-03 0. -1.
         22    1    1    0    0    0 -0.11875246807E+02  0.24416969358E+02 -0.11492114984E+02  0.29483530761E+02  0.00000000000E+00 0. -1.
</event>
<event>
 5    1  0.8900327E-005  0.9118800E+02  0.7818608E-02  0.1130116E+00
         25   -1    0    0    0    0  0.00000000000E+00  0.00000000000E+00  0.99999998245E-14  0.12500000000E+03  0.12500000000E+03 0.  0.
        -11    1    3    3    0    0 -0.16001821109E+02  0.26933626282E+02 -0.21204868878E+02  0.37830212369E+02  0.51100000000E-03 0.  1.
         23    2    1    0    0    0 -0.70554269250E+01 -0.27762711920E+02 -0.28513839497E+01  0.96213238934E+02  0.91805826250E+02 0.  0.
         11    1    3    3    0    0  0.89463941838E+01 -0.54696338202E+02  0.18353484928E+02  0.58383026565E+02  0.51100000000E-03 0. -1.
         22    1    1    0    0    0  0.70554269250E+01  0.27762711920E+02  0.28513839497E+01  0.28786761066E+02  0.00000000000E+00 0. -1.
</event>
<event>
 5    1  0.8900327E-005  0.9118800E+02  0.7818608E-02  0.1130116E+00
         25   -1    0    0    0    0  0.00000000000E+00  0.00000000000E+00  0.99999998245E-14  0.12500000000E+03  0.12500000000E+03 0.  0.
        -11    1    3    3    0    0 -0.32183209000E+01 -0.41043523853E+02 -0.25262181667E+02  0.48302238690E+02  0.51100000000E-03 0.  1.
         23    2    1    0    0    0  0.13573816033E+02 -0.23763166116E+02  0.13917043499E+02  0.94297872300E+02  0.89159789564E+02 0.  0.
         11    1    3    3    0    0  0.16792136933E+02  0.17280357737E+02  0.39179225166E+02  0.45995633610E+02  0.51100000000E-03 0. -1.
         22    1    1    0    0    0 -0.13573816033E+02  0.23763166116E+02 -0.13917043499E+02  0.30702127700E+02  0.00000000000E+00 0. -1.
</event>
<event>
 5    1  0.8900327E-005  0.9118800E+02  0.7818608E-02  0.1130116E+00
         25   -1    0    0    0    0  0.00000000000E+00  0.00000000000E+00  0.99999998245E-14  0.12500000000E+03  0.12500000000E+03 0.  0.
        -11    1    3    3    0    0  0.83424070612E+01 -0.47516086503E+02  0.22590336152E+02  0.53270043362E+02  0.51100000000E-03 0. -1.
         23    2    1    0    0    0 -0.73022887195E+01 -0.29454996364E+02 -0.94287759619E+01  0.93222302672E+02  0.87638893580E+02 0.  0.
         11    1    3    3    0    0 -0.15644695781E+02  0.18061090139E+02 -0.32019112114E+02  0.39952259309E+02  0.51100000000E-03 0.  1.
         22    1    1    0    0    0  0.73022887195E+01  0.29454996364E+02  0.94287759619E+01  0.31777697328E+02  0.00000000000E+00 0. -1.
</event>
<event>
 5    1  0.8900327E-005  0.9118800E+02  0.7818608E-02  0.1130116E+00
         25   -1    0    0    0    0  0.00000000000E+00  0.00000000000E+00  0.99999998245E-14  0.12500000000E+03  0.12500000000E+03 0.  0.
        -11    1    3    3    0    0 -0.34451363644E+02 -0.20688955846E+00 -0.42920110354E+01  0.34718303807E+02  0.51100000000E-03 0.  1.
         23    2    1    0    0    0  0.16347284268E+02 -0.25034106163E+02  0.10752160162E+02  0.93226597247E+02  0.87645018751E+02 0.  0.
         11    1    3    3    0    0  0.50798647912E+02 -0.24827216604E+02  0.15044171198E+02  0.58508293441E+02  0.51100000000E-03 0. -1.
         22    1    1    0    0    0 -0.16347284268E+02  0.25034106163E+02 -0.10752160162E+02  0.31773402753E+02  0.00000000000E+00 0. -1.
</event>
<event>
 5    1  0.8900327E-005  0.9118800E+02  0.7818608E-02  0.1130116E+00
         25   -1    0    0    0    0  0.00000000000E+00  0.00000000000E+00  0.99999998245E-14  0.12500000000E+03  0.12500000000E+03 0.  0.
        -11    1    3    3    0    0 -0.28610301076E+02  0.68204621022E+01  0.17498213153E+02  0.34223610194E+02  0.51100000000E-03 0. -1.
         23    2    1    0    0    0  0.67800531611E+01 -0.53329486074E+01 -0.29480483924E+02  0.94283418255E+02  0.89139523017E+02 0.  0.
         11    1    3    3    0    0  0.35390354237E+02 -0.12153410710E+02 -0.46978697077E+02  0.60059808060E+02  0.51100000000E-03 0.  1.
         22    1    1    0    0    0 -0.67800531611E+01  0.53329486074E+01  0.29480483924E+02  0.30716581745E+02  0.00000000000E+00 0.  1.
</event>
<event>
 5    1  0.8900327E-005  0.9118800E+02  0.7818608E-02  0.1130116E+00
         25   -1    0    0    0    0  0.00000000000E+00  0.00000000000E+00  0.99999998245E-14  0.12500000000E+03  0.12500000000E+03 0.  0.
        -11    1    3    3    0    0  0.10191117962E+02 -0.22716536513E+02  0.34026243670E+02  0.42162603988E+02  0.51100000000E-03 0. -1.
         23    2    1    0    0    0 -0.30656702860E+01  0.25302254716E+02  0.14567348519E+02  0.95643398172E+02  0.91026641940E+02 0.  0.
         11    1    3    3    0    0 -0.13256788248E+02  0.48018791229E+02 -0.19458895151E+02  0.53480794184E+02  0.51100000000E-03 0.  1.
         22    1    1    0    0    0  0.30656702860E+01 -0.25302254716E+02 -0.14567348519E+02  0.29356601828E+02  0.00000000000E+00 0.  1.
</event>
<event>
 5    1  0.8900327E-005  0.9118800E+02  0.7818608E-02  0.1130116E+00
         25   -1    0    0    0    0  0.00000000000E+00  0.00000000000E+00  0.99999998245E-14  0.12500000000E+03  0.12500000000E+03 0.  0.
        -11    1    3    3    0    0  0.29298862774E+02 -0.18756137439E+02  0.16115160103E+02  0.38339463180E+02  0.51100000000E-03 0. -1.
         23    2    1    0    0    0  0.18788500243E+02  0.19533497312E+02 -0.19446530987E+02  0.91642349812E+02  0.85355652731E+02 0.  0.
         11    1    3    3    0    0 -0.10510362531E+02  0.38289634751E+02 -0.35561691091E+02  0.53302886633E+02  0.51100000000E-03 0.  1.
         22    1    1    0    0    0 -0.18788500243E+02 -0.19533497312E+02  0.19446530987E+02  0.33357650188E+02  0.00000000000E+00 0.  1.
</event>
<event>
 5    1  0.8900327E-005  0.9118800E+02  0.7818608E-02  0.1130116E+00
         25   -1    0    0    0    0  0.00000000000E+00  0.00000000000E+00  0.99999998245E-14  0.12500000000E+03  0.12500000000E+03 0.  0.
        -11    1    3    3    0    0 -0.18448051926E+02 -0.45963781913E+02  0.35893314407E+02  0.61166411428E+02  0.51100000000E-03 0. -1.
         23    2    1    0    0    0 -0.16477580292E+02 -0.16986195625E+02  0.17830655241E+02  0.95369377995E+02  0.90649569765E+02 0.  0.
         11    1    3    3    0    0  0.19704716337E+01  0.28977586288E+02 -0.18062659166E+02  0.34202966566E+02  0.51100000000E-03 0.  1.
         22    1    1    0    0    0  0.16477580292E+02  0.16986195625E+02 -0.17830655241E+02  0.29630622005E+02  0.00000000000E+00 0. -1.
</event>
<event>
 5    1  0.8900327E-005  0.9118800E+02  0.7818608E-02  0.1130116E+00
         25   -1    0    0    0    0  0.00000000000E+00  0.00000000000E+00  0.99999998245E-14  0.12500000000E+03  0.12500000000E+03 0.  0.
        -11    1    3    3    0    0  0.13901275256E+02  0.10106536124E+02  0.29174868915E+02  0.33860899318E+02  0.51100000000E-03 0. -1.
         23    2    1    0    0    0  0.10410844217E+02 -0.44726175454E+01 -0.28962468334E+02  0.93899926736E+02  0.88600122370E+02 0.  0.
         11    1    3    3    0    0 -0.34904310394E+01 -0.14579153669E+02 -0.58137337250E+02  0.60039027418E+02  0.51100000000E-03 0.  1.
         22    1    1    0    0    0 -0.10410844217E+02  0.44726175454E+01  0.28962468334E+02  0.31100073264E+02  0.00000000000E+00 0.  1.
</event>
<event>
 5    1  0.8900327E-005  0.9118800E+02  0.7818608E-02  0.1130116E+00
         25   -1    0    0    0    0  0.00000000000E+00  0.00000000000E+00  0.99999998245E-14  0.12500000000E+03  0.12500000000E+03 0.  0.
        -11    1    3    3    0    0 -0.75733952281E+01  0.57482668213E+02  0.92200230338E+01  0.58707940563E+02  0.51100000000E-03 0.  1.
         23    2    1    0    0    0  0.11694791190E+02  0.26598334560E+02  0.15916889263E+01  0.95900635471E+02  0.91379203694E+02 0.  0.
         11    1    3    3    0    0  0.19268186418E+02 -0.30884333652E+02 -0.76283341076E+01  0.37192694908E+02  0.51100000000E-03 0. -1.
         22    1    1    0    0    0 -0.11694791190E+02 -0.26598334560E+02 -0.15916889263E+01  0.29099364529E+02  0.00000000000E+00 0.  1.
</event>
<event>
 5    1  0.8900327E-005  0.9118800E+02  0.7818608E-02  0.1130116E+00
         25   -1    0    0    0    0  0.00000000000E+00  0.00000000000E+00  0.99999998245E-14  0.12500000000E+03  0.12500000000E+03 0.  0.
        -11    1    3    3    0    0  0.20079766767E+01  0.19182371890E+02  0.29690932512E+02  0.35405463355E+02  0.51100000000E-03 0.  1.
         23    2    1    0    0    0  0.20299421060E+02 -0.11337276424E+02 -0.18484968838E+02  0.95296559037E+02  0.90549101372E+02 0.  0.
         11    1    3    3    0    0  0.18291444383E+02 -0.30519648314E+02 -0.48175901350E+02  0.59891095682E+02  0.51100000000E-03 0. -1.
         22    1    1    0    0    0 -0.20299421060E+02  0.11337276424E+02  0.18484968838E+02  0.29703440963E+02  0.00000000000E+00 0. -1.
</event>
<event>
 5    1  0.8900327E-005  0.9118800E+02  0.7818608E-02  0.1130116E+00
         25   -1    0    0    0    0  0.00000000000E+00  0.00000000000E+00  0.99999998245E-14  0.12500000000E+03  0.12500000000E+03 0.  0.
        -11    1    3    3    0    0 -0.19861504063E+02 -0.17205451195E+02 -0.30959595058E+02  0.40607923130E+02  0.51100000000E-03 0.  1.
         23    2    1    0    0    0  0.27926108077E+02 -0.32068628379E+01 -0.62210289888E+01  0.96210198277E+02  0.91801686091E+02 0.  0.
         11    1    3    3    0    0  0.47787612140E+02  0.13998588358E+02  0.24738566069E+02  0.55602275147E+02  0.51100000000E-03 0. -1.
         22    1    1    0    0    0 -0.27926108077E+02  0.32068628379E+01  0.62210289888E+01  0.28789801723E+02  0.00000000000E+00 0. -1.
</event>
<event>
 5    1  0.8900327E-005  0.9118800E+02  0.7818608E-02  0.1130116E+00
         25   -1    0    0    0    0  0.00000000000E+00  0.00000000000E+00  0.99999998245E-14  0.12500000000E+03  0.12500000000E+03 0.  0.
        -11    1    3    3    0    0  0.15544349212E+02  0.43079964316E+01  0.36615845465E+02  0.40011320461E+02  0.51100000000E-03 0. -1.
         23    2    1    0    0    0 -0.29085379324E+02  0.39858698727E+01  0.38219461211E+01  0.95395038909E+02  0.90684947633E+02 0.  0.
         11    1    3    3    0    0 -0.44629728536E+02 -0.32212655882E+00 -0.32793899344E+02  0.55383718448E+02  0.51100000000E-03 0.  1.
         22    1    1    0    0    0  0.29085379324E+02 -0.39858698727E+01 -0.38219461211E+01  0.29604961091E+02  0.00000000000E+00 0. -1.
</event>
<event>
 5    1  0.8900327E-005  0.9118800E+02  0.7818608E-02  0.1130116E+00
         25   -1    0    0    0    0  0.00000000000E+00  0.00000000000E+00  0.99999998245E-14  0.12500000000E+03  0.12500000000E+03 0.  0.
        -11    1    3    3    0    0 -0.19907613116E+02  0.11180211434E+02 -0.26407053239E+02  0.34909062559E+02  0.51100000000E-03 0.  1.
         23    2    1    0    0    0  0.17536615430E+01 -0.17131512281E+02  0.23268665858E+02  0.96051859254E+02  0.91585833039E+02 0.  0.
         11    1    3    3    0    0  0.21661274659E+02 -0.28311723715E+02  0.49675719097E+02  0.61142796695E+02  0.51100000000E-03 0. -1.
         22    1    1    0    0    0 -0.17536615430E+01  0.17131512281E+02 -0.23268665858E+02  0.28948140746E+02  0.00000000000E+00 0. -1.
</event>
<event>
 5    1  0.8900327E-005  0.9118800E+02  0.7818608E-02  0.1130116E+00
         25   -1    0    0    0    0  0.00000000000E+00  0.00000000000E+00  0.99999998245E-14  0.12500000000E+03  0.12500000000E+03 0.  0.
        -11    1    3    3    0    0 -0.24181655454E+02  0.33932825070E+02  0.17572160003E+02  0.45221343249E+02  0.51100000000E-03 0. -1.
         23    2    1    0    0    0  0.16158464029E+02  0.23008434308E+02 -0.98513500018E+01  0.95208506148E+02  0.90427465611E+02 0.  0.
         11    1    3    3    0    0  0.40340119483E+02 -0.10924390762E+02 -0.27423510005E+02  0.49987162899E+02  0.51100000000E-03 0.  1.
         22    1    1    0    0    0 -0.16158464029E+02 -0.23008434308E+02  0.98513500018E+01  0.29791493852E+02  0.00000000000E+00 0.  1.
</event>
<event>
 5    1  0.8900327E-005  0.9118800E+02  0.7818608E-02  0.1130116E+00
         25   -1    0    0    0    0  0.00000000000E+00  0.00000000000E+00  0.99999998245E-14  0.12500000000E+03  0.12500000000E+03 0.  0.
        -11    1    3    3    0    0 -0.37711580872E+02 -0.15944231359E+02  0.23801493875E+02  0.47359190834E+02  0.51100000000E-03 0.  1.
         23    2    1    0    0    0 -0.20838257861E+02 -0.41858148068E+01 -0.20041811612E+02  0.95786505704E+02  0.91222949009E+02 0.  0.
         11    1    3    3    0    0  0.16873323011E+02  0.11758416552E+02 -0.43843305487E+02  0.48427314870E+02  0.51100000000E-03 0. -1.
         22    1    1    0    0    0  0.20838257861E+02  0.41858148068E+01  0.20041811612E+02  0.29213494296E+02  0.00000000000E+00 0. -1.
</event>
<event>
 5    1  0.8900327E-005  0.9118800E+02  0.7818608E-02  0.1130116E+00
         25   -1    0    0    0    0  0.00000000000E+00  0.00000000000E+00  0.99999998245E-14  0.12500000000E+03  0.12500000000E+03 0.  0.
        -11    1    3    3    0    0  0.17133720982E+02 -0.38994127657E+02  0.54129096923E+01  0.42934903960E+02  0.51100000000E-03 0.  1.
         23    2    1    0    0    0  0.30442855224E+02 -0.14886765396E+02 -0.24189041789E+02  0.83364762991E+02  0.72223200896E+02 0.  0.
         11    1    3    3    0    0  0.13309134242E+02  0.24107362261E+02 -0.29601951482E+02  0.40429859031E+02  0.51100000000E-03 0. -1.
         22    1    1    0    0    0 -0.30442855224E+02  0.14886765396E+02  0.24189041789E+02  0.41635237009E+02  0.00000000000E+00 0.  1.
</event>
<event>
 5    1  0.8900327E-005  0.9118800E+02  0.7818608E-02  0.1130116E+00
         25   -1    0    0    0    0  0.00000000000E+00  0.00000000000E+00  0.99999998245E-14  0.12500000000E+03  0.12500000000E+03 0.  0.
        -11    1    3    3    0    0 -0.54347841729E+01  0.47238206599E+02  0.14515336703E+02  0.49715993820E+02  0.51100000000E-03 0. -1.
         23    2    1    0    0    0 -0.21180548548E+02  0.11980371096E+02  0.25389768386E+02  0.89832042040E+02  0.82662025804E+02 0.  0.
         11    1    3    3    0    0 -0.15745764375E+02 -0.35257835503E+02  0.10874431682E+02  0.40116048220E+02  0.51100000000E-03 0.  1.
         22    1    1    0    0    0  0.21180548548E+02 -0.11980371096E+02 -0.25389768386E+02  0.35167957960E+02  0.00000000000E+00 0. -1.
</event>
<event>
 5    1  0.8900327E-005  0.9118800E+02  0.7818608E-02  0.1130116E+00
         25   -1    0    0    0    0  0.00000000000E+00  0.00000000000E+00  0.99999998245E-14  0.12500000000E+03  0.12500000000E+03 0.  0.
        -11    1    3    3    0    0  0.12564793412E+01  0.32193023771E+02  0.13880266009E+02  0.35080354967E+02  0.51100000000E-03 0.  1.
         23    2    1    0    0    0 -0.29187275116E+01 -0.17321451516E+02 -0.22347879133E+02  0.96575022345E+02  0.92297104973E+02 0.  0.
         11    1    3    3    0    0 -0.41752068527E+01 -0.49514475288E+02 -0.36228145142E+02  0.61494667378E+02  0.51100000000E-03 0. -1.
         22    1    1    0    0    0  0.29187275116E+01  0.17321451516E+02  0.22347879133E+02  0.28424977655E+02  0.00000000000E+00 0. -1.
</event>
<event>
 5    1  0.8900327E-005  0.9118800E+02  0.7818608E-02  0.1130116E+00
         25   -1    0    0    0    0  0.00000000000E+00  0.00000000000E+00  0.99999998245E-14  0.12500000000E+03  0.12500000000E+03 0.  0.
        -11    1    3    3    0    0  0.22752646105E+02 -0.29152019106E+02  0.27741991564E+02  0.46229224728E+02  0.51100000000E-03 0.  1.
         23    2    1    0    0    0 -0.88291298033E+01 -0.34682354701E+02 -0.86873398256E+00  0.89200922366E+02  0.81702084377E+02 0.  0.
         11    1    3    3    0    0 -0.31581775909E+02 -0.55303355953E+01 -0.28610725547E+02  0.42971697638E+02  0.51100000000E-03 0. -1.
         22    1    1    0    0    0  0.88291298033E+01  0.34682354701E+02  0.86873398256E+00  0.35799077634E+02  0.00000000000E+00 0.  1.
</event>
<event>
 5    1  0.8900327E-005  0.9118800E+02  0.7818608E-02  0.1130116E+00
         25   -1    0    0    0    0  0.00000000000E+00  0.00000000000E+00  0.99999998245E-14  0.12500000000E+03  0.12500000000E+03 0.  0.
        -11    1    3    3    0    0  0.58514785072E+01 -0.31299024179E+02  0.14385958281E+01  0.31873786620E+02  0.51100000000E-03 0.  1.
         23    2    1    0    0    0 -0.16716188124E+02  0.19809361743E+02  0.21590102636E+02  0.91266125484E+02  0.84802897185E+02 0.  0.
         11    1    3    3    0    0 -0.22567666631E+02  0.51108385922E+02  0.20151506808E+02  0.59392338863E+02  0.51100000000E-03 0. -1.
         22    1    1    0    0    0  0.16716188124E+02 -0.19809361743E+02 -0.21590102636E+02  0.33733874516E+02  0.00000000000E+00 0. -1.
</event>
<event>
 5    1  0.8900327E-005  0.9118800E+02  0.7818608E-02  0.1130116E+00
         25   -1    0    0    0    0  0.00000000000E+00  0.00000000000E+00  0.99999998245E-14  0.12500000000E+03  0.12500000000E+03 0.  0.
        -11    1    3    3    0    0 -0.20889772848E+02 -0.38688814441E+02  0.33328658867E+02  0.55172515572E+02  0.51100000000E-03 0. -1.
         23    2    1    0    0    0 -0.13995308052E+00 -0.28521739387E+01  0.27919683744E+02  0.96934661530E+02  0.92782893804E+02 0.  0.
         11    1    3    3    0    0  0.20749819768E+02  0.35836640502E+02 -0.54089751224E+01  0.41762145958E+02  0.51100000000E-03 0.  1.
         22    1    1    0    0    0  0.13995308052E+00  0.28521739387E+01 -0.27919683744E+02  0.28065338470E+02  0.00000000000E+00 0. -1.
</event>
<event>
 5    1  0.8900327E-005  0.9118800E+02  0.7818608E-02  0.1130116E+00
         25   -1    0    0    0    0  0.00000000000E+00  0.00000000000E+00  0.99999998245E-14  0.12500000000E+03  0.12500000000E+03 0.  0.
        -11    1    3    3    0    0  0.22339937896E+02 -0.15721702101E+01 -0.29675025716E+02  0.37177300815E+02  0.51100000000E-03 0. -1.
         23    2    1    0    0    0  0.52408379177E+01 -0.95864776081E+01  0.26443738682E+02  0.96388144931E+02  0.92043664816E+02 0.  0.
         11    1    3    3    0    0 -0.17099099979E+02 -0.80143073981E+01  0.56118764398E+02  0.59210844116E+02  0.51100000000E-03 0.  1.
         22    1    1    0    0    0 -0.52408379177E+01  0.95864776081E+01 -0.26443738682E+02  0.28611855069E+02  0.00000000000E+00 0.  1.
</event>
<event>
 5    1  0.8900327E-005  0.9118800E+02  0.7818608E-02  0.1130116E+00
         25   -1    0    0    0    0  0.00000000000E+00  0.00000000000E+00  0.99999998245E-14  0.12500000000E+03  0.12500000000E+03 0.  0.
        -11    1    3    3    0    0  0.77447151440E+00 -0.45209232811E+02 -0.23132043371E+02  0.50789427721E+02  0.51100000000E-03 0.  1.
         23    2    1    0    0    0 -0.22721388203E+02 -0.75080351746E+01 -0.17028005899E+02  0.95630201585E+02  0.91008518262E+02 0.  0.
         11    1    3    3    0    0 -0.23495859717E+02  0.37701197636E+02  0.61040374719E+01  0.44840773864E+02  0.51100000000E-03 0. -1.
         22    1    1    0    0    0  0.22721388203E+02  0.75080351746E+01  0.17028005899E+02  0.29369798415E+02  0.00000000000E+00 0.  1.
</event>
<event>
 5    1  0.8900327E-005  0.9118800E+02  0.7818608E-02  0.1130116E+00
         25   -1    0    0    0    0  0.00000000000E+00  0.00000000000E+00  0.99999998245E-14  0.12500000000E+03  0.12500000000E+03 0.  0.
        -11    1    3    3    0    0 -0.31551307964E+02  0.30166304516E+02 -0.31229138178E+02  0.53672619034E+02  0.51100000000E-03 0. -1.
         23    2    1    0    0    0 -0.12162702591E+01  0.70755837958E+00 -0.28946505088E+02  0.96019314898E+02  0.91541404427E+02 0.  0.
         11    1    3    3    0    0  0.30335037705E+02 -0.29458746136E+02  0.22826330898E+01  0.42346695864E+02  0.51100000000E-03 0.  1.
         22    1    1    0    0    0  0.12162702591E+01 -0.70755837958E+00  0.28946505088E+02  0.28980685102E+02  0.00000000000E+00 0.  1.
</event>
<event>
 5    1  0.8900327E-005  0.9118800E+02  0.7818608E-02  0.1130116E+00
         25   -1    0    0    0    0  0.00000000000E+00  0.00000000000E+00  0.99999998245E-14  0.12500000000E+03  0.12500000000E+03 0.  0.
        -11    1    3    3    0    0  0.23455289864E+02  0.26845943234E+02 -0.44786053378E+02  0.57241993922E+02  0.51100000000E-03 0. -1.
         23    2    1    0    0    0  0.27811954159E+02  0.46448273803E+01 -0.23796328909E+02  0.88103597938E+02  0.80005621581E+02 0.  0.
         11    1    3    3    0    0  0.43566642947E+01 -0.22201115853E+02  0.20989724469E+02  0.30861604016E+02  0.51100000000E-03 0.  1.
         22    1    1    0    0    0 -0.27811954159E+02 -0.46448273803E+01  0.23796328909E+02  0.36896402062E+02  0.00000000000E+00 0. -1.
</event>
<event>
 5    1  0.8900327E-005  0.9118800E+02  0.7818608E-02  0.1130116E+00
         25   -1    0    0    0    0  0.00000000000E+00  0.00000000000E+00  0.99999998245E-14  0.12500000000E+03  0.12500000000E+03 0.  0.
        -11    1    3    3    0    0  0.21734847151E+02 -0.48448453476E+02 -0.31769396367E+02  0.61878516229E+02  0.51100000000E-03 0.  1.
         23    2    1    0    0    0  0.14937327397E+02 -0.19051168518E+02 -0.16568786303E+02  0.95664092800E+02  0.91055055873E+02 0.  0.
         11    1    3    3    0    0 -0.67975197537E+01  0.29397284958E+02  0.15200610064E+02  0.33785576572E+02  0.51100000000E-03 0. -1.
         22    1    1    0    0    0 -0.14937327397E+02  0.19051168518E+02  0.16568786303E+02  0.29335907200E+02  0.00000000000E+00 0.  1.
</event>
<event>
 5    1  0.8900327E-005  0.9118800E+02  0.7818608E-02  0.1130116E+00
         25   -1    0    0    0    0  0.00000000000E+00  0.00000000000E+00  0.99999998245E-14  0.12500000000E+03  0.12500000000E+03 0.  0.
        -11    1    3    3    0    0 -0.10358172093E+02  0.48682555067E+02  0.13675277168E+01  0.49791093875E+02  0.51100000000E-03 0.  1.
         23    2    1    0    0    0 -0.25849695860E+02  0.41174104657E+01 -0.74412509645E+01  0.97787281265E+02  0.93924545867E+02 0.  0.
         11    1    3    3    0    0 -0.15491523768E+02 -0.44565144601E+02 -0.88087786813E+01  0.47996187391E+02  0.51100000000E-03 0. -1.
         22    1    1    0    0    0  0.25849695860E+02 -0.41174104657E+01  0.74412509645E+01  0.27212718735E+02  0.00000000000E+00 0.  1.
</event>
<event>
 5    1  0.8900327E-005  0.9118800E+02  0.7818608E-02  0.1130116E+00
         25   -1    0    0    0    0  0.00000000000E+00  0.00000000000E+00  0.99999998245E-14  0.12500000000E+03  0.12500000000E+03 0.  0.
        -11    1    3    3    0    0 -0.13489864375E+02  0.34344102171E+02  0.50256765954E+02  0.62347705003E+02  0.51100000000E-03 0.  1.
         23    2    1    0    0    0 -0.82035942650E+01  0.17637751740E+02  0.21647975948E+02  0.95896321402E+02  0.91373302175E+02 0.  0.
         11    1    3    3    0    0  0.52862701099E+01 -0.16706350431E+02 -0.28608790005E+02  0.33548616398E+02  0.51100000000E-03 0. -1.
         22    1    1    0    0    0  0.82035942650E+01 -0.17637751740E+02 -0.21647975948E+02  0.29103678598E+02  0.00000000000E+00 0.  1.
</event>
<event>
 5    1  0.8900327E-005  0.9118800E+02  0.7818608E-02  0.1130116E+00
         25   -1    0    0    0    0  0.00000000000E+00  0.00000000000E+00  0.99999998245E-14  0.12500000000E+03  0.12500000000E+03 0.  0.
        -11    1    3    3    0    0 -0.23907415078E+01  0.56333384896E+02 -0.13616331906E+02  0.58004916978E+02  0.51100000000E-03 0.  1.
         23    2    1    0    0    0  0.15280248570E+02  0.19916834361E+02 -0.59353841306E+01  0.99204747101E+02  0.95792415020E+02 0.  0.
         11    1    3    3    0    0  0.17670990078E+02 -0.36416550535E+02  0.76809477758E+01  0.41199830123E+02  0.51100000000E-03 0. -1.
         22    1    1    0    0    0 -0.15280248570E+02 -0.19916834361E+02  0.59353841306E+01  0.25795252899E+02  0.00000000000E+00 0.  1.
</event>
<event>
 5    1  0.8900327E-005  0.9118800E+02  0.7818608E-02  0.1130116E+00
         25   -1    0    0    0    0  0.00000000000E+00  0.00000000000E+00  0.99999998245E-14  0.12500000000E+03  0.12500000000E+03 0.  0.
        -11    1    3    3    0    0  0.13115570214E+02  0.37421006446E+02  0.26310862891E+02  0.47587933468E+02  0.51100000000E-03 0. -1.
         23    2    1    0    0    0  0.26637707536E+02  0.57044456721E+01 -0.83800424761E+01  0.96498539071E+02  0.92193463802E+02 0.  0.
         11    1    3    3    0    0  0.13522137321E+02 -0.31716560773E+02 -0.34690905367E+02  0.48910605603E+02  0.51100000000E-03 0.  1.
         22    1    1    0    0    0 -0.26637707536E+02 -0.57044456721E+01  0.83800424761E+01  0.28501460929E+02  0.00000000000E+00 0.  1.
</event>
<event>
 5    1  0.8900327E-005  0.9118800E+02  0.7818608E-02  0.1130116E+00
         25   -1    0    0    0    0  0.00000000000E+00  0.00000000000E+00  0.99999998245E-14  0.12500000000E+03  0.12500000000E+03 0.  0.
        -11    1    3    3    0    0  0.27005731261E+02 -0.31362700063E+02  0.94779508135E+01  0.42458921655E+02  0.51100000000E-03 0.  1.
         23    2    1    0    0    0  0.16518519438E+02  0.12445304904E+02 -0.19949059750E+02  0.96264793658E+02  0.91875994768E+02 0.  0.
         11    1    3    3    0    0 -0.10487211824E+02  0.43808004967E+02 -0.29427010564E+02  0.53805872003E+02  0.51100000000E-03 0. -1.
         22    1    1    0    0    0 -0.16518519438E+02 -0.12445304904E+02  0.19949059750E+02  0.28735206342E+02  0.00000000000E+00 0. -1.
</event>
<event>
 5    1  0.8900327E-005  0.9118800E+02  0.7818608E-02  0.1130116E+00
         25   -1    0    0    0    0  0.00000000000E+00  0.00000000000E+00  0.99999998245E-14  0.12500000000E+03  0.12500000000E+03 0.  0.
        -11    1    3    3    0    0  0.21018326367E+02  0.30125321588E+02  0.41448111530E+02  0.55382768022E+02  0.51100000000E-03 0.  1.
         23    2    1    0    0    0 -0.10909445092E+02  0.18165352558E+02  0.21147329196E+02  0.95063307499E+02  0.90226530881E+02 0.  0.
         11    1    3    3    0    0 -0.31927771460E+02 -0.11959969030E+02 -0.20300782334E+02  0.39680539478E+02  0.51100000000E-03 0. -1.
         22    1    1    0    0    0  0.10909445092E+02 -0.18165352558E+02 -0.21147329196E+02  0.29936692501E+02  0.00000000000E+00 0.  1.
</event>
<event>
 5    1  0.8900327E-005  0.9118800E+02  0.7818608E-02  0.1130116E+00
         25   -1    0    0    0    0  0.00000000000E+00  0.00000000000E+00  0.99999998245E-14  0.12500000000E+03  0.12500000000E+03 0.  0.
        -11    1    3    3    0    0 -0.17764999507E+02 -0.19138991513E+02  0.27639352949E+02  0.38024071788E+02  0.51100000000E-03 0.  1.
         23    2    1    0    0    0  0.23305118989E+02 -0.11445135845E+02 -0.12693915674E+02  0.96099217991E+02  0.91650447341E+02 0.  0.
         11    1    3    3    0    0  0.41070118496E+02  0.76938556685E+01 -0.40333268624E+02  0.58075146203E+02  0.51100000000E-03 0. -1.
         22    1    1    0    0    0 -0.23305118989E+02  0.11445135845E+02  0.12693915674E+02  0.28900782009E+02  0.00000000000E+00 0.  1.
</event>
<event>
 5    1  0.8900327E-005  0.9118800E+02  0.7818608E-02  0.1130116E+00
         25   -1    0    0    0    0  0.00000000000E+00  0.00000000000E+00  0.99999998245E-14  0.12500000000E+03  0.12500000000E+03 0.  0.
        -11    1    3    3    0    0  0.22220792193E+02  0.41298282689E+02  0.22235177503E+02  0.51901010371E+02  0.51100000000E-03 0.  1.
         23    2    1    0    0    0  0.12095559661E+01  0.30462164660E+01  0.28781893633E+02  0.96032089107E+02  0.91558845978E+02 0.  0.
         11    1    3    3    0    0 -0.21011236226E+02 -0.38252066223E+02  0.65467161304E+01  0.44131078736E+02  0.51100000000E-03 0. -1.
         22    1    1    0    0    0 -0.12095559661E+01 -0.30462164660E+01 -0.28781893633E+02  0.28967910893E+02  0.00000000000E+00 0.  1.
</event>
<event>
 5    1  0.8900327E-005  0.9118800E+02  0.7818608E-02  0.1130116E+00
         25   -1    0    0    0    0  0.00000000000E+00  0.00000000000E+00  0.99999998245E-14  0.12500000000E+03  0.12500000000E+03 0.  0.
        -11    1    3    3    0    0  0.45386664943E+02 -0.10048382691E+02 -0.24763818608E+02  0.52670352777E+02  0.51100000000E-03 0.  1.
         23    2    1    0    0    0  0.64736101994E-01 -0.82508847768E+01 -0.25669525523E+02  0.98036954346E+02  0.94256238979E+02 0.  0.
         11    1    3    3    0    0 -0.45321928841E+02  0.17974979137E+01 -0.90570691512E+00  0.45366601569E+02  0.51100000000E-03 0. -1.
         22    1    1    0    0    0 -0.64736101994E-01  0.82508847768E+01  0.25669525523E+02  0.26963045654E+02  0.00000000000E+00 0. -1.
</event>
<event>
 5    1  0.8900327E-005  0.9118800E+02  0.7818608E-02  0.1130116E+00
         25   -1    0    0    0    0  0.00000000000E+00  0.00000000000E+00  0.99999998245E-14  0.12500000000E+03  0.12500000000E+03 0.  0.
        -11    1    3    3    0    0 -0.92384355166E+00 -0.47009934720E+00  0.55715829023E+02  0.55725470696E+02  0.51100000000E-03 0. -1.
         23    2    1    0    0    0 -0.17221357336E+01  0.19692132971E+02  0.19213625780E+02  0.97433548142E+02  0.93452592449E+02 0.  0.
         11    1    3    3    0    0 -0.79829218191E+00  0.20162232318E+02 -0.36502203243E+02  0.41708077446E+02  0.51100000000E-03 0.  1.
         22    1    1    0    0    0  0.17221357336E+01 -0.19692132971E+02 -0.19213625780E+02  0.27566451858E+02  0.00000000000E+00 0. -1.
</event>
<event>
 5    1  0.8900327E-005  0.9118800E+02  0.7818608E-02  0.1130116E+00
         25   -1    0    0    0    0  0.00000000000E+00  0.00000000000E+00  0.99999998245E-14  0.12500000000E+03  0.12500000000E+03 0.  0.
        -11    1    3    3    0    0 -0.29952268439E+02 -0.12734162087E+02  0.25102710179E+02  0.41102838433E+02  0.51100000000E-03 0.  1.
         23    2    1    0    0    0  0.24002768510E+02  0.81578500149E+00  0.11499116212E+02  0.98372418905E+02  0.94700077752E+02 0.  0.
         11    1    3    3    0    0  0.53955036949E+02  0.13549947089E+02 -0.13603593967E+02  0.57269580471E+02  0.51100000000E-03 0. -1.
         22    1    1    0    0    0 -0.24002768510E+02 -0.81578500149E+00 -0.11499116212E+02  0.26627581095E+02  0.00000000000E+00 0. -1.
</event>
<event>
 5    1  0.8900327E-005  0.9118800E+02  0.7818608E-02  0.1130116E+00
         25   -1    0    0    0    0  0.00000000000E+00  0.00000000000E+00  0.99999998245E-14  0.12500000000E+03  0.12500000000E+03 0.  0.
        -11    1    3    3    0    0 -0.17447004843E+02 -0.24990101753E+01  0.48834665580E+02  0.51917892796E+02  0.51100000000E-03 0.  1.
         23    2    1    0    0    0  0.14100042330E+02  0.12077321873E+02  0.24122969933E+02  0.94560049676E+02  0.89526601740E+02 0.  0.
         11    1    3    3    0    0  0.31547047174E+02  0.14576332048E+02 -0.24711695647E+02  0.42642156880E+02  0.51100000000E-03 0. -1.
         22    1    1    0    0    0 -0.14100042330E+02 -0.12077321873E+02 -0.24122969933E+02  0.30439950324E+02  0.00000000000E+00 0. -1.
</event>
<event>
 5    1  0.8900327E-005  0.9118800E+02  0.7818608E-02  0.1130116E+00
         25   -1    0    0    0    0  0.00000000000E+00  0.00000000000E+00  0.99999998245E-14  0.12500000000E+03  0.12500000000E+03 0.  0.
        -11    1    3    3    0    0 -0.11095920025E+02 -0.32368355088E+02  0.24643762616E+02  0.42168055308E+02  0.51100000000E-03 0. -1.
         23    2    1    0    0    0  0.25946748114E+02 -0.10467193142E+02 -0.76777270674E+01  0.95987186229E+02  0.91497522138E+02 0.  0.
         11    1    3    3    0    0  0.37042668139E+02  0.21901161946E+02 -0.32321489683E+02  0.53819130921E+02  0.51100000000E-03 0.  1.
         22    1    1    0    0    0 -0.25946748114E+02  0.10467193142E+02  0.76777270674E+01  0.29012813771E+02  0.00000000000E+00 0.  1.
</event>
<event>
 5    1  0.8900327E-005  0.9118800E+02  0.7818608E-02  0.1130116E+00
         25   -1    0    0    0    0  0.00000000000E+00  0.00000000000E+00  0.99999998245E-14  0.12500000000E+03  0.12500000000E+03 0.  0.
        -11    1    3    3    0    0  0.38671475186E+01  0.35102836612E+02 -0.49672279366E+02  0.60946692329E+02  0.51100000000E-03 0. -1.
         23    2    1    0    0    0 -0.55748097893E+01  0.10637011061E+02 -0.26352754901E+02  0.96039817001E+02  0.91569395817E+02 0.  0.
         11    1    3    3    0    0 -0.94419573078E+01 -0.24465825551E+02  0.23319524465E+02  0.35093124672E+02  0.51100000000E-03 0.  1.
         22    1    1    0    0    0  0.55748097893E+01 -0.10637011061E+02  0.26352754901E+02  0.28960182999E+02  0.00000000000E+00 0. -1.
</event>
<event>
 5    1  0.8900327E-005  0.9118800E+02  0.7818608E-02  0.1130116E+00
         25   -1    0    0    0    0  0.00000000000E+00  0.00000000000E+00  0.99999998245E-14  0.12500000000E+03  0.12500000000E+03 0.  0.
        -11    1    3    3    0    0 -0.37240777175E+01  0.56037783348E+02  0.22907012989E+02  0.60653385410E+02  0.51100000000E-03 0. -1.
         23    2    1    0    0    0  0.60704301061E+01  0.35173607559E+02  0.70854051277E+01  0.88609949763E+02  0.80792867512E+02 0.  0.
         11    1    3    3    0    0  0.97945078236E+01 -0.20864175788E+02 -0.15821607861E+02  0.27956564353E+02  0.51100000000E-03 0.  1.
         22    1    1    0    0    0 -0.60704301061E+01 -0.35173607559E+02 -0.70854051277E+01  0.36390050237E+02  0.00000000000E+00 0. -1.
</event>
<event>
 5    1  0.8900327E-005  0.9118800E+02  0.7818608E-02  0.1130116E+00
         25   -1    0    0    0    0  0.00000000000E+00  0.00000000000E+00  0.99999998245E-14  0.12500000000E+03  0.12500000000E+03 0.  0.
        -11    1    3    3    0    0 -0.13490109253E+02  0.11674354169E+02 -0.31621772719E+02  0.36307163247E+02  0.51100000000E-03 0. -1.
         23    2    1    0    0    0  0.33782777594E+02  0.64796169433E+01 -0.68629491112E+01  0.89923489795E+02  0.82800195946E+02 0.  0.
         11    1    3    3    0    0  0.47272886847E+02 -0.51947372254E+01  0.24758823608E+02  0.53616326547E+02  0.51100000000E-03 0.  1.
         22    1    1    0    0    0 -0.33782777594E+02 -0.64796169433E+01  0.68629491112E+01  0.35076510205E+02  0.00000000000E+00 0.  1.
</event>
<event>
 5    1  0.8900327E-005  0.9118800E+02  0.7818608E-02  0.1130116E+00
         25   -1    0    0    0    0  0.00000000000E+00  0.00000000000E+00  0.99999998245E-14  0.12500000000E+03  0.12500000000E+03 0.  0.
        -11    1    3    3    0    0 -0.18442490692E+02  0.15018172861E+02 -0.40855359220E+02  0.47274002964E+02  0.51100000000E-03 0.  1.
         23    2    1    0    0    0  0.16110410522E+02 -0.12684760167E+02 -0.20465663022E+02  0.96029466166E+02  0.91555264958E+02 0.  0.
         11    1    3    3    0    0  0.34552901214E+02 -0.27702933029E+02  0.20389696198E+02  0.48755463202E+02  0.51100000000E-03 0. -1.
         22    1    1    0    0    0 -0.16110410522E+02  0.12684760167E+02  0.20465663022E+02  0.28970533834E+02  0.00000000000E+00 0. -1.
</event>
<event>
 5    1  0.8900327E-005  0.9118800E+02  0.7818608E-02  0.1130116E+00
         25   -1    0    0    0    0  0.00000000000E+00  0.00000000000E+00  0.99999998245E-14  0.12500000000E+03  0.12500000000E+03 0.  0.
        -11    1    3    3    0    0 -0.11150385607E+02 -0.90316274659E+01 -0.30124719017E+02  0.33367650352E+02  0.51100000000E-03 0. -1.
         23    2    1    0    0    0  0.15516612710E+02 -0.13179352787E+02  0.23807278578E+02  0.93675135704E+02  0.88282410059E+02 0.  0.
         11    1    3    3    0    0  0.26666998317E+02 -0.41477253212E+01  0.53931997595E+02  0.60307485352E+02  0.51100000000E-03 0.  1.
         22    1    1    0    0    0 -0.15516612710E+02  0.13179352787E+02 -0.23807278578E+02  0.31324864296E+02  0.00000000000E+00 0.  1.
</event>
<event>
 5    1  0.8900327E-005  0.9118800E+02  0.7818608E-02  0.1130116E+00
         25   -1    0    0    0    0  0.00000000000E+00  0.00000000000E+00  0.99999998245E-14  0.12500000000E+03  0.12500000000E+03 0.  0.
        -11    1    3    3    0    0 -0.12593472503E+02  0.44636558902E+02  0.88653069122E+01  0.47218763296E+02  0.51100000000E-03 0.  1.
         23    2    1    0    0    0  0.25143661654E+02  0.15191635995E+02  0.44641789056E+01  0.95286056827E+02  0.90534602262E+02 0.  0.
         11    1    3    3    0    0  0.37737134157E+02 -0.29444922907E+02 -0.44011280066E+01  0.48067293531E+02  0.51100000000E-03 0. -1.
         22    1    1    0    0    0 -0.25143661654E+02 -0.15191635995E+02 -0.44641789056E+01  0.29713943173E+02  0.00000000000E+00 0. -1.
</event>
<event>
 5    1  0.8900327E-005  0.9118800E+02  0.7818608E-02  0.1130116E+00
         25   -1    0    0    0    0  0.00000000000E+00  0.00000000000E+00  0.99999998245E-14  0.12500000000E+03  0.12500000000E+03 0.  0.
        -11    1    3    3    0    0 -0.21697916289E+02  0.26970357125E+02  0.10462517221E+02  0.36161637154E+02  0.51100000000E-03 0. -1.
         23    2    1    0    0    0  0.19542398251E+02 -0.97717255531E+01 -0.16495775014E+02  0.97622955912E+02  0.93705597367E+02 0.  0.
         11    1    3    3    0    0  0.41240314541E+02 -0.36742082678E+02 -0.26958292235E+02  0.61461318758E+02  0.51100000000E-03 0.  1.
         22    1    1    0    0    0 -0.19542398251E+02  0.97717255531E+01  0.16495775014E+02  0.27377044088E+02  0.00000000000E+00 0.  1.
</event>
<event>
 5    1  0.8900327E-005  0.9118800E+02  0.7818608E-02  0.1130116E+00
         25   -1    0    0    0    0  0.00000000000E+00  0.00000000000E+00  0.99999998245E-14  0.12500000000E+03  0.12500000000E+03 0.  0.
        -11    1    3    3    0    0 -0.55034741510E+02 -0.19048837959E+01 -0.63399532667E+01  0.55431456439E+02  0.51100000000E-03 0.  1.
         23    2    1    0    0    0 -0.17322814138E+02 -0.20040520643E+02  0.31015179167E+01  0.98329383758E+02  0.94643256176E+02 0.  0.
         11    1    3    3    0    0  0.37711927371E+02 -0.18135636847E+02  0.94414711834E+01  0.42897927319E+02  0.51100000000E-03 0. -1.
         22    1    1    0    0    0  0.17322814138E+02  0.20040520643E+02 -0.31015179167E+01  0.26670616242E+02  0.00000000000E+00 0.  1.
</event>
<event>
 5    1  0.8900327E-005  0.9118800E+02  0.7818608E-02  0.1130116E+00
         25   -1    0    0    0    0  0.00000000000E+00  0.00000000000E+00  0.99999998245E-14  0.12500000000E+03  0.12500000000E+03 0.  0.
        -11    1    3    3    0    0 -0.31446215020E+02  0.10680176749E+02 -0.13438104787E+02  0.35826153506E+02  0.51100000000E-03 0.  1.
         23    2    1    0    0    0  0.26786823486E+02 -0.52166364491E+01  0.19003074303E+00  0.97709281431E+02  0.93820681930E+02 0.  0.
         11    1    3    3    0    0  0.58233038506E+02 -0.15896813199E+02  0.13628135530E+02  0.61883127925E+02  0.51100000000E-03 0. -1.
         22    1    1    0    0    0 -0.26786823486E+02  0.52166364491E+01 -0.19003074303E+00  0.27290718569E+02  0.00000000000E+00 0. -1.
</event>
<event>
 5    1  0.8900327E-005  0.9118800E+02  0.7818608E-02  0.1130116E+00
         25   -1    0    0    0    0  0.00000000000E+00  0.00000000000E+00  0.99999998245E-14  0.12500000000E+03  0.12500000000E+03 0.  0.
        -11    1    3    3    0    0 -0.58281408619E+02  0.44018644864E+01 -0.21430177838E+02  0.62252321435E+02  0.51100000000E-03 0. -1.
         23    2    1    0    0    0 -0.29602264257E+02  0.27432089376E+01 -0.67447549979E+01  0.94515397913E+02  0.89464235750E+02 0.  0.
         11    1    3    3    0    0  0.28679144362E+02 -0.16586555488E+01  0.14685422841E+02  0.32263076478E+02  0.51100000000E-03 0.  1.
         22    1    1    0    0    0  0.29602264257E+02 -0.27432089376E+01  0.67447549979E+01  0.30484602087E+02  0.00000000000E+00 0. -1.
</event>
<event>
 5    1  0.8900327E-005  0.9118800E+02  0.7818608E-02  0.1130116E+00
         25   -1    0    0    0    0  0.00000000000E+00  0.00000000000E+00  0.99999998245E-14  0.12500000000E+03  0.12500000000E+03 0.  0.
        -11    1    3    3    0    0 -0.15932741539E+02 -0.19994480713E+02  0.44706429839E+02  0.51500450300E+02  0.51100000000E-03 0.  1.
         23    2    1    0    0    0 -0.23585097192E+02  0.10532230328E+02  0.13359245752E+02  0.95919867051E+02  0.91405507289E+02 0.  0.
         11    1    3    3    0    0 -0.76523556534E+01  0.30526711042E+02 -0.31347184087E+02  0.44419416751E+02  0.51100000000E-03 0. -1.
         22    1    1    0    0    0  0.23585097192E+02 -0.10532230328E+02 -0.13359245752E+02  0.29080132949E+02  0.00000000000E+00 0.  1.
</event>
<event>
 5    1  0.8900327E-005  0.9118800E+02  0.7818608E-02  0.1130116E+00
         25   -1    0    0    0    0  0.00000000000E+00  0.00000000000E+00  0.99999998245E-14  0.12500000000E+03  0.12500000000E+03 0.  0.
        -11    1    3    3    0    0  0.18069210590E+02 -0.22610298097E+02  0.19212651771E+02  0.34739717036E+02  0.51100000000E-03 0.  1.
         23    2    1    0    0    0 -0.20491670838E+02  0.18281977924E+02 -0.68538835146E+01  0.96696024841E+02  0.92460836089E+02 0.  0.
         11    1    3    3    0    0 -0.38560881429E+02  0.40892276021E+02 -0.26066535286E+02  0.61956307805E+02  0.51100000000E-03 0. -1.
         22    1    1    0    0    0  0.20491670838E+02 -0.18281977924E+02  0.68538835146E+01  0.28303975159E+02  0.00000000000E+00 0. -1.
</event>
<event>
 5    1  0.8900327E-005  0.9118800E+02  0.7818608E-02  0.1130116E+00
         25   -1    0    0    0    0  0.00000000000E+00  0.00000000000E+00  0.99999998245E-14  0.12500000000E+03  0.12500000000E+03 0.  0.
        -11    1    3    3    0    0  0.50434580639E+02  0.25804320202E+02 -0.11963290486E+02  0.57901901392E+02  0.51100000000E-03 0.  1.
         23    2    1    0    0    0  0.24723733006E+02  0.10045623518E+02  0.11331303393E+02  0.96007311918E+02  0.91525012863E+02 0.  0.
         11    1    3    3    0    0 -0.25710847633E+02 -0.15758696684E+02  0.23294593878E+02  0.38105410526E+02  0.51100000000E-03 0. -1.
         22    1    1    0    0    0 -0.24723733006E+02 -0.10045623518E+02 -0.11331303393E+02  0.28992688082E+02  0.00000000000E+00 0.  1.
</event>
<event>
 5    1  0.8900327E-005  0.9118800E+02  0.7818608E-02  0.1130116E+00
         25   -1    0    0    0    0  0.00000000000E+00  0.00000000000E+00  0.99999998245E-14  0.12500000000E+03  0.12500000000E+03 0.  0.
        -11    1    3    3    0    0 -0.36584754283E+02 -0.12238654881E+02  0.72884398195E+01  0.39260034062E+02  0.51100000000E-03 0.  1.
         23    2    1    0    0    0  0.17854805610E+02 -0.22676484476E+02 -0.40976941904E+01  0.95848531268E+02  0.91307901175E+02 0.  0.
         11    1    3    3    0    0  0.54439559894E+02 -0.10437829595E+02 -0.11386134010E+02  0.56588497206E+02  0.51100000000E-03 0. -1.
         22    1    1    0    0    0 -0.17854805610E+02  0.22676484476E+02  0.40976941904E+01  0.29151468732E+02  0.00000000000E+00 0. -1.
</event>
<event>
 5    1  0.8900327E-005  0.9118800E+02  0.7818608E-02  0.1130116E+00
         25   -1    0    0    0    0  0.00000000000E+00  0.00000000000E+00  0.99999998245E-14  0.12500000000E+03  0.12500000000E+03 0.  0.
        -11    1    3    3    0    0 -0.82591585301E+01  0.28177459682E+02 -0.39578195549E+02  0.49280995292E+02  0.51100000000E-03 0. -1.
         23    2    1    0    0    0  0.13905280625E+02  0.37089505331E+02 -0.31133196360E+02  0.74618811541E+02  0.55042736898E+02 0.  0.
         11    1    3    3    0    0  0.22164439155E+02  0.89120456492E+01  0.84449991889E+01  0.25337816249E+02  0.51100000000E-03 0.  1.
         22    1    1    0    0    0 -0.13905280625E+02 -0.37089505331E+02  0.31133196360E+02  0.50381188459E+02  0.00000000000E+00 0. -1.
</event>
<event>
 5    1  0.8900327E-005  0.9118800E+02  0.7818608E-02  0.1130116E+00
         25   -1    0    0    0    0  0.00000000000E+00  0.00000000000E+00  0.99999998245E-14  0.12500000000E+03  0.12500000000E+03 0.  0.
        -11    1    3    3    0    0 -0.19699379521E+02 -0.13416688418E+02 -0.23512130271E+02  0.33479745395E+02  0.51100000000E-03 0.  1.
         23    2    1    0    0    0  0.25951865098E+02  0.42677847870E+01  0.14046040503E+02  0.95183820787E+02  0.90393336019E+02 0.  0.
         11    1    3    3    0    0  0.45651244619E+02  0.17684473205E+02  0.37558170774E+02  0.61704075392E+02  0.51100000000E-03 0. -1.
         22    1    1    0    0    0 -0.25951865098E+02 -0.42677847870E+01 -0.14046040503E+02  0.29816179213E+02  0.00000000000E+00 0. -1.
</event>
<event>
 5    1  0.8900327E-005  0.9118800E+02  0.7818608E-02  0.1130116E+00
         25   -1    0    0    0    0  0.00000000000E+00  0.00000000000E+00  0.99999998245E-14  0.12500000000E+03  0.12500000000E+03 0.  0.
        -11    1    3    3    0    0  0.22582584568E+02 -0.13697130268E+02  0.55374698234E+02  0.61350971534E+02  0.51100000000E-03 0.  1.
         23    2    1    0    0    0  0.16813010521E+02 -0.92014878775E+01  0.20696955239E+02  0.96791691683E+02  0.92590080034E+02 0.  0.
         11    1    3    3    0    0 -0.57695740464E+01  0.44956423907E+01 -0.34677742995E+02  0.35440720149E+02  0.51100000000E-03 0. -1.
         22    1    1    0    0    0 -0.16813010521E+02  0.92014878775E+01 -0.20696955239E+02  0.28208308317E+02  0.00000000000E+00 0.  1.
</event>
<event>
 5    1  0.8900327E-005  0.9118800E+02  0.7818608E-02  0.1130116E+00
         25   -1    0    0    0    0  0.00000000000E+00  0.00000000000E+00  0.99999998245E-14  0.12500000000E+03  0.12500000000E+03 0.  0.
        -11    1    3    3    0    0 -0.14089376614E+02 -0.42550012736E+02 -0.24991547498E+02  0.51318530414E+02  0.51100000000E-03 0.  1.
         23    2    1    0    0    0  0.10951987726E+02 -0.31093477697E+02  0.45696893920E+01  0.91718887465E+02  0.85467665618E+02 0.  0.
         11    1    3    3    0    0  0.25041364340E+02  0.11456535039E+02  0.29561236890E+02  0.40400357051E+02  0.51100000000E-03 0. -1.
         22    1    1    0    0    0 -0.10951987726E+02  0.31093477697E+02 -0.45696893920E+01  0.33281112535E+02  0.00000000000E+00 0.  1.
</event>
<event>
 5    1  0.8900327E-005  0.9118800E+02  0.7818608E-02  0.1130116E+00
         25   -1    0    0    0    0  0.00000000000E+00  0.00000000000E+00  0.99999998245E-14  0.12500000000E+03  0.12500000000E+03 0.  0.
        -11    1    3    3    0    0 -0.52957434074E+02 -0.29457871911E+02  0.11772335446E+02  0.61732033203E+02  0.51100000000E-03 0. -1.
         23    2    1    0    0    0 -0.22496438294E+02 -0.14392138363E+02  0.12013822767E+02  0.95715954513E+02  0.91126223604E+02 0.  0.
         11    1    3    3    0    0  0.30460995780E+02  0.15065733547E+02  0.24148732108E+00  0.33983921310E+02  0.51100000000E-03 0.  1.
         22    1    1    0    0    0  0.22496438294E+02  0.14392138363E+02 -0.12013822767E+02  0.29284045487E+02  0.00000000000E+00 0. -1.
</event>
<event>
 5    1  0.8900327E-005  0.9118800E+02  0.7818608E-02  0.1130116E+00
         25   -1    0    0    0    0  0.00000000000E+00  0.00000000000E+00  0.99999998245E-14  0.12500000000E+03  0.12500000000E+03 0.  0.
        -11    1    3    3    0    0 -0.30619521858E+02  0.15965885356E+02 -0.15397965213E+02  0.37809548357E+02  0.51100000000E-03 0.  1.
         23    2    1    0    0    0  0.14699195592E+00 -0.28786675720E+02  0.49230736706E+01  0.95795018233E+02  0.91234612720E+02 0.  0.
         11    1    3    3    0    0  0.30766513814E+02 -0.44752561076E+02  0.20321038883E+02  0.57985469876E+02  0.51100000000E-03 0. -1.
         22    1    1    0    0    0 -0.14699195592E+00  0.28786675720E+02 -0.49230736706E+01  0.29204981767E+02  0.00000000000E+00 0. -1.
</event>
<event>
 5    1  0.8900327E-005  0.9118800E+02  0.7818608E-02  0.1130116E+00
         25   -1    0    0    0    0  0.00000000000E+00  0.00000000000E+00  0.99999998245E-14  0.12500000000E+03  0.12500000000E+03 0.  0.
        -11    1    3    3    0    0  0.34984555122E+02 -0.20179762529E+02 -0.13205080583E+02  0.42491364608E+02  0.51100000000E-03 0. -1.
         23    2    1    0    0    0  0.53835475017E+01  0.24447274435E+02 -0.14522734767E+02  0.96059342852E+02  0.91596046384E+02 0.  0.
         11    1    3    3    0    0 -0.29601007620E+02  0.44627036964E+02 -0.13176541844E+01  0.53567978244E+02  0.51100000000E-03 0.  1.
         22    1    1    0    0    0 -0.53835475017E+01 -0.24447274435E+02  0.14522734767E+02  0.28940657148E+02  0.00000000000E+00 0.  1.
</event>
<event>
 5    1  0.8900327E-005  0.9118800E+02  0.7818608E-02  0.1130116E+00
         25   -1    0    0    0    0  0.00000000000E+00  0.00000000000E+00  0.99999998245E-14  0.12500000000E+03  0.12500000000E+03 0.  0.
        -11    1    3    3    0    0 -0.14483376414E+02 -0.39559131545E+02 -0.38607067323E+02  0.57141917438E+02  0.51100000000E-03 0. -1.
         23    2    1    0    0    0 -0.88003591371E+01 -0.27596373728E+02 -0.21215750801E+01  0.95956803814E+02  0.91456005563E+02 0.  0.
         11    1    3    3    0    0  0.56830172773E+01  0.11962757817E+02  0.36485492243E+02  0.38814886376E+02  0.51100000000E-03 0.  1.
         22    1    1    0    0    0  0.88003591371E+01  0.27596373728E+02  0.21215750801E+01  0.29043196186E+02  0.00000000000E+00 0. -1.
</event>
<event>
 5    1  0.8900327E-005  0.9118800E+02  0.7818608E-02  0.1130116E+00
         25   -1    0    0    0    0  0.00000000000E+00  0.00000000000E+00  0.99999998245E-14  0.12500000000E+03  0.12500000000E+03 0.  0.
        -11    1    3    3    0    0  0.69690019944E+01 -0.13867894204E+02 -0.35759477404E+02  0.38982376825E+02  0.51100000000E-03 0.  1.
         23    2    1    0    0    0 -0.37230845081E+01 -0.10588435476E+02  0.23324489275E+02  0.99115484860E+02  0.95675865374E+02 0.  0.
         11    1    3    3    0    0 -0.10692086503E+02  0.32794587277E+01  0.59083966678E+02  0.60133108036E+02  0.51100000000E-03 0. -1.
         22    1    1    0    0    0  0.37230845081E+01  0.10588435476E+02 -0.23324489275E+02  0.25884515140E+02  0.00000000000E+00 0. -1.
</event>
<event>
 5    1  0.8900327E-005  0.9118800E+02  0.7818608E-02  0.1130116E+00
         25   -1    0    0    0    0  0.00000000000E+00  0.00000000000E+00  0.99999998245E-14  0.12500000000E+03  0.12500000000E+03 0.  0.
        -11    1    3    3    0    0 -0.14854083944E+02 -0.14511370098E+02  0.54730342771E+02  0.58537458879E+02  0.51100000000E-03 0. -1.
         23    2    1    0    0    0  0.43830439236E+01 -0.17573365449E+02  0.23766875570E+02  0.95118590703E+02  0.90303087853E+02 0.  0.
         11    1    3    3    0    0  0.19237127868E+02 -0.30619953506E+01 -0.30963467201E+02  0.36581131824E+02  0.51100000000E-03 0.  1.
         22    1    1    0    0    0 -0.43830439236E+01  0.17573365449E+02 -0.23766875570E+02  0.29881409297E+02  0.00000000000E+00 0. -1.
</event>
<event>
 5    1  0.8900327E-005  0.9118800E+02  0.7818608E-02  0.1130116E+00
         25   -1    0    0    0    0  0.00000000000E+00  0.00000000000E+00  0.99999998245E-14  0.12500000000E+03  0.12500000000E+03 0.  0.
        -11    1    3    3    0    0 -0.19244033829E+02  0.28021314275E+02 -0.46769768533E+02  0.57818147156E+02  0.51100000000E-03 0.  1.
         23    2    1    0    0    0 -0.18415582004E+02 -0.11690775698E+01 -0.23270587853E+02  0.95301167330E+02  0.90555462743E+02 0.  0.
         11    1    3    3    0    0  0.82845182486E+00 -0.29190391845E+02  0.23499180680E+02  0.37483020174E+02  0.51100000000E-03 0. -1.
         22    1    1    0    0    0  0.18415582004E+02  0.11690775698E+01  0.23270587853E+02  0.29698832670E+02  0.00000000000E+00 0.  1.
</event>
<event>
 5    1  0.8900327E-005  0.9118800E+02  0.7818608E-02  0.1130116E+00
         25   -1    0    0    0    0  0.00000000000E+00  0.00000000000E+00  0.99999998245E-14  0.12500000000E+03  0.12500000000E+03 0.  0.
        -11    1    3    3    0    0  0.55911473821E+02 -0.19530013094E+02 -0.11364720377E+02  0.60304818927E+02  0.51100000000E-03 0. -1.
         23    2    1    0    0    0  0.20733154442E+02 -0.19516547022E+02 -0.61809600373E+01  0.95863020613E+02  0.91327734853E+02 0.  0.
         11    1    3    3    0    0 -0.35178319379E+02  0.13466071782E-01  0.51837603401E+01  0.35558201686E+02  0.51100000000E-03 0.  1.
         22    1    1    0    0    0 -0.20733154442E+02  0.19516547022E+02  0.61809600373E+01  0.29136979387E+02  0.00000000000E+00 0. -1.
</event>
<event>
 5    1  0.8900327E-005  0.9118800E+02  0.7818608E-02  0.1130116E+00
         25   -1    0    0    0    0  0.00000000000E+00  0.00000000000E+00  0.99999998245E-14  0.12500000000E+03  0.12500000000E+03 0.  0.
        -11    1    3    3    0    0 -0.16589193707E+02 -0.42714549373E+02 -0.34796502162E+02  0.57537210907E+02  0.51100000000E-03 0. -1.
         23    2    1    0    0    0  0.12142613725E+01 -0.37210127562E+02 -0.14620953657E+02  0.85001996179E+02  0.75003326890E+02 0.  0.
         11    1    3    3    0    0  0.17803455079E+02  0.55044218110E+01  0.20175548505E+02  0.27464785271E+02  0.51100000000E-03 0.  1.
         22    1    1    0    0    0 -0.12142613725E+01  0.37210127562E+02  0.14620953657E+02  0.39998003821E+02  0.00000000000E+00 0. -1.
</event>
<event>
 5    1  0.8900327E-005  0.9118800E+02  0.7818608E-02  0.1130116E+00
         25   -1    0    0    0    0  0.00000000000E+00  0.00000000000E+00  0.99999998245E-14  0.12500000000E+03  0.12500000000E+03 0.  0.
        -11    1    3    3    0    0 -0.26159881821E+02 -0.11576013668E+02  0.44429127052E+02  0.52842131299E+02  0.51100000000E-03 0. -1.
         23    2    1    0    0    0 -0.24479821735E+02 -0.12888757479E+02 -0.12089874269E-01  0.97334463900E+02  0.93319965576E+02 0.  0.
         11    1    3    3    0    0  0.16800600860E+01 -0.13127438103E+01 -0.44441216926E+02  0.44492332602E+02  0.51100000000E-03 0.  1.
         22    1    1    0    0    0  0.24479821735E+02  0.12888757479E+02  0.12089874269E-01  0.27665536100E+02  0.00000000000E+00 0.  1.
</event>
<event>
 5    1  0.8900327E-005  0.9118800E+02  0.7818608E-02  0.1130116E+00
         25   -1    0    0    0    0  0.00000000000E+00  0.00000000000E+00  0.99999998245E-14  0.12500000000E+03  0.12500000000E+03 0.  0.
        -11    1    3    3    0    0  0.31875275127E+02  0.34782991184E+02 -0.17843876890E+02  0.50440991097E+02  0.51100000000E-03 0.  1.
         23    2    1    0    0    0  0.24977698316E+02 -0.10021879291E+02 -0.43653147765E+01  0.97735014198E+02  0.93854960175E+02 0.  0.
         11    1    3    3    0    0 -0.68975768111E+01 -0.44804870475E+02  0.13478562113E+02  0.47294023101E+02  0.51100000000E-03 0. -1.
         22    1    1    0    0    0 -0.24977698316E+02  0.10021879291E+02  0.43653147765E+01  0.27264985802E+02  0.00000000000E+00 0.  1.
</event>
<event>
 5    1  0.8900327E-005  0.9118800E+02  0.7818608E-02  0.1130116E+00
         25   -1    0    0    0    0  0.00000000000E+00  0.00000000000E+00  0.99999998245E-14  0.12500000000E+03  0.12500000000E+03 0.  0.
        -11    1    3    3    0    0 -0.39697950501E+02  0.28686770233E+02 -0.10809772734E+02  0.50156846464E+02  0.51100000000E-03 0. -1.
         23    2    1    0    0    0  0.70943754594E+01  0.25132703198E+02 -0.98366495499E+01  0.97094039928E+02  0.92997365457E+02 0.  0.
         11    1    3    3    0    0  0.46792325960E+02 -0.35540670346E+01  0.97312318421E+00  0.46937193464E+02  0.51100000000E-03 0.  1.
         22    1    1    0    0    0 -0.70943754594E+01 -0.25132703198E+02  0.98366495499E+01  0.27905960072E+02  0.00000000000E+00 0.  1.
</event>
<event>
 5    1  0.8900327E-005  0.9118800E+02  0.7818608E-02  0.1130116E+00
         25   -1    0    0    0    0  0.00000000000E+00  0.00000000000E+00  0.99999998245E-14  0.12500000000E+03  0.12500000000E+03 0.  0.
        -11    1    3    3    0    0 -0.91562115814E+01  0.35376699954E+02 -0.43835650201E+02  0.57069355516E+02  0.51100000000E-03 0. -1.
         23    2    1    0    0    0 -0.17827210629E+02  0.21958585145E+02 -0.91245043198E+01  0.95280553850E+02  0.90527004052E+02 0.  0.
         11    1    3    3    0    0 -0.86709990473E+01 -0.13418114810E+02  0.34711145881E+02  0.38211198335E+02  0.51100000000E-03 0.  1.
         22    1    1    0    0    0  0.17827210629E+02 -0.21958585145E+02  0.91245043198E+01  0.29719446150E+02  0.00000000000E+00 0. -1.
</event>
<event>
 5    1  0.8900327E-005  0.9118800E+02  0.7818608E-02  0.1130116E+00
         25   -1    0    0    0    0  0.00000000000E+00  0.00000000000E+00  0.99999998245E-14  0.12500000000E+03  0.12500000000E+03 0.  0.
        -11    1    3    3    0    0 -0.18607937623E+02  0.11853584210E+02 -0.32920682607E+02  0.39629965238E+02  0.51100000000E-03 0.  1.
         23    2    1    0    0    0  0.67443201981E+01  0.21969419483E+02  0.16924184311E+02  0.96459340197E+02  0.92140300897E+02 0.  0.
         11    1    3    3    0    0  0.25352257821E+02  0.10115835274E+02  0.49844866918E+02  0.56829374959E+02  0.51100000000E-03 0. -1.
         22    1    1    0    0    0 -0.67443201981E+01 -0.21969419483E+02 -0.16924184311E+02  0.28540659803E+02  0.00000000000E+00 0. -1.
</event>
<event>
 5    1  0.8900327E-005  0.9118800E+02  0.7818608E-02  0.1130116E+00
         25   -1    0    0    0    0  0.00000000000E+00  0.00000000000E+00  0.99999998245E-14  0.12500000000E+03  0.12500000000E+03 0.  0.
        -11    1    3    3    0    0 -0.27702856569E+02 -0.31506645833E+02  0.23249017028E+02  0.47964922461E+02  0.51100000000E-03 0. -1.
         23    2    1    0    0    0  0.17740984774E+02 -0.15711406233E+02  0.15468010305E+02  0.96700703730E+02  0.92467161374E+02 0.  0.
         11    1    3    3    0    0  0.45443841343E+02  0.15795239600E+02 -0.77810067228E+01  0.48735781269E+02  0.51100000000E-03 0.  1.
         22    1    1    0    0    0 -0.17740984774E+02  0.15711406233E+02 -0.15468010305E+02  0.28299296270E+02  0.00000000000E+00 0.  1.
</event>
<event>
 5    1  0.8900327E-005  0.9118800E+02  0.7818608E-02  0.1130116E+00
         25   -1    0    0    0    0  0.00000000000E+00  0.00000000000E+00  0.99999998245E-14  0.12500000000E+03  0.12500000000E+03 0.  0.
        -11    1    3    3    0    0 -0.30815300148E+02 -0.47421085706E+02 -0.66425528696E+01  0.56942651867E+02  0.51100000000E-03 0. -1.
         23    2    1    0    0    0 -0.46126390068E+00 -0.31838656863E+02  0.45123070646E+01  0.92839873285E+02  0.87091723610E+02 0.  0.
         11    1    3    3    0    0  0.30354036248E+02  0.15582428842E+02  0.11154859934E+02  0.35897221418E+02  0.51100000000E-03 0.  1.
         22    1    1    0    0    0  0.46126390068E+00  0.31838656863E+02 -0.45123070646E+01  0.32160126715E+02  0.00000000000E+00 0. -1.
</event>
<event>
 5    1  0.8900327E-005  0.9118800E+02  0.7818608E-02  0.1130116E+00
         25   -1    0    0    0    0  0.00000000000E+00  0.00000000000E+00  0.99999998245E-14  0.12500000000E+03  0.12500000000E+03 0.  0.
        -11    1    3    3    0    0 -0.32785325081E+02 -0.28969134304E+02  0.18095569117E+02  0.47344882563E+02  0.51100000000E-03 0. -1.
         23    2    1    0    0    0 -0.26150037872E+02  0.14016668191E+02 -0.20108030773E+01  0.95262232819E+02  0.90501702773E+02 0.  0.
         11    1    3    3    0    0  0.66352872098E+01  0.42985802495E+02 -0.20106372195E+02  0.47917350256E+02  0.51100000000E-03 0.  1.
         22    1    1    0    0    0  0.26150037872E+02 -0.14016668191E+02  0.20108030773E+01  0.29737767181E+02  0.00000000000E+00 0.  1.
</event>
<event>
 5    1  0.8900327E-005  0.9118800E+02  0.7818608E-02  0.1130116E+00
         25   -1    0    0    0    0  0.00000000000E+00  0.00000000000E+00  0.99999998245E-14  0.12500000000E+03  0.12500000000E+03 0.  0.
        -11    1    3    3    0    0 -0.16913217570E+02  0.39199363297E+02  0.19088166877E+02  0.46765426614E+02  0.51100000000E-03 0. -1.
         23    2    1    0    0    0  0.23102696031E+02  0.19631212167E+02  0.15324790568E+01  0.94644316066E+02  0.89644180048E+02 0.  0.
         11    1    3    3    0    0  0.40015913601E+02 -0.19568151130E+02 -0.17555687820E+02  0.47878889451E+02  0.51100000000E-03 0.  1.
         22    1    1    0    0    0 -0.23102696031E+02 -0.19631212167E+02 -0.15324790568E+01  0.30355683934E+02  0.00000000000E+00 0. -1.
</event>
<event>
 5    1  0.8900327E-005  0.9118800E+02  0.7818608E-02  0.1130116E+00
         25   -1    0    0    0    0  0.00000000000E+00  0.00000000000E+00  0.99999998245E-14  0.12500000000E+03  0.12500000000E+03 0.  0.
        -11    1    3    3    0    0 -0.28396156318E+02  0.40623980424E+02 -0.24444549433E+01  0.49624840950E+02  0.51100000000E-03 0. -1.
         23    2    1    0    0    0  0.12383574517E+02  0.23874798193E+02  0.11335223043E+02  0.95813595837E+02  0.91260062235E+02 0.  0.
         11    1    3    3    0    0  0.40779730834E+02 -0.16749182231E+02  0.13779677986E+02  0.46188754887E+02  0.51100000000E-03 0.  1.
         22    1    1    0    0    0 -0.12383574517E+02 -0.23874798193E+02 -0.11335223043E+02  0.29186404163E+02  0.00000000000E+00 0.  1.
</event>
<event>
 5    1  0.8900327E-005  0.9118800E+02  0.7818608E-02  0.1130116E+00
         25   -1    0    0    0    0  0.00000000000E+00  0.00000000000E+00  0.99999998245E-14  0.12500000000E+03  0.12500000000E+03 0.  0.
        -11    1    3    3    0    0 -0.43167891413E+02 -0.17194123830E+00 -0.41260281237E+02  0.59715217665E+02  0.51100000000E-03 0.  1.
         23    2    1    0    0    0 -0.22418340828E+02  0.11304129947E+02 -0.12612796630E+02  0.96902882742E+02  0.92740070550E+02 0.  0.
         11    1    3    3    0    0  0.20749550585E+02  0.11476071186E+02  0.28647484607E+02  0.37187665077E+02  0.51100000000E-03 0. -1.
         22    1    1    0    0    0  0.22418340828E+02 -0.11304129947E+02  0.12612796630E+02  0.28097117258E+02  0.00000000000E+00 0.  1.
</event>
<event>
 5    1  0.8900327E-005  0.9118800E+02  0.7818608E-02  0.1130116E+00
         25   -1    0    0    0    0  0.00000000000E+00  0.00000000000E+00  0.99999998245E-14  0.12500000000E+03  0.12500000000E+03 0.  0.
        -11    1    3    3    0    0  0.14287098713E+02  0.34199451645E+02 -0.45398139327E+02  0.58606439382E+02  0.51100000000E-03 0.  1.
         23    2    1    0    0    0  0.16415176796E+02  0.18267431946E+02 -0.82346336750E+01  0.99096982976E+02  0.95651689709E+02 0.  0.
         11    1    3    3    0    0  0.21280780827E+01 -0.15932019699E+02  0.37163505652E+02  0.40490543595E+02  0.51100000000E-03 0. -1.
         22    1    1    0    0    0 -0.16415176796E+02 -0.18267431946E+02  0.82346336750E+01  0.25903017024E+02  0.00000000000E+00 0.  1.
</event>
<event>
 5    1  0.8900327E-005  0.9118800E+02  0.7818608E-02  0.1130116E+00
         25   -1    0    0    0    0  0.00000000000E+00  0.00000000000E+00  0.99999998245E-14  0.12500000000E+03  0.12500000000E+03 0.  0.
        -11    1    3    3    0    0 -0.60001317991E+01  0.34892009173E+02  0.13989426630E+00  0.35404427074E+02  0.51100000000E-03 0. -1.
         23    2    1    0    0    0  0.14566306864E+02 -0.21851458971E+02 -0.10548645097E+02  0.96699161352E+02  0.92465076315E+02 0.  0.
         11    1    3    3    0    0  0.20566438663E+02 -0.56743468144E+02 -0.10688539363E+02  0.61294734278E+02  0.51100000000E-03 0.  1.
         22    1    1    0    0    0 -0.14566306864E+02  0.21851458971E+02  0.10548645097E+02  0.28300838648E+02  0.00000000000E+00 0.  1.
</event>
<event>
 5    1  0.8900327E-005  0.9118800E+02  0.7818608E-02  0.1130116E+00
         25   -1    0    0    0    0  0.00000000000E+00  0.00000000000E+00  0.99999998245E-14  0.12500000000E+03  0.12500000000E+03 0.  0.
        -11    1    3    3    0    0  0.40638911644E+02  0.17985766301E+02 -0.26307746546E+02  0.51644036032E+02  0.51100000000E-03 0. -1.
         23    2    1    0    0    0  0.46101723932E+01  0.29338646604E+02 -0.17834707312E+02  0.90357733057E+02  0.83453180073E+02 0.  0.
         11    1    3    3    0    0 -0.36028739251E+02  0.11352880303E+02  0.84730392340E+01  0.38713697025E+02  0.51100000000E-03 0.  1.
         22    1    1    0    0    0 -0.46101723932E+01 -0.29338646604E+02  0.17834707312E+02  0.34642266943E+02  0.00000000000E+00 0.  1.
</event>
<event>
 5    1  0.8900327E-005  0.9118800E+02  0.7818608E-02  0.1130116E+00
         25   -1    0    0    0    0  0.00000000000E+00  0.00000000000E+00  0.99999998245E-14  0.12500000000E+03  0.12500000000E+03 0.  0.
        -11    1    3    3    0    0 -0.21428671294E+01 -0.16970331340E+02 -0.21035961432E+02  0.27112648320E+02  0.51100000000E-03 0.  1.
         23    2    1    0    0    0 -0.12645338170E+02  0.23785133745E+02 -0.42749883384E+02  0.74470902501E+02  0.54705809795E+02 0.  0.
         11    1    3    3    0    0 -0.10502471041E+02  0.40755465085E+02 -0.21713921952E+02  0.47358254181E+02  0.51100000000E-03 0. -1.
         22    1    1    0    0    0  0.12645338170E+02 -0.23785133745E+02  0.42749883384E+02  0.50529097499E+02  0.00000000000E+00 0. -1.
</event>
<event>
 5    1  0.8900327E-005  0.9118800E+02  0.7818608E-02  0.1130116E+00
         25   -1    0    0    0    0  0.00000000000E+00  0.00000000000E+00  0.99999998245E-14  0.12500000000E+03  0.12500000000E+03 0.  0.
        -11    1    3    3    0    0  0.26862909803E+02  0.47978375245E+02 -0.28129845536E+02  0.61764298947E+02  0.51100000000E-03 0. -1.
         23    2    1    0    0    0  0.69091199297E+01  0.25458234658E+02 -0.15567555287E+02  0.94369844472E+02  0.89260635881E+02 0.  0.
         11    1    3    3    0    0 -0.19953789873E+02 -0.22520140588E+02  0.12562290249E+02  0.32605545525E+02  0.51100000000E-03 0.  1.
         22    1    1    0    0    0 -0.69091199297E+01 -0.25458234658E+02  0.15567555287E+02  0.30630155528E+02  0.00000000000E+00 0. -1.
</event>
<event>
 5    1  0.8900327E-005  0.9118800E+02  0.7818608E-02  0.1130116E+00
         25   -1    0    0    0    0  0.00000000000E+00  0.00000000000E+00  0.99999998245E-14  0.12500000000E+03  0.12500000000E+03 0.  0.
        -11    1    3    3    0    0 -0.24673914466E+02 -0.17687373470E+02  0.19852806466E+02  0.36273670344E+02  0.51100000000E-03 0. -1.
         23    2    1    0    0    0  0.26267570258E+02  0.10036400272E+02  0.10306875751E+02  0.95050938822E+02  0.90209393666E+02 0.  0.
         11    1    3    3    0    0  0.50941484724E+02  0.27723773742E+02 -0.95459307148E+01  0.58777268479E+02  0.51100000000E-03 0.  1.
         22    1    1    0    0    0 -0.26267570258E+02 -0.10036400272E+02 -0.10306875751E+02  0.29949061178E+02  0.00000000000E+00 0.  1.
</event>
<event>
 5    1  0.8900327E-005  0.9118800E+02  0.7818608E-02  0.1130116E+00
         25   -1    0    0    0    0  0.00000000000E+00  0.00000000000E+00  0.99999998245E-14  0.12500000000E+03  0.12500000000E+03 0.  0.
        -11    1    3    3    0    0  0.22706324736E+02  0.36994484811E+02 -0.12873881074E+01  0.43426103415E+02  0.51100000000E-03 0. -1.
         23    2    1    0    0    0 -0.18584523161E+02  0.85287209699E+01 -0.19462876223E+02  0.96770102137E+02  0.92560928767E+02 0.  0.
         11    1    3    3    0    0 -0.41290847897E+02 -0.28465763841E+02 -0.18175488116E+02  0.53343998721E+02  0.51100000000E-03 0.  1.
         22    1    1    0    0    0  0.18584523161E+02 -0.85287209699E+01  0.19462876223E+02  0.28229897863E+02  0.00000000000E+00 0.  1.
</event>
<event>
 5    1  0.8900327E-005  0.9118800E+02  0.7818608E-02  0.1130116E+00
         25   -1    0    0    0    0  0.00000000000E+00  0.00000000000E+00  0.99999998245E-14  0.12500000000E+03  0.12500000000E+03 0.  0.
        -11    1    3    3    0    0  0.20607409189E+01 -0.12373566388E+02 -0.58889303833E+02  0.60210480022E+02  0.51100000000E-03 0.  1.
         23    2    1    0    0    0 -0.42443037540E+01  0.49900262227E+01 -0.28356731378E+02  0.95896414473E+02  0.91373429499E+02 0.  0.
         11    1    3    3    0    0 -0.63050446729E+01  0.17363592610E+02  0.30532572455E+02  0.35685934451E+02  0.51100000000E-03 0. -1.
         22    1    1    0    0    0  0.42443037540E+01 -0.49900262227E+01  0.28356731378E+02  0.29103585527E+02  0.00000000000E+00 0.  1.
</event>
<event>
 5    1  0.8900327E-005  0.9118800E+02  0.7818608E-02  0.1130116E+00
         25   -1    0    0    0    0  0.00000000000E+00  0.00000000000E+00  0.99999998245E-14  0.12500000000E+03  0.12500000000E+03 0.  0.
        -11    1    3    3    0    0  0.19717650287E+02 -0.31067088118E+02  0.41296082978E+01  0.37027062561E+02  0.51100000000E-03 0. -1.
         23    2    1    0    0    0  0.34920831150E+01  0.24508087235E+02 -0.12505692341E+02  0.97264944108E+02  0.93226798867E+02 0.  0.
         11    1    3    3    0    0 -0.16225567172E+02  0.55575175354E+02 -0.16635300638E+02  0.60237881547E+02  0.51100000000E-03 0.  1.
         22    1    1    0    0    0 -0.34920831150E+01 -0.24508087235E+02  0.12505692341E+02  0.27735055892E+02  0.00000000000E+00 0.  1.
</event>
<event>
 5    1  0.8900327E-005  0.9118800E+02  0.7818608E-02  0.1130116E+00
         25   -1    0    0    0    0  0.00000000000E+00  0.00000000000E+00  0.99999998245E-14  0.12500000000E+03  0.12500000000E+03 0.  0.
        -11    1    3    3    0    0  0.40431989295E+02  0.18989239867E+02  0.57649119415E+01  0.45039662510E+02  0.51100000000E-03 0. -1.
         23    2    1    0    0    0 -0.60306366092E+01  0.19888875188E+02 -0.18242910637E+02  0.97346072202E+02  0.93335513340E+02 0.  0.
         11    1    3    3    0    0 -0.46462625904E+02  0.89963532050E+00 -0.24007822579E+02  0.52306409692E+02  0.51100000000E-03 0.  1.
         22    1    1    0    0    0  0.60306366092E+01 -0.19888875188E+02  0.18242910637E+02  0.27653927798E+02  0.00000000000E+00 0. -1.
</event>
<event>
 5    1  0.8900327E-005  0.9118800E+02  0.7818608E-02  0.1130116E+00
         25   -1    0    0    0    0  0.00000000000E+00  0.00000000000E+00  0.99999998245E-14  0.12500000000E+03  0.12500000000E+03 0.  0.
        -11    1    3    3    0    0 -0.36156199807E+02  0.41096309760E+02 -0.15184891536E+02  0.56804563123E+02  0.51100000000E-03 0. -1.
         23    2    1    0    0    0 -0.29550993585E+02  0.72136370999E+01  0.15741060536E+00  0.94580884954E+02  0.89555687918E+02 0.  0.
         11    1    3    3    0    0  0.66052062212E+01 -0.33882672660E+02  0.15342302141E+02  0.37776321831E+02  0.51100000000E-03 0.  1.
         22    1    1    0    0    0  0.29550993585E+02 -0.72136370999E+01 -0.15741060536E+00  0.30419115046E+02  0.00000000000E+00 0. -1.
</event>
<event>
 5    1  0.8900327E-005  0.9118800E+02  0.7818608E-02  0.1130116E+00
         25   -1    0    0    0    0  0.00000000000E+00  0.00000000000E+00  0.99999998245E-14  0.12500000000E+03  0.12500000000E+03 0.  0.
        -11    1    3    3    0    0 -0.37431956020E+02  0.98241060624E+01 -0.33061464411E+02  0.50899163261E+02  0.51100000000E-03 0. -1.
         23    2    1    0    0    0 -0.72842093590E+01 -0.19878057030E+02 -0.21621857755E+02  0.94739438372E+02  0.89776720775E+02 0.  0.
         11    1    3    3    0    0  0.30147746661E+02 -0.29702163092E+02  0.11439606656E+02  0.43840275111E+02  0.51100000000E-03 0.  1.
         22    1    1    0    0    0  0.72842093590E+01  0.19878057030E+02  0.21621857755E+02  0.30260561628E+02  0.00000000000E+00 0.  1.
</event>
<event>
 5    1  0.8900327E-005  0.9118800E+02  0.7818608E-02  0.1130116E+00
         25   -1    0    0    0    0  0.00000000000E+00  0.00000000000E+00  0.99999998245E-14  0.12500000000E+03  0.12500000000E+03 0.  0.
        -11    1    3    3    0    0 -0.21291423778E+02  0.46745619232E+01  0.31584486200E+02  0.38376503547E+02  0.51100000000E-03 0.  1.
         23    2    1    0    0    0  0.62169726971E+01  0.21815817158E+02 -0.16910751048E+02  0.96705934743E+02  0.92474232550E+02 0.  0.
         11    1    3    3    0    0  0.27508396476E+02  0.17141255235E+02 -0.48495237248E+02  0.58329431196E+02  0.51100000000E-03 0. -1.
         22    1    1    0    0    0 -0.62169726971E+01 -0.21815817158E+02  0.16910751048E+02  0.28294065257E+02  0.00000000000E+00 0. -1.
</event>
<event>
 5    1  0.8900327E-005  0.9118800E+02  0.7818608E-02  0.1130116E+00
         25   -1    0    0    0    0  0.00000000000E+00  0.00000000000E+00  0.99999998245E-14  0.12500000000E+03  0.12500000000E+03 0.  0.
        -11    1    3    3    0    0  0.33781802776E+02  0.31495481398E+02 -0.20442362143E+01  0.46231530899E+02  0.51100000000E-03 0. -1.
         23    2    1    0    0    0  0.21539579079E+02 -0.17311758703E+02  0.45934516781E+01  0.96986605800E+02  0.92852848368E+02 0.  0.
         11    1    3    3    0    0 -0.12242223698E+02 -0.48807240101E+02  0.66376878924E+01  0.50755074901E+02  0.51100000000E-03 0.  1.
         22    1    1    0    0    0 -0.21539579079E+02  0.17311758703E+02 -0.45934516781E+01  0.28013394200E+02  0.00000000000E+00 0.  1.
</event>
<event>
 5    1  0.8900327E-005  0.9118800E+02  0.7818608E-02  0.1130116E+00
         25   -1    0    0    0    0  0.00000000000E+00  0.00000000000E+00  0.99999998245E-14  0.12500000000E+03  0.12500000000E+03 0.  0.
        -11    1    3    3    0    0  0.92138839803E+01 -0.41574135882E+02  0.43066341986E+02  0.60564133319E+02  0.51100000000E-03 0.  1.
         23    2    1    0    0    0  0.35259814414E+01 -0.23777296843E+02  0.91617822078E+01  0.99275874290E+02  0.95885184323E+02 0.  0.
         11    1    3    3    0    0 -0.56879025388E+01  0.17796839038E+02 -0.33904559778E+02  0.38711740972E+02  0.51100000000E-03 0. -1.
         22    1    1    0    0    0 -0.35259814414E+01  0.23777296843E+02 -0.91617822078E+01  0.25724125710E+02  0.00000000000E+00 0.  1.
</event>
<event>
 5    1  0.8900327E-005  0.9118800E+02  0.7818608E-02  0.1130116E+00
         25   -1    0    0    0    0  0.00000000000E+00  0.00000000000E+00  0.99999998245E-14  0.12500000000E+03  0.12500000000E+03 0.  0.
        -11    1    3    3    0    0  0.81616299899E+01  0.43214839448E+02  0.42247792214E+02  0.60983690442E+02  0.51100000000E-03 0.  1.
         23    2    1    0    0    0  0.13677237999E+02  0.24554875839E+02  0.20216128692E+02  0.90377743776E+02  0.83483147664E+02 0.  0.
         11    1    3    3    0    0  0.55156080086E+01 -0.18659963609E+02 -0.22031663522E+02  0.29394053334E+02  0.51100000000E-03 0. -1.
         22    1    1    0    0    0 -0.13677237999E+02 -0.24554875839E+02 -0.20216128692E+02  0.34622256224E+02  0.00000000000E+00 0.  1.
</event>
<event>
 5    1  0.8900327E-005  0.9118800E+02  0.7818608E-02  0.1130116E+00
         25   -1    0    0    0    0  0.00000000000E+00  0.00000000000E+00  0.99999998245E-14  0.12500000000E+03  0.12500000000E+03 0.  0.
        -11    1    3    3    0    0  0.32613452580E+02  0.94228486478E+01  0.15302535471E+02  0.37237010594E+02  0.51100000000E-03 0.  1.
         23    2    1    0    0    0 -0.49656589360E+01 -0.28349005085E+02 -0.76011595423E+01  0.95232543200E+02  0.90460686488E+02 0.  0.
         11    1    3    3    0    0 -0.37579111516E+02 -0.37771853733E+02 -0.22903695013E+02  0.57995532606E+02  0.51100000000E-03 0. -1.
         22    1    1    0    0    0  0.49656589360E+01  0.28349005085E+02  0.76011595423E+01  0.29767456800E+02  0.00000000000E+00 0.  1.
</event>
<event>
 5    1  0.8900327E-005  0.9118800E+02  0.7818608E-02  0.1130116E+00
         25   -1    0    0    0    0  0.00000000000E+00  0.00000000000E+00  0.99999998245E-14  0.12500000000E+03  0.12500000000E+03 0.  0.
        -11    1    3    3    0    0 -0.20965666719E+02 -0.69129494295E+01  0.50099322997E+02  0.54747513330E+02  0.51100000000E-03 0.  1.
         23    2    1    0    0    0  0.50936532202E+01 -0.19578281689E+02  0.22082209824E+02  0.95052071729E+02  0.90210963481E+02 0.  0.
         11    1    3    3    0    0  0.26059319939E+02 -0.12665332259E+02 -0.28017113173E+02  0.40304558399E+02  0.51100000000E-03 0. -1.
         22    1    1    0    0    0 -0.50936532202E+01  0.19578281689E+02 -0.22082209824E+02  0.29947928271E+02  0.00000000000E+00 0. -1.
</event>
<event>
 5    1  0.8900327E-005  0.9118800E+02  0.7818608E-02  0.1130116E+00
         25   -1    0    0    0    0  0.00000000000E+00  0.00000000000E+00  0.99999998245E-14  0.12500000000E+03  0.12500000000E+03 0.  0.
        -11    1    3    3    0    0  0.16272522691E+02  0.19569148541E+02 -0.40568739161E+02  0.47891222230E+02  0.51100000000E-03 0.  1.
         23    2    1    0    0    0 -0.11043019205E+02 -0.16768513643E+02 -0.13620420718E+02  0.10073794767E+03  0.97772628666E+02 0.  0.
         11    1    3    3    0    0 -0.27315541896E+02 -0.36337662184E+02  0.26948318442E+02  0.52846725435E+02  0.51100000000E-03 0. -1.
         22    1    1    0    0    0  0.11043019205E+02  0.16768513643E+02  0.13620420718E+02  0.24262052335E+02  0.00000000000E+00 0. -1.
</event>
<event>
 5    1  0.8900327E-005  0.9118800E+02  0.7818608E-02  0.1130116E+00
         25   -1    0    0    0    0  0.00000000000E+00  0.00000000000E+00  0.99999998245E-14  0.12500000000E+03  0.12500000000E+03 0.  0.
        -11    1    3    3    0    0  0.28005673994E+02 -0.14820851065E+02 -0.18768911022E+02  0.36827264674E+02  0.51100000000E-03 0. -1.
         23    2    1    0    0    0  0.86850898967E+00  0.10920221319E+02  0.26956768840E+02  0.95902355288E+02  0.91381556246E+02 0.  0.
         11    1    3    3    0    0 -0.27137165004E+02  0.25741072383E+02  0.45725679862E+02  0.59075090614E+02  0.51100000000E-03 0.  1.
         22    1    1    0    0    0 -0.86850898967E+00 -0.10920221319E+02 -0.26956768840E+02  0.29097644712E+02  0.00000000000E+00 0.  1.
</event>
<event>
 5    1  0.8900327E-005  0.9118800E+02  0.7818608E-02  0.1130116E+00
         25   -1    0    0    0    0  0.00000000000E+00  0.00000000000E+00  0.99999998245E-14  0.12500000000E+03  0.12500000000E+03 0.  0.
        -11    1    3    3    0    0 -0.36344266184E+02 -0.39446351087E+02 -0.27600910170E+02  0.60321891059E+02  0.51100000000E-03 0.  1.
         23    2    1    0    0    0 -0.15990140301E+02 -0.25220548661E+02 -0.34893688837E+01  0.94934465632E+02  0.90047856210E+02 0.  0.
         11    1    3    3    0    0  0.20354125882E+02  0.14225802426E+02  0.24111541286E+02  0.34612574572E+02  0.51100000000E-03 0. -1.
         22    1    1    0    0    0  0.15990140301E+02  0.25220548661E+02  0.34893688837E+01  0.30065534368E+02  0.00000000000E+00 0.  1.
</event>
<event>
 5    1  0.8900327E-005  0.9118800E+02  0.7818608E-02  0.1130116E+00
         25   -1    0    0    0    0  0.00000000000E+00  0.00000000000E+00  0.99999998245E-14  0.12500000000E+03  0.12500000000E+03 0.  0.
        -11    1    3    3    0    0 -0.39221286825E+02 -0.30086581416E+01 -0.18368097463E+02  0.43413688725E+02  0.51100000000E-03 0.  1.
         23    2    1    0    0    0  0.12444163190E+02  0.18323859086E+02 -0.12367646492E+02  0.99631127556E+02  0.96347194505E+02 0.  0.
         11    1    3    3    0    0  0.51665450016E+02  0.21332517228E+02  0.60004509713E+01  0.56217438831E+02  0.51100000000E-03 0. -1.
         22    1    1    0    0    0 -0.12444163190E+02 -0.18323859086E+02  0.12367646492E+02  0.25368872444E+02  0.00000000000E+00 0. -1.
</event>
<event>
 5    1  0.8900327E-005  0.9118800E+02  0.7818608E-02  0.1130116E+00
         25   -1    0    0    0    0  0.00000000000E+00  0.00000000000E+00  0.99999998245E-14  0.12500000000E+03  0.12500000000E+03 0.  0.
        -11    1    3    3    0    0  0.15999139513E+02 -0.14781650896E+02  0.51013124922E+02  0.55468987579E+02  0.51100000000E-03 0.  1.
         23    2    1    0    0    0  0.18207548764E+02  0.10971196457E+02  0.20359942592E+02  0.95565169509E+02  0.90919152973E+02 0.  0.
         11    1    3    3    0    0  0.22084092501E+01  0.25752847353E+02 -0.30653182330E+02  0.40096181931E+02  0.51100000000E-03 0. -1.
         22    1    1    0    0    0 -0.18207548764E+02 -0.10971196457E+02 -0.20359942592E+02  0.29434830491E+02  0.00000000000E+00 0.  1.
</event>
<event>
 5    1  0.8900327E-005  0.9118800E+02  0.7818608E-02  0.1130116E+00
         25   -1    0    0    0    0  0.00000000000E+00  0.00000000000E+00  0.99999998245E-14  0.12500000000E+03  0.12500000000E+03 0.  0.
        -11    1    3    3    0    0  0.19564182236E+02  0.29678924883E+02 -0.41012049995E+02  0.54273235152E+02  0.51100000000E-03 0.  1.
         23    2    1    0    0    0  0.25752436626E+02 -0.12395423908E+01 -0.14837572437E+02  0.95253100778E+02  0.90489088814E+02 0.  0.
         11    1    3    3    0    0  0.61882543897E+01 -0.30918467274E+02  0.26174477558E+02  0.40979865625E+02  0.51100000000E-03 0. -1.
         22    1    1    0    0    0 -0.25752436626E+02  0.12395423908E+01  0.14837572437E+02  0.29746899222E+02  0.00000000000E+00 0. -1.
</event>
<event>
 5    1  0.8900327E-005  0.9118800E+02  0.7818608E-02  0.1130116E+00
         25   -1    0    0    0    0  0.00000000000E+00  0.00000000000E+00  0.99999998245E-14  0.12500000000E+03  0.12500000000E+03 0.  0.
        -11    1    3    3    0    0 -0.25278002120E+02  0.33852645610E+02 -0.14607882953E+02  0.44703123499E+02  0.51100000000E-03 0. -1.
         23    2    1    0    0    0  0.11380770161E+02  0.85086902412E+01 -0.29960926076E+02  0.91840132232E+02  0.85644807537E+02 0.  0.
         11    1    3    3    0    0  0.36658772281E+02 -0.25343955369E+02 -0.15353043123E+02  0.47137008733E+02  0.51100000000E-03 0.  1.
         22    1    1    0    0    0 -0.11380770161E+02 -0.85086902412E+01  0.29960926076E+02  0.33159867768E+02  0.00000000000E+00 0.  1.
</event>
<event>
 5    1  0.8900327E-005  0.9118800E+02  0.7818608E-02  0.1130116E+00
         25   -1    0    0    0    0  0.00000000000E+00  0.00000000000E+00  0.99999998245E-14  0.12500000000E+03  0.12500000000E+03 0.  0.
        -11    1    3    3    0    0  0.89897064166E+01 -0.39743525523E+02 -0.41985162375E+02  0.58507405534E+02  0.51100000000E-03 0. -1.
         23    2    1    0    0    0 -0.10146240997E+02 -0.14174095421E+02 -0.24541766218E+02  0.94897683204E+02  0.89996782170E+02 0.  0.
         11    1    3    3    0    0 -0.19135947414E+02  0.25569430102E+02  0.17443396157E+02  0.36390277670E+02  0.51100000000E-03 0.  1.
         22    1    1    0    0    0  0.10146240997E+02  0.14174095421E+02  0.24541766218E+02  0.30102316796E+02  0.00000000000E+00 0. -1.
</event>
<event>
 5    1  0.8900327E-005  0.9118800E+02  0.7818608E-02  0.1130116E+00
         25   -1    0    0    0    0  0.00000000000E+00  0.00000000000E+00  0.99999998245E-14  0.12500000000E+03  0.12500000000E+03 0.  0.
        -11    1    3    3    0    0  0.28720291379E+02  0.18101650513E+02  0.18967176587E+02  0.38888027414E+02  0.51100000000E-03 0. -1.
         23    2    1    0    0    0 -0.56829740074E+01 -0.26337363185E+02  0.11954205640E+02  0.95523637850E+02  0.90862035320E+02 0.  0.
         11    1    3    3    0    0 -0.34403265386E+02 -0.44439013698E+02 -0.70129709468E+01  0.56635610436E+02  0.51100000000E-03 0.  1.
         22    1    1    0    0    0  0.56829740074E+01  0.26337363185E+02 -0.11954205640E+02  0.29476362150E+02  0.00000000000E+00 0.  1.
</event>
<event>
 5    1  0.8900327E-005  0.9118800E+02  0.7818608E-02  0.1130116E+00
         25   -1    0    0    0    0  0.00000000000E+00  0.00000000000E+00  0.99999998245E-14  0.12500000000E+03  0.12500000000E+03 0.  0.
        -11    1    3    3    0    0 -0.22337869692E+02 -0.27441129711E+02  0.75281056729E+01  0.36175522077E+02  0.51100000000E-03 0. -1.
         23    2    1    0    0    0  0.28382641880E+02  0.11397889687E+01  0.11097288960E+02  0.94503716600E+02  0.89447913055E+02 0.  0.
         11    1    3    3    0    0  0.50720511572E+02  0.28580918680E+02  0.35691832869E+01  0.58328194523E+02  0.51100000000E-03 0.  1.
         22    1    1    0    0    0 -0.28382641880E+02 -0.11397889687E+01 -0.11097288960E+02  0.30496283400E+02  0.00000000000E+00 0.  1.
</event>
<event>
 5    1  0.8900327E-005  0.9118800E+02  0.7818608E-02  0.1130116E+00
         25   -1    0    0    0    0  0.00000000000E+00  0.00000000000E+00  0.99999998245E-14  0.12500000000E+03  0.12500000000E+03 0.  0.
        -11    1    3    3    0    0  0.35195594428E+02 -0.38017689293E+01  0.84406742292E+01  0.36392695639E+02  0.51100000000E-03 0. -1.
         23    2    1    0    0    0 -0.25336717030E+02  0.48963589374E+01 -0.42423967359E+01  0.98848107320E+02  0.95325898002E+02 0.  0.
         11    1    3    3    0    0 -0.60532311458E+02  0.86981278667E+01 -0.12683070965E+02  0.62455411681E+02  0.51100000000E-03 0.  1.
         22    1    1    0    0    0  0.25336717030E+02 -0.48963589374E+01  0.42423967359E+01  0.26151892680E+02  0.00000000000E+00 0.  1.
</event>
<event>
 5    1  0.8900327E-005  0.9118800E+02  0.7818608E-02  0.1130116E+00
         25   -1    0    0    0    0  0.00000000000E+00  0.00000000000E+00  0.99999998245E-14  0.12500000000E+03  0.12500000000E+03 0.  0.
        -11    1    3    3    0    0 -0.41101054968E+02  0.38831414286E+02 -0.42472785379E+01  0.56702864391E+02  0.51100000000E-03 0.  1.
         23    2    1    0    0    0 -0.41822309276E+01  0.28275054670E+02 -0.80938326742E+01  0.95293436761E+02  0.90544791072E+02 0.  0.
         11    1    3    3    0    0  0.36918824040E+02 -0.10556359616E+02 -0.38465541363E+01  0.38590572370E+02  0.51100000000E-03 0. -1.
         22    1    1    0    0    0  0.41822309276E+01 -0.28275054670E+02  0.80938326742E+01  0.29706563239E+02  0.00000000000E+00 0.  1.
</event>
<event>
 5    1  0.8900327E-005  0.9118800E+02  0.7818608E-02  0.1130116E+00
         25   -1    0    0    0    0  0.00000000000E+00  0.00000000000E+00  0.99999998245E-14  0.12500000000E+03  0.12500000000E+03 0.  0.
        -11    1    3    3    0    0 -0.17096240541E+02  0.85457571236E+00 -0.22897301775E+02  0.28588427189E+02  0.51100000000E-03 0. -1.
         23    2    1    0    0    0  0.32370601962E+02 -0.67841829707E+01  0.12229514388E+02  0.89737526573E+02  0.82518977474E+02 0.  0.
         11    1    3    3    0    0  0.49466842504E+02 -0.76387586831E+01  0.35126816163E+02  0.61149099385E+02  0.51100000000E-03 0.  1.
         22    1    1    0    0    0 -0.32370601962E+02  0.67841829707E+01 -0.12229514388E+02  0.35262473427E+02  0.00000000000E+00 0.  1.
</event>
<event>
 5    1  0.8900327E-005  0.9118800E+02  0.7818608E-02  0.1130116E+00
         25   -1    0    0    0    0  0.00000000000E+00  0.00000000000E+00  0.99999998245E-14  0.12500000000E+03  0.12500000000E+03 0.  0.
        -11    1    3    3    0    0  0.78050555322E+01  0.43728815435E+02 -0.16897166728E+01  0.44452034080E+02  0.51100000000E-03 0. -1.
         23    2    1    0    0    0  0.14222322099E+02 -0.14189953287E+02 -0.86247331658E+01  0.10313644031E+03  0.10079241081E+03 0.  0.
         11    1    3    3    0    0  0.64172665664E+01 -0.57918768722E+02 -0.69350164930E+01  0.58684406229E+02  0.51100000000E-03 0.  1.
         22    1    1    0    0    0 -0.14222322099E+02  0.14189953287E+02  0.86247331658E+01  0.21863559691E+02  0.00000000000E+00 0.  1.
</event>
<event>
 5    1  0.8900327E-005  0.9118800E+02  0.7818608E-02  0.1130116E+00
         25   -1    0    0    0    0  0.00000000000E+00  0.00000000000E+00  0.99999998245E-14  0.12500000000E+03  0.12500000000E+03 0.  0.
        -11    1    3    3    0    0 -0.29492420763E+02 -0.92091626823E+01  0.34673758531E+02  0.46442233911E+02  0.51100000000E-03 0.  1.
         23    2    1    0    0    0  0.17414292907E+02 -0.30145974686E+01  0.24421845805E+02  0.94854155380E+02  0.89936304377E+02 0.  0.
         11    1    3    3    0    0  0.46906713670E+02  0.61945652137E+01 -0.10251912726E+02  0.48411921469E+02  0.51100000000E-03 0. -1.
         22    1    1    0    0    0 -0.17414292907E+02  0.30145974686E+01 -0.24421845805E+02  0.30145844620E+02  0.00000000000E+00 0.  1.
</event>
<event>
 5    1  0.8900327E-005  0.9118800E+02  0.7818608E-02  0.1130116E+00
         25   -1    0    0    0    0  0.00000000000E+00  0.00000000000E+00  0.99999998245E-14  0.12500000000E+03  0.12500000000E+03 0.  0.
        -11    1    3    3    0    0 -0.23730548719E+02  0.15584014063E+01  0.21475010440E+02  0.32042840559E+02  0.51100000000E-03 0.  1.
         23    2    1    0    0    0  0.19445223158E+02 -0.13161726477E+02  0.37807213153E+02  0.80494572084E+02  0.67071924239E+02 0.  0.
         11    1    3    3    0    0  0.43175771877E+02 -0.14720127883E+02  0.16332202714E+02  0.48451731525E+02  0.51100000000E-03 0. -1.
         22    1    1    0    0    0 -0.19445223158E+02  0.13161726477E+02 -0.37807213153E+02  0.44505427916E+02  0.00000000000E+00 0. -1.
</event>
<event>
 5    1  0.8900327E-005  0.9118800E+02  0.7818608E-02  0.1130116E+00
         25   -1    0    0    0    0  0.00000000000E+00  0.00000000000E+00  0.99999998245E-14  0.12500000000E+03  0.12500000000E+03 0.  0.
        -11    1    3    3    0    0 -0.48422727707E+01 -0.40203358111E+02  0.21691926250E+02  0.45937972024E+02  0.51100000000E-03 0.  1.
         23    2    1    0    0    0  0.28834820340E+02 -0.20732820802E+02  0.22820217441E+01  0.89412019646E+02  0.82024416557E+02 0.  0.
         11    1    3    3    0    0  0.33677093110E+02  0.19470537309E+02 -0.19409904506E+02  0.43474047622E+02  0.51100000000E-03 0. -1.
         22    1    1    0    0    0 -0.28834820340E+02  0.20732820802E+02 -0.22820217441E+01  0.35587980354E+02  0.00000000000E+00 0. -1.
</event>
<event>
 5    1  0.8900327E-005  0.9118800E+02  0.7818608E-02  0.1130116E+00
         25   -1    0    0    0    0  0.00000000000E+00  0.00000000000E+00  0.99999998245E-14  0.12500000000E+03  0.12500000000E+03 0.  0.
        -11    1    3    3    0    0 -0.41769047539E+02  0.23587896119E+02 -0.23683488145E+01  0.48027609268E+02  0.51100000000E-03 0. -1.
         23    2    1    0    0    0 -0.12170318368E+02 -0.52520664153E+01  0.24376435418E+02  0.97252721674E+02  0.93210409390E+02 0.  0.
         11    1    3    3    0    0  0.29598729171E+02 -0.28839962534E+02  0.26744784232E+02  0.49225112406E+02  0.51100000000E-03 0.  1.
         22    1    1    0    0    0  0.12170318368E+02  0.52520664153E+01 -0.24376435418E+02  0.27747278326E+02  0.00000000000E+00 0.  1.
</event>
<event>
 5    1  0.8900327E-005  0.9118800E+02  0.7818608E-02  0.1130116E+00
         25   -1    0    0    0    0  0.00000000000E+00  0.00000000000E+00  0.99999998245E-14  0.12500000000E+03  0.12500000000E+03 0.  0.
        -11    1    3    3    0    0  0.26976018280E+02 -0.83678736392E+00 -0.27513399056E+02  0.38540795311E+02  0.51100000000E-03 0. -1.
         23    2    1    0    0    0 -0.10326350283E+02  0.26795328327E+02  0.58317202799E+01  0.95697575327E+02  0.91101008950E+02 0.  0.
         11    1    3    3    0    0 -0.37302368563E+02  0.27632115691E+02  0.33345119336E+02  0.57156780016E+02  0.51100000000E-03 0.  1.
         22    1    1    0    0    0  0.10326350283E+02 -0.26795328327E+02 -0.58317202799E+01  0.29302424673E+02  0.00000000000E+00 0.  1.
</event>
<event>
 5    1  0.8900327E-005  0.9118800E+02  0.7818608E-02  0.1130116E+00
         25   -1    0    0    0    0  0.00000000000E+00  0.00000000000E+00  0.99999998245E-14  0.12500000000E+03  0.12500000000E+03 0.  0.
        -11    1    3    3    0    0 -0.34190852521E+01 -0.90292972185E+01  0.40923299738E+02  0.42046816930E+02  0.51100000000E-03 0.  1.
         23    2    1    0    0    0  0.27881813506E+02  0.14430118433E+02  0.95661131561E+01  0.92180274783E+02  0.86139820617E+02 0.  0.
         11    1    3    3    0    0  0.31300898758E+02  0.23459415651E+02 -0.31357186582E+02  0.50133457854E+02  0.51100000000E-03 0. -1.
         22    1    1    0    0    0 -0.27881813506E+02 -0.14430118433E+02 -0.95661131561E+01  0.32819725217E+02  0.00000000000E+00 0. -1.
</event>
<event>
 5    1  0.8900327E-005  0.9118800E+02  0.7818608E-02  0.1130116E+00
         25   -1    0    0    0    0  0.00000000000E+00  0.00000000000E+00  0.99999998245E-14  0.12500000000E+03  0.12500000000E+03 0.  0.
        -11    1    3    3    0    0  0.19678674798E+02  0.22554473440E+02 -0.38610906292E+02  0.48854442980E+02  0.51100000000E-03 0.  1.
         23    2    1    0    0    0  0.12777674521E+02 -0.19083888741E+02 -0.17975479257E+02  0.95835267357E+02  0.91289741150E+02 0.  0.
         11    1    3    3    0    0 -0.69010002770E+01 -0.41638362181E+02  0.20635427034E+02  0.46980824377E+02  0.51100000000E-03 0. -1.
         22    1    1    0    0    0 -0.12777674521E+02  0.19083888741E+02  0.17975479257E+02  0.29164732643E+02  0.00000000000E+00 0.  1.
</event>
<event>
 5    1  0.8900327E-005  0.9118800E+02  0.7818608E-02  0.1130116E+00
         25   -1    0    0    0    0  0.00000000000E+00  0.00000000000E+00  0.99999998245E-14  0.12500000000E+03  0.12500000000E+03 0.  0.
        -11    1    3    3    0    0  0.22486219234E+02  0.49248607050E+01 -0.54842197111E+02  0.59477314101E+02  0.51100000000E-03 0.  1.
         23    2    1    0    0    0  0.46089971539E+01 -0.10328617523E+02 -0.25750690377E+02  0.96874900007E+02  0.92702346258E+02 0.  0.
         11    1    3    3    0    0 -0.17877222080E+02 -0.15253478228E+02  0.29091506734E+02  0.37397585907E+02  0.51100000000E-03 0. -1.
         22    1    1    0    0    0 -0.46089971539E+01  0.10328617523E+02  0.25750690377E+02  0.28125099993E+02  0.00000000000E+00 0.  1.
</event>
<event>
 5    1  0.8900327E-005  0.9118800E+02  0.7818608E-02  0.1130116E+00
         25   -1    0    0    0    0  0.00000000000E+00  0.00000000000E+00  0.99999998245E-14  0.12500000000E+03  0.12500000000E+03 0.  0.
        -11    1    3    3    0    0 -0.13676755886E+02 -0.33789914037E+02  0.28041730203E+01  0.36560570685E+02  0.51100000000E-03 0.  1.
         23    2    1    0    0    0 -0.19746747719E+01  0.24262241894E+02 -0.12371748493E+02  0.97694032100E+02  0.93800362606E+02 0.  0.
         11    1    3    3    0    0  0.11702081114E+02  0.58052155931E+02 -0.15175921513E+02  0.61133461416E+02  0.51100000000E-03 0. -1.
         22    1    1    0    0    0  0.19746747719E+01 -0.24262241894E+02  0.12371748493E+02  0.27305967900E+02  0.00000000000E+00 0. -1.
</event>
<event>
 5    1  0.8900327E-005  0.9118800E+02  0.7818608E-02  0.1130116E+00
         25   -1    0    0    0    0  0.00000000000E+00  0.00000000000E+00  0.99999998245E-14  0.12500000000E+03  0.12500000000E+03 0.  0.
        -11    1    3    3    0    0 -0.33581769429E+02  0.42672480203E+01  0.23524126650E+02  0.41222920548E+02  0.51100000000E-03 0.  1.
         23    2    1    0    0    0  0.66998876739E+01  0.28322762053E+02 -0.40057498697E+01  0.95621208718E+02  0.90996165741E+02 0.  0.
         11    1    3    3    0    0  0.40281657102E+02  0.24055514033E+02 -0.27529876520E+02  0.54398288170E+02  0.51100000000E-03 0. -1.
         22    1    1    0    0    0 -0.66998876739E+01 -0.28322762053E+02  0.40057498697E+01  0.29378791282E+02  0.00000000000E+00 0. -1.
</event>
<event>
 5    1  0.8900327E-005  0.9118800E+02  0.7818608E-02  0.1130116E+00
         25   -1    0    0    0    0  0.00000000000E+00  0.00000000000E+00  0.99999998245E-14  0.12500000000E+03  0.12500000000E+03 0.  0.
        -11    1    3    3    0    0 -0.21112178688E+02  0.23050028454E+02 -0.16110727617E+02  0.35165088444E+02  0.51100000000E-03 0. -1.
         23    2    1    0    0    0  0.28522027317E+02 -0.47846285230E+01  0.45858215348E+01  0.95718120423E+02  0.91129194586E+02 0.  0.
         11    1    3    3    0    0  0.49634206005E+02 -0.27834656977E+02  0.20696549152E+02  0.60553031979E+02  0.51100000000E-03 0.  1.
         22    1    1    0    0    0 -0.28522027317E+02  0.47846285230E+01 -0.45858215348E+01  0.29281879577E+02  0.00000000000E+00 0.  1.
</event>
<event>
 5    1  0.8900327E-005  0.9118800E+02  0.7818608E-02  0.1130116E+00
         25   -1    0    0    0    0  0.00000000000E+00  0.00000000000E+00  0.99999998245E-14  0.12500000000E+03  0.12500000000E+03 0.  0.
        -11    1    3    3    0    0  0.22350523952E+02 -0.19313173041E+02  0.24293186878E+02  0.38245306938E+02  0.51100000000E-03 0. -1.
         23    2    1    0    0    0 -0.17070297455E+02  0.19462660063E+02 -0.10915430330E+01  0.99088966479E+02  0.95641212977E+02 0.  0.
         11    1    3    3    0    0 -0.39420821407E+02  0.38775833104E+02 -0.25384729911E+02  0.60843659540E+02  0.51100000000E-03 0.  1.
         22    1    1    0    0    0  0.17070297455E+02 -0.19462660063E+02  0.10915430330E+01  0.25911033521E+02  0.00000000000E+00 0.  1.
</event>
<event>
 5    1  0.8900327E-005  0.9118800E+02  0.7818608E-02  0.1130116E+00
         25   -1    0    0    0    0  0.00000000000E+00  0.00000000000E+00  0.99999998245E-14  0.12500000000E+03  0.12500000000E+03 0.  0.
        -11    1    3    3    0    0 -0.18097368998E+02  0.29196025804E+02  0.21036178004E+02  0.40279566441E+02  0.51100000000E-03 0. -1.
         23    2    1    0    0    0  0.14328037432E+02 -0.13920767652E+02  0.23340780186E+02  0.94277492805E+02  0.89131213395E+02 0.  0.
         11    1    3    3    0    0  0.32425406430E+02 -0.43116793456E+02  0.23046021824E+01  0.53997926363E+02  0.51100000000E-03 0.  1.
         22    1    1    0    0    0 -0.14328037432E+02  0.13920767652E+02 -0.23340780186E+02  0.30722507195E+02  0.00000000000E+00 0.  1.
</event>
<event>
 5    1  0.8900327E-005  0.9118800E+02  0.7818608E-02  0.1130116E+00
         25   -1    0    0    0    0  0.00000000000E+00  0.00000000000E+00  0.99999998245E-14  0.12500000000E+03  0.12500000000E+03 0.  0.
        -11    1    3    3    0    0 -0.92190079301E+01  0.54137927889E+00  0.36117752741E+02  0.37279689673E+02  0.51100000000E-03 0.  1.
         23    2    1    0    0    0  0.16776189591E+02  0.28540631972E+02 -0.27484944473E+01  0.91780089821E+02  0.85557129775E+02 0.  0.
         11    1    3    3    0    0  0.25995197521E+02  0.27999252693E+02 -0.38866247189E+02  0.54500400148E+02  0.51100000000E-03 0. -1.
         22    1    1    0    0    0 -0.16776189591E+02 -0.28540631972E+02  0.27484944473E+01  0.33219910179E+02  0.00000000000E+00 0. -1.
</event>
<event>
 5    1  0.8900327E-005  0.9118800E+02  0.7818608E-02  0.1130116E+00
         25   -1    0    0    0    0  0.00000000000E+00  0.00000000000E+00  0.99999998245E-14  0.12500000000E+03  0.12500000000E+03 0.  0.
        -11    1    3    3    0    0 -0.16723666301E+02 -0.30167675555E+02 -0.78513124345E+01  0.35375313004E+02  0.51100000000E-03 0.  1.
         23    2    1    0    0    0  0.21359959256E+02  0.16296316761E+02 -0.11957267163E+02  0.95592619338E+02  0.90956884481E+02 0.  0.
         11    1    3    3    0    0  0.38083625557E+02  0.46463992316E+02 -0.41059547288E+01  0.60217306333E+02  0.51100000000E-03 0. -1.
         22    1    1    0    0    0 -0.21359959256E+02 -0.16296316761E+02  0.11957267163E+02  0.29407380662E+02  0.00000000000E+00 0. -1.
</event>
<event>
 5    1  0.8900327E-005  0.9118800E+02  0.7818608E-02  0.1130116E+00
         25   -1    0    0    0    0  0.00000000000E+00  0.00000000000E+00  0.99999998245E-14  0.12500000000E+03  0.12500000000E+03 0.  0.
        -11    1    3    3    0    0 -0.47027263822E-01  0.47369530514E+02 -0.32387687629E+02  0.57383246187E+02  0.51100000000E-03 0.  1.
         23    2    1    0    0    0 -0.53078178803E+01  0.10229273413E+02 -0.27464092249E+02  0.95215988715E+02  0.90437808348E+02 0.  0.
         11    1    3    3    0    0 -0.52607906165E+01 -0.37140257101E+02  0.49235953808E+01  0.37832742528E+02  0.51100000000E-03 0. -1.
         22    1    1    0    0    0  0.53078178803E+01 -0.10229273413E+02  0.27464092249E+02  0.29784011285E+02  0.00000000000E+00 0.  1.
</event>
<event>
 5    1  0.8900327E-005  0.9118800E+02  0.7818608E-02  0.1130116E+00
         25   -1    0    0    0    0  0.00000000000E+00  0.00000000000E+00  0.99999998245E-14  0.12500000000E+03  0.12500000000E+03 0.  0.
        -11    1    3    3    0    0 -0.52314476165E+02 -0.16684212156E+02  0.13180635857E+02  0.56470315331E+02  0.51100000000E-03 0.  1.
         23    2    1    0    0    0 -0.14232930550E+02 -0.21835765026E+02  0.14973177322E+02  0.94940509228E+02  0.90056245242E+02 0.  0.
         11    1    3    3    0    0  0.38081545615E+02 -0.51515528696E+01  0.17925414650E+01  0.38470193898E+02  0.51100000000E-03 0. -1.
         22    1    1    0    0    0  0.14232930550E+02  0.21835765026E+02 -0.14973177322E+02  0.30059490772E+02  0.00000000000E+00 0.  1.
</event>
<event>
 5    1  0.8900327E-005  0.9118800E+02  0.7818608E-02  0.1130116E+00
         25   -1    0    0    0    0  0.00000000000E+00  0.00000000000E+00  0.99999998245E-14  0.12500000000E+03  0.12500000000E+03 0.  0.
        -11    1    3    3    0    0 -0.35149819167E+02  0.72952073216E+01  0.10962588252E+02  0.37535425651E+02  0.51100000000E-03 0.  1.
         23    2    1    0    0    0  0.14391796363E+02  0.23098500287E+02 -0.13055604226E+02  0.94815346287E+02  0.89882348499E+02 0.  0.
         11    1    3    3    0    0  0.49541615530E+02  0.15803292966E+02 -0.24018192478E+02  0.57279920636E+02  0.51100000000E-03 0. -1.
         22    1    1    0    0    0 -0.14391796363E+02 -0.23098500287E+02  0.13055604226E+02  0.30184653713E+02  0.00000000000E+00 0. -1.
</event>
<event>
 5    1  0.8900327E-005  0.9118800E+02  0.7818608E-02  0.1130116E+00
         25   -1    0    0    0    0  0.00000000000E+00  0.00000000000E+00  0.99999998245E-14  0.12500000000E+03  0.12500000000E+03 0.  0.
        -11    1    3    3    0    0 -0.27701504010E+02 -0.50476572148E+02  0.15225328075E+02  0.59557268872E+02  0.51100000000E-03 0.  1.
         23    2    1    0    0    0 -0.24922551207E+02 -0.23105681371E+02  0.16750031749E+02  0.87111088246E+02  0.78439607735E+02 0.  0.
         11    1    3    3    0    0  0.27789528030E+01  0.27370890776E+02  0.15247036734E+01  0.27553819374E+02  0.51100000000E-03 0. -1.
         22    1    1    0    0    0  0.24922551207E+02  0.23105681371E+02 -0.16750031749E+02  0.37888911754E+02  0.00000000000E+00 0.  1.
</event>
<event>
 5    1  0.8900327E-005  0.9118800E+02  0.7818608E-02  0.1130116E+00
         25   -1    0    0    0    0  0.00000000000E+00  0.00000000000E+00  0.99999998245E-14  0.12500000000E+03  0.12500000000E+03 0.  0.
        -11    1    3    3    0    0  0.34549948275E+02 -0.40519632821E+01  0.11401543855E+02  0.36607547511E+02  0.51100000000E-03 0.  1.
         23    2    1    0    0    0 -0.12318855346E+02 -0.11068761682E+02 -0.24055611070E+02  0.95794793167E+02  0.91234304358E+02 0.  0.
         11    1    3    3    0    0 -0.46868803621E+02 -0.70167984002E+01 -0.35457154925E+02  0.59187245656E+02  0.51100000000E-03 0. -1.
         22    1    1    0    0    0  0.12318855346E+02  0.11068761682E+02  0.24055611070E+02  0.29205206833E+02  0.00000000000E+00 0. -1.
</event>
<event>
 5    1  0.8900327E-005  0.9118800E+02  0.7818608E-02  0.1130116E+00
         25   -1    0    0    0    0  0.00000000000E+00  0.00000000000E+00  0.99999998245E-14  0.12500000000E+03  0.12500000000E+03 0.  0.
        -11    1    3    3    0    0  0.39943407917E+02 -0.23363094557E+02  0.32788112819E+02  0.56713052870E+02  0.51100000000E-03 0.  1.
         23    2    1    0    0    0  0.28757763391E+02 -0.25443715918E+00  0.29283613336E+01  0.96092405953E+02  0.91641156083E+02 0.  0.
         11    1    3    3    0    0 -0.11185644526E+02  0.23108657397E+02 -0.29859751486E+02  0.39379353083E+02  0.51100000000E-03 0. -1.
         22    1    1    0    0    0 -0.28757763391E+02  0.25443715918E+00 -0.29283613336E+01  0.28907594047E+02  0.00000000000E+00 0. -1.
</event>
<event>
 5    1  0.8900327E-005  0.9118800E+02  0.7818608E-02  0.1130116E+00
         25   -1    0    0    0    0  0.00000000000E+00  0.00000000000E+00  0.99999998245E-14  0.12500000000E+03  0.12500000000E+03 0.  0.
        -11    1    3    3    0    0  0.44326390410E+02  0.39144036324E+02  0.17044393786E+02  0.61543446656E+02  0.51100000000E-03 0.  1.
         23    2    1    0    0    0  0.18091419871E+02  0.22410911786E+02  0.19394778663E+01  0.96132890438E+02  0.91696360940E+02 0.  0.
         11    1    3    3    0    0 -0.26234970539E+02 -0.16733124538E+02 -0.15104915919E+02  0.34589443782E+02  0.51100000000E-03 0. -1.
         22    1    1    0    0    0 -0.18091419871E+02 -0.22410911786E+02 -0.19394778663E+01  0.28867109562E+02  0.00000000000E+00 0.  1.
</event>
<event>
 5    1  0.8900327E-005  0.9118800E+02  0.7818608E-02  0.1130116E+00
         25   -1    0    0    0    0  0.00000000000E+00  0.00000000000E+00  0.99999998245E-14  0.12500000000E+03  0.12500000000E+03 0.  0.
        -11    1    3    3    0    0  0.31910803410E+02 -0.26631336036E+02  0.38780174712E+02  0.56845662845E+02  0.51100000000E-03 0.  1.
         23    2    1    0    0    0  0.22387937242E+02  0.37945065495E+01  0.23914429741E+02  0.92022462740E+02  0.85910509747E+02 0.  0.
         11    1    3    3    0    0 -0.95228661681E+01  0.30425842585E+02 -0.14865744971E+02  0.35176799895E+02  0.51100000000E-03 0. -1.
         22    1    1    0    0    0 -0.22387937242E+02 -0.37945065495E+01 -0.23914429741E+02  0.32977537260E+02  0.00000000000E+00 0.  1.
</event>
<event>
 5    1  0.8900327E-005  0.9118800E+02  0.7818608E-02  0.1130116E+00
         25   -1    0    0    0    0  0.00000000000E+00  0.00000000000E+00  0.99999998245E-14  0.12500000000E+03  0.12500000000E+03 0.  0.
        -11    1    3    3    0    0 -0.34149291356E+02  0.40204679218E+01  0.41986395727E+02  0.54269657165E+02  0.51100000000E-03 0.  1.
         23    2    1    0    0    0 -0.27795465966E+02  0.21779016293E+01 -0.34732380557E+00  0.97117177015E+02  0.93028459376E+02 0.  0.
         11    1    3    3    0    0  0.63538253900E+01 -0.18425662925E+01 -0.42333719532E+02  0.42847519850E+02  0.51100000000E-03 0. -1.
         22    1    1    0    0    0  0.27795465966E+02 -0.21779016293E+01  0.34732380557E+00  0.27882822985E+02  0.00000000000E+00 0.  1.
</event>
<event>
 5    1  0.8900327E-005  0.9118800E+02  0.7818608E-02  0.1130116E+00
         25   -1    0    0    0    0  0.00000000000E+00  0.00000000000E+00  0.99999998245E-14  0.12500000000E+03  0.12500000000E+03 0.  0.
        -11    1    3    3    0    0 -0.23254243830E+02  0.51250450685E+02 -0.78882294492E+01  0.56829505678E+02  0.51100000000E-03 0.  1.
         23    2    1    0    0    0 -0.25732529717E+02  0.12346361767E+02 -0.58487569452E+01  0.95865764257E+02  0.91331489993E+02 0.  0.
         11    1    3    3    0    0 -0.24782858868E+01 -0.38904088918E+02  0.20394725040E+01  0.39036258579E+02  0.51100000000E-03 0. -1.
         22    1    1    0    0    0  0.25732529717E+02 -0.12346361767E+02  0.58487569452E+01  0.29134235743E+02  0.00000000000E+00 0.  1.
</event>
<event>
 5    1  0.8900327E-005  0.9118800E+02  0.7818608E-02  0.1130116E+00
         25   -1    0    0    0    0  0.00000000000E+00  0.00000000000E+00  0.99999998245E-14  0.12500000000E+03  0.12500000000E+03 0.  0.
        -11    1    3    3    0    0  0.35635883166E+02  0.13243067835E+02 -0.15568157561E+02  0.41081170197E+02  0.51100000000E-03 0.  1.
         23    2    1    0    0    0  0.79136111482E+01 -0.22730297728E+02  0.15738999661E+02  0.96242256929E+02  0.91845327764E+02 0.  0.
         11    1    3    3    0    0 -0.27722272018E+02 -0.35973365563E+02  0.31307157223E+02  0.55161086731E+02  0.51100000000E-03 0. -1.
         22    1    1    0    0    0 -0.79136111482E+01  0.22730297728E+02 -0.15738999661E+02  0.28757743071E+02  0.00000000000E+00 0. -1.
</event>
<event>
 5    1  0.8900327E-005  0.9118800E+02  0.7818608E-02  0.1130116E+00
         25   -1    0    0    0    0  0.00000000000E+00  0.00000000000E+00  0.99999998245E-14  0.12500000000E+03  0.12500000000E+03 0.  0.
        -11    1    3    3    0    0 -0.39966085259E+02  0.22378324910E+02  0.38695885756E+02  0.59962062768E+02  0.51100000000E-03 0.  1.
         23    2    1    0    0    0 -0.26953396586E+02  0.11105644675E+02  0.86480846110E+01  0.94592594675E+02  0.89572030616E+02 0.  0.
         11    1    3    3    0    0  0.13012688673E+02 -0.11272680235E+02 -0.30047801145E+02  0.34630531906E+02  0.51100000000E-03 0. -1.
         22    1    1    0    0    0  0.26953396586E+02 -0.11105644675E+02 -0.86480846110E+01  0.30407405325E+02  0.00000000000E+00 0.  1.
</event>
<event>
 5    1  0.8900327E-005  0.9118800E+02  0.7818608E-02  0.1130116E+00
         25   -1    0    0    0    0  0.00000000000E+00  0.00000000000E+00  0.99999998245E-14  0.12500000000E+03  0.12500000000E+03 0.  0.
        -11    1    3    3    0    0  0.17593423246E+02  0.11682706832E+01  0.59702450215E+02  0.62251714514E+02  0.51100000000E-03 0.  1.
         23    2    1    0    0    0  0.75452089237E+01 -0.33376284233E+01  0.27817084471E+02  0.95985173968E+02  0.91494773031E+02 0.  0.
         11    1    3    3    0    0 -0.10048214323E+02 -0.45058991065E+01 -0.31885365744E+02  0.33733459454E+02  0.51100000000E-03 0. -1.
         22    1    1    0    0    0 -0.75452089237E+01  0.33376284233E+01 -0.27817084471E+02  0.29014826032E+02  0.00000000000E+00 0.  1.
</event>
<event>
 5    1  0.8900327E-005  0.9118800E+02  0.7818608E-02  0.1130116E+00
         25   -1    0    0    0    0  0.00000000000E+00  0.00000000000E+00  0.99999998245E-14  0.12500000000E+03  0.12500000000E+03 0.  0.
        -11    1    3    3    0    0  0.15298834014E+00 -0.26499467197E+02  0.47663646494E+02  0.54535019616E+02  0.51100000000E-03 0.  1.
         23    2    1    0    0    0  0.15510961774E+02 -0.22455958457E+02  0.91165358250E+01  0.96225510763E+02  0.91822533677E+02 0.  0.
         11    1    3    3    0    0  0.15357973434E+02  0.40435087402E+01 -0.38547110669E+02  0.41690491147E+02  0.51100000000E-03 0. -1.
         22    1    1    0    0    0 -0.15510961774E+02  0.22455958457E+02 -0.91165358250E+01  0.28774489237E+02  0.00000000000E+00 0.  1.
</event>
<event>
 5    1  0.8900327E-005  0.9118800E+02  0.7818608E-02  0.1130116E+00
         25   -1    0    0    0    0  0.00000000000E+00  0.00000000000E+00  0.99999998245E-14  0.12500000000E+03  0.12500000000E+03 0.  0.
        -11    1    3    3    0    0  0.17496856747E+02 -0.55349566524E+00 -0.32681302423E+02  0.37074437040E+02  0.51100000000E-03 0. -1.
         23    2    1    0    0    0 -0.29954475696E+02  0.11975245710E+01  0.52481048699E+00  0.95017003063E+02  0.90162357809E+02 0.  0.
         11    1    3    3    0    0 -0.47451332443E+02  0.17510202362E+01  0.33206112910E+02  0.57942566023E+02  0.51100000000E-03 0.  1.
         22    1    1    0    0    0  0.29954475696E+02 -0.11975245710E+01 -0.52481048699E+00  0.29982996937E+02  0.00000000000E+00 0.  1.
</event>
<event>
 5    1  0.8900327E-005  0.9118800E+02  0.7818608E-02  0.1130116E+00
         25   -1    0    0    0    0  0.00000000000E+00  0.00000000000E+00  0.99999998245E-14  0.12500000000E+03  0.12500000000E+03 0.  0.
        -11    1    3    3    0    0 -0.24623220545E+02 -0.91527210489E+01  0.26614832178E+02  0.37395515570E+02  0.51100000000E-03 0.  1.
         23    2    1    0    0    0  0.28550461684E+02 -0.65908311188E+01  0.15770713668E+02  0.91724132967E+02  0.85475337038E+02 0.  0.
         11    1    3    3    0    0  0.53173682229E+02  0.25618899301E+01 -0.10844118510E+02  0.54328617397E+02  0.51100000000E-03 0. -1.
         22    1    1    0    0    0 -0.28550461684E+02  0.65908311188E+01 -0.15770713668E+02  0.33275867033E+02  0.00000000000E+00 0. -1.
</event>
<event>
 5    1  0.8900327E-005  0.9118800E+02  0.7818608E-02  0.1130116E+00
         25   -1    0    0    0    0  0.00000000000E+00  0.00000000000E+00  0.99999998245E-14  0.12500000000E+03  0.12500000000E+03 0.  0.
        -11    1    3    3    0    0 -0.13287794494E+02 -0.25540076047E+02 -0.25564783886E+02  0.38502196592E+02  0.51100000000E-03 0. -1.
         23    2    1    0    0    0 -0.24498155445E+02  0.13313225928E+02  0.12869306745E+02  0.94291358531E+02  0.89150656939E+02 0.  0.
         11    1    3    3    0    0 -0.11210360951E+02  0.38853301975E+02  0.38434090630E+02  0.55789161939E+02  0.51100000000E-03 0.  1.
         22    1    1    0    0    0  0.24498155445E+02 -0.13313225928E+02 -0.12869306745E+02  0.30708641469E+02  0.00000000000E+00 0.  1.
</event>
<event>
 5    1  0.8900327E-005  0.9118800E+02  0.7818608E-02  0.1130116E+00
         25   -1    0    0    0    0  0.00000000000E+00  0.00000000000E+00  0.99999998245E-14  0.12500000000E+03  0.12500000000E+03 0.  0.
        -11    1    3    3    0    0  0.35776933166E+02 -0.19688920684E+02  0.17652294617E+02  0.44488718232E+02  0.51100000000E-03 0. -1.
         23    2    1    0    0    0 -0.15132255498E+02 -0.23003125426E+02  0.64000625184E+01  0.96731824677E+02  0.92509222077E+02 0.  0.
         11    1    3    3    0    0 -0.50909188664E+02 -0.33142047428E+01 -0.11252232098E+02  0.52243106445E+02  0.51100000000E-03 0.  1.
         22    1    1    0    0    0  0.15132255498E+02  0.23003125426E+02 -0.64000625184E+01  0.28268175323E+02  0.00000000000E+00 0. -1.
</event>
<event>
 5    1  0.8900327E-005  0.9118800E+02  0.7818608E-02  0.1130116E+00
         25   -1    0    0    0    0  0.00000000000E+00  0.00000000000E+00  0.99999998245E-14  0.12500000000E+03  0.12500000000E+03 0.  0.
        -11    1    3    3    0    0 -0.33640653016E+02  0.16291842422E+02  0.38608633195E+02  0.53737735553E+02  0.51100000000E-03 0.  1.
         23    2    1    0    0    0 -0.75654931464E+01 -0.14154826427E+02  0.23426733339E+02  0.96602682651E+02  0.92334558334E+02 0.  0.
         11    1    3    3    0    0  0.26075159870E+02 -0.30446668849E+02 -0.15181899857E+02  0.42864947098E+02  0.51100000000E-03 0. -1.
         22    1    1    0    0    0  0.75654931464E+01  0.14154826427E+02 -0.23426733339E+02  0.28397317349E+02  0.00000000000E+00 0.  1.
</event>
<event>
 5    1  0.8900327E-005  0.9118800E+02  0.7818608E-02  0.1130116E+00
         25   -1    0    0    0    0  0.00000000000E+00  0.00000000000E+00  0.99999998245E-14  0.12500000000E+03  0.12500000000E+03 0.  0.
        -11    1    3    3    0    0 -0.11019938794E+02  0.56895433897E+02  0.12024627729E+02  0.59187170245E+02  0.51100000000E-03 0.  1.
         23    2    1    0    0    0 -0.18431023553E+02  0.21461254634E+02  0.79381800757E+01  0.95617985389E+02  0.90991737797E+02 0.  0.
         11    1    3    3    0    0 -0.74110847590E+01 -0.35434179263E+02 -0.40864476535E+01  0.36430815144E+02  0.51100000000E-03 0. -1.
         22    1    1    0    0    0  0.18431023553E+02 -0.21461254634E+02 -0.79381800757E+01  0.29382014611E+02  0.00000000000E+00 0.  1.
</event>
<event>
 5    1  0.8900327E-005  0.9118800E+02  0.7818608E-02  0.1130116E+00
         25   -1    0    0    0    0  0.00000000000E+00  0.00000000000E+00  0.99999998245E-14  0.12500000000E+03  0.12500000000E+03 0.  0.
        -11    1    3    3    0    0  0.35174142560E+02  0.18562815796E+02 -0.23703289865E+02  0.46299507404E+02  0.51100000000E-03 0.  1.
         23    2    1    0    0    0  0.16002509732E+02 -0.23556482217E+02 -0.56884206331E+01  0.95959574703E+02  0.91459792672E+02 0.  0.
         11    1    3    3    0    0 -0.19171632829E+02 -0.42119298013E+02  0.18014869232E+02  0.49660067299E+02  0.51100000000E-03 0. -1.
         22    1    1    0    0    0 -0.16002509732E+02  0.23556482217E+02  0.56884206331E+01  0.29040425297E+02  0.00000000000E+00 0.  1.
</event>
<event>
 5    1  0.8900327E-005  0.9118800E+02  0.7818608E-02  0.1130116E+00
         25   -1    0    0    0    0  0.00000000000E+00  0.00000000000E+00  0.99999998245E-14  0.12500000000E+03  0.12500000000E+03 0.  0.
        -11    1    3    3    0    0  0.13875624373E+02  0.14816278804E+02 -0.36558126980E+02  0.41815687462E+02  0.51100000000E-03 0.  1.
         23    2    1    0    0    0 -0.96708642551E+01 -0.17040611162E+02  0.10045795101E+02  0.10298123429E+03  0.10059974439E+03 0.  0.
         11    1    3    3    0    0 -0.23546488628E+02 -0.31856889967E+02  0.46603922081E+02  0.61165546827E+02  0.51100000000E-03 0. -1.
         22    1    1    0    0    0  0.96708642551E+01  0.17040611162E+02 -0.10045795101E+02  0.22018765711E+02  0.00000000000E+00 0. -1.
</event>
<event>
 5    1  0.8900327E-005  0.9118800E+02  0.7818608E-02  0.1130116E+00
         25   -1    0    0    0    0  0.00000000000E+00  0.00000000000E+00  0.99999998245E-14  0.12500000000E+03  0.12500000000E+03 0.  0.
        -11    1    3    3    0    0 -0.41985035444E+02 -0.25794169624E+02 -0.11669583800E+02  0.50638538429E+02  0.51100000000E-03 0.  1.
         23    2    1    0    0    0 -0.33260485039E+02 -0.96096160923E+01 -0.31862943099E+02  0.77948414167E+02  0.62145824813E+02 0.  0.
         11    1    3    3    0    0  0.87245504049E+01  0.16184553532E+02 -0.20193359299E+02  0.27309875738E+02  0.51100000000E-03 0. -1.
         22    1    1    0    0    0  0.33260485039E+02  0.96096160923E+01  0.31862943099E+02  0.47051585833E+02  0.00000000000E+00 0.  1.
</event>
<event>
 5    1  0.8900327E-005  0.9118800E+02  0.7818608E-02  0.1130116E+00
         25   -1    0    0    0    0  0.00000000000E+00  0.00000000000E+00  0.99999998245E-14  0.12500000000E+03  0.12500000000E+03 0.  0.
        -11    1    3    3    0    0 -0.40202997954E+02 -0.43656183110E+02 -0.16497998262E+01  0.59370575271E+02  0.51100000000E-03 0.  1.
         23    2    1    0    0    0 -0.24200802403E+02 -0.10333032192E+02 -0.92445529326E+01  0.97108923467E+02  0.93017368630E+02 0.  0.
         11    1    3    3    0    0  0.16002195551E+02  0.33323150918E+02 -0.75947531064E+01  0.37738348197E+02  0.51100000000E-03 0. -1.
         22    1    1    0    0    0  0.24200802403E+02  0.10333032192E+02  0.92445529326E+01  0.27891076533E+02  0.00000000000E+00 0.  1.
</event>
<event>
 5    1  0.8900327E-005  0.9118800E+02  0.7818608E-02  0.1130116E+00
         25   -1    0    0    0    0  0.00000000000E+00  0.00000000000E+00  0.99999998245E-14  0.12500000000E+03  0.12500000000E+03 0.  0.
        -11    1    3    3    0    0  0.62109182490E+01 -0.17501034307E+02 -0.41331363982E+02  0.45311624956E+02  0.51100000000E-03 0. -1.
         23    2    1    0    0    0 -0.14198646767E+02 -0.25707053251E+02  0.36722888861E+01  0.95403718772E+02  0.90696911155E+02 0.  0.
         11    1    3    3    0    0 -0.20409565016E+02 -0.82060189443E+01  0.45003652868E+02  0.50092093816E+02  0.51100000000E-03 0.  1.
         22    1    1    0    0    0  0.14198646767E+02  0.25707053251E+02 -0.36722888861E+01  0.29596281228E+02  0.00000000000E+00 0.  1.
</event>
<event>
 5    1  0.8900327E-005  0.9118800E+02  0.7818608E-02  0.1130116E+00
         25   -1    0    0    0    0  0.00000000000E+00  0.00000000000E+00  0.99999998245E-14  0.12500000000E+03  0.12500000000E+03 0.  0.
        -11    1    3    3    0    0 -0.18190536860E+02 -0.76819028897E+01 -0.30357770146E+02  0.36214658244E+02  0.51100000000E-03 0. -1.
         23    2    1    0    0    0  0.24959034398E+02  0.13116756546E+02  0.57797619873E+01  0.96217916181E+02  0.91812194425E+02 0.  0.
         11    1    3    3    0    0  0.43149571258E+02  0.20798659436E+02  0.36137532133E+02  0.60003257936E+02  0.51100000000E-03 0.  1.
         22    1    1    0    0    0 -0.24959034398E+02 -0.13116756546E+02 -0.57797619873E+01  0.28782083819E+02  0.00000000000E+00 0.  1.
</event>
<event>
 5    1  0.8900327E-005  0.9118800E+02  0.7818608E-02  0.1130116E+00
         25   -1    0    0    0    0  0.00000000000E+00  0.00000000000E+00  0.99999998245E-14  0.12500000000E+03  0.12500000000E+03 0.  0.
        -11    1    3    3    0    0  0.13647835274E+02  0.58640224748E+02 -0.10178347235E+02  0.61061756599E+02  0.51100000000E-03 0.  1.
         23    2    1    0    0    0 -0.24610923917E+01  0.27908792585E+02 -0.94429833318E+00  0.96966994833E+02  0.92826444014E+02 0.  0.
         11    1    3    3    0    0 -0.16108927665E+02 -0.30731432163E+02  0.92340489017E+01  0.35905238235E+02  0.51100000000E-03 0. -1.
         22    1    1    0    0    0  0.24610923917E+01 -0.27908792585E+02  0.94429833318E+00  0.28033005167E+02  0.00000000000E+00 0.  1.
</event>
<event>
 5    1  0.8900327E-005  0.9118800E+02  0.7818608E-02  0.1130116E+00
         25   -1    0    0    0    0  0.00000000000E+00  0.00000000000E+00  0.99999998245E-14  0.12500000000E+03  0.12500000000E+03 0.  0.
        -11    1    3    3    0    0  0.12100413547E+02  0.30009383767E+02  0.27788838086E+02  0.42652111842E+02  0.51100000000E-03 0.  1.
         23    2    1    0    0    0  0.21469821396E+02 -0.18358608599E+02  0.98733222926E+01  0.95075524506E+02  0.90243454757E+02 0.  0.
         11    1    3    3    0    0  0.93694078489E+01 -0.48367992366E+02 -0.17915515794E+02  0.52423412665E+02  0.51100000000E-03 0. -1.
         22    1    1    0    0    0 -0.21469821396E+02  0.18358608599E+02 -0.98733222926E+01  0.29924475494E+02  0.00000000000E+00 0. -1.
</event>
<event>
 5    1  0.8900327E-005  0.9118800E+02  0.7818608E-02  0.1130116E+00
         25   -1    0    0    0    0  0.00000000000E+00  0.00000000000E+00  0.99999998245E-14  0.12500000000E+03  0.12500000000E+03 0.  0.
        -11    1    3    3    0    0 -0.29129623381E+02 -0.11539489989E+02 -0.27472871843E+02  0.41670774832E+02  0.51100000000E-03 0. -1.
         23    2    1    0    0    0  0.12389501342E+02  0.20493304739E+02 -0.18193842964E+02  0.94925239744E+02  0.90035048376E+02 0.  0.
         11    1    3    3    0    0  0.41519124723E+02  0.32032794729E+02  0.92790288784E+01  0.53254464912E+02  0.51100000000E-03 0.  1.
         22    1    1    0    0    0 -0.12389501342E+02 -0.20493304739E+02  0.18193842964E+02  0.30074760256E+02  0.00000000000E+00 0.  1.
</event>
<event>
 5    1  0.8900327E-005  0.9118800E+02  0.7818608E-02  0.1130116E+00
         25   -1    0    0    0    0  0.00000000000E+00  0.00000000000E+00  0.99999998245E-14  0.12500000000E+03  0.12500000000E+03 0.  0.
        -11    1    3    3    0    0 -0.49156207677E+02  0.15426476891E+01 -0.27448350058E+02  0.56321616066E+02  0.51100000000E-03 0.  1.
         23    2    1    0    0    0 -0.10093878834E+02 -0.26555308984E+00 -0.27795446684E+02  0.95427313874E+02  0.90729424491E+02 0.  0.
         11    1    3    3    0    0  0.39062328843E+02 -0.18082007789E+01 -0.34709662575E+00  0.39105697808E+02  0.51100000000E-03 0. -1.
         22    1    1    0    0    0  0.10093878834E+02  0.26555308984E+00  0.27795446684E+02  0.29572686126E+02  0.00000000000E+00 0. -1.
</event>
<event>
 5    1  0.8900327E-005  0.9118800E+02  0.7818608E-02  0.1130116E+00
         25   -1    0    0    0    0  0.00000000000E+00  0.00000000000E+00  0.99999998245E-14  0.12500000000E+03  0.12500000000E+03 0.  0.
        -11    1    3    3    0    0 -0.65724084305E+01 -0.37643420410E+02 -0.26641065043E+01  0.38305627739E+02  0.51100000000E-03 0. -1.
         23    2    1    0    0    0  0.19360213756E+02  0.65556741722E+01  0.21822000293E+02  0.95100260247E+02  0.90277710769E+02 0.  0.
         11    1    3    3    0    0  0.25932622186E+02  0.44199094582E+02  0.24486106797E+02  0.56794632508E+02  0.51100000000E-03 0.  1.
         22    1    1    0    0    0 -0.19360213756E+02 -0.65556741722E+01 -0.21822000293E+02  0.29899739753E+02  0.00000000000E+00 0.  1.
</event>
<event>
 5    1  0.8900327E-005  0.9118800E+02  0.7818608E-02  0.1130116E+00
         25   -1    0    0    0    0  0.00000000000E+00  0.00000000000E+00  0.99999998245E-14  0.12500000000E+03  0.12500000000E+03 0.  0.
        -11    1    3    3    0    0  0.92439757820E+01  0.12762488394E+01  0.40746452074E+02  0.41801354717E+02  0.51100000000E-03 0. -1.
         23    2    1    0    0    0 -0.78182552133E+01 -0.27605514004E+02 -0.21170515324E+01  0.96230720809E+02  0.91829625950E+02 0.  0.
         11    1    3    3    0    0 -0.17062230995E+02 -0.28881762843E+02 -0.42863503606E+02  0.54429366091E+02  0.51100000000E-03 0.  1.
         22    1    1    0    0    0  0.78182552133E+01  0.27605514004E+02  0.21170515324E+01  0.28769279191E+02  0.00000000000E+00 0.  1.
</event>
<event>
 5    1  0.8900327E-005  0.9118800E+02  0.7818608E-02  0.1130116E+00
         25   -1    0    0    0    0  0.00000000000E+00  0.00000000000E+00  0.99999998245E-14  0.12500000000E+03  0.12500000000E+03 0.  0.
        -11    1    3    3    0    0  0.51545282888E+02 -0.25810983051E+02 -0.22036744693E+02  0.61714999400E+02  0.51100000000E-03 0.  1.
         23    2    1    0    0    0  0.22531445674E+02 -0.16942442303E+02 -0.54662273940E+01  0.96284289365E+02  0.91902515424E+02 0.  0.
         11    1    3    3    0    0 -0.29013837214E+02  0.88685407477E+01  0.16570517299E+02  0.34569289965E+02  0.51100000000E-03 0. -1.
         22    1    1    0    0    0 -0.22531445674E+02  0.16942442303E+02  0.54662273940E+01  0.28715710635E+02  0.00000000000E+00 0.  1.
</event>
<event>
 5    1  0.8900327E-005  0.9118800E+02  0.7818608E-02  0.1130116E+00
         25   -1    0    0    0    0  0.00000000000E+00  0.00000000000E+00  0.99999998245E-14  0.12500000000E+03  0.12500000000E+03 0.  0.
        -11    1    3    3    0    0  0.26736766937E+02  0.30555362707E+02  0.14187407187E+02  0.43008922555E+02  0.51100000000E-03 0. -1.
         23    2    1    0    0    0  0.22779681690E+02 -0.17810279827E+02 -0.58295700201E+01  0.95502477188E+02  0.90832919677E+02 0.  0.
         11    1    3    3    0    0 -0.39570852465E+01 -0.48365642533E+02 -0.20016977207E+02  0.52493554634E+02  0.51100000000E-03 0.  1.
         22    1    1    0    0    0 -0.22779681690E+02  0.17810279827E+02  0.58295700201E+01  0.29497522812E+02  0.00000000000E+00 0. -1.
</event>
<event>
 5    1  0.8900327E-005  0.9118800E+02  0.7818608E-02  0.1130116E+00
         25   -1    0    0    0    0  0.00000000000E+00  0.00000000000E+00  0.99999998245E-14  0.12500000000E+03  0.12500000000E+03 0.  0.
        -11    1    3    3    0    0  0.10031386653E+02 -0.51744106679E+02 -0.26005769276E+02  0.58773985148E+02  0.51100000000E-03 0. -1.
         23    2    1    0    0    0 -0.99601272972E+01 -0.24292918082E+02 -0.16313098189E+02  0.94089367894E+02  0.88866990348E+02 0.  0.
         11    1    3    3    0    0 -0.19991513950E+02  0.27451188598E+02  0.96926710875E+01  0.35315382746E+02  0.51100000000E-03 0.  1.
         22    1    1    0    0    0  0.99601272972E+01  0.24292918082E+02  0.16313098189E+02  0.30910632106E+02  0.00000000000E+00 0. -1.
</event>
<event>
 5    1  0.8900327E-005  0.9118800E+02  0.7818608E-02  0.1130116E+00
         25   -1    0    0    0    0  0.00000000000E+00  0.00000000000E+00  0.99999998245E-14  0.12500000000E+03  0.12500000000E+03 0.  0.
        -11    1    3    3    0    0  0.17022296042E+02 -0.26885350232E+02 -0.26208918731E+02  0.41224847373E+02  0.51100000000E-03 0. -1.
         23    2    1    0    0    0  0.27756727094E+02  0.15227714606E+02 -0.24930037167E+02  0.84703276259E+02  0.74503819129E+02 0.  0.
         11    1    3    3    0    0  0.10734431052E+02  0.42113064838E+02  0.12788815639E+01  0.43478428886E+02  0.51100000000E-03 0.  1.
         22    1    1    0    0    0 -0.27756727094E+02 -0.15227714606E+02  0.24930037167E+02  0.40296723741E+02  0.00000000000E+00 0.  1.
</event>
<event>
 5    1  0.8900327E-005  0.9118800E+02  0.7818608E-02  0.1130116E+00
         25   -1    0    0    0    0  0.00000000000E+00  0.00000000000E+00  0.99999998245E-14  0.12500000000E+03  0.12500000000E+03 0.  0.
        -11    1    3    3    0    0 -0.32019798823E+02  0.11179210203E+02 -0.11170156562E+02  0.35707347357E+02  0.51100000000E-03 0.  1.
         23    2    1    0    0    0  0.23077749171E+02 -0.62441028958E+01 -0.19573442077E+02  0.94101926233E+02  0.88884653109E+02 0.  0.
         11    1    3    3    0    0  0.55097547994E+02 -0.17423313099E+02 -0.84032855147E+01  0.58394578875E+02  0.51100000000E-03 0. -1.
         22    1    1    0    0    0 -0.23077749171E+02  0.62441028958E+01  0.19573442077E+02  0.30898073767E+02  0.00000000000E+00 0. -1.
</event>
<event>
 5    1  0.8900327E-005  0.9118800E+02  0.7818608E-02  0.1130116E+00
         25   -1    0    0    0    0  0.00000000000E+00  0.00000000000E+00  0.99999998245E-14  0.12500000000E+03  0.12500000000E+03 0.  0.
        -11    1    3    3    0    0 -0.13280165836E+02  0.81780896739E+00  0.41773605290E+02  0.43841369907E+02  0.51100000000E-03 0. -1.
         23    2    1    0    0    0  0.15015843508E+02 -0.21727016413E+02  0.69599302452E+00  0.98579871220E+02  0.94973511070E+02 0.  0.
         11    1    3    3    0    0  0.28296009345E+02 -0.22544825380E+02 -0.41077612266E+02  0.54738501313E+02  0.51100000000E-03 0.  1.
         22    1    1    0    0    0 -0.15015843508E+02  0.21727016413E+02 -0.69599302452E+00  0.26420128780E+02  0.00000000000E+00 0.  1.
</event>
<event>
 5    1  0.8900327E-005  0.9118800E+02  0.7818608E-02  0.1130116E+00
         25   -1    0    0    0    0  0.00000000000E+00  0.00000000000E+00  0.99999998245E-14  0.12500000000E+03  0.12500000000E+03 0.  0.
        -11    1    3    3    0    0  0.13300713566E+02  0.21818315204E+02 -0.27305964102E+02  0.37397373377E+02  0.51100000000E-03 0. -1.
         23    2    1    0    0    0 -0.18435901341E+02 -0.22084459737E+02 -0.59773185313E+01  0.95617451490E+02  0.90991004349E+02 0.  0.
         11    1    3    3    0    0 -0.31736614907E+02 -0.43902774941E+02  0.21328645571E+02  0.58220078113E+02  0.51100000000E-03 0.  1.
         22    1    1    0    0    0  0.18435901341E+02  0.22084459737E+02  0.59773185313E+01  0.29382548510E+02  0.00000000000E+00 0.  1.
</event>
<event>
 5    1  0.8900327E-005  0.9118800E+02  0.7818608E-02  0.1130116E+00
         25   -1    0    0    0    0  0.00000000000E+00  0.00000000000E+00  0.99999998245E-14  0.12500000000E+03  0.12500000000E+03 0.  0.
        -11    1    3    3    0    0 -0.66030892253E+01  0.37767707259E+02 -0.42556527605E+02  0.57280524971E+02  0.51100000000E-03 0.  1.
         23    2    1    0    0    0  0.15132466408E+01  0.29273687369E+02 -0.68121773444E+01  0.94906072909E+02  0.90008434201E+02 0.  0.
         11    1    3    3    0    0  0.81163358661E+01 -0.84940198901E+01  0.35744350261E+02  0.37625547938E+02  0.51100000000E-03 0. -1.
         22    1    1    0    0    0 -0.15132466408E+01 -0.29273687369E+02  0.68121773444E+01  0.30093927091E+02  0.00000000000E+00 0.  1.
</event>
<event>
 5    1  0.8900327E-005  0.9118800E+02  0.7818608E-02  0.1130116E+00
         25   -1    0    0    0    0  0.00000000000E+00  0.00000000000E+00  0.99999998245E-14  0.12500000000E+03  0.12500000000E+03 0.  0.
        -11    1    3    3    0    0  0.15007377023E+02  0.25955802744E+02 -0.37038571557E+02  0.47652710777E+02  0.51100000000E-03 0.  1.
         23    2    1    0    0    0  0.22639163171E+02  0.15829747324E+02  0.94223075789E+01  0.95812802644E+02  0.91258975783E+02 0.  0.
         11    1    3    3    0    0  0.76317861481E+01 -0.10126055420E+02  0.46460879136E+02  0.48160091866E+02  0.51100000000E-03 0. -1.
         22    1    1    0    0    0 -0.22639163171E+02 -0.15829747324E+02 -0.94223075789E+01  0.29187197356E+02  0.00000000000E+00 0.  1.
</event>
<event>
 5    1  0.8900327E-005  0.9118800E+02  0.7818608E-02  0.1130116E+00
         25   -1    0    0    0    0  0.00000000000E+00  0.00000000000E+00  0.99999998245E-14  0.12500000000E+03  0.12500000000E+03 0.  0.
        -11    1    3    3    0    0  0.12950593185E+02 -0.77357578889E+01 -0.26503411888E+02  0.30495748161E+02  0.51100000000E-03 0. -1.
         23    2    1    0    0    0 -0.39729687137E+01 -0.27607538168E+02  0.24555228967E+02  0.87839269199E+02  0.79591565506E+02 0.  0.
         11    1    3    3    0    0 -0.16923561899E+02 -0.19871780279E+02  0.51058640854E+02  0.57343521037E+02  0.51100000000E-03 0.  1.
         22    1    1    0    0    0  0.39729687137E+01  0.27607538168E+02 -0.24555228967E+02  0.37160730801E+02  0.00000000000E+00 0. -1.
</event>
<event>
 5    1  0.8900327E-005  0.9118800E+02  0.7818608E-02  0.1130116E+00
         25   -1    0    0    0    0  0.00000000000E+00  0.00000000000E+00  0.99999998245E-14  0.12500000000E+03  0.12500000000E+03 0.  0.
        -11    1    3    3    0    0 -0.35925377006E+02  0.28472361889E+02 -0.38031747269E+02  0.59562756024E+02  0.51100000000E-03 0. -1.
         23    2    1    0    0    0 -0.25029827062E+02  0.15167318104E+02 -0.72087486641E+01  0.94858569401E+02  0.89942439095E+02 0.  0.
         11    1    3    3    0    0  0.10895549944E+02 -0.13305043785E+02  0.30822998605E+02  0.35295813377E+02  0.51100000000E-03 0.  1.
         22    1    1    0    0    0  0.25029827062E+02 -0.15167318104E+02  0.72087486641E+01  0.30141430599E+02  0.00000000000E+00 0. -1.
</event>
<event>
 5    1  0.8900327E-005  0.9118800E+02  0.7818608E-02  0.1130116E+00
         25   -1    0    0    0    0  0.00000000000E+00  0.00000000000E+00  0.99999998245E-14  0.12500000000E+03  0.12500000000E+03 0.  0.
        -11    1    3    3    0    0 -0.79429271628E+01 -0.45171792741E+02 -0.56955141688E+01  0.46217094599E+02  0.51100000000E-03 0.  1.
         23    2    1    0    0    0  0.95368056003E+01 -0.12731086040E+02  0.25798312426E+02  0.94691847023E+02  0.89710432815E+02 0.  0.
         11    1    3    3    0    0  0.17479732763E+02  0.32440706700E+02  0.31493826595E+02  0.48474752424E+02  0.51100000000E-03 0. -1.
         22    1    1    0    0    0 -0.95368056003E+01  0.12731086040E+02 -0.25798312426E+02  0.30308152977E+02  0.00000000000E+00 0.  1.
</event>
<event>
 5    1  0.8900327E-005  0.9118800E+02  0.7818608E-02  0.1130116E+00
         25   -1    0    0    0    0  0.00000000000E+00  0.00000000000E+00  0.99999998245E-14  0.12500000000E+03  0.12500000000E+03 0.  0.
        -11    1    3    3    0    0  0.18721420037E+02  0.18027963866E+02 -0.28014694595E+02  0.38214161810E+02  0.51100000000E-03 0. -1.
         23    2    1    0    0    0 -0.25431772109E+01  0.16345543809E+02  0.24808720753E+02  0.95181932019E+02  0.90390724108E+02 0.  0.
         11    1    3    3    0    0 -0.21264597248E+02 -0.16824200568E+01  0.52823415348E+02  0.56967770209E+02  0.51100000000E-03 0.  1.
         22    1    1    0    0    0  0.25431772109E+01 -0.16345543809E+02 -0.24808720753E+02  0.29818067981E+02  0.00000000000E+00 0.  1.
</event>
<event>
 5    1  0.8900327E-005  0.9118800E+02  0.7818608E-02  0.1130116E+00
         25   -1    0    0    0    0  0.00000000000E+00  0.00000000000E+00  0.99999998245E-14  0.12500000000E+03  0.12500000000E+03 0.  0.
        -11    1    3    3    0    0  0.31727580448E+02  0.75152518130E+01 -0.17583717583E+02  0.37044641922E+02  0.51100000000E-03 0.  1.
         23    2    1    0    0    0 -0.41745087877E+01 -0.17263741279E+02  0.22532429440E+02  0.96308996828E+02  0.91936114813E+02 0.  0.
         11    1    3    3    0    0 -0.35902089235E+02 -0.24778993092E+02  0.40116147023E+02  0.59264354905E+02  0.51100000000E-03 0. -1.
         22    1    1    0    0    0  0.41745087877E+01  0.17263741279E+02 -0.22532429440E+02  0.28691003172E+02  0.00000000000E+00 0. -1.
</event>
<event>
 5    1  0.8900327E-005  0.9118800E+02  0.7818608E-02  0.1130116E+00
         25   -1    0    0    0    0  0.00000000000E+00  0.00000000000E+00  0.99999998245E-14  0.12500000000E+03  0.12500000000E+03 0.  0.
        -11    1    3    3    0    0 -0.90256477479E+01  0.11371976705E+02 -0.54119243546E+02  0.56032818006E+02  0.51100000000E-03 0.  1.
         23    2    1    0    0    0  0.11163153252E+02 -0.79760642835E+01 -0.25488861795E+02  0.96053226991E+02  0.91587699763E+02 0.  0.
         11    1    3    3    0    0  0.20188801000E+02 -0.19348040988E+02  0.28630381751E+02  0.40020408985E+02  0.51100000000E-03 0. -1.
         22    1    1    0    0    0 -0.11163153252E+02  0.79760642835E+01  0.25488861795E+02  0.28946773009E+02  0.00000000000E+00 0.  1.
</event>
<event>
 5    1  0.8900327E-005  0.9118800E+02  0.7818608E-02  0.1130116E+00
         25   -1    0    0    0    0  0.00000000000E+00  0.00000000000E+00  0.99999998245E-14  0.12500000000E+03  0.12500000000E+03 0.  0.
        -11    1    3    3    0    0 -0.23595204095E+01 -0.26919092162E+02 -0.22507417910E+02  0.35168007061E+02  0.51100000000E-03 0. -1.
         23    2    1    0    0    0  0.17629638253E+02  0.93898178118E+01  0.21522226132E+02  0.95637114564E+02  0.91018012728E+02 0.  0.
         11    1    3    3    0    0  0.19989158662E+02  0.36308909973E+02  0.44029644042E+02  0.60469107503E+02  0.51100000000E-03 0.  1.
         22    1    1    0    0    0 -0.17629638253E+02 -0.93898178118E+01 -0.21522226132E+02  0.29362885436E+02  0.00000000000E+00 0.  1.
</event>
<event>
 5    1  0.8900327E-005  0.9118800E+02  0.7818608E-02  0.1130116E+00
         25   -1    0    0    0    0  0.00000000000E+00  0.00000000000E+00  0.99999998245E-14  0.12500000000E+03  0.12500000000E+03 0.  0.
        -11    1    3    3    0    0  0.21012329536E+02  0.28290603827E+02  0.47713828814E+01  0.35561810307E+02  0.51100000000E-03 0.  1.
         23    2    1    0    0    0 -0.76543181260E+01 -0.21641262480E+02  0.19375622396E+02  0.94960899299E+02  0.90084542652E+02 0.  0.
         11    1    3    3    0    0 -0.28666647662E+02 -0.49931866307E+02  0.14604239514E+02  0.59399088992E+02  0.51100000000E-03 0. -1.
         22    1    1    0    0    0  0.76543181260E+01  0.21641262480E+02 -0.19375622396E+02  0.30039100701E+02  0.00000000000E+00 0. -1.
</event>
<event>
 5    1  0.8900327E-005  0.9118800E+02  0.7818608E-02  0.1130116E+00
         25   -1    0    0    0    0  0.00000000000E+00  0.00000000000E+00  0.99999998245E-14  0.12500000000E+03  0.12500000000E+03 0.  0.
        -11    1    3    3    0    0  0.29123357520E+02 -0.16158627856E+02  0.83735390699E+00  0.33316247826E+02  0.51100000000E-03 0.  1.
         23    2    1    0    0    0 -0.17133379699E+02  0.23078035493E+02 -0.92494059931E+01  0.94805630767E+02  0.89868836043E+02 0.  0.
         11    1    3    3    0    0 -0.46256737219E+02  0.39236663349E+02 -0.10086759900E+02  0.61489382941E+02  0.51100000000E-03 0. -1.
         22    1    1    0    0    0  0.17133379699E+02 -0.23078035493E+02  0.92494059931E+01  0.30194369233E+02  0.00000000000E+00 0. -1.
</event>
<event>
 5    1  0.8900327E-005  0.9118800E+02  0.7818608E-02  0.1130116E+00
         25   -1    0    0    0    0  0.00000000000E+00  0.00000000000E+00  0.99999998245E-14  0.12500000000E+03  0.12500000000E+03 0.  0.
        -11    1    3    3    0    0 -0.85166373098E+01 -0.48986850000E+02  0.19763428069E+02  0.53505491992E+02  0.51100000000E-03 0.  1.
         23    2    1    0    0    0  0.10519113066E+02 -0.24833966067E+02 -0.99360066799E+01  0.96258012611E+02  0.91866768490E+02 0.  0.
         11    1    3    3    0    0  0.19035750376E+02  0.24152883932E+02 -0.29699434749E+02  0.42752520619E+02  0.51100000000E-03 0. -1.
         22    1    1    0    0    0 -0.10519113066E+02  0.24833966067E+02  0.99360066799E+01  0.28741987389E+02  0.00000000000E+00 0. -1.
</event>
<event>
 5    1  0.8900327E-005  0.9118800E+02  0.7818608E-02  0.1130116E+00
         25   -1    0    0    0    0  0.00000000000E+00  0.00000000000E+00  0.99999998245E-14  0.12500000000E+03  0.12500000000E+03 0.  0.
        -11    1    3    3    0    0 -0.39490524619E+02  0.14053242860E+02 -0.72856808456E+01  0.42544991659E+02  0.51100000000E-03 0. -1.
         23    2    1    0    0    0 -0.55955886187E+01 -0.11684798770E+02  0.25585948392E+02  0.96320985209E+02  0.91952413249E+02 0.  0.
         11    1    3    3    0    0  0.33894936000E+02 -0.25738041629E+02  0.32871629237E+02  0.53775993551E+02  0.51100000000E-03 0.  1.
         22    1    1    0    0    0  0.55955886187E+01  0.11684798770E+02 -0.25585948392E+02  0.28679014791E+02  0.00000000000E+00 0.  1.
</event>
<event>
 5    1  0.8900327E-005  0.9118800E+02  0.7818608E-02  0.1130116E+00
         25   -1    0    0    0    0  0.00000000000E+00  0.00000000000E+00  0.99999998245E-14  0.12500000000E+03  0.12500000000E+03 0.  0.
        -11    1    3    3    0    0  0.17188299807E+02  0.61977815847E+01  0.31728380635E+02  0.36613389420E+02  0.51100000000E-03 0.  1.
         23    2    1    0    0    0  0.12939280391E+02  0.21724843166E+01 -0.26655755979E+02  0.95290170113E+02  0.90540281247E+02 0.  0.
         11    1    3    3    0    0 -0.42490194166E+01 -0.40252972682E+01 -0.58384136614E+02  0.58676780693E+02  0.51100000000E-03 0. -1.
         22    1    1    0    0    0 -0.12939280391E+02 -0.21724843166E+01  0.26655755979E+02  0.29709829887E+02  0.00000000000E+00 0. -1.
</event>
<event>
 5    1  0.8900327E-005  0.9118800E+02  0.7818608E-02  0.1130116E+00
         25   -1    0    0    0    0  0.00000000000E+00  0.00000000000E+00  0.99999998245E-14  0.12500000000E+03  0.12500000000E+03 0.  0.
        -11    1    3    3    0    0  0.27107352313E+02  0.31266737207E+02  0.37938569585E+02  0.56140470851E+02  0.51100000000E-03 0. -1.
         23    2    1    0    0    0 -0.42462139355E+01  0.22242905364E+02  0.25081260167E+02  0.91208776533E+02  0.84718322300E+02 0.  0.
         11    1    3    3    0    0 -0.31353566249E+02 -0.90238318434E+01 -0.12857309417E+02  0.35068305682E+02  0.51100000000E-03 0.  1.
         22    1    1    0    0    0  0.42462139355E+01 -0.22242905364E+02 -0.25081260167E+02  0.33791223467E+02  0.00000000000E+00 0. -1.
</event>
<event>
 5    1  0.8900327E-005  0.9118800E+02  0.7818608E-02  0.1130116E+00
         25   -1    0    0    0    0  0.00000000000E+00  0.00000000000E+00  0.99999998245E-14  0.12500000000E+03  0.12500000000E+03 0.  0.
        -11    1    3    3    0    0  0.18127461849E+02 -0.37003327329E+02  0.33848867934E+02  0.53325387642E+02  0.51100000000E-03 0.  1.
         23    2    1    0    0    0  0.20854184886E+02 -0.19579097237E+02 -0.49735633412E+01  0.95965978436E+02  0.91468544369E+02 0.  0.
         11    1    3    3    0    0  0.27267230375E+01  0.17424230093E+02 -0.38822431275E+02  0.42640590793E+02  0.51100000000E-03 0. -1.
         22    1    1    0    0    0 -0.20854184886E+02  0.19579097237E+02  0.49735633412E+01  0.29034021564E+02  0.00000000000E+00 0. -1.
</event>
<event>
 5    1  0.8900327E-005  0.9118800E+02  0.7818608E-02  0.1130116E+00
         25   -1    0    0    0    0  0.00000000000E+00  0.00000000000E+00  0.99999998245E-14  0.12500000000E+03  0.12500000000E+03 0.  0.
        -11    1    3    3    0    0 -0.32179608717E+02  0.38543554609E+02  0.18237374321E+02  0.53420357931E+02  0.51100000000E-03 0. -1.
         23    2    1    0    0    0 -0.34393061037E+01  0.28340033314E+02 -0.97692751341E+01  0.94826749407E+02  0.89898205498E+02 0.  0.
         11    1    3    3    0    0  0.28740302613E+02 -0.10203521296E+02 -0.28006649455E+02  0.41406391476E+02  0.51100000000E-03 0.  1.
         22    1    1    0    0    0  0.34393061037E+01 -0.28340033314E+02  0.97692751341E+01  0.30173250593E+02  0.00000000000E+00 0. -1.
</event>
<event>
 5    1  0.8900327E-005  0.9118800E+02  0.7818608E-02  0.1130116E+00
         25   -1    0    0    0    0  0.00000000000E+00  0.00000000000E+00  0.99999998245E-14  0.12500000000E+03  0.12500000000E+03 0.  0.
        -11    1    3    3    0    0  0.24475574853E+02 -0.49023486707E+02 -0.26441374320E+01  0.54857519779E+02  0.51100000000E-03 0.  1.
         23    2    1    0    0    0 -0.92859692846E+01 -0.25485726443E+02  0.66967014221E+01  0.97060828792E+02  0.92952714850E+02 0.  0.
         11    1    3    3    0    0 -0.33761544138E+02  0.23537760264E+02  0.93408388541E+01  0.42203309013E+02  0.51100000000E-03 0. -1.
         22    1    1    0    0    0  0.92859692846E+01  0.25485726443E+02 -0.66967014221E+01  0.27939171208E+02  0.00000000000E+00 0.  1.
</event>
<event>
 5    1  0.8900327E-005  0.9118800E+02  0.7818608E-02  0.1130116E+00
         25   -1    0    0    0    0  0.00000000000E+00  0.00000000000E+00  0.99999998245E-14  0.12500000000E+03  0.12500000000E+03 0.  0.
        -11    1    3    3    0    0 -0.31382097074E+02 -0.27816678411E+02  0.43238664009E+01  0.42158029313E+02  0.51100000000E-03 0. -1.
         23    2    1    0    0    0  0.17381407400E+02 -0.26888970364E+02 -0.69963523002E+01  0.92226855568E+02  0.86207388848E+02 0.  0.
         11    1    3    3    0    0  0.48763504475E+02  0.92770804693E+00 -0.11320218701E+02  0.50068826255E+02  0.51100000000E-03 0.  1.
         22    1    1    0    0    0 -0.17381407400E+02  0.26888970364E+02  0.69963523002E+01  0.32773144432E+02  0.00000000000E+00 0. -1.
</event>
<event>
 5    1  0.8900327E-005  0.9118800E+02  0.7818608E-02  0.1130116E+00
         25   -1    0    0    0    0  0.00000000000E+00  0.00000000000E+00  0.99999998245E-14  0.12500000000E+03  0.12500000000E+03 0.  0.
        -11    1    3    3    0    0  0.39142476558E+02 -0.27963122783E+01  0.32851167065E+02  0.51177651482E+02  0.51100000000E-03 0. -1.
         23    2    1    0    0    0  0.13032430405E+02 -0.25830540346E+02  0.52802468005E+01  0.95590102633E+02  0.90953425765E+02 0.  0.
         11    1    3    3    0    0 -0.26110046153E+02 -0.23034228068E+02 -0.27570920264E+02  0.44412451151E+02  0.51100000000E-03 0.  1.
         22    1    1    0    0    0 -0.13032430405E+02  0.25830540346E+02 -0.52802468005E+01  0.29409897367E+02  0.00000000000E+00 0.  1.
</event>
<event>
 5    1  0.8900327E-005  0.9118800E+02  0.7818608E-02  0.1130116E+00
         25   -1    0    0    0    0  0.00000000000E+00  0.00000000000E+00  0.99999998245E-14  0.12500000000E+03  0.12500000000E+03 0.  0.
        -11    1    3    3    0    0 -0.31797582455E+01 -0.31989514755E+02  0.20865066519E+01  0.32214801365E+02  0.51100000000E-03 0.  1.
         23    2    1    0    0    0 -0.79697572314E+01  0.29719077312E+02  0.27056744152E+01  0.94112117899E+02  0.88898984667E+02 0.  0.
         11    1    3    3    0    0 -0.47899989859E+01  0.61708592067E+02  0.61916776325E+00  0.61897316534E+02  0.51100000000E-03 0. -1.
         22    1    1    0    0    0  0.79697572314E+01 -0.29719077312E+02 -0.27056744152E+01  0.30887882101E+02  0.00000000000E+00 0. -1.
</event>
<event>
 5    1  0.8900327E-005  0.9118800E+02  0.7818608E-02  0.1130116E+00
         25   -1    0    0    0    0  0.00000000000E+00  0.00000000000E+00  0.99999998245E-14  0.12500000000E+03  0.12500000000E+03 0.  0.
        -11    1    3    3    0    0 -0.71065995898E+01 -0.50864743538E+02  0.30441079124E+02  0.59702472238E+02  0.51100000000E-03 0.  1.
         23    2    1    0    0    0  0.33595449598E+01 -0.29531896150E+02  0.44028374552E+01  0.94953296184E+02  0.90073992062E+02 0.  0.
         11    1    3    3    0    0  0.10466144550E+02  0.21332847388E+02 -0.26038241668E+02  0.35250823946E+02  0.51100000000E-03 0. -1.
         22    1    1    0    0    0 -0.33595449598E+01  0.29531896150E+02 -0.44028374552E+01  0.30046703816E+02  0.00000000000E+00 0.  1.
</event>
<event>
 5    1  0.8900327E-005  0.9118800E+02  0.7818608E-02  0.1130116E+00
         25   -1    0    0    0    0  0.00000000000E+00  0.00000000000E+00  0.99999998245E-14  0.12500000000E+03  0.12500000000E+03 0.  0.
        -11    1    3    3    0    0 -0.15093595733E+02 -0.18086486747E+02  0.25844632277E+02  0.34969739101E+02  0.51100000000E-03 0.  1.
         23    2    1    0    0    0  0.57916318759E+01 -0.32438128898E+00 -0.28541125997E+02  0.95875369596E+02  0.91344635304E+02 0.  0.
         11    1    3    3    0    0  0.20885227609E+02  0.17762105458E+02 -0.54385758274E+02  0.60905630494E+02  0.51100000000E-03 0. -1.
         22    1    1    0    0    0 -0.57916318759E+01  0.32438128898E+00  0.28541125997E+02  0.29124630404E+02  0.00000000000E+00 0. -1.
</event>
<event>
 5    1  0.8900327E-005  0.9118800E+02  0.7818608E-02  0.1130116E+00
         25   -1    0    0    0    0  0.00000000000E+00  0.00000000000E+00  0.99999998245E-14  0.12500000000E+03  0.12500000000E+03 0.  0.
        -11    1    3    3    0    0  0.42829948756E+02 -0.38377579780E+02 -0.12999405845E+02  0.58959542847E+02  0.51100000000E-03 0.  1.
         23    2    1    0    0    0  0.14546199029E+02 -0.12320786390E+02  0.96950444749E+01  0.10361337870E+03  0.10138217138E+03 0.  0.
         11    1    3    3    0    0 -0.28283749727E+02  0.26056793389E+02  0.22694450320E+02  0.44653835848E+02  0.51100000000E-03 0. -1.
         22    1    1    0    0    0 -0.14546199029E+02  0.12320786390E+02 -0.96950444749E+01  0.21386621305E+02  0.00000000000E+00 0.  1.
</event>
<event>
 5    1  0.8900327E-005  0.9118800E+02  0.7818608E-02  0.1130116E+00
         25   -1    0    0    0    0  0.00000000000E+00  0.00000000000E+00  0.99999998245E-14  0.12500000000E+03  0.12500000000E+03 0.  0.
        -11    1    3    3    0    0 -0.62864013254E+01 -0.14945441498E+02  0.59217194743E+02  0.61396752493E+02  0.51100000000E-03 0. -1.
         23    2    1    0    0    0 -0.85395459997E+01 -0.13224081976E+02  0.26941760786E+02  0.93796495962E+02  0.88454078428E+02 0.  0.
         11    1    3    3    0    0 -0.22531446743E+01  0.17213595225E+01 -0.32275433957E+02  0.32399743469E+02  0.51100000000E-03 0.  1.
         22    1    1    0    0    0  0.85395459997E+01  0.13224081976E+02 -0.26941760786E+02  0.31203504038E+02  0.00000000000E+00 0. -1.
</event>
<event>
 5    1  0.8900327E-005  0.9118800E+02  0.7818608E-02  0.1130116E+00
         25   -1    0    0    0    0  0.00000000000E+00  0.00000000000E+00  0.99999998245E-14  0.12500000000E+03  0.12500000000E+03 0.  0.
        -11    1    3    3    0    0  0.25156905989E+02 -0.31489742791E+01 -0.33271994108E+02  0.41830748860E+02  0.51100000000E-03 0.  1.
         23    2    1    0    0    0  0.13981425050E+02  0.22837149184E+02  0.12351084335E+02  0.95511613921E+02  0.90845492350E+02 0.  0.
         11    1    3    3    0    0 -0.11175480939E+02  0.25986123463E+02  0.45623078443E+02  0.53680865061E+02  0.51100000000E-03 0. -1.
         22    1    1    0    0    0 -0.13981425050E+02 -0.22837149184E+02 -0.12351084335E+02  0.29488386079E+02  0.00000000000E+00 0. -1.
</event>
<event>
 5    1  0.8900327E-005  0.9118800E+02  0.7818608E-02  0.1130116E+00
         25   -1    0    0    0    0  0.00000000000E+00  0.00000000000E+00  0.99999998245E-14  0.12500000000E+03  0.12500000000E+03 0.  0.
        -11    1    3    3    0    0 -0.11584759999E+01  0.51626506639E+02 -0.88249863513E+01  0.52388153611E+02  0.51100000000E-03 0.  1.
         23    2    1    0    0    0  0.51394472324E+01  0.18372074167E+02  0.20374217871E+02  0.97088429265E+02  0.92989823724E+02 0.  0.
         11    1    3    3    0    0  0.62979232323E+01 -0.33254432472E+02  0.29199204222E+02  0.44700275654E+02  0.51100000000E-03 0. -1.
         22    1    1    0    0    0 -0.51394472324E+01 -0.18372074167E+02 -0.20374217871E+02  0.27911570735E+02  0.00000000000E+00 0.  1.
</event>
<event>
 5    1  0.8900327E-005  0.9118800E+02  0.7818608E-02  0.1130116E+00
         25   -1    0    0    0    0  0.00000000000E+00  0.00000000000E+00  0.99999998245E-14  0.12500000000E+03  0.12500000000E+03 0.  0.
        -11    1    3    3    0    0 -0.25063494487E+02 -0.55463631858E+02 -0.12075957414E+02  0.62050156829E+02  0.51100000000E-03 0. -1.
         23    2    1    0    0    0 -0.67358876424E+01 -0.26831777278E+02 -0.73788843220E+01  0.96368472132E+02  0.92016944271E+02 0.  0.
         11    1    3    3    0    0  0.18327606845E+02  0.28631854580E+02  0.46970730917E+01  0.34318315303E+02  0.51100000000E-03 0.  1.
         22    1    1    0    0    0  0.67358876424E+01  0.26831777278E+02  0.73788843220E+01  0.28631527868E+02  0.00000000000E+00 0. -1.
</event>
<event>
 5    1  0.8900327E-005  0.9118800E+02  0.7818608E-02  0.1130116E+00
         25   -1    0    0    0    0  0.00000000000E+00  0.00000000000E+00  0.99999998245E-14  0.12500000000E+03  0.12500000000E+03 0.  0.
        -11    1    3    3    0    0 -0.89363444165E+01  0.54645026222E+02 -0.26260527682E+02  0.61282562420E+02  0.51100000000E-03 0.  1.
         23    2    1    0    0    0 -0.48400956808E+01  0.29234433510E+02 -0.44181219737E+01  0.95040052893E+02  0.90194308153E+02 0.  0.
         11    1    3    3    0    0  0.40962487357E+01 -0.25410592711E+02  0.21842405709E+02  0.33757490473E+02  0.51100000000E-03 0. -1.
         22    1    1    0    0    0  0.48400956808E+01 -0.29234433510E+02  0.44181219737E+01  0.29959947107E+02  0.00000000000E+00 0.  1.
</event>
<event>
 5    1  0.8900327E-005  0.9118800E+02  0.7818608E-02  0.1130116E+00
         25   -1    0    0    0    0  0.00000000000E+00  0.00000000000E+00  0.99999998245E-14  0.12500000000E+03  0.12500000000E+03 0.  0.
        -11    1    3    3    0    0 -0.34122878532E+02  0.11791070253E+02 -0.10444597751E+02  0.37583105240E+02  0.51100000000E-03 0.  1.
         23    2    1    0    0    0  0.22847397591E+02 -0.34293174524E+01 -0.16127149948E+02  0.96824678169E+02  0.92634602294E+02 0.  0.
         11    1    3    3    0    0  0.56970276123E+02 -0.15220387705E+02 -0.56825521961E+01  0.59241572929E+02  0.51100000000E-03 0. -1.
         22    1    1    0    0    0 -0.22847397591E+02  0.34293174524E+01  0.16127149948E+02  0.28175321831E+02  0.00000000000E+00 0. -1.
</event>
<event>
 5    1  0.8900327E-005  0.9118800E+02  0.7818608E-02  0.1130116E+00
         25   -1    0    0    0    0  0.00000000000E+00  0.00000000000E+00  0.99999998245E-14  0.12500000000E+03  0.12500000000E+03 0.  0.
        -11    1    3    3    0    0 -0.27177413389E+02 -0.18425905315E+02 -0.19986128287E+02  0.38439187158E+02  0.51100000000E-03 0. -1.
         23    2    1    0    0    0  0.68774884071E+00 -0.94028862876E+01  0.28442225456E+02  0.95035897178E+02  0.90188548578E+02 0.  0.
         11    1    3    3    0    0  0.27865162230E+02  0.90230190278E+01  0.48428353744E+02  0.56596710020E+02  0.51100000000E-03 0.  1.
         22    1    1    0    0    0 -0.68774884071E+00  0.94028862876E+01 -0.28442225456E+02  0.29964102822E+02  0.00000000000E+00 0.  1.
</event>
<event>
 5    1  0.8900327E-005  0.9118800E+02  0.7818608E-02  0.1130116E+00
         25   -1    0    0    0    0  0.00000000000E+00  0.00000000000E+00  0.99999998245E-14  0.12500000000E+03  0.12500000000E+03 0.  0.
        -11    1    3    3    0    0 -0.32520637915E+02 -0.14208228339E+02  0.28367845182E+02  0.45433470960E+02  0.51100000000E-03 0.  1.
         23    2    1    0    0    0  0.16722465496E+02 -0.14405403371E+02  0.19662236131E+02  0.95440567864E+02  0.90747682979E+02 0.  0.
         11    1    3    3    0    0  0.49243103411E+02 -0.19717503188E+00 -0.87056090514E+01  0.50007096904E+02  0.51100000000E-03 0. -1.
         22    1    1    0    0    0 -0.16722465496E+02  0.14405403371E+02 -0.19662236131E+02  0.29559432136E+02  0.00000000000E+00 0. -1.
</event>
<event>
 5    1  0.8900327E-005  0.9118800E+02  0.7818608E-02  0.1130116E+00
         25   -1    0    0    0    0  0.00000000000E+00  0.00000000000E+00  0.99999998245E-14  0.12500000000E+03  0.12500000000E+03 0.  0.
        -11    1    3    3    0    0  0.49116183163E+02  0.18009036014E+02 -0.28195957778E+02  0.59428417965E+02  0.51100000000E-03 0.  1.
         23    2    1    0    0    0  0.19018383293E+02  0.21252170515E+02 -0.98404698861E+01  0.94830669509E+02  0.89903656084E+02 0.  0.
         11    1    3    3    0    0 -0.30097799869E+02  0.32431345011E+01  0.18355487892E+02  0.35402251544E+02  0.51100000000E-03 0. -1.
         22    1    1    0    0    0 -0.19018383293E+02 -0.21252170515E+02  0.98404698861E+01  0.30169330491E+02  0.00000000000E+00 0.  1.
</event>
<event>
 5    1  0.8900327E-005  0.9118800E+02  0.7818608E-02  0.1130116E+00
         25   -1    0    0    0    0  0.00000000000E+00  0.00000000000E+00  0.99999998245E-14  0.12500000000E+03  0.12500000000E+03 0.  0.
        -11    1    3    3    0    0  0.31818340907E+02  0.46860168691E+02 -0.21907383553E+02  0.60730681556E+02  0.51100000000E-03 0. -1.
         23    2    1    0    0    0  0.19402499524E+02  0.22299861326E+02 -0.77118667604E+00  0.95430834779E+02  0.90734275193E+02 0.  0.
         11    1    3    3    0    0 -0.12415841383E+02 -0.24560307365E+02  0.21136196876E+02  0.34700153224E+02  0.51100000000E-03 0.  1.
         22    1    1    0    0    0 -0.19402499524E+02 -0.22299861326E+02  0.77118667604E+00  0.29569165221E+02  0.00000000000E+00 0. -1.
</event>
<event>
 5    1  0.8900327E-005  0.9118800E+02  0.7818608E-02  0.1130116E+00
         25   -1    0    0    0    0  0.00000000000E+00  0.00000000000E+00  0.99999998245E-14  0.12500000000E+03  0.12500000000E+03 0.  0.
        -11    1    3    3    0    0 -0.34445202559E+02  0.40876186626E+01  0.12330145672E+02  0.36813219069E+02  0.51100000000E-03 0.  1.
         23    2    1    0    0    0  0.23083264512E+02  0.36891055722E+01  0.19197091997E+02  0.94751447281E+02  0.89793439739E+02 0.  0.
         11    1    3    3    0    0  0.57528467071E+02 -0.39851309041E+00  0.68669463247E+01  0.57938228212E+02  0.51100000000E-03 0. -1.
         22    1    1    0    0    0 -0.23083264512E+02 -0.36891055722E+01 -0.19197091997E+02  0.30248552719E+02  0.00000000000E+00 0. -1.
</event>
<event>
 5    1  0.8900327E-005  0.9118800E+02  0.7818608E-02  0.1130116E+00
         25   -1    0    0    0    0  0.00000000000E+00  0.00000000000E+00  0.99999998245E-14  0.12500000000E+03  0.12500000000E+03 0.  0.
        -11    1    3    3    0    0 -0.29161575954E+02  0.20252804311E+02 -0.27246074416E+02  0.44754018433E+02  0.51100000000E-03 0. -1.
         23    2    1    0    0    0  0.13947864105E+02 -0.14489503277E+02 -0.71300972931E+01  0.10366160958E+03  0.10144162062E+03 0.  0.
         11    1    3    3    0    0  0.43109440059E+02 -0.34742307589E+02  0.20115977123E+02  0.58907591146E+02  0.51100000000E-03 0.  1.
         22    1    1    0    0    0 -0.13947864105E+02  0.14489503277E+02  0.71300972931E+01  0.21338390420E+02  0.00000000000E+00 0.  1.
</event>
<event>
 5    1  0.8900327E-005  0.9118800E+02  0.7818608E-02  0.1130116E+00
         25   -1    0    0    0    0  0.00000000000E+00  0.00000000000E+00  0.99999998245E-14  0.12500000000E+03  0.12500000000E+03 0.  0.
        -11    1    3    3    0    0 -0.29817713692E+01 -0.49018875446E+02  0.36721172393E+02  0.61320352353E+02  0.51100000000E-03 0.  1.
         23    2    1    0    0    0  0.70894772411E+01 -0.21980242851E+02  0.18050751636E+02  0.95687521464E+02  0.91087212966E+02 0.  0.
         11    1    3    3    0    0  0.10071248610E+02  0.27038632595E+02 -0.18670420757E+02  0.34367169111E+02  0.51100000000E-03 0. -1.
         22    1    1    0    0    0 -0.70894772411E+01  0.21980242851E+02 -0.18050751636E+02  0.29312478536E+02  0.00000000000E+00 0.  1.
</event>
<event>
 5    1  0.8900327E-005  0.9118800E+02  0.7818608E-02  0.1130116E+00
         25   -1    0    0    0    0  0.00000000000E+00  0.00000000000E+00  0.99999998245E-14  0.12500000000E+03  0.12500000000E+03 0.  0.
        -11    1    3    3    0    0 -0.27705430075E+02 -0.18206681878E+02 -0.26219223796E+02  0.42267266500E+02  0.51100000000E-03 0. -1.
         23    2    1    0    0    0  0.93098078026E+01 -0.25714421466E+02  0.11212643091E+02  0.95442812080E+02  0.90750774212E+02 0.  0.
         11    1    3    3    0    0  0.37015237877E+02 -0.75077395880E+01  0.37431866887E+02  0.53175545580E+02  0.51100000000E-03 0.  1.
         22    1    1    0    0    0 -0.93098078026E+01  0.25714421466E+02 -0.11212643091E+02  0.29557187920E+02  0.00000000000E+00 0.  1.
</event>
<event>
 5    1  0.8900327E-005  0.9118800E+02  0.7818608E-02  0.1130116E+00
         25   -1    0    0    0    0  0.00000000000E+00  0.00000000000E+00  0.99999998245E-14  0.12500000000E+03  0.12500000000E+03 0.  0.
        -11    1    3    3    0    0 -0.23563477987E+02  0.10649073974E+02  0.27955016339E+02  0.38080483324E+02  0.51100000000E-03 0.  1.
         23    2    1    0    0    0  0.16383640740E+02 -0.24136360468E+02  0.73514613005E+01  0.94916257484E+02  0.90022577007E+02 0.  0.
         11    1    3    3    0    0  0.39947118727E+02 -0.34785434442E+02 -0.20603555039E+02  0.56835774160E+02  0.51100000000E-03 0. -1.
         22    1    1    0    0    0 -0.16383640740E+02  0.24136360468E+02 -0.73514613005E+01  0.30083742516E+02  0.00000000000E+00 0. -1.
</event>
<event>
 5    1  0.8900327E-005  0.9118800E+02  0.7818608E-02  0.1130116E+00
         25   -1    0    0    0    0  0.00000000000E+00  0.00000000000E+00  0.99999998245E-14  0.12500000000E+03  0.12500000000E+03 0.  0.
        -11    1    3    3    0    0  0.32016370101E+02  0.27614154337E+01  0.25456687093E+02  0.40996539948E+02  0.51100000000E-03 0. -1.
         23    2    1    0    0    0  0.51540252755E+01 -0.27920888671E+01 -0.25482627164E+02  0.98851882975E+02  0.95330848857E+02 0.  0.
         11    1    3    3    0    0 -0.26862344826E+02 -0.55535043008E+01 -0.50939314257E+02  0.57855343027E+02  0.51100000000E-03 0.  1.
         22    1    1    0    0    0 -0.51540252755E+01  0.27920888671E+01  0.25482627164E+02  0.26148117025E+02  0.00000000000E+00 0.  1.
</event>
<event>
 5    1  0.8900327E-005  0.9118800E+02  0.7818608E-02  0.1130116E+00
         25   -1    0    0    0    0  0.00000000000E+00  0.00000000000E+00  0.99999998245E-14  0.12500000000E+03  0.12500000000E+03 0.  0.
        -11    1    3    3    0    0 -0.33527046059E+02  0.34293709840E+02 -0.13365039887E+02  0.49787002757E+02  0.51100000000E-03 0. -1.
         23    2    1    0    0    0 -0.21999476836E+02 -0.11650026030E+02 -0.12456647091E+02  0.97163546485E+02  0.93090744014E+02 0.  0.
         11    1    3    3    0    0  0.11527569223E+02 -0.45943735870E+02  0.90839279527E+00  0.47376543728E+02  0.51100000000E-03 0.  1.
         22    1    1    0    0    0  0.21999476836E+02  0.11650026030E+02  0.12456647091E+02  0.27836453515E+02  0.00000000000E+00 0.  1.
</event>
<event>
 5    1  0.8900327E-005  0.9118800E+02  0.7818608E-02  0.1130116E+00
         25   -1    0    0    0    0  0.00000000000E+00  0.00000000000E+00  0.99999998245E-14  0.12500000000E+03  0.12500000000E+03 0.  0.
        -11    1    3    3    0    0 -0.27690447109E+01  0.15004129690E+02 -0.58469284755E+02  0.60427218837E+02  0.51100000000E-03 0.  1.
         23    2    1    0    0    0 -0.12003319873E+02  0.33772761652E+01 -0.24144496070E+02  0.97825703823E+02  0.93975666828E+02 0.  0.
         11    1    3    3    0    0 -0.92342751622E+01 -0.11626853525E+02  0.34324788686E+02  0.37398484986E+02  0.51100000000E-03 0. -1.
         22    1    1    0    0    0  0.12003319873E+02 -0.33772761652E+01  0.24144496070E+02  0.27174296177E+02  0.00000000000E+00 0.  1.
</event>
<event>
 5    1  0.8900327E-005  0.9118800E+02  0.7818608E-02  0.1130116E+00
         25   -1    0    0    0    0  0.00000000000E+00  0.00000000000E+00  0.99999998245E-14  0.12500000000E+03  0.12500000000E+03 0.  0.
        -11    1    3    3    0    0  0.11722527882E+01  0.40722734604E+02 -0.18213032181E+02  0.44625439289E+02  0.51100000000E-03 0.  1.
         23    2    1    0    0    0  0.10656797012E+02 -0.93469604442E+01 -0.25224333272E+02  0.96065591744E+02  0.91604573772E+02 0.  0.
         11    1    3    3    0    0  0.94845442238E+01 -0.50069695048E+02 -0.70113010915E+01  0.51440152455E+02  0.51100000000E-03 0. -1.
         22    1    1    0    0    0 -0.10656797012E+02  0.93469604442E+01  0.25224333272E+02  0.28934408256E+02  0.00000000000E+00 0. -1.
</event>
<event>
 5    1  0.8900327E-005  0.9118800E+02  0.7818608E-02  0.1130116E+00
         25   -1    0    0    0    0  0.00000000000E+00  0.00000000000E+00  0.99999998245E-14  0.12500000000E+03  0.12500000000E+03 0.  0.
        -11    1    3    3    0    0  0.18762224976E+02 -0.41098579702E+02  0.20601895008E+02  0.49654329295E+02  0.51100000000E-03 0. -1.
         23    2    1    0    0    0 -0.17793986550E+02 -0.20221621025E+02 -0.29681645660E+01  0.97901108600E+02  0.94075911635E+02 0.  0.
         11    1    3    3    0    0 -0.36556211526E+02  0.20876958677E+02 -0.23570059574E+02  0.48246779305E+02  0.51100000000E-03 0.  1.
         22    1    1    0    0    0  0.17793986550E+02  0.20221621025E+02  0.29681645660E+01  0.27098891400E+02  0.00000000000E+00 0.  1.
</event>
<event>
 5    1  0.8900327E-005  0.9118800E+02  0.7818608E-02  0.1130116E+00
         25   -1    0    0    0    0  0.00000000000E+00  0.00000000000E+00  0.99999998245E-14  0.12500000000E+03  0.12500000000E+03 0.  0.
        -11    1    3    3    0    0  0.42768888260E+02  0.12965239398E+01 -0.22276887049E+02  0.48240216358E+02  0.51100000000E-03 0. -1.
         23    2    1    0    0    0 -0.15980416927E+01  0.17511555694E+02 -0.23688210412E+02  0.95498480843E+02  0.90827419928E+02 0.  0.
         11    1    3    3    0    0 -0.44366929953E+02  0.16215031754E+02 -0.14113233625E+01  0.47258264485E+02  0.51100000000E-03 0.  1.
         22    1    1    0    0    0  0.15980416927E+01 -0.17511555694E+02  0.23688210412E+02  0.29501519157E+02  0.00000000000E+00 0.  1.
</event>
<event>
 5    1  0.8900327E-005  0.9118800E+02  0.7818608E-02  0.1130116E+00
         25   -1    0    0    0    0  0.00000000000E+00  0.00000000000E+00  0.99999998245E-14  0.12500000000E+03  0.12500000000E+03 0.  0.
        -11    1    3    3    0    0 -0.38337452383E+02 -0.99208937917E+01  0.31222338440E+02  0.50428353203E+02  0.51100000000E-03 0. -1.
         23    2    1    0    0    0 -0.23005828707E+02  0.19052385200E+02  0.84826368687E+00  0.95117210846E+02  0.90301177797E+02 0.  0.
         11    1    3    3    0    0  0.15331623676E+02  0.28973278991E+02 -0.30374074753E+02  0.44688857643E+02  0.51100000000E-03 0.  1.
         22    1    1    0    0    0  0.23005828707E+02 -0.19052385200E+02 -0.84826368687E+00  0.29882789154E+02  0.00000000000E+00 0. -1.
</event>
<event>
 5    1  0.8900327E-005  0.9118800E+02  0.7818608E-02  0.1130116E+00
         25   -1    0    0    0    0  0.00000000000E+00  0.00000000000E+00  0.99999998245E-14  0.12500000000E+03  0.12500000000E+03 0.  0.
        -11    1    3    3    0    0 -0.26039179050E+02 -0.12461200313E+02 -0.27498010614E+02  0.39868044181E+02  0.51100000000E-03 0.  1.
         23    2    1    0    0    0 -0.12394533610E+02  0.22783433351E+02  0.13610177705E+02  0.95709280722E+02  0.91117068547E+02 0.  0.
         11    1    3    3    0    0  0.13644645440E+02  0.35244633664E+02  0.41108188319E+02  0.55841236541E+02  0.51100000000E-03 0. -1.
         22    1    1    0    0    0  0.12394533610E+02 -0.22783433351E+02 -0.13610177705E+02  0.29290719278E+02  0.00000000000E+00 0. -1.
</event>
<event>
 5    1  0.8900327E-005  0.9118800E+02  0.7818608E-02  0.1130116E+00
         25   -1    0    0    0    0  0.00000000000E+00  0.00000000000E+00  0.99999998245E-14  0.12500000000E+03  0.12500000000E+03 0.  0.
        -11    1    3    3    0    0  0.26574780280E+02 -0.20698650622E+02 -0.99534195082E+01  0.35124402410E+02  0.51100000000E-03 0.  1.
         23    2    1    0    0    0  0.44801796587E+00  0.27106590864E+02  0.13826918701E+02  0.94567259914E+02  0.89536668346E+02 0.  0.
         11    1    3    3    0    0 -0.26126762315E+02  0.47805241486E+02  0.23780338209E+02  0.59442857504E+02  0.51100000000E-03 0. -1.
         22    1    1    0    0    0 -0.44801796587E+00 -0.27106590864E+02 -0.13826918701E+02  0.30432740086E+02  0.00000000000E+00 0. -1.
</event>
<event>
 5    1  0.8900327E-005  0.9118800E+02  0.7818608E-02  0.1130116E+00
         25   -1    0    0    0    0  0.00000000000E+00  0.00000000000E+00  0.99999998245E-14  0.12500000000E+03  0.12500000000E+03 0.  0.
        -11    1    3    3    0    0 -0.72209667299E+01 -0.33976887228E+02  0.32200209143E+02  0.47364804395E+02  0.51100000000E-03 0. -1.
         23    2    1    0    0    0  0.15135390507E+02  0.91793697321E+01  0.21533482735E+02  0.97124710707E+02  0.93038581657E+02 0.  0.
         11    1    3    3    0    0  0.22356357237E+02  0.43156256960E+02 -0.10666726409E+02  0.49759906313E+02  0.51100000000E-03 0.  1.
         22    1    1    0    0    0 -0.15135390507E+02 -0.91793697321E+01 -0.21533482735E+02  0.27875289293E+02  0.00000000000E+00 0. -1.
</event>
<event>
 5    1  0.8900327E-005  0.9118800E+02  0.7818608E-02  0.1130116E+00
         25   -1    0    0    0    0  0.00000000000E+00  0.00000000000E+00  0.99999998245E-14  0.12500000000E+03  0.12500000000E+03 0.  0.
        -11    1    3    3    0    0 -0.32683282869E+02  0.24903557260E+02  0.18348815233E+02  0.45000701817E+02  0.51100000000E-03 0.  1.
         23    2    1    0    0    0 -0.18575597093E+02 -0.11283038658E+02 -0.16914232458E+02  0.97460010379E+02  0.93487981017E+02 0.  0.
         11    1    3    3    0    0  0.14107685776E+02 -0.36186595918E+02 -0.35263047690E+02  0.52459308562E+02  0.51100000000E-03 0. -1.
         22    1    1    0    0    0  0.18575597093E+02  0.11283038658E+02  0.16914232458E+02  0.27539989621E+02  0.00000000000E+00 0.  1.
</event>
<event>
 5    1  0.8900327E-005  0.9118800E+02  0.7818608E-02  0.1130116E+00
         25   -1    0    0    0    0  0.00000000000E+00  0.00000000000E+00  0.99999998245E-14  0.12500000000E+03  0.12500000000E+03 0.  0.
        -11    1    3    3    0    0  0.15629168538E+02  0.18217022235E+02 -0.30864202108E+02  0.39098974160E+02  0.51100000000E-03 0.  1.
         23    2    1    0    0    0  0.20413069482E+02 -0.62198943156E+01  0.20013812196E+02  0.95743664454E+02  0.91164226062E+02 0.  0.
         11    1    3    3    0    0  0.47839009441E+01 -0.24436916551E+02  0.50878014304E+02  0.56644690294E+02  0.51100000000E-03 0. -1.
         22    1    1    0    0    0 -0.20413069482E+02  0.62198943156E+01 -0.20013812196E+02  0.29256335546E+02  0.00000000000E+00 0. -1.
</event>
<event>
 5    1  0.8900327E-005  0.9118800E+02  0.7818608E-02  0.1130116E+00
         25   -1    0    0    0    0  0.00000000000E+00  0.00000000000E+00  0.99999998245E-14  0.12500000000E+03  0.12500000000E+03 0.  0.
        -11    1    3    3    0    0  0.34861514567E+02  0.33325946107E+02 -0.18735382492E+02  0.51739331646E+02  0.51100000000E-03 0. -1.
         23    2    1    0    0    0  0.11861293786E+02  0.23765429739E+02  0.15629467877E+02  0.94181722841E+02  0.88996801685E+02 0.  0.
         11    1    3    3    0    0 -0.23000220781E+02 -0.95605163679E+01  0.34364850369E+02  0.42442391195E+02  0.51100000000E-03 0.  1.
         22    1    1    0    0    0 -0.11861293786E+02 -0.23765429739E+02 -0.15629467877E+02  0.30818277159E+02  0.00000000000E+00 0. -1.
</event>
<event>
 5    1  0.8900327E-005  0.9118800E+02  0.7818608E-02  0.1130116E+00
         25   -1    0    0    0    0  0.00000000000E+00  0.00000000000E+00  0.99999998245E-14  0.12500000000E+03  0.12500000000E+03 0.  0.
        -11    1    3    3    0    0  0.21427643322E+02  0.16057923882E+02 -0.23958675404E+02  0.35930752081E+02  0.51100000000E-03 0.  1.
         23    2    1    0    0    0  0.14238393597E+02 -0.19034832371E+02  0.20907374244E+02  0.93342852412E+02  0.87810666225E+02 0.  0.
         11    1    3    3    0    0 -0.71892497249E+01 -0.35092756253E+02  0.44866049649E+02  0.57412100331E+02  0.51100000000E-03 0. -1.
         22    1    1    0    0    0 -0.14238393597E+02  0.19034832371E+02 -0.20907374244E+02  0.31657147588E+02  0.00000000000E+00 0. -1.
</event>
<event>
 5    1  0.8900327E-005  0.9118800E+02  0.7818608E-02  0.1130116E+00
         25   -1    0    0    0    0  0.00000000000E+00  0.00000000000E+00  0.99999998245E-14  0.12500000000E+03  0.12500000000E+03 0.  0.
        -11    1    3    3    0    0 -0.37516789674E+02 -0.34600798823E+02  0.29700860309E+02  0.59049690008E+02  0.51100000000E-03 0.  1.
         23    2    1    0    0    0 -0.87792433704E+01 -0.25979380957E+02  0.69298019950E+01  0.96715277891E+02  0.92486861082E+02 0.  0.
         11    1    3    3    0    0  0.28737546303E+02  0.86214178658E+01 -0.22771058315E+02  0.37665587883E+02  0.51100000000E-03 0. -1.
         22    1    1    0    0    0  0.87792433704E+01  0.25979380957E+02 -0.69298019950E+01  0.28284722109E+02  0.00000000000E+00 0.  1.
</event>
<event>
 5    1  0.8900327E-005  0.9118800E+02  0.7818608E-02  0.1130116E+00
         25   -1    0    0    0    0  0.00000000000E+00  0.00000000000E+00  0.99999998245E-14  0.12500000000E+03  0.12500000000E+03 0.  0.
        -11    1    3    3    0    0 -0.31676278660E+02 -0.17481612351E+02 -0.27351396981E+02  0.45355179607E+02  0.51100000000E-03 0. -1.
         23    2    1    0    0    0 -0.13566028940E+02 -0.94067308653E+01  0.21392825911E+02  0.97978217542E+02  0.94178311651E+02 0.  0.
         11    1    3    3    0    0  0.18110249720E+02  0.80748814854E+01  0.48744222891E+02  0.52623037935E+02  0.51100000000E-03 0.  1.
         22    1    1    0    0    0  0.13566028940E+02  0.94067308653E+01 -0.21392825911E+02  0.27021782458E+02  0.00000000000E+00 0.  1.
</event>
<event>
 5    1  0.8900327E-005  0.9118800E+02  0.7818608E-02  0.1130116E+00
         25   -1    0    0    0    0  0.00000000000E+00  0.00000000000E+00  0.99999998245E-14  0.12500000000E+03  0.12500000000E+03 0.  0.
        -11    1    3    3    0    0 -0.16905936360E+01  0.78063912412E+01  0.53241939568E+02  0.53837737511E+02  0.51100000000E-03 0.  1.
         23    2    1    0    0    0  0.15139367970E+02 -0.13280442375E+02  0.20508475227E+02  0.96256858760E+02  0.91865198471E+02 0.  0.
         11    1    3    3    0    0  0.16829961606E+02 -0.21086833616E+02 -0.32733464341E+02  0.42419121250E+02  0.51100000000E-03 0. -1.
         22    1    1    0    0    0 -0.15139367970E+02  0.13280442375E+02 -0.20508475227E+02  0.28743141240E+02  0.00000000000E+00 0.  1.
</event>
<event>
 5    1  0.8900327E-005  0.9118800E+02  0.7818608E-02  0.1130116E+00
         25   -1    0    0    0    0  0.00000000000E+00  0.00000000000E+00  0.99999998245E-14  0.12500000000E+03  0.12500000000E+03 0.  0.
        -11    1    3    3    0    0 -0.30221527224E+02 -0.11001763024E+02 -0.46444596335E+02  0.56493185663E+02  0.51100000000E-03 0.  1.
         23    2    1    0    0    0  0.35619608669E+01 -0.10785851845E+02 -0.27545883209E+02  0.95204063247E+02  0.90421323877E+02 0.  0.
         11    1    3    3    0    0  0.33783488090E+02  0.21591117915E+00  0.18898713126E+02  0.38710877584E+02  0.51100000000E-03 0. -1.
         22    1    1    0    0    0 -0.35619608669E+01  0.10785851845E+02  0.27545883209E+02  0.29795936753E+02  0.00000000000E+00 0.  1.
</event>
<event>
 5    1  0.8900327E-005  0.9118800E+02  0.7818608E-02  0.1130116E+00
         25   -1    0    0    0    0  0.00000000000E+00  0.00000000000E+00  0.99999998245E-14  0.12500000000E+03  0.12500000000E+03 0.  0.
        -11    1    3    3    0    0  0.15858440032E+02  0.46784590913E+02  0.33862660745E+02  0.59891300372E+02  0.51100000000E-03 0.  1.
         23    2    1    0    0    0 -0.42851421510E+01  0.26429796772E+02  0.13623741119E+02  0.94958313584E+02  0.90080954679E+02 0.  0.
         11    1    3    3    0    0 -0.20143582183E+02 -0.20354794141E+02 -0.20238919627E+02  0.35067013212E+02  0.51100000000E-03 0. -1.
         22    1    1    0    0    0  0.42851421510E+01 -0.26429796772E+02 -0.13623741119E+02  0.30041686416E+02  0.00000000000E+00 0.  1.
</event>
<event>
 5    1  0.8900327E-005  0.9118800E+02  0.7818608E-02  0.1130116E+00
         25   -1    0    0    0    0  0.00000000000E+00  0.00000000000E+00  0.99999998245E-14  0.12500000000E+03  0.12500000000E+03 0.  0.
        -11    1    3    3    0    0 -0.13329649640E+02  0.23690307423E+02 -0.23554737891E+02  0.35968540458E+02  0.51100000000E-03 0. -1.
         23    2    1    0    0    0 -0.20133368875E+02 -0.27276651064E+02 -0.45203420325E+01  0.90797635643E+02  0.84109505473E+02 0.  0.
         11    1    3    3    0    0 -0.68037192352E+01 -0.50966958487E+02  0.19034395859E+02  0.54829095185E+02  0.51100000000E-03 0.  1.
         22    1    1    0    0    0  0.20133368875E+02  0.27276651064E+02  0.45203420325E+01  0.34202364357E+02  0.00000000000E+00 0.  1.
</event>
<event>
 5    1  0.8900327E-005  0.9118800E+02  0.7818608E-02  0.1130116E+00
         25   -1    0    0    0    0  0.00000000000E+00  0.00000000000E+00  0.99999998245E-14  0.12500000000E+03  0.12500000000E+03 0.  0.
        -11    1    3    3    0    0  0.19017170626E+02  0.50967110613E+02 -0.13141247806E+02  0.55964198707E+02  0.51100000000E-03 0.  1.
         23    2    1    0    0    0  0.19672561349E+02  0.55805910994E+01 -0.11833053555E+02  0.10137429740E+03  0.98582829890E+02 0.  0.
         11    1    3    3    0    0  0.65539072317E+00 -0.45386519513E+02  0.13081942509E+01  0.45410098689E+02  0.51100000000E-03 0. -1.
         22    1    1    0    0    0 -0.19672561349E+02 -0.55805910994E+01  0.11833053555E+02  0.23625702603E+02  0.00000000000E+00 0.  1.
</event>
<event>
 5    1  0.8900327E-005  0.9118800E+02  0.7818608E-02  0.1130116E+00
         25   -1    0    0    0    0  0.00000000000E+00  0.00000000000E+00  0.99999998245E-14  0.12500000000E+03  0.12500000000E+03 0.  0.
        -11    1    3    3    0    0 -0.11060926607E+02  0.34962361257E+02 -0.20036018843E+02  0.41786993831E+02  0.51100000000E-03 0. -1.
         23    2    1    0    0    0 -0.11940547139E+00 -0.21949571827E+02 -0.11022734415E+02  0.10043786176E+03  0.97388220229E+02 0.  0.
         11    1    3    3    0    0  0.10941521136E+02 -0.56911933084E+02  0.90132844274E+01  0.58650867927E+02  0.51100000000E-03 0.  1.
         22    1    1    0    0    0  0.11940547139E+00  0.21949571827E+02  0.11022734415E+02  0.24562138243E+02  0.00000000000E+00 0.  1.
</event>
<event>
 5    1  0.8900327E-005  0.9118800E+02  0.7818608E-02  0.1130116E+00
         25   -1    0    0    0    0  0.00000000000E+00  0.00000000000E+00  0.99999998245E-14  0.12500000000E+03  0.12500000000E+03 0.  0.
        -11    1    3    3    0    0 -0.17423945983E+02  0.25668825337E+02 -0.24673199445E+02  0.39638986604E+02  0.51100000000E-03 0.  1.
         23    2    1    0    0    0  0.21848972015E+01  0.21323438906E+02  0.24315729916E+02  0.92585226456E+02  0.86725466929E+02 0.  0.
         11    1    3    3    0    0  0.19608843185E+02 -0.43453864315E+01  0.48988929361E+02  0.52946239853E+02  0.51100000000E-03 0. -1.
         22    1    1    0    0    0 -0.21848972015E+01 -0.21323438906E+02 -0.24315729916E+02  0.32414773544E+02  0.00000000000E+00 0. -1.
</event>
<event>
 5    1  0.8900327E-005  0.9118800E+02  0.7818608E-02  0.1130116E+00
         25   -1    0    0    0    0  0.00000000000E+00  0.00000000000E+00  0.99999998245E-14  0.12500000000E+03  0.12500000000E+03 0.  0.
        -11    1    3    3    0    0 -0.33981130508E+01  0.20919714220E+02 -0.47683646367E+02  0.52181526870E+02  0.51100000000E-03 0.  1.
         23    2    1    0    0    0  0.65548131898E+01  0.32563157476E+02 -0.14447287807E+02  0.88777784085E+02  0.81052119166E+02 0.  0.
         11    1    3    3    0    0  0.99529262407E+01  0.11643443256E+02  0.33236358560E+02  0.36596257216E+02  0.51100000000E-03 0. -1.
         22    1    1    0    0    0 -0.65548131898E+01 -0.32563157476E+02  0.14447287807E+02  0.36222215915E+02  0.00000000000E+00 0.  1.
</event>
<event>
 5    1  0.8900327E-005  0.9118800E+02  0.7818608E-02  0.1130116E+00
         25   -1    0    0    0    0  0.00000000000E+00  0.00000000000E+00  0.99999998245E-14  0.12500000000E+03  0.12500000000E+03 0.  0.
        -11    1    3    3    0    0 -0.60052165585E+02  0.72268867917E+01 -0.69033552842E+01  0.60878130709E+02  0.51100000000E-03 0. -1.
         23    2    1    0    0    0 -0.27684045541E+02 -0.27450774290E+01  0.49132224647E+01  0.96749662257E+02  0.92533321373E+02 0.  0.
         11    1    3    3    0    0  0.32368120045E+02 -0.99719642207E+01  0.11816577749E+02  0.35871531548E+02  0.51100000000E-03 0.  1.
         22    1    1    0    0    0  0.27684045541E+02  0.27450774290E+01 -0.49132224647E+01  0.28250337743E+02  0.00000000000E+00 0. -1.
</event>
<event>
 5    1  0.8900327E-005  0.9118800E+02  0.7818608E-02  0.1130116E+00
         25   -1    0    0    0    0  0.00000000000E+00  0.00000000000E+00  0.99999998245E-14  0.12500000000E+03  0.12500000000E+03 0.  0.
        -11    1    3    3    0    0  0.31362158971E+02 -0.10919182109E+02 -0.12739586730E+02  0.35568393603E+02  0.51100000000E-03 0. -1.
         23    2    1    0    0    0 -0.88735645902E+01  0.20493316064E+02  0.19001663298E+02  0.95678005526E+02  0.91074153202E+02 0.  0.
         11    1    3    3    0    0 -0.40235723561E+02  0.31412498172E+02  0.31741250028E+02  0.60109611923E+02  0.51100000000E-03 0.  1.
         22    1    1    0    0    0  0.88735645902E+01 -0.20493316064E+02 -0.19001663298E+02  0.29321994474E+02  0.00000000000E+00 0.  1.
</event>
<event>
 5    1  0.8900327E-005  0.9118800E+02  0.7818608E-02  0.1130116E+00
         25   -1    0    0    0    0  0.00000000000E+00  0.00000000000E+00  0.99999998245E-14  0.12500000000E+03  0.12500000000E+03 0.  0.
        -11    1    3    3    0    0 -0.34953625227E+02 -0.21873994477E+02 -0.39329570282E+02  0.56982827674E+02  0.51100000000E-03 0. -1.
         23    2    1    0    0    0 -0.32915206883E+00 -0.13042995550E+02 -0.27396091185E+02  0.94655743769E+02  0.89660113441E+02 0.  0.
         11    1    3    3    0    0  0.34624473158E+02  0.88309989263E+01  0.11933479097E+02  0.37672916095E+02  0.51100000000E-03 0.  1.
         22    1    1    0    0    0  0.32915206883E+00  0.13042995550E+02  0.27396091185E+02  0.30344256231E+02  0.00000000000E+00 0. -1.
</event>
<event>
 5    1  0.8900327E-005  0.9118800E+02  0.7818608E-02  0.1130116E+00
         25   -1    0    0    0    0  0.00000000000E+00  0.00000000000E+00  0.99999998245E-14  0.12500000000E+03  0.12500000000E+03 0.  0.
        -11    1    3    3    0    0 -0.44495692156E+02 -0.10542779922E+02 -0.39548027106E+02  0.60457119326E+02  0.51100000000E-03 0. -1.
         23    2    1    0    0    0 -0.23774949476E+02 -0.11752738289E+02 -0.98093625282E+01  0.96722824167E+02  0.92497059638E+02 0.  0.
         11    1    3    3    0    0  0.20720742680E+02 -0.12099583679E+01  0.29738664578E+02  0.36265704841E+02  0.51100000000E-03 0.  1.
         22    1    1    0    0    0  0.23774949476E+02  0.11752738289E+02  0.98093625282E+01  0.28277175833E+02  0.00000000000E+00 0. -1.
</event>
<event>
 5    1  0.8900327E-005  0.9118800E+02  0.7818608E-02  0.1130116E+00
         25   -1    0    0    0    0  0.00000000000E+00  0.00000000000E+00  0.99999998245E-14  0.12500000000E+03  0.12500000000E+03 0.  0.
        -11    1    3    3    0    0  0.20495005403E+02  0.15185452059E+02 -0.22792023103E+02  0.34207009780E+02  0.51100000000E-03 0.  1.
         23    2    1    0    0    0 -0.21414671586E+02  0.43568478001E+01  0.20218529996E+02  0.95228214076E+02  0.90454704240E+02 0.  0.
         11    1    3    3    0    0 -0.41909676989E+02 -0.10828604259E+02  0.43010553099E+02  0.61021204296E+02  0.51100000000E-03 0. -1.
         22    1    1    0    0    0  0.21414671586E+02 -0.43568478001E+01 -0.20218529996E+02  0.29771785924E+02  0.00000000000E+00 0. -1.
</event>
<event>
 5    1  0.8900327E-005  0.9118800E+02  0.7818608E-02  0.1130116E+00
         25   -1    0    0    0    0  0.00000000000E+00  0.00000000000E+00  0.99999998245E-14  0.12500000000E+03  0.12500000000E+03 0.  0.
        -11    1    3    3    0    0 -0.16001314130E+02  0.16123508575E+02 -0.97501361441E+01  0.24719925925E+02  0.51100000000E-03 0.  1.
         23    2    1    0    0    0  0.25080727779E+02 -0.24025812929E+02  0.14872929202E+02  0.87217906148E+02  0.78609646590E+02 0.  0.
         11    1    3    3    0    0  0.41082041909E+02 -0.40149321504E+02  0.24623065346E+02  0.62497980223E+02  0.51100000000E-03 0. -1.
         22    1    1    0    0    0 -0.25080727779E+02  0.24025812929E+02 -0.14872929202E+02  0.37782093852E+02  0.00000000000E+00 0. -1.
</event>
<event>
 5    1  0.8900327E-005  0.9118800E+02  0.7818608E-02  0.1130116E+00
         25   -1    0    0    0    0  0.00000000000E+00  0.00000000000E+00  0.99999998245E-14  0.12500000000E+03  0.12500000000E+03 0.  0.
        -11    1    3    3    0    0  0.34758616077E+02 -0.39337079640E+02 -0.18008196812E+02  0.55496507808E+02  0.51100000000E-03 0.  1.
         23    2    1    0    0    0  0.29703017923E+02 -0.79216674037E+01 -0.21469544038E+02  0.87503821403E+02  0.79062983442E+02 0.  0.
         11    1    3    3    0    0 -0.50555981533E+01  0.31415412237E+02 -0.34613472255E+01  0.32007313595E+02  0.51100000000E-03 0. -1.
         22    1    1    0    0    0 -0.29703017923E+02  0.79216674037E+01  0.21469544038E+02  0.37496178597E+02  0.00000000000E+00 0.  1.
</event>
<event>
 5    1  0.8900327E-005  0.9118800E+02  0.7818608E-02  0.1130116E+00
         25   -1    0    0    0    0  0.00000000000E+00  0.00000000000E+00  0.99999998245E-14  0.12500000000E+03  0.12500000000E+03 0.  0.
        -11    1    3    3    0    0 -0.29725802440E+02 -0.22273220664E+02  0.28354798222E+00  0.37145660436E+02  0.51100000000E-03 0.  1.
         23    2    1    0    0    0  0.27480327392E+02 -0.72667293938E+01  0.34181857385E+01  0.96370334557E+02  0.92019474239E+02 0.  0.
         11    1    3    3    0    0  0.57206129832E+02  0.15006491271E+02  0.31346377563E+01  0.59224674121E+02  0.51100000000E-03 0. -1.
         22    1    1    0    0    0 -0.27480327392E+02  0.72667293938E+01 -0.34181857385E+01  0.28629665443E+02  0.00000000000E+00 0. -1.
</event>
<event>
 5    1  0.8900327E-005  0.9118800E+02  0.7818608E-02  0.1130116E+00
         25   -1    0    0    0    0  0.00000000000E+00  0.00000000000E+00  0.99999998245E-14  0.12500000000E+03  0.12500000000E+03 0.  0.
        -11    1    3    3    0    0  0.22795860368E+02 -0.24090912721E+02 -0.27754408099E+02  0.43247317776E+02  0.51100000000E-03 0. -1.
         23    2    1    0    0    0 -0.19749335430E+02  0.10123662248E+02 -0.10004786731E+02  0.10065620110E+03  0.97668061696E+02 0.  0.
         11    1    3    3    0    0 -0.42545195798E+02  0.34214574968E+02  0.17749621368E+02  0.57408883326E+02  0.51100000000E-03 0.  1.
         22    1    1    0    0    0  0.19749335430E+02 -0.10123662248E+02  0.10004786731E+02  0.24343798898E+02  0.00000000000E+00 0.  1.
</event>
<event>
 5    1  0.8900327E-005  0.9118800E+02  0.7818608E-02  0.1130116E+00
         25   -1    0    0    0    0  0.00000000000E+00  0.00000000000E+00  0.99999998245E-14  0.12500000000E+03  0.12500000000E+03 0.  0.
        -11    1    3    3    0    0 -0.28698146000E+01 -0.29810882636E+02  0.19411306785E+02  0.35689261560E+02  0.51100000000E-03 0.  1.
         23    2    1    0    0    0  0.10907714595E+02  0.22661998955E+02  0.24130549898E+02  0.90145619031E+02  0.83134858861E+02 0.  0.
         11    1    3    3    0    0  0.13777529195E+02  0.52472881591E+02  0.47192431136E+01  0.54456357471E+02  0.51100000000E-03 0. -1.
         22    1    1    0    0    0 -0.10907714595E+02 -0.22661998955E+02 -0.24130549898E+02  0.34854380969E+02  0.00000000000E+00 0. -1.
</event>
<event>
 5    1  0.8900327E-005  0.9118800E+02  0.7818608E-02  0.1130116E+00
         25   -1    0    0    0    0  0.00000000000E+00  0.00000000000E+00  0.99999998245E-14  0.12500000000E+03  0.12500000000E+03 0.  0.
        -11    1    3    3    0    0  0.22355174128E+02  0.10622196880E+02 -0.35352884294E+02  0.43155663650E+02  0.51100000000E-03 0.  1.
         23    2    1    0    0    0  0.26124527023E+02 -0.24107018848E+02 -0.29976657807E+02  0.78500115235E+02  0.63245780956E+02 0.  0.
         11    1    3    3    0    0  0.37693528948E+01 -0.34729215729E+02  0.53762264878E+01  0.35344451585E+02  0.51100000000E-03 0. -1.
         22    1    1    0    0    0 -0.26124527023E+02  0.24107018848E+02  0.29976657807E+02  0.46499884765E+02  0.00000000000E+00 0.  1.
</event>
<event>
 5    1  0.8900327E-005  0.9118800E+02  0.7818608E-02  0.1130116E+00
         25   -1    0    0    0    0  0.00000000000E+00  0.00000000000E+00  0.99999998245E-14  0.12500000000E+03  0.12500000000E+03 0.  0.
        -11    1    3    3    0    0 -0.16660348353E+02 -0.13110598083E+02  0.32459659410E+02  0.38769633459E+02  0.51100000000E-03 0.  1.
         23    2    1    0    0    0 -0.14172223388E+02 -0.92344359028E+00 -0.24287945433E+02  0.96864453849E+02  0.92688259571E+02 0.  0.
         11    1    3    3    0    0  0.24881249642E+01  0.12187154492E+02 -0.56747604843E+02  0.58094820390E+02  0.51100000000E-03 0. -1.
         22    1    1    0    0    0  0.14172223388E+02  0.92344359028E+00  0.24287945433E+02  0.28135546151E+02  0.00000000000E+00 0. -1.
</event>
<event>
 5    1  0.8900327E-005  0.9118800E+02  0.7818608E-02  0.1130116E+00
         25   -1    0    0    0    0  0.00000000000E+00  0.00000000000E+00  0.99999998245E-14  0.12500000000E+03  0.12500000000E+03 0.  0.
        -11    1    3    3    0    0  0.37363138957E+02 -0.27322349766E+02  0.41382709795E+02  0.62088997574E+02  0.51100000000E-03 0.  1.
         23    2    1    0    0    0  0.21271713235E+02 -0.95593103485E+01  0.18414486086E+02  0.95285365624E+02  0.90533647922E+02 0.  0.
         11    1    3    3    0    0 -0.16091425723E+02  0.17763039417E+02 -0.22968223709E+02  0.33196368051E+02  0.51100000000E-03 0. -1.
         22    1    1    0    0    0 -0.21271713235E+02  0.95593103485E+01 -0.18414486086E+02  0.29714634376E+02  0.00000000000E+00 0.  1.
</event>
<event>
 5    1  0.8900327E-005  0.9118800E+02  0.7818608E-02  0.1130116E+00
         25   -1    0    0    0    0  0.00000000000E+00  0.00000000000E+00  0.99999998245E-14  0.12500000000E+03  0.12500000000E+03 0.  0.
        -11    1    3    3    0    0 -0.33066768650E+02 -0.37978266958E+02 -0.28051106093E+02  0.57642211125E+02  0.51100000000E-03 0.  1.
         23    2    1    0    0    0 -0.46632795631E+01 -0.28300240581E+02 -0.41194369322E+01  0.96023810570E+02  0.91547543072E+02 0.  0.
         11    1    3    3    0    0  0.28403489087E+02  0.96780263769E+01  0.23931669161E+02  0.38381599445E+02  0.51100000000E-03 0. -1.
         22    1    1    0    0    0  0.46632795631E+01  0.28300240581E+02  0.41194369322E+01  0.28976189430E+02  0.00000000000E+00 0.  1.
</event>
<event>
 5    1  0.8900327E-005  0.9118800E+02  0.7818608E-02  0.1130116E+00
         25   -1    0    0    0    0  0.00000000000E+00  0.00000000000E+00  0.99999998245E-14  0.12500000000E+03  0.12500000000E+03 0.  0.
        -11    1    3    3    0    0 -0.11465059453E+02  0.37677386062E+02 -0.14386497717E+01  0.39409424281E+02  0.51100000000E-03 0.  1.
         23    2    1    0    0    0 -0.15081491246E+01 -0.10519643636E+02  0.26813771468E+02  0.96157050144E+02  0.91729289412E+02 0.  0.
         11    1    3    3    0    0  0.99569103284E+01 -0.48197029698E+02  0.28252421240E+02  0.56747625864E+02  0.51100000000E-03 0. -1.
         22    1    1    0    0    0  0.15081491246E+01  0.10519643636E+02 -0.26813771468E+02  0.28842949856E+02  0.00000000000E+00 0. -1.
</event>
<event>
 5    1  0.8900327E-005  0.9118800E+02  0.7818608E-02  0.1130116E+00
         25   -1    0    0    0    0  0.00000000000E+00  0.00000000000E+00  0.99999998245E-14  0.12500000000E+03  0.12500000000E+03 0.  0.
        -11    1    3    3    0    0 -0.41264630764E+02 -0.21758437213E+02 -0.27262645625E+01  0.46729346890E+02  0.51100000000E-03 0.  1.
         23    2    1    0    0    0 -0.58887260822E+01  0.10071904790E+02  0.21806264389E+02  0.10026877424E+03  0.97170950186E+02 0.  0.
         11    1    3    3    0    0  0.35375904681E+02  0.31830342003E+02  0.24532528951E+02  0.53539427351E+02  0.51100000000E-03 0. -1.
         22    1    1    0    0    0  0.58887260822E+01 -0.10071904790E+02 -0.21806264389E+02  0.24731225760E+02  0.00000000000E+00 0. -1.
</event>
<event>
 5    1  0.8900327E-005  0.9118800E+02  0.7818608E-02  0.1130116E+00
         25   -1    0    0    0    0  0.00000000000E+00  0.00000000000E+00  0.99999998245E-14  0.12500000000E+03  0.12500000000E+03 0.  0.
        -11    1    3    3    0    0  0.24667202061E+02 -0.58917832657E+01 -0.23358130082E+02  0.34478779108E+02  0.51100000000E-03 0.  1.
         23    2    1    0    0    0 -0.26164002555E+02 -0.16653987448E+01  0.11616683471E+02  0.96324646165E+02  0.91957389814E+02 0.  0.
         11    1    3    3    0    0 -0.50831204615E+02  0.42263845209E+01  0.34974813554E+02  0.61845867058E+02  0.51100000000E-03 0. -1.
         22    1    1    0    0    0  0.26164002555E+02  0.16653987448E+01 -0.11616683471E+02  0.28675353835E+02  0.00000000000E+00 0. -1.
</event>
<event>
 5    1  0.8900327E-005  0.9118800E+02  0.7818608E-02  0.1130116E+00
         25   -1    0    0    0    0  0.00000000000E+00  0.00000000000E+00  0.99999998245E-14  0.12500000000E+03  0.12500000000E+03 0.  0.
        -11    1    3    3    0    0 -0.10985173843E+02  0.11200432164E+02  0.40931372680E+02  0.43834928935E+02  0.51100000000E-03 0.  1.
         23    2    1    0    0    0 -0.13592518211E+02  0.37263335176E+02  0.10535205035E+02  0.83959736296E+02  0.73245710278E+02 0.  0.
         11    1    3    3    0    0 -0.26073443679E+01  0.26062903011E+02 -0.30396167645E+02  0.40124807361E+02  0.51100000000E-03 0. -1.
         22    1    1    0    0    0  0.13592518211E+02 -0.37263335176E+02 -0.10535205035E+02  0.41040263704E+02  0.00000000000E+00 0.  1.
</event>
<event>
 5    1  0.8900327E-005  0.9118800E+02  0.7818608E-02  0.1130116E+00
         25   -1    0    0    0    0  0.00000000000E+00  0.00000000000E+00  0.99999998245E-14  0.12500000000E+03  0.12500000000E+03 0.  0.
        -11    1    3    3    0    0  0.24731167381E+02 -0.34212970894E+02 -0.32009204595E+02  0.52978742874E+02  0.51100000000E-03 0.  1.
         23    2    1    0    0    0 -0.95657271299E+01 -0.26897894428E+02 -0.84442467424E+01  0.95229122230E+02  0.90455959214E+02 0.  0.
         11    1    3    3    0    0 -0.34296894511E+02  0.73150764663E+01  0.23564957853E+02  0.42250379355E+02  0.51100000000E-03 0. -1.
         22    1    1    0    0    0  0.95657271299E+01  0.26897894428E+02  0.84442467424E+01  0.29770877770E+02  0.00000000000E+00 0.  1.
</event>
<event>
 5    1  0.8900327E-005  0.9118800E+02  0.7818608E-02  0.1130116E+00
         25   -1    0    0    0    0  0.00000000000E+00  0.00000000000E+00  0.99999998245E-14  0.12500000000E+03  0.12500000000E+03 0.  0.
        -11    1    3    3    0    0 -0.18025500083E+02 -0.65797739385E+01  0.32917742986E+02  0.38102360581E+02  0.51100000000E-03 0.  1.
         23    2    1    0    0    0 -0.80347855034E+01 -0.16912948961E+02 -0.22715281427E+02  0.95562105528E+02  0.90914940368E+02 0.  0.
         11    1    3    3    0    0  0.99907145796E+01 -0.10333175022E+02 -0.55633024412E+02  0.57459744947E+02  0.51100000000E-03 0. -1.
         22    1    1    0    0    0  0.80347855034E+01  0.16912948961E+02  0.22715281427E+02  0.29437894472E+02  0.00000000000E+00 0. -1.
</event>
<event>
 5    1  0.8900327E-005  0.9118800E+02  0.7818608E-02  0.1130116E+00
         25   -1    0    0    0    0  0.00000000000E+00  0.00000000000E+00  0.99999998245E-14  0.12500000000E+03  0.12500000000E+03 0.  0.
        -11    1    3    3    0    0 -0.12056014882E+01 -0.60584860883E+02 -0.19937413594E+01  0.60629644961E+02  0.51100000000E-03 0.  1.
         23    2    1    0    0    0  0.27853241179E+01 -0.25898392480E+02 -0.11057818545E+02  0.96702294891E+02  0.92469312330E+02 0.  0.
         11    1    3    3    0    0  0.39909256062E+01  0.34686468404E+02 -0.90640771855E+01  0.36072649930E+02  0.51100000000E-03 0. -1.
         22    1    1    0    0    0 -0.27853241179E+01  0.25898392480E+02  0.11057818545E+02  0.28297705109E+02  0.00000000000E+00 0.  1.
</event>
<event>
 4    1  0.8900327E-005  0.9118800E+02  0.7818608E-02  0.1130116E+00
         25   -1    0    0    0    0  0.00000000000E+00  0.00000000000E+00  0.99999998245E-14  0.12500000000E+03  0.12500000000E+03 0.  0.
        -11    1    1    0    0    0 -0.89330621996E+01 -0.36017299172E+02 -0.47767793519E+02  0.60488077650E+02  0.51100000000E-03 0.  1.
         11    1    1    0    0    0  0.72169887728E+01  0.47891040287E+01  0.16935177925E+01  0.88254431684E+01  0.51100000000E-03 0. -1.
         22    1    1    0    0    0  0.17160734268E+01  0.31228195144E+02  0.46074275726E+02  0.55686479181E+02  0.00000000000E+00 0.  1.
</event>
<event>
 5    1  0.8900327E-005  0.9118800E+02  0.7818608E-02  0.1130116E+00
         25   -1    0    0    0    0  0.00000000000E+00  0.00000000000E+00  0.99999998245E-14  0.12500000000E+03  0.12500000000E+03 0.  0.
        -11    1    3    3    0    0 -0.16911469685E+02 -0.23323710387E+02  0.37423689956E+02  0.47228443160E+02  0.51100000000E-03 0.  1.
         23    2    1    0    0    0  0.15609878458E+02 -0.26418984871E+02  0.38492780073E+01  0.94073506370E+02  0.88844676782E+02 0.  0.
         11    1    3    3    0    0  0.32521348143E+02 -0.30952744840E+01 -0.33574411949E+02  0.46845063210E+02  0.51100000000E-03 0. -1.
         22    1    1    0    0    0 -0.15609878458E+02  0.26418984871E+02 -0.38492780073E+01  0.30926493630E+02  0.00000000000E+00 0.  1.
</event>
<event>
 5    1  0.8900327E-005  0.9118800E+02  0.7818608E-02  0.1130116E+00
         25   -1    0    0    0    0  0.00000000000E+00  0.00000000000E+00  0.99999998245E-14  0.12500000000E+03  0.12500000000E+03 0.  0.
        -11    1    3    3    0    0  0.11219380500E+02  0.99096891451E+01  0.47158684620E+02  0.49477449137E+02  0.51100000000E-03 0. -1.
         23    2    1    0    0    0  0.19710444693E+02  0.21557283350E+02  0.33474350232E+01  0.95598921505E+02  0.90965544995E+02 0.  0.
         11    1    3    3    0    0  0.84910641933E+01  0.11647594205E+02 -0.43811249597E+02  0.46121472368E+02  0.51100000000E-03 0.  1.
         22    1    1    0    0    0 -0.19710444693E+02 -0.21557283350E+02 -0.33474350232E+01  0.29401078495E+02  0.00000000000E+00 0. -1.
</event>
<event>
 5    1  0.8900327E-005  0.9118800E+02  0.7818608E-02  0.1130116E+00
         25   -1    0    0    0    0  0.00000000000E+00  0.00000000000E+00  0.99999998245E-14  0.12500000000E+03  0.12500000000E+03 0.  0.
        -11    1    3    3    0    0 -0.38223325064E+02  0.21755785439E+02 -0.40503325086E+02  0.59790100538E+02  0.51100000000E-03 0.  1.
         23    2    1    0    0    0 -0.16404254922E+02  0.21851494823E+02 -0.13451743519E+02  0.94544511016E+02  0.89504903520E+02 0.  0.
         11    1    3    3    0    0  0.21819070142E+02  0.95709384465E-01  0.27051581567E+02  0.34754410479E+02  0.51100000000E-03 0. -1.
         22    1    1    0    0    0  0.16404254922E+02 -0.21851494823E+02  0.13451743519E+02  0.30455488984E+02  0.00000000000E+00 0.  1.
</event>
<event>
 5    1  0.8900327E-005  0.9118800E+02  0.7818608E-02  0.1130116E+00
         25   -1    0    0    0    0  0.00000000000E+00  0.00000000000E+00  0.99999998245E-14  0.12500000000E+03  0.12500000000E+03 0.  0.
        -11    1    3    3    0    0  0.40281839127E+02  0.22772751698E+02  0.89510141008E+01  0.47131151450E+02  0.51100000000E-03 0. -1.
         23    2    1    0    0    0 -0.90701809812E+01  0.26001034187E+02  0.67989768804E+01  0.96635443800E+02  0.92378898835E+02 0.  0.
         11    1    3    3    0    0 -0.49352020108E+02  0.32282824888E+01 -0.21520372204E+01  0.49504292350E+02  0.51100000000E-03 0.  1.
         22    1    1    0    0    0  0.90701809812E+01 -0.26001034187E+02 -0.67989768804E+01  0.28364556200E+02  0.00000000000E+00 0.  1.
</event>
<event>
 5    1  0.8900327E-005  0.9118800E+02  0.7818608E-02  0.1130116E+00
         25   -1    0    0    0    0  0.00000000000E+00  0.00000000000E+00  0.99999998245E-14  0.12500000000E+03  0.12500000000E+03 0.  0.
        -11    1    3    3    0    0 -0.12589406376E+02  0.22169471973E+02  0.55642783168E+02  0.61205375250E+02  0.51100000000E-03 0.  1.
         23    2    1    0    0    0  0.98445132948E+00  0.53028030299E+01  0.28839941979E+02  0.95660076385E+02  0.91049541989E+02 0.  0.
         11    1    3    3    0    0  0.13573857705E+02 -0.16866668943E+02 -0.26802841190E+02  0.34454701136E+02  0.51100000000E-03 0. -1.
         22    1    1    0    0    0 -0.98445132948E+00 -0.53028030299E+01 -0.28839941979E+02  0.29339923615E+02  0.00000000000E+00 0.  1.
</event>
<event>
 5    1  0.8900327E-005  0.9118800E+02  0.7818608E-02  0.1130116E+00
         25   -1    0    0    0    0  0.00000000000E+00  0.00000000000E+00  0.99999998245E-14  0.12500000000E+03  0.12500000000E+03 0.  0.
        -11    1    3    3    0    0  0.15704220218E+02 -0.20010103181E+02  0.19402261291E+02  0.31991788094E+02  0.51100000000E-03 0. -1.
         23    2    1    0    0    0 -0.21003555099E+02  0.14534580942E+02 -0.17130846376E+02  0.94245012315E+02  0.89085650241E+02 0.  0.
         11    1    3    3    0    0 -0.36707775317E+02  0.34544684123E+02 -0.36533107667E+02  0.62253224221E+02  0.51100000000E-03 0.  1.
         22    1    1    0    0    0  0.21003555099E+02 -0.14534580942E+02  0.17130846376E+02  0.30754987685E+02  0.00000000000E+00 0.  1.
</event>
<event>
 5    1  0.8900327E-005  0.9118800E+02  0.7818608E-02  0.1130116E+00
         25   -1    0    0    0    0  0.00000000000E+00  0.00000000000E+00  0.99999998245E-14  0.12500000000E+03  0.12500000000E+03 0.  0.
        -11    1    3    3    0    0  0.40374373848E+01  0.21855877199E+02 -0.24444746493E+02  0.33038249048E+02  0.51100000000E-03 0. -1.
         23    2    1    0    0    0 -0.21004178968E+01 -0.14838878517E+02  0.25563057489E+02  0.95367686908E+02  0.90647237834E+02 0.  0.
         11    1    3    3    0    0 -0.61378552817E+01 -0.36694755716E+02  0.50007803983E+02  0.62329437860E+02  0.51100000000E-03 0.  1.
         22    1    1    0    0    0  0.21004178968E+01  0.14838878517E+02 -0.25563057489E+02  0.29632313092E+02  0.00000000000E+00 0.  1.
</event>
<event>
 5    1  0.8900327E-005  0.9118800E+02  0.7818608E-02  0.1130116E+00
         25   -1    0    0    0    0  0.00000000000E+00  0.00000000000E+00  0.99999998245E-14  0.12500000000E+03  0.12500000000E+03 0.  0.
        -11    1    3    3    0    0  0.33550613439E+02  0.29339983097E+02  0.41133489930E+02  0.60650162938E+02  0.51100000000E-03 0. -1.
         23    2    1    0    0    0  0.19824181685E+02  0.18662372681E+02  0.10611677902E+02  0.95778603020E+02  0.91212119562E+02 0.  0.
         11    1    3    3    0    0 -0.13726431754E+02 -0.10677610415E+02 -0.30521812028E+02  0.35128440082E+02  0.51100000000E-03 0.  1.
         22    1    1    0    0    0 -0.19824181685E+02 -0.18662372681E+02 -0.10611677902E+02  0.29221396980E+02  0.00000000000E+00 0. -1.
</event>
<event>
 5    1  0.8900327E-005  0.9118800E+02  0.7818608E-02  0.1130116E+00
         25   -1    0    0    0    0  0.00000000000E+00  0.00000000000E+00  0.99999998245E-14  0.12500000000E+03  0.12500000000E+03 0.  0.
        -11    1    3    3    0    0 -0.69617330501E+01  0.64371690116E+01 -0.36179341449E+02  0.37401171370E+02  0.51100000000E-03 0. -1.
         23    2    1    0    0    0  0.22815963110E+02  0.10134101671E+02  0.14376410447E+02  0.96191158185E+02  0.91775756855E+02 0.  0.
         11    1    3    3    0    0  0.29777696160E+02  0.36969326599E+01  0.50555751896E+02  0.58789986815E+02  0.51100000000E-03 0.  1.
         22    1    1    0    0    0 -0.22815963110E+02 -0.10134101671E+02 -0.14376410447E+02  0.28808841815E+02  0.00000000000E+00 0.  1.
</event>
<event>
 5    1  0.8900327E-005  0.9118800E+02  0.7818608E-02  0.1130116E+00
         25   -1    0    0    0    0  0.00000000000E+00  0.00000000000E+00  0.99999998245E-14  0.12500000000E+03  0.12500000000E+03 0.  0.
        -11    1    3    3    0    0 -0.57821754877E+02 -0.13574332290E+02  0.58473719409E+01  0.59680898059E+02  0.51100000000E-03 0.  1.
         23    2    1    0    0    0 -0.27958527516E+02  0.68927511125E+01  0.12281309164E+01  0.96178175209E+02  0.91758072137E+02 0.  0.
         11    1    3    3    0    0  0.29863227362E+02  0.20467083403E+02 -0.46192410245E+01  0.36497277150E+02  0.51100000000E-03 0. -1.
         22    1    1    0    0    0  0.27958527516E+02 -0.68927511125E+01 -0.12281309164E+01  0.28821824791E+02  0.00000000000E+00 0.  1.
</event>
<event>
 5    1  0.8900327E-005  0.9118800E+02  0.7818608E-02  0.1130116E+00
         25   -1    0    0    0    0  0.00000000000E+00  0.00000000000E+00  0.99999998245E-14  0.12500000000E+03  0.12500000000E+03 0.  0.
        -11    1    3    3    0    0  0.53186288073E+01 -0.40389596121E+01  0.58529940707E+02  0.58909718778E+02  0.51100000000E-03 0.  1.
         23    2    1    0    0    0 -0.87653330305E+01 -0.11711444629E+02  0.26507068384E+02  0.94724371638E+02  0.89755740259E+02 0.  0.
         11    1    3    3    0    0 -0.14083961838E+02 -0.76724850165E+01 -0.32022872323E+02  0.35814652860E+02  0.51100000000E-03 0. -1.
         22    1    1    0    0    0  0.87653330305E+01  0.11711444629E+02 -0.26507068384E+02  0.30275628362E+02  0.00000000000E+00 0.  1.
</event>
<event>
 5    1  0.8900327E-005  0.9118800E+02  0.7818608E-02  0.1130116E+00
         25   -1    0    0    0    0  0.00000000000E+00  0.00000000000E+00  0.99999998245E-14  0.12500000000E+03  0.12500000000E+03 0.  0.
        -11    1    3    3    0    0 -0.15024745758E+02 -0.21283557590E+02  0.52803429889E+02  0.58880684584E+02  0.51100000000E-03 0. -1.
         23    2    1    0    0    0 -0.17040456485E+02 -0.17332621489E+02  0.16113671208E+02  0.95837569980E+02  0.91292894000E+02 0.  0.
         11    1    3    3    0    0 -0.20157107270E+01  0.39509361011E+01 -0.36689758681E+02  0.36956885396E+02  0.51100000000E-03 0.  1.
         22    1    1    0    0    0  0.17040456485E+02  0.17332621489E+02 -0.16113671208E+02  0.29162430020E+02  0.00000000000E+00 0. -1.
</event>
<event>
 5    1  0.8900327E-005  0.9118800E+02  0.7818608E-02  0.1130116E+00
         25   -1    0    0    0    0  0.00000000000E+00  0.00000000000E+00  0.99999998245E-14  0.12500000000E+03  0.12500000000E+03 0.  0.
        -11    1    3    3    0    0  0.40831879300E+02 -0.12803854810E+02 -0.23302356185E+02  0.48725566894E+02  0.51100000000E-03 0. -1.
         23    2    1    0    0    0 -0.57318760910E+01 -0.10176574991E+02 -0.27072450827E+02  0.95515518050E+02  0.90850864127E+02 0.  0.
         11    1    3    3    0    0 -0.46563755391E+02  0.26272798193E+01 -0.37700946418E+01  0.46789951156E+02  0.51100000000E-03 0.  1.
         22    1    1    0    0    0  0.57318760910E+01  0.10176574991E+02  0.27072450827E+02  0.29484481950E+02  0.00000000000E+00 0. -1.
</event>
<event>
 5    1  0.8900327E-005  0.9118800E+02  0.7818608E-02  0.1130116E+00
         25   -1    0    0    0    0  0.00000000000E+00  0.00000000000E+00  0.99999998245E-14  0.12500000000E+03  0.12500000000E+03 0.  0.
        -11    1    3    3    0    0  0.90869604783E+00  0.41779344990E+02 -0.22878837026E+02  0.47642214267E+02  0.51100000000E-03 0. -1.
         23    2    1    0    0    0  0.17027794113E+02 -0.24099750070E+01 -0.24917721114E+02  0.94723828224E+02  0.89754983460E+02 0.  0.
         11    1    3    3    0    0  0.16119098065E+02 -0.44189319997E+02 -0.20388840886E+01  0.47081613957E+02  0.51100000000E-03 0.  1.
         22    1    1    0    0    0 -0.17027794113E+02  0.24099750070E+01  0.24917721114E+02  0.30276171776E+02  0.00000000000E+00 0. -1.
</event>
<event>
 5    1  0.8900327E-005  0.9118800E+02  0.7818608E-02  0.1130116E+00
         25   -1    0    0    0    0  0.00000000000E+00  0.00000000000E+00  0.99999998245E-14  0.12500000000E+03  0.12500000000E+03 0.  0.
        -11    1    3    3    0    0  0.42937035009E+02  0.12534821177E+02 -0.30128006578E+02  0.53929653234E+02  0.51100000000E-03 0. -1.
         23    2    1    0    0    0  0.14448780343E+02  0.25745044922E+02 -0.31848566380E+01  0.95306264916E+02  0.90562499021E+02 0.  0.
         11    1    3    3    0    0 -0.28488254666E+02  0.13210223745E+02  0.26943149940E+02  0.41376611682E+02  0.51100000000E-03 0.  1.
         22    1    1    0    0    0 -0.14448780343E+02 -0.25745044922E+02  0.31848566380E+01  0.29693735084E+02  0.00000000000E+00 0. -1.
</event>
<event>
 5    1  0.8900327E-005  0.9118800E+02  0.7818608E-02  0.1130116E+00
         25   -1    0    0    0    0  0.00000000000E+00  0.00000000000E+00  0.99999998245E-14  0.12500000000E+03  0.12500000000E+03 0.  0.
        -11    1    3    3    0    0 -0.29674609790E+02 -0.24388338149E+02  0.33844293509E+02  0.51193844428E+02  0.51100000000E-03 0. -1.
         23    2    1    0    0    0 -0.33795311968E+02 -0.53587929759E+01 -0.61890310289E+00  0.90776867265E+02  0.84078634719E+02 0.  0.
         11    1    3    3    0    0 -0.41207021777E+01  0.19029545173E+02 -0.34463196612E+02  0.39583022837E+02  0.51100000000E-03 0.  1.
         22    1    1    0    0    0  0.33795311968E+02  0.53587929759E+01  0.61890310289E+00  0.34223132735E+02  0.00000000000E+00 0. -1.
</event>
<event>
 5    1  0.8900327E-005  0.9118800E+02  0.7818608E-02  0.1130116E+00
         25   -1    0    0    0    0  0.00000000000E+00  0.00000000000E+00  0.99999998245E-14  0.12500000000E+03  0.12500000000E+03 0.  0.
        -11    1    3    3    0    0  0.33700422989E+02  0.40496813770E+02 -0.31911645539E+02  0.61595970294E+02  0.51100000000E-03 0.  1.
         23    2    1    0    0    0  0.11488726587E+02  0.22673840222E+02 -0.20764955342E+02  0.92178098176E+02  0.86136662021E+02 0.  0.
         11    1    3    3    0    0 -0.22211696402E+02 -0.17822973549E+02  0.11146690197E+02  0.30582127882E+02  0.51100000000E-03 0. -1.
         22    1    1    0    0    0 -0.11488726587E+02 -0.22673840222E+02  0.20764955342E+02  0.32821901824E+02  0.00000000000E+00 0.  1.
</event>
<event>
 5    1  0.8900327E-005  0.9118800E+02  0.7818608E-02  0.1130116E+00
         25   -1    0    0    0    0  0.00000000000E+00  0.00000000000E+00  0.99999998245E-14  0.12500000000E+03  0.12500000000E+03 0.  0.
        -11    1    3    3    0    0  0.45053868418E+02 -0.32711792641E+02  0.24413754939E+02  0.60794274958E+02  0.51100000000E-03 0.  1.
         23    2    1    0    0    0  0.15903755500E+02 -0.16507617922E+02  0.20268107450E+02  0.94402172167E+02  0.89305895896E+02 0.  0.
         11    1    3    3    0    0 -0.29150112918E+02  0.16204174719E+02 -0.41456474885E+01  0.33607897209E+02  0.51100000000E-03 0. -1.
         22    1    1    0    0    0 -0.15903755500E+02  0.16507617922E+02 -0.20268107450E+02  0.30597827833E+02  0.00000000000E+00 0.  1.
</event>
<event>
 5    1  0.8900327E-005  0.9118800E+02  0.7818608E-02  0.1130116E+00
         25   -1    0    0    0    0  0.00000000000E+00  0.00000000000E+00  0.99999998245E-14  0.12500000000E+03  0.12500000000E+03 0.  0.
        -11    1    3    3    0    0 -0.29898674535E+01  0.41524527682E+02  0.14893050459E+02  0.44215706020E+02  0.51100000000E-03 0.  1.
         23    2    1    0    0    0  0.24119879985E+02 -0.22172116754E+01  0.16483497214E+02  0.95701701099E+02  0.91106669760E+02 0.  0.
         11    1    3    3    0    0  0.27109747438E+02 -0.43741739357E+02  0.15904467550E+01  0.51485995079E+02  0.51100000000E-03 0. -1.
         22    1    1    0    0    0 -0.24119879985E+02  0.22172116754E+01 -0.16483497214E+02  0.29298298901E+02  0.00000000000E+00 0.  1.
</event>
<event>
 5    1  0.8900327E-005  0.9118800E+02  0.7818608E-02  0.1130116E+00
         25   -1    0    0    0    0  0.00000000000E+00  0.00000000000E+00  0.99999998245E-14  0.12500000000E+03  0.12500000000E+03 0.  0.
        -11    1    3    3    0    0  0.33719440607E+02  0.38538143759E+02 -0.26390239293E+02  0.57607585694E+02  0.51100000000E-03 0. -1.
         23    2    1    0    0    0  0.28549219856E+01  0.16926028454E+02 -0.24174041510E+02  0.95351639140E+02  0.90625105710E+02 0.  0.
         11    1    3    3    0    0 -0.30864518621E+02 -0.21612115306E+02  0.22161977830E+01  0.37744053446E+02  0.51100000000E-03 0.  1.
         22    1    1    0    0    0 -0.28549219856E+01 -0.16926028454E+02  0.24174041510E+02  0.29648360860E+02  0.00000000000E+00 0. -1.
</event>
<event>
 5    1  0.8900327E-005  0.9118800E+02  0.7818608E-02  0.1130116E+00
         25   -1    0    0    0    0  0.00000000000E+00  0.00000000000E+00  0.99999998245E-14  0.12500000000E+03  0.12500000000E+03 0.  0.
        -11    1    3    3    0    0 -0.52845789677E+02 -0.23392372361E+02  0.15564591981E+02  0.59850957345E+02  0.51100000000E-03 0. -1.
         23    2    1    0    0    0 -0.24786237466E+02 -0.14396390241E+02 -0.51598050713E+01  0.95875487849E+02  0.91344797127E+02 0.  0.
         11    1    3    3    0    0  0.28059552211E+02  0.89959821201E+01 -0.20724397053E+02  0.36024530504E+02  0.51100000000E-03 0.  1.
         22    1    1    0    0    0  0.24786237466E+02  0.14396390241E+02  0.51598050713E+01  0.29124512151E+02  0.00000000000E+00 0. -1.
</event>
<event>
 5    1  0.8900327E-005  0.9118800E+02  0.7818608E-02  0.1130116E+00
         25   -1    0    0    0    0  0.00000000000E+00  0.00000000000E+00  0.99999998245E-14  0.12500000000E+03  0.12500000000E+03 0.  0.
        -11    1    3    3    0    0 -0.16623847833E+02 -0.31923437584E+02  0.10118517379E+02  0.37387732991E+02  0.51100000000E-03 0.  1.
         23    2    1    0    0    0  0.11868765900E+02  0.63732414254E+01 -0.24968317174E+02  0.96629193301E+02  0.92370440755E+02 0.  0.
         11    1    3    3    0    0  0.28492613733E+02  0.38296679009E+02 -0.35086834553E+02  0.59241460310E+02  0.51100000000E-03 0. -1.
         22    1    1    0    0    0 -0.11868765900E+02 -0.63732414254E+01  0.24968317174E+02  0.28370806699E+02  0.00000000000E+00 0. -1.
</event>
<event>
 5    1  0.8900327E-005  0.9118800E+02  0.7818608E-02  0.1130116E+00
         25   -1    0    0    0    0  0.00000000000E+00  0.00000000000E+00  0.99999998245E-14  0.12500000000E+03  0.12500000000E+03 0.  0.
        -11    1    3    3    0    0  0.28346086742E+02  0.17625425862E+02 -0.20678341336E+02  0.39265125380E+02  0.51100000000E-03 0. -1.
         23    2    1    0    0    0 -0.25184241190E+02 -0.35419952292E+01 -0.91521318729E+01  0.97971251373E+02  0.94169065214E+02 0.  0.
         11    1    3    3    0    0 -0.53530327933E+02 -0.21167421091E+02  0.11526209463E+02  0.58706125993E+02  0.51100000000E-03 0.  1.
         22    1    1    0    0    0  0.25184241190E+02  0.35419952292E+01  0.91521318729E+01  0.27028748627E+02  0.00000000000E+00 0.  1.
</event>
<event>
 5    1  0.8900327E-005  0.9118800E+02  0.7818608E-02  0.1130116E+00
         25   -1    0    0    0    0  0.00000000000E+00  0.00000000000E+00  0.99999998245E-14  0.12500000000E+03  0.12500000000E+03 0.  0.
        -11    1    3    3    0    0  0.80913874519E+01 -0.17147475259E+02 -0.55306251575E+02  0.58466126280E+02  0.51100000000E-03 0.  1.
         23    2    1    0    0    0 -0.11150779033E+02 -0.12376339632E+02 -0.19872812034E+02  0.99068507296E+02  0.95614469742E+02 0.  0.
         11    1    3    3    0    0 -0.19242166485E+02  0.47711356274E+01  0.35433439541E+02  0.40602381016E+02  0.51100000000E-03 0. -1.
         22    1    1    0    0    0  0.11150779033E+02  0.12376339632E+02  0.19872812034E+02  0.25931492704E+02  0.00000000000E+00 0.  1.
</event>
<event>
 5    1  0.8900327E-005  0.9118800E+02  0.7818608E-02  0.1130116E+00
         25   -1    0    0    0    0  0.00000000000E+00  0.00000000000E+00  0.99999998245E-14  0.12500000000E+03  0.12500000000E+03 0.  0.
        -11    1    3    3    0    0  0.26041523437E+02  0.13827332528E+02  0.14130388002E+02  0.32695931446E+02  0.51100000000E-03 0.  1.
         23    2    1    0    0    0 -0.11906538538E+02 -0.13891354729E+02 -0.25119094575E+02  0.93924216688E+02  0.88634384818E+02 0.  0.
         11    1    3    3    0    0 -0.37948061975E+02 -0.27718687257E+02 -0.39249482577E+02  0.61228285242E+02  0.51100000000E-03 0. -1.
         22    1    1    0    0    0  0.11906538538E+02  0.13891354729E+02  0.25119094575E+02  0.31075783312E+02  0.00000000000E+00 0. -1.
</event>
<event>
 5    1  0.8900327E-005  0.9118800E+02  0.7818608E-02  0.1130116E+00
         25   -1    0    0    0    0  0.00000000000E+00  0.00000000000E+00  0.99999998245E-14  0.12500000000E+03  0.12500000000E+03 0.  0.
        -11    1    3    3    0    0 -0.78441402389E+01 -0.89721502246E+01 -0.31473077440E+02  0.33653894567E+02  0.51100000000E-03 0.  1.
         23    2    1    0    0    0  0.14662626910E+02 -0.80326141900E+01  0.25267287798E+02  0.94702288019E+02  0.89724979826E+02 0.  0.
         11    1    3    3    0    0  0.22506767149E+02  0.93953603464E+00  0.56740365238E+02  0.61048393452E+02  0.51100000000E-03 0. -1.
         22    1    1    0    0    0 -0.14662626910E+02  0.80326141900E+01 -0.25267287798E+02  0.30297711981E+02  0.00000000000E+00 0. -1.
</event>
<event>
 5    1  0.8900327E-005  0.9118800E+02  0.7818608E-02  0.1130116E+00
         25   -1    0    0    0    0  0.00000000000E+00  0.00000000000E+00  0.99999998245E-14  0.12500000000E+03  0.12500000000E+03 0.  0.
        -11    1    3    3    0    0  0.14709849612E+02  0.27598436194E+02  0.46784360763E+02  0.56274592564E+02  0.51100000000E-03 0.  1.
         23    2    1    0    0    0  0.27784758808E+01 -0.49788947747E+01  0.29347985334E+02  0.95103285054E+02  0.90281898870E+02 0.  0.
         11    1    3    3    0    0 -0.11931373731E+02 -0.32577330969E+02 -0.17436375429E+02  0.38828692491E+02  0.51100000000E-03 0. -1.
         22    1    1    0    0    0 -0.27784758808E+01  0.49788947747E+01 -0.29347985334E+02  0.29896714946E+02  0.00000000000E+00 0.  1.
</event>
<event>
 5    1  0.8900327E-005  0.9118800E+02  0.7818608E-02  0.1130116E+00
         25   -1    0    0    0    0  0.00000000000E+00  0.00000000000E+00  0.99999998245E-14  0.12500000000E+03  0.12500000000E+03 0.  0.
        -11    1    3    3    0    0 -0.66303403827E+01 -0.15161154295E+02  0.52416598428E+02  0.54966551685E+02  0.51100000000E-03 0. -1.
         23    2    1    0    0    0 -0.21421870387E+02 -0.97190041700E+01  0.11495533646E+02  0.98817890330E+02  0.95286266495E+02 0.  0.
         11    1    3    3    0    0 -0.14791530005E+02  0.54421501246E+01 -0.40921064782E+02  0.43851338645E+02  0.51100000000E-03 0.  1.
         22    1    1    0    0    0  0.21421870387E+02  0.97190041700E+01 -0.11495533646E+02  0.26182109670E+02  0.00000000000E+00 0. -1.
</event>
<event>
 5    1  0.8900327E-005  0.9118800E+02  0.7818608E-02  0.1130116E+00
         25   -1    0    0    0    0  0.00000000000E+00  0.00000000000E+00  0.99999998245E-14  0.12500000000E+03  0.12500000000E+03 0.  0.
        -11    1    3    3    0    0  0.16481410354E+01 -0.36916872020E+02  0.47841497966E+02  0.60451474229E+02  0.51100000000E-03 0.  1.
         23    2    1    0    0    0  0.11080073103E+02 -0.19835393728E+02  0.18441611678E+02  0.95737329145E+02  0.91155538977E+02 0.  0.
         11    1    3    3    0    0  0.94319320673E+01  0.17081478292E+02 -0.29399886288E+02  0.35285854916E+02  0.51100000000E-03 0. -1.
         22    1    1    0    0    0 -0.11080073103E+02  0.19835393728E+02 -0.18441611678E+02  0.29262670855E+02  0.00000000000E+00 0.  1.
</event>
<event>
 5    1  0.8900327E-005  0.9118800E+02  0.7818608E-02  0.1130116E+00
         25   -1    0    0    0    0  0.00000000000E+00  0.00000000000E+00  0.99999998245E-14  0.12500000000E+03  0.12500000000E+03 0.  0.
        -11    1    3    3    0    0 -0.39528823460E+02  0.93999364935E+01 -0.35907869425E+02  0.54224180741E+02  0.51100000000E-03 0. -1.
         23    2    1    0    0    0 -0.27821548387E+02 -0.11257039330E+02 -0.29521905758E+01  0.94842498142E+02  0.89920100843E+02 0.  0.
         11    1    3    3    0    0  0.11707275073E+02 -0.20656975823E+02  0.32955678849E+02  0.40618317401E+02  0.51100000000E-03 0.  1.
         22    1    1    0    0    0  0.27821548387E+02  0.11257039330E+02  0.29521905758E+01  0.30157501858E+02  0.00000000000E+00 0. -1.
</event>
<event>
 5    1  0.8900327E-005  0.9118800E+02  0.7818608E-02  0.1130116E+00
         25   -1    0    0    0    0  0.00000000000E+00  0.00000000000E+00  0.99999998245E-14  0.12500000000E+03  0.12500000000E+03 0.  0.
        -11    1    3    3    0    0 -0.34484823452E+02 -0.20596269593E+02  0.17290448421E+02  0.43730641163E+02  0.51100000000E-03 0.  1.
         23    2    1    0    0    0  0.17064234030E+02 -0.13880988461E+02  0.19274612009E+02  0.95753109708E+02  0.91177176019E+02 0.  0.
         11    1    3    3    0    0  0.51549057483E+02  0.67152811327E+01  0.19841635878E+01  0.52022468544E+02  0.51100000000E-03 0. -1.
         22    1    1    0    0    0 -0.17064234030E+02  0.13880988461E+02 -0.19274612009E+02  0.29246890292E+02  0.00000000000E+00 0. -1.
</event>
<event>
 5    1  0.8900327E-005  0.9118800E+02  0.7818608E-02  0.1130116E+00
         25   -1    0    0    0    0  0.00000000000E+00  0.00000000000E+00  0.99999998245E-14  0.12500000000E+03  0.12500000000E+03 0.  0.
        -11    1    3    3    0    0  0.30540931443E+02 -0.11605655223E+02 -0.37570414779E+02  0.49789314049E+02  0.51100000000E-03 0. -1.
         23    2    1    0    0    0  0.15210860133E+02  0.21725895643E+02 -0.69329644310E+01  0.97587396999E+02  0.93658151005E+02 0.  0.
         11    1    3    3    0    0 -0.15330071310E+02  0.33331550866E+02  0.30637450348E+02  0.47798082949E+02  0.51100000000E-03 0.  1.
         22    1    1    0    0    0 -0.15210860133E+02 -0.21725895643E+02  0.69329644310E+01  0.27412603001E+02  0.00000000000E+00 0. -1.
</event>
<event>
 5    1  0.8900327E-005  0.9118800E+02  0.7818608E-02  0.1130116E+00
         25   -1    0    0    0    0  0.00000000000E+00  0.00000000000E+00  0.99999998245E-14  0.12500000000E+03  0.12500000000E+03 0.  0.
        -11    1    3    3    0    0  0.46494626726E+02 -0.24846830914E+02  0.33135225113E+02  0.62266029779E+02  0.51100000000E-03 0.  1.
         23    2    1    0    0    0  0.18065753328E+02 -0.13800793810E+02  0.15291452612E+02  0.97601790641E+02  0.93677359380E+02 0.  0.
         11    1    3    3    0    0 -0.28428873398E+02  0.11046037104E+02 -0.17843772502E+02  0.35335760863E+02  0.51100000000E-03 0. -1.
         22    1    1    0    0    0 -0.18065753328E+02  0.13800793810E+02 -0.15291452612E+02  0.27398209359E+02  0.00000000000E+00 0.  1.
</event>
<event>
 5    1  0.8900327E-005  0.9118800E+02  0.7818608E-02  0.1130116E+00
         25   -1    0    0    0    0  0.00000000000E+00  0.00000000000E+00  0.99999998245E-14  0.12500000000E+03  0.12500000000E+03 0.  0.
        -11    1    3    3    0    0  0.27344594872E+02  0.52103766677E+02 -0.67766138756E+01  0.59232186069E+02  0.51100000000E-03 0. -1.
         23    2    1    0    0    0  0.13723908447E+00  0.26712856321E+02 -0.97441837881E+01  0.96565080533E+02  0.92283639575E+02 0.  0.
         11    1    3    3    0    0 -0.27207355788E+02 -0.25390910355E+02 -0.29675699126E+01  0.37332894464E+02  0.51100000000E-03 0.  1.
         22    1    1    0    0    0 -0.13723908447E+00 -0.26712856321E+02  0.97441837881E+01  0.28434919467E+02  0.00000000000E+00 0. -1.
</event>
<event>
 5    1  0.8900327E-005  0.9118800E+02  0.7818608E-02  0.1130116E+00
         25   -1    0    0    0    0  0.00000000000E+00  0.00000000000E+00  0.99999998245E-14  0.12500000000E+03  0.12500000000E+03 0.  0.
        -11    1    3    3    0    0 -0.47699793472E+02 -0.17033747303E+02  0.12310570166E+02  0.52124552588E+02  0.51100000000E-03 0.  1.
         23    2    1    0    0    0 -0.25319253238E+02  0.16738925722E+02 -0.58387678037E+00  0.94642181716E+02  0.89641203858E+02 0.  0.
         11    1    3    3    0    0  0.22380540234E+02  0.33772673025E+02 -0.12894446946E+02  0.42517629128E+02  0.51100000000E-03 0. -1.
         22    1    1    0    0    0  0.25319253238E+02 -0.16738925722E+02  0.58387678037E+00  0.30357818284E+02  0.00000000000E+00 0.  1.
</event>
<event>
 5    1  0.8900327E-005  0.9118800E+02  0.7818608E-02  0.1130116E+00
         25   -1    0    0    0    0  0.00000000000E+00  0.00000000000E+00  0.99999998245E-14  0.12500000000E+03  0.12500000000E+03 0.  0.
        -11    1    3    3    0    0 -0.25906876529E+02 -0.34525739971E+02  0.35489087144E+02  0.55880839995E+02  0.51100000000E-03 0. -1.
         23    2    1    0    0    0  0.77973799172E+01 -0.19682976250E+02  0.20140952368E+02  0.95778832160E+02  0.91212433583E+02 0.  0.
         11    1    3    3    0    0  0.33704256446E+02  0.14842763721E+02 -0.15348134776E+02  0.39897992165E+02  0.51100000000E-03 0.  1.
         22    1    1    0    0    0 -0.77973799172E+01  0.19682976250E+02 -0.20140952368E+02  0.29221167840E+02  0.00000000000E+00 0. -1.
</event>
<event>
 5    1  0.8900327E-005  0.9118800E+02  0.7818608E-02  0.1130116E+00
         25   -1    0    0    0    0  0.00000000000E+00  0.00000000000E+00  0.99999998245E-14  0.12500000000E+03  0.12500000000E+03 0.  0.
        -11    1    3    3    0    0 -0.19709985970E+02 -0.47024274826E+02 -0.14151961579E+01  0.51007536210E+02  0.51100000000E-03 0. -1.
         23    2    1    0    0    0 -0.19371402279E+02 -0.79086326644E+01  0.20383922241E+02  0.95788666877E+02  0.91225910351E+02 0.  0.
         11    1    3    3    0    0  0.33858369124E+00  0.39115642161E+02  0.21799118399E+02  0.44781130667E+02  0.51100000000E-03 0.  1.
         22    1    1    0    0    0  0.19371402279E+02  0.79086326644E+01 -0.20383922241E+02  0.29211333123E+02  0.00000000000E+00 0. -1.
</event>
<event>
 5    1  0.8900327E-005  0.9118800E+02  0.7818608E-02  0.1130116E+00
         25   -1    0    0    0    0  0.00000000000E+00  0.00000000000E+00  0.99999998245E-14  0.12500000000E+03  0.12500000000E+03 0.  0.
        -11    1    3    3    0    0 -0.53653811635E+02  0.99973607942E+01  0.16344332360E+01  0.54601740797E+02  0.51100000000E-03 0.  1.
         23    2    1    0    0    0 -0.16626015397E+02  0.22678823632E+02  0.10930883469E+02  0.94829855110E+02  0.89902523755E+02 0.  0.
         11    1    3    3    0    0  0.37027796238E+02  0.12681462837E+02  0.92964502329E+01  0.40228114313E+02  0.51100000000E-03 0. -1.
         22    1    1    0    0    0  0.16626015397E+02 -0.22678823632E+02 -0.10930883469E+02  0.30170144890E+02  0.00000000000E+00 0.  1.
</event>
<event>
 5    1  0.8900327E-005  0.9118800E+02  0.7818608E-02  0.1130116E+00
         25   -1    0    0    0    0  0.00000000000E+00  0.00000000000E+00  0.99999998245E-14  0.12500000000E+03  0.12500000000E+03 0.  0.
        -11    1    3    3    0    0 -0.22610505976E+02 -0.16136136534E+02  0.49938091976E+02  0.57143879053E+02  0.51100000000E-03 0. -1.
         23    2    1    0    0    0 -0.16218851751E+02  0.99557730356E+01  0.22237904694E+02  0.95730682037E+02  0.91146423458E+02 0.  0.
         11    1    3    3    0    0  0.63916542253E+01  0.26091909570E+02 -0.27700187282E+02  0.38586802984E+02  0.51100000000E-03 0.  1.
         22    1    1    0    0    0  0.16218851751E+02 -0.99557730356E+01 -0.22237904694E+02  0.29269317963E+02  0.00000000000E+00 0. -1.
</event>
<event>
 5    1  0.8900327E-005  0.9118800E+02  0.7818608E-02  0.1130116E+00
         25   -1    0    0    0    0  0.00000000000E+00  0.00000000000E+00  0.99999998245E-14  0.12500000000E+03  0.12500000000E+03 0.  0.
        -11    1    3    3    0    0 -0.28081332654E+02 -0.30809157380E+02 -0.62734893817E+01  0.42155925934E+02  0.51100000000E-03 0.  1.
         23    2    1    0    0    0  0.88201365077E-01  0.10039943004E+02 -0.27198229678E+02  0.96007726329E+02  0.91525578841E+02 0.  0.
         11    1    3    3    0    0  0.28169534019E+02  0.40849100384E+02 -0.20924740296E+02  0.53851800395E+02  0.51100000000E-03 0. -1.
         22    1    1    0    0    0 -0.88201365077E-01 -0.10039943004E+02  0.27198229678E+02  0.28992273671E+02  0.00000000000E+00 0. -1.
</event>
<event>
 5    1  0.8900327E-005  0.9118800E+02  0.7818608E-02  0.1130116E+00
         25   -1    0    0    0    0  0.00000000000E+00  0.00000000000E+00  0.99999998245E-14  0.12500000000E+03  0.12500000000E+03 0.  0.
        -11    1    3    3    0    0  0.39167435963E+02  0.14861554902E+02 -0.30282060377E+02  0.51690976340E+02  0.51100000000E-03 0. -1.
         23    2    1    0    0    0  0.18253890215E+02 -0.19389047031E+02 -0.12348161188E+02  0.95646691200E+02  0.91031163895E+02 0.  0.
         11    1    3    3    0    0 -0.20913545748E+02 -0.34250601933E+02  0.17933899189E+02  0.43955714860E+02  0.51100000000E-03 0.  1.
         22    1    1    0    0    0 -0.18253890215E+02  0.19389047031E+02  0.12348161188E+02  0.29353308800E+02  0.00000000000E+00 0. -1.
</event>
<event>
 5    1  0.8900327E-005  0.9118800E+02  0.7818608E-02  0.1130116E+00
         25   -1    0    0    0    0  0.00000000000E+00  0.00000000000E+00  0.99999998245E-14  0.12500000000E+03  0.12500000000E+03 0.  0.
        -11    1    3    3    0    0  0.40530878053E+02  0.35683721934E+02  0.14530471951E+02  0.55921504828E+02  0.51100000000E-03 0. -1.
         23    2    1    0    0    0  0.37067699792E+01  0.18547737843E+02  0.20650980669E+02  0.96996040898E+02  0.92865549181E+02 0.  0.
         11    1    3    3    0    0 -0.36824108074E+02 -0.17135984091E+02  0.61205087185E+01  0.41074536071E+02  0.51100000000E-03 0.  1.
         22    1    1    0    0    0 -0.37067699792E+01 -0.18547737843E+02 -0.20650980669E+02  0.28003959102E+02  0.00000000000E+00 0. -1.
</event>
<event>
 5    1  0.8900327E-005  0.9118800E+02  0.7818608E-02  0.1130116E+00
         25   -1    0    0    0    0  0.00000000000E+00  0.00000000000E+00  0.99999998245E-14  0.12500000000E+03  0.12500000000E+03 0.  0.
        -11    1    3    3    0    0  0.38066921939E+02 -0.78475830249E+01  0.37372024080E+02  0.53919785695E+02  0.51100000000E-03 0. -1.
         23    2    1    0    0    0  0.26898800875E+02  0.54285422628E+01 -0.25422200925E+01  0.97441381700E+02  0.93463069846E+02 0.  0.
         11    1    3    3    0    0 -0.11168121065E+02  0.13276125288E+02 -0.39914244172E+02  0.43521596006E+02  0.51100000000E-03 0.  1.
         22    1    1    0    0    0 -0.26898800875E+02 -0.54285422628E+01  0.25422200925E+01  0.27558618300E+02  0.00000000000E+00 0. -1.
</event>
<event>
 5    1  0.8900327E-005  0.9118800E+02  0.7818608E-02  0.1130116E+00
         25   -1    0    0    0    0  0.00000000000E+00  0.00000000000E+00  0.99999998245E-14  0.12500000000E+03  0.12500000000E+03 0.  0.
        -11    1    3    3    0    0 -0.95829482197E+00 -0.25496463903E+02 -0.19803126470E+02  0.32297860901E+02  0.51100000000E-03 0. -1.
         23    2    1    0    0    0  0.18897820896E+02  0.77660770373E+01  0.25771728448E+02  0.92111984335E+02  0.86040665292E+02 0.  0.
         11    1    3    3    0    0  0.19856115718E+02  0.33262540941E+02  0.45574854918E+02  0.59814123435E+02  0.51100000000E-03 0.  1.
         22    1    1    0    0    0 -0.18897820896E+02 -0.77660770373E+01 -0.25771728448E+02  0.32888015665E+02  0.00000000000E+00 0.  1.
</event>
<event>
 5    1  0.8900327E-005  0.9118800E+02  0.7818608E-02  0.1130116E+00
         25   -1    0    0    0    0  0.00000000000E+00  0.00000000000E+00  0.99999998245E-14  0.12500000000E+03  0.12500000000E+03 0.  0.
        -11    1    3    3    0    0  0.40343310963E+02  0.70049063078E+01  0.46432580323E+02  0.61908286743E+02  0.51100000000E-03 0.  1.
         23    2    1    0    0    0  0.16095968610E+02 -0.17354261366E+01  0.23838509704E+02  0.96183920213E+02  0.91765898096E+02 0.  0.
         11    1    3    3    0    0 -0.24247342352E+02 -0.87403324445E+01 -0.22594070619E+02  0.34275633470E+02  0.51100000000E-03 0. -1.
         22    1    1    0    0    0 -0.16095968610E+02  0.17354261366E+01 -0.23838509704E+02  0.28816079787E+02  0.00000000000E+00 0.  1.
</event>
<event>
 5    1  0.8900327E-005  0.9118800E+02  0.7818608E-02  0.1130116E+00
         25   -1    0    0    0    0  0.00000000000E+00  0.00000000000E+00  0.99999998245E-14  0.12500000000E+03  0.12500000000E+03 0.  0.
        -11    1    3    3    0    0  0.50015282137E+02 -0.21988262777E+02  0.28218549856E+02  0.61492265395E+02  0.51100000000E-03 0. -1.
         23    2    1    0    0    0  0.26854844131E+02 -0.69775350469E+01  0.67874258261E+01  0.96435375060E+02  0.92107783411E+02 0.  0.
         11    1    3    3    0    0 -0.23160438006E+02  0.15010727730E+02 -0.21431124030E+02  0.34943109665E+02  0.51100000000E-03 0.  1.
         22    1    1    0    0    0 -0.26854844131E+02  0.69775350469E+01 -0.67874258261E+01  0.28564624940E+02  0.00000000000E+00 0. -1.
</event>
<event>
 5    1  0.8900327E-005  0.9118800E+02  0.7818608E-02  0.1130116E+00
         25   -1    0    0    0    0  0.00000000000E+00  0.00000000000E+00  0.99999998245E-14  0.12500000000E+03  0.12500000000E+03 0.  0.
        -11    1    3    3    0    0 -0.52441803089E+01 -0.11538283421E+01 -0.38406678682E+02  0.38780223241E+02  0.51100000000E-03 0.  1.
         23    2    1    0    0    0  0.17939059300E+02  0.19946093427E+02  0.99323979101E+01  0.96393898905E+02  0.92051478675E+02 0.  0.
         11    1    3    3    0    0  0.23183239609E+02  0.21099921769E+02  0.48339076593E+02  0.57613675664E+02  0.51100000000E-03 0. -1.
         22    1    1    0    0    0 -0.17939059300E+02 -0.19946093427E+02 -0.99323979101E+01  0.28606101095E+02  0.00000000000E+00 0. -1.
</event>
<event>
 5    1  0.8900327E-005  0.9118800E+02  0.7818608E-02  0.1130116E+00
         25   -1    0    0    0    0  0.00000000000E+00  0.00000000000E+00  0.99999998245E-14  0.12500000000E+03  0.12500000000E+03 0.  0.
        -11    1    3    3    0    0 -0.19721831983E+02 -0.35624449635E+02 -0.19897089378E+02  0.45320483609E+02  0.51100000000E-03 0. -1.
         23    2    1    0    0    0  0.61583513862E+01 -0.17544739743E+02  0.20977900195E+02  0.96967599442E+02  0.92827258176E+02 0.  0.
         11    1    3    3    0    0  0.25880183369E+02  0.18079709892E+02  0.40874989573E+02  0.51647115833E+02  0.51100000000E-03 0.  1.
         22    1    1    0    0    0 -0.61583513862E+01  0.17544739743E+02 -0.20977900195E+02  0.28032400558E+02  0.00000000000E+00 0.  1.
</event>
<event>
 5    1  0.8900327E-005  0.9118800E+02  0.7818608E-02  0.1130116E+00
         25   -1    0    0    0    0  0.00000000000E+00  0.00000000000E+00  0.99999998245E-14  0.12500000000E+03  0.12500000000E+03 0.  0.
        -11    1    3    3    0    0 -0.96607758591E+01  0.28301821825E+02 -0.41613441812E+02  0.51244533840E+02  0.51100000000E-03 0. -1.
         23    2    1    0    0    0  0.15218403888E+02 -0.46468872494E+01 -0.24164501612E+02  0.96067034093E+02  0.91606541924E+02 0.  0.
         11    1    3    3    0    0  0.24879179747E+02 -0.32948709075E+02  0.17448940199E+02  0.44822500253E+02  0.51100000000E-03 0.  1.
         22    1    1    0    0    0 -0.15218403888E+02  0.46468872494E+01  0.24164501612E+02  0.28932965907E+02  0.00000000000E+00 0. -1.
</event>
<event>
 5    1  0.8900327E-005  0.9118800E+02  0.7818608E-02  0.1130116E+00
         25   -1    0    0    0    0  0.00000000000E+00  0.00000000000E+00  0.99999998245E-14  0.12500000000E+03  0.12500000000E+03 0.  0.
        -11    1    3    3    0    0  0.38163605099E+02 -0.23069336121E+02 -0.20707704941E+02  0.49167713669E+02  0.51100000000E-03 0.  1.
         23    2    1    0    0    0  0.21401893043E+02 -0.28104053013E+01  0.18631699835E+02  0.96485448583E+02  0.92175713426E+02 0.  0.
         11    1    3    3    0    0 -0.16761712056E+02  0.20258930819E+02  0.39339404776E+02  0.47317734914E+02  0.51100000000E-03 0. -1.
         22    1    1    0    0    0 -0.21401893043E+02  0.28104053013E+01 -0.18631699835E+02  0.28514551417E+02  0.00000000000E+00 0.  1.
</event>
<event>
 5    1  0.8900327E-005  0.9118800E+02  0.7818608E-02  0.1130116E+00
         25   -1    0    0    0    0  0.00000000000E+00  0.00000000000E+00  0.99999998245E-14  0.12500000000E+03  0.12500000000E+03 0.  0.
        -11    1    3    3    0    0 -0.18506245404E+02  0.13519270430E+02 -0.46718502457E+02  0.52037200770E+02  0.51100000000E-03 0.  1.
         23    2    1    0    0    0  0.12742554966E+02  0.18436061510E+02 -0.10125980037E+02  0.10040738845E+03  0.97349099189E+02 0.  0.
         11    1    3    3    0    0  0.31248800370E+02  0.49167910793E+01  0.36592522420E+02  0.48370187682E+02  0.51100000000E-03 0. -1.
         22    1    1    0    0    0 -0.12742554966E+02 -0.18436061510E+02  0.10125980037E+02  0.24592611548E+02  0.00000000000E+00 0. -1.
</event>
<event>
 5    1  0.8900327E-005  0.9118800E+02  0.7818608E-02  0.1130116E+00
         25   -1    0    0    0    0  0.00000000000E+00  0.00000000000E+00  0.99999998245E-14  0.12500000000E+03  0.12500000000E+03 0.  0.
        -11    1    3    3    0    0 -0.69082587587E+01 -0.35555317715E+02  0.38036322488E+02  0.52523009106E+02  0.51100000000E-03 0.  1.
         23    2    1    0    0    0  0.61754574177E+01 -0.28709365580E+02 -0.23655496939E+01  0.95538843002E+02  0.90882950824E+02 0.  0.
         11    1    3    3    0    0  0.13083716176E+02  0.68459521350E+01 -0.40401872182E+02  0.43015833895E+02  0.51100000000E-03 0. -1.
         22    1    1    0    0    0 -0.61754574177E+01  0.28709365580E+02  0.23655496939E+01  0.29461156998E+02  0.00000000000E+00 0.  1.
</event>
<event>
 5    1  0.8900327E-005  0.9118800E+02  0.7818608E-02  0.1130116E+00
         25   -1    0    0    0    0  0.00000000000E+00  0.00000000000E+00  0.99999998245E-14  0.12500000000E+03  0.12500000000E+03 0.  0.
        -11    1    3    3    0    0  0.55969929205E+02  0.10503037785E+02  0.23191623105E+02  0.61488195294E+02  0.51100000000E-03 0. -1.
         23    2    1    0    0    0  0.26038970044E+02  0.12618691836E+02  0.88765460084E+01  0.94733642214E+02  0.89768650171E+02 0.  0.
         11    1    3    3    0    0 -0.29930959161E+02  0.21156540501E+01 -0.14315077097E+02  0.33245446920E+02  0.51100000000E-03 0.  1.
         22    1    1    0    0    0 -0.26038970044E+02 -0.12618691836E+02 -0.88765460084E+01  0.30266357786E+02  0.00000000000E+00 0. -1.
</event>
<event>
 5    1  0.8900327E-005  0.9118800E+02  0.7818608E-02  0.1130116E+00
         25   -1    0    0    0    0  0.00000000000E+00  0.00000000000E+00  0.99999998245E-14  0.12500000000E+03  0.12500000000E+03 0.  0.
        -11    1    3    3    0    0 -0.29112991755E+01 -0.47893427807E+02  0.29472501446E+02  0.56310606743E+02  0.51100000000E-03 0. -1.
         23    2    1    0    0    0  0.17717988749E+02 -0.20636241868E+02  0.81209139387E+01  0.96614601519E+02  0.92350692362E+02 0.  0.
         11    1    3    3    0    0  0.20629287924E+02  0.27257185938E+02 -0.21351587508E+02  0.40303994776E+02  0.51100000000E-03 0.  1.
         22    1    1    0    0    0 -0.17717988749E+02  0.20636241868E+02 -0.81209139387E+01  0.28385398481E+02  0.00000000000E+00 0. -1.
</event>
<event>
 5    1  0.8900327E-005  0.9118800E+02  0.7818608E-02  0.1130116E+00
         25   -1    0    0    0    0  0.00000000000E+00  0.00000000000E+00  0.99999998245E-14  0.12500000000E+03  0.12500000000E+03 0.  0.
        -11    1    3    3    0    0  0.34381273955E+02  0.77036632189E+01  0.42097531747E+01  0.35484369063E+02  0.51100000000E-03 0.  1.
         23    2    1    0    0    0 -0.19535437743E+02 -0.15058309914E+01 -0.21490047263E+02  0.95918683212E+02  0.91403888336E+02 0.  0.
         11    1    3    3    0    0 -0.53916711698E+02 -0.92094942103E+01 -0.25699800437E+02  0.60434314149E+02  0.51100000000E-03 0. -1.
         22    1    1    0    0    0  0.19535437743E+02  0.15058309914E+01  0.21490047263E+02  0.29081316788E+02  0.00000000000E+00 0. -1.
</event>
<event>
 5    1  0.8900327E-005  0.9118800E+02  0.7818608E-02  0.1130116E+00
         25   -1    0    0    0    0  0.00000000000E+00  0.00000000000E+00  0.99999998245E-14  0.12500000000E+03  0.12500000000E+03 0.  0.
        -11    1    3    3    0    0 -0.23742742386E+02  0.12996407219E+02  0.32424485624E+02  0.42237088972E+02  0.51100000000E-03 0. -1.
         23    2    1    0    0    0 -0.49518660069E+01 -0.26493948434E+02  0.27906241622E+02  0.86202982047E+02  0.76978864058E+02 0.  0.
         11    1    3    3    0    0  0.18790876379E+02 -0.39490355653E+02 -0.45182440018E+01  0.43965893075E+02  0.51100000000E-03 0.  1.
         22    1    1    0    0    0  0.49518660069E+01  0.26493948434E+02 -0.27906241622E+02  0.38797017953E+02  0.00000000000E+00 0.  1.
</event>
<event>
 5    1  0.8900327E-005  0.9118800E+02  0.7818608E-02  0.1130116E+00
         25   -1    0    0    0    0  0.00000000000E+00  0.00000000000E+00  0.99999998245E-14  0.12500000000E+03  0.12500000000E+03 0.  0.
        -11    1    3    3    0    0 -0.47852065425E+01  0.49422265177E+02 -0.32958463510E+02  0.59596298661E+02  0.51100000000E-03 0.  1.
         23    2    1    0    0    0 -0.13056409916E+02  0.18739363117E+02 -0.22207886745E+02  0.93143700724E+02  0.87526711242E+02 0.  0.
         11    1    3    3    0    0 -0.82712033735E+01 -0.30682902061E+02  0.10750576765E+02  0.33547402063E+02  0.51100000000E-03 0. -1.
         22    1    1    0    0    0  0.13056409916E+02 -0.18739363117E+02  0.22207886745E+02  0.31856299276E+02  0.00000000000E+00 0.  1.
</event>
<event>
 5    1  0.8900327E-005  0.9118800E+02  0.7818608E-02  0.1130116E+00
         25   -1    0    0    0    0  0.00000000000E+00  0.00000000000E+00  0.99999998245E-14  0.12500000000E+03  0.12500000000E+03 0.  0.
        -11    1    3    3    0    0  0.37242313139E+02  0.36718245567E+02  0.10963361385E+02  0.53436080869E+02  0.51100000000E-03 0. -1.
         23    2    1    0    0    0  0.11922011407E+02  0.19538203861E+02 -0.18239084858E+02  0.95733295666E+02  0.91150007771E+02 0.  0.
         11    1    3    3    0    0 -0.25320301732E+02 -0.17180041706E+02 -0.29202446242E+02  0.42297214798E+02  0.51100000000E-03 0.  1.
         22    1    1    0    0    0 -0.11922011407E+02 -0.19538203861E+02  0.18239084858E+02  0.29266704334E+02  0.00000000000E+00 0. -1.
</event>
<event>
 5    1  0.8900327E-005  0.9118800E+02  0.7818608E-02  0.1130116E+00
         25   -1    0    0    0    0  0.00000000000E+00  0.00000000000E+00  0.99999998245E-14  0.12500000000E+03  0.12500000000E+03 0.  0.
        -11    1    3    3    0    0  0.26749511195E+02  0.31381888381E+02  0.99670897151E+01  0.42422896473E+02  0.51100000000E-03 0.  1.
         23    2    1    0    0    0 -0.21060045277E+02  0.16769560164E+02 -0.10036200703E+02  0.96269024038E+02  0.91881750144E+02 0.  0.
         11    1    3    3    0    0 -0.47809556472E+02 -0.14612328216E+02 -0.20003290418E+02  0.53846127565E+02  0.51100000000E-03 0. -1.
         22    1    1    0    0    0  0.21060045277E+02 -0.16769560164E+02  0.10036200703E+02  0.28730975962E+02  0.00000000000E+00 0. -1.
</event>
<event>
 5    1  0.8900327E-005  0.9118800E+02  0.7818608E-02  0.1130116E+00
         25   -1    0    0    0    0  0.00000000000E+00  0.00000000000E+00  0.99999998245E-14  0.12500000000E+03  0.12500000000E+03 0.  0.
        -11    1    3    3    0    0 -0.95600085983E+00  0.11033194400E+02 -0.31782107186E+02  0.33656316699E+02  0.51100000000E-03 0. -1.
         23    2    1    0    0    0  0.10393528860E+02 -0.30974228457E+02  0.65878938684E+01  0.91670904358E+02  0.85397459503E+02 0.  0.
         11    1    3    3    0    0  0.11349529720E+02 -0.42007422857E+02  0.38370001055E+02  0.58014587658E+02  0.51100000000E-03 0.  1.
         22    1    1    0    0    0 -0.10393528860E+02  0.30974228457E+02 -0.65878938684E+01  0.33329095642E+02  0.00000000000E+00 0.  1.
</event>
<event>
 5    1  0.8900327E-005  0.9118800E+02  0.7818608E-02  0.1130116E+00
         25   -1    0    0    0    0  0.00000000000E+00  0.00000000000E+00  0.99999998245E-14  0.12500000000E+03  0.12500000000E+03 0.  0.
        -11    1    3    3    0    0  0.19977970231E+02 -0.14205182521E+02 -0.23206871950E+02  0.33755968524E+02  0.51100000000E-03 0. -1.
         23    2    1    0    0    0 -0.23959079248E+02  0.19463895503E+02  0.86856157819E+00  0.94119017086E+02  0.88908685017E+02 0.  0.
         11    1    3    3    0    0 -0.43937049478E+02  0.33669078024E+02  0.24075433528E+02  0.60363048562E+02  0.51100000000E-03 0.  1.
         22    1    1    0    0    0  0.23959079248E+02 -0.19463895503E+02 -0.86856157819E+00  0.30880982914E+02  0.00000000000E+00 0.  1.
</event>
<event>
 5    1  0.8900327E-005  0.9118800E+02  0.7818608E-02  0.1130116E+00
         25   -1    0    0    0    0  0.00000000000E+00  0.00000000000E+00  0.99999998245E-14  0.12500000000E+03  0.12500000000E+03 0.  0.
        -11    1    3    3    0    0 -0.90723511318E+01  0.42869606010E+02 -0.40337378161E+02  0.59558498568E+02  0.51100000000E-03 0. -1.
         23    2    1    0    0    0 -0.63097524891E+01  0.91051615391E+01 -0.26728136140E+02  0.96067143165E+02  0.91606690756E+02 0.  0.
         11    1    3    3    0    0  0.27625986428E+01 -0.33764444470E+02  0.13609242022E+02  0.36508644597E+02  0.51100000000E-03 0.  1.
         22    1    1    0    0    0  0.63097524891E+01 -0.91051615391E+01  0.26728136140E+02  0.28932856835E+02  0.00000000000E+00 0. -1.
</event>
<event>
 5    1  0.8900327E-005  0.9118800E+02  0.7818608E-02  0.1130116E+00
         25   -1    0    0    0    0  0.00000000000E+00  0.00000000000E+00  0.99999998245E-14  0.12500000000E+03  0.12500000000E+03 0.  0.
        -11    1    3    3    0    0 -0.14834153743E+02 -0.11992330325E+02 -0.35837358521E+02  0.40597837011E+02  0.51100000000E-03 0.  1.
         23    2    1    0    0    0 -0.92698130207E+01 -0.15840126277E+02  0.20583295442E+02  0.97422634550E+02  0.93437993543E+02 0.  0.
         11    1    3    3    0    0  0.55643407227E+01 -0.38477959518E+01  0.56420653964E+02  0.56824797539E+02  0.51100000000E-03 0. -1.
         22    1    1    0    0    0  0.92698130207E+01  0.15840126277E+02 -0.20583295442E+02  0.27577365450E+02  0.00000000000E+00 0. -1.
</event>
<event>
 5    1  0.8900327E-005  0.9118800E+02  0.7818608E-02  0.1130116E+00
         25   -1    0    0    0    0  0.00000000000E+00  0.00000000000E+00  0.99999998245E-14  0.12500000000E+03  0.12500000000E+03 0.  0.
        -11    1    3    3    0    0  0.86540000429E+00 -0.53715474304E+02  0.31161688486E+02  0.62105973355E+02  0.51100000000E-03 0.  1.
         23    2    1    0    0    0  0.48204141005E+01 -0.24743143309E+02  0.16993765169E+02  0.94598559450E+02  0.89580354222E+02 0.  0.
         11    1    3    3    0    0  0.39550140962E+01  0.28972330995E+02 -0.14167923317E+02  0.32492586095E+02  0.51100000000E-03 0. -1.
         22    1    1    0    0    0 -0.48204141005E+01  0.24743143309E+02 -0.16993765169E+02  0.30401440550E+02  0.00000000000E+00 0.  1.
</event>
<event>
 5    1  0.8900327E-005  0.9118800E+02  0.7818608E-02  0.1130116E+00
         25   -1    0    0    0    0  0.00000000000E+00  0.00000000000E+00  0.99999998245E-14  0.12500000000E+03  0.12500000000E+03 0.  0.
        -11    1    3    3    0    0 -0.42813223030E+02 -0.33997787991E+01 -0.12351987043E+02  0.44688948815E+02  0.51100000000E-03 0. -1.
         23    2    1    0    0    0 -0.89540858082E+01 -0.19268144980E+02  0.21241599691E+02  0.94955988599E+02  0.90077728378E+02 0.  0.
         11    1    3    3    0    0  0.33859137221E+02 -0.15868366181E+02  0.33593586734E+02  0.50267039783E+02  0.51100000000E-03 0.  1.
         22    1    1    0    0    0  0.89540858082E+01  0.19268144980E+02 -0.21241599691E+02  0.30044011401E+02  0.00000000000E+00 0.  1.
</event>
<event>
 5    1  0.8900327E-005  0.9118800E+02  0.7818608E-02  0.1130116E+00
         25   -1    0    0    0    0  0.00000000000E+00  0.00000000000E+00  0.99999998245E-14  0.12500000000E+03  0.12500000000E+03 0.  0.
        -11    1    3    3    0    0  0.32239106251E+02 -0.23472950966E+02 -0.40576627210E+02  0.56892900039E+02  0.51100000000E-03 0.  1.
         23    2    1    0    0    0  0.28511811643E+02 -0.77773398693E+01 -0.62907951609E+01  0.94784366259E+02  0.89839254031E+02 0.  0.
         11    1    3    3    0    0 -0.37272946086E+01  0.15695611096E+02  0.34285832049E+02  0.37891466220E+02  0.51100000000E-03 0. -1.
         22    1    1    0    0    0 -0.28511811643E+02  0.77773398693E+01  0.62907951609E+01  0.30215633741E+02  0.00000000000E+00 0.  1.
</event>
<event>
 5    1  0.8900327E-005  0.9118800E+02  0.7818608E-02  0.1130116E+00
         25   -1    0    0    0    0  0.00000000000E+00  0.00000000000E+00  0.99999998245E-14  0.12500000000E+03  0.12500000000E+03 0.  0.
        -11    1    3    3    0    0 -0.16274474052E+02  0.20929852698E+02  0.36150430020E+02  0.44830467659E+02  0.51100000000E-03 0.  1.
         23    2    1    0    0    0 -0.18622111627E+02  0.20969294442E+02 -0.13036608037E+02  0.94073514588E+02  0.88844688344E+02 0.  0.
         11    1    3    3    0    0 -0.23476375750E+01  0.39441743811E-01 -0.49187038057E+02  0.49243046929E+02  0.51100000000E-03 0. -1.
         22    1    1    0    0    0  0.18622111627E+02 -0.20969294442E+02  0.13036608037E+02  0.30926485412E+02  0.00000000000E+00 0. -1.
</event>
<event>
 5    1  0.8900327E-005  0.9118800E+02  0.7818608E-02  0.1130116E+00
         25   -1    0    0    0    0  0.00000000000E+00  0.00000000000E+00  0.99999998245E-14  0.12500000000E+03  0.12500000000E+03 0.  0.
        -11    1    3    3    0    0  0.34465892194E+02 -0.10817011680E+02 -0.46913078235E+01  0.36426828517E+02  0.51100000000E-03 0. -1.
         23    2    1    0    0    0 -0.26293283115E+02 -0.15309906481E+01  0.34837152408E+01  0.98432784466E+02  0.94779724185E+02 0.  0.
         11    1    3    3    0    0 -0.60759175309E+02  0.92860210323E+01  0.81750230643E+01  0.62005955950E+02  0.51100000000E-03 0.  1.
         22    1    1    0    0    0  0.26293283115E+02  0.15309906481E+01 -0.34837152408E+01  0.26567215534E+02  0.00000000000E+00 0.  1.
</event>
<event>
 5    1  0.8900327E-005  0.9118800E+02  0.7818608E-02  0.1130116E+00
         25   -1    0    0    0    0  0.00000000000E+00  0.00000000000E+00  0.99999998245E-14  0.12500000000E+03  0.12500000000E+03 0.  0.
        -11    1    3    3    0    0 -0.22258815294E+02  0.28053146565E+02  0.45471621244E+02  0.57880067634E+02  0.51100000000E-03 0. -1.
         23    2    1    0    0    0 -0.22000358615E+02  0.15948113643E+02  0.88953015917E+01  0.96408314174E+02  0.92071051605E+02 0.  0.
         11    1    3    3    0    0  0.25845667963E+00 -0.12105032922E+02 -0.36576319652E+02  0.38528246540E+02  0.51100000000E-03 0.  1.
         22    1    1    0    0    0  0.22000358615E+02 -0.15948113643E+02 -0.88953015917E+01  0.28591685826E+02  0.00000000000E+00 0. -1.
</event>
<event>
 5    1  0.8900327E-005  0.9118800E+02  0.7818608E-02  0.1130116E+00
         25   -1    0    0    0    0  0.00000000000E+00  0.00000000000E+00  0.99999998245E-14  0.12500000000E+03  0.12500000000E+03 0.  0.
        -11    1    3    3    0    0  0.21776300179E+02 -0.24487978691E+01  0.41237952988E+02  0.46698743317E+02  0.51100000000E-03 0.  1.
         23    2    1    0    0    0  0.19482624563E+02  0.20178015431E+02 -0.33501280061E+01  0.96752020882E+02  0.92536507501E+02 0.  0.
         11    1    3    3    0    0 -0.22936756158E+01  0.22626813300E+02 -0.44588080994E+02  0.50053277565E+02  0.51100000000E-03 0. -1.
         22    1    1    0    0    0 -0.19482624563E+02 -0.20178015431E+02  0.33501280061E+01  0.28247979118E+02  0.00000000000E+00 0. -1.
</event>
<event>
 5    1  0.8900327E-005  0.9118800E+02  0.7818608E-02  0.1130116E+00
         25   -1    0    0    0    0  0.00000000000E+00  0.00000000000E+00  0.99999998245E-14  0.12500000000E+03  0.12500000000E+03 0.  0.
        -11    1    3    3    0    0 -0.22269502458E+02 -0.20105273227E+01  0.57762054202E+02  0.61938904299E+02  0.51100000000E-03 0.  1.
         23    2    1    0    0    0 -0.69416016105E+01 -0.59288513899E+01  0.26413802181E+02  0.97053156576E+02  0.92942396913E+02 0.  0.
         11    1    3    3    0    0  0.15327900848E+02 -0.39183240673E+01 -0.31348252021E+02  0.35114252277E+02  0.51100000000E-03 0. -1.
         22    1    1    0    0    0  0.69416016105E+01  0.59288513899E+01 -0.26413802181E+02  0.27946843424E+02  0.00000000000E+00 0.  1.
</event>
<event>
 5    1  0.8900327E-005  0.9118800E+02  0.7818608E-02  0.1130116E+00
         25   -1    0    0    0    0  0.00000000000E+00  0.00000000000E+00  0.99999998245E-14  0.12500000000E+03  0.12500000000E+03 0.  0.
        -11    1    3    3    0    0 -0.30287287378E+01  0.38819521487E+02  0.28239462192E+02  0.48099851054E+02  0.51100000000E-03 0. -1.
         23    2    1    0    0    0  0.10884969402E+02  0.23953050492E+02 -0.14149943322E+02  0.95126063487E+02  0.90313431292E+02 0.  0.
         11    1    3    3    0    0  0.13913698139E+02 -0.14866470995E+02 -0.42389405514E+02  0.47026212434E+02  0.51100000000E-03 0.  1.
         22    1    1    0    0    0 -0.10884969402E+02 -0.23953050492E+02  0.14149943322E+02  0.29873936513E+02  0.00000000000E+00 0. -1.
</event>
<event>
 5    1  0.8900327E-005  0.9118800E+02  0.7818608E-02  0.1130116E+00
         25   -1    0    0    0    0  0.00000000000E+00  0.00000000000E+00  0.99999998245E-14  0.12500000000E+03  0.12500000000E+03 0.  0.
        -11    1    3    3    0    0 -0.18262472907E+01 -0.45716283537E+02  0.12492156888E+01  0.45769796807E+02  0.51100000000E-03 0.  1.
         23    2    1    0    0    0  0.12654635288E+02 -0.71973934885E+01 -0.26053883603E+02  0.95154613118E+02  0.90352937304E+02 0.  0.
         11    1    3    3    0    0  0.14480882579E+02  0.38518890049E+02 -0.27303099292E+02  0.49384816311E+02  0.51100000000E-03 0. -1.
         22    1    1    0    0    0 -0.12654635288E+02  0.71973934885E+01  0.26053883603E+02  0.29845386882E+02  0.00000000000E+00 0.  1.
</event>
<event>
 5    1  0.8900327E-005  0.9118800E+02  0.7818608E-02  0.1130116E+00
         25   -1    0    0    0    0  0.00000000000E+00  0.00000000000E+00  0.99999998245E-14  0.12500000000E+03  0.12500000000E+03 0.  0.
        -11    1    3    3    0    0  0.20524978839E+02 -0.16967889016E+02  0.39992215381E+02  0.48047490104E+02  0.51100000000E-03 0. -1.
         23    2    1    0    0    0  0.19618214958E+02 -0.25643176246E+02 -0.36083990656E+01  0.92512042386E+02  0.86619920321E+02 0.  0.
         11    1    3    3    0    0 -0.90676388026E+00 -0.86752872300E+01 -0.43600614446E+02  0.44464552282E+02  0.51100000000E-03 0.  1.
         22    1    1    0    0    0 -0.19618214958E+02  0.25643176246E+02  0.36083990656E+01  0.32487957614E+02  0.00000000000E+00 0.  1.
</event>
<event>
 5    1  0.8900327E-005  0.9118800E+02  0.7818608E-02  0.1130116E+00
         25   -1    0    0    0    0  0.00000000000E+00  0.00000000000E+00  0.99999998245E-14  0.12500000000E+03  0.12500000000E+03 0.  0.
        -11    1    3    3    0    0  0.25112030745E+02 -0.31692622763E+02  0.29211047644E+01  0.40540958042E+02  0.51100000000E-03 0.  1.
         23    2    1    0    0    0  0.18474204047E+02  0.22803267044E+02 -0.14745961646E+01  0.95615316287E+02  0.90988071041E+02 0.  0.
         11    1    3    3    0    0 -0.66378266973E+01  0.54495889807E+02 -0.43957009290E+01  0.55074358244E+02  0.51100000000E-03 0. -1.
         22    1    1    0    0    0 -0.18474204047E+02 -0.22803267044E+02  0.14745961646E+01  0.29384683713E+02  0.00000000000E+00 0. -1.
</event>
<event>
 5    1  0.8900327E-005  0.9118800E+02  0.7818608E-02  0.1130116E+00
         25   -1    0    0    0    0  0.00000000000E+00  0.00000000000E+00  0.99999998245E-14  0.12500000000E+03  0.12500000000E+03 0.  0.
        -11    1    3    3    0    0  0.21052382550E+02 -0.46568573398E+02 -0.28474353721E+02  0.58503193584E+02  0.51100000000E-03 0. -1.
         23    2    1    0    0    0  0.22828106609E+02 -0.18763308852E+02 -0.48039814991E+01  0.95062357329E+02  0.90225214504E+02 0.  0.
         11    1    3    3    0    0  0.17757240587E+01  0.27805264546E+02  0.23670372222E+02  0.36559163746E+02  0.51100000000E-03 0.  1.
         22    1    1    0    0    0 -0.22828106609E+02  0.18763308852E+02  0.48039814991E+01  0.29937642671E+02  0.00000000000E+00 0. -1.
</event>
<event>
 5    1  0.8900327E-005  0.9118800E+02  0.7818608E-02  0.1130116E+00
         25   -1    0    0    0    0  0.00000000000E+00  0.00000000000E+00  0.99999998245E-14  0.12500000000E+03  0.12500000000E+03 0.  0.
        -11    1    3    3    0    0 -0.50049470499E+01  0.17944342818E+02  0.59410782589E+02  0.62263071096E+02  0.51100000000E-03 0.  1.
         23    2    1    0    0    0 -0.19752074386E+01  0.44254584534E+01  0.27860298454E+02  0.96721344499E+02  0.92495060002E+02 0.  0.
         11    1    3    3    0    0  0.30297396112E+01 -0.13518884364E+02 -0.31550484135E+02  0.34458273404E+02  0.51100000000E-03 0. -1.
         22    1    1    0    0    0  0.19752074386E+01 -0.44254584534E+01 -0.27860298454E+02  0.28278655501E+02  0.00000000000E+00 0.  1.
</event>
<event>
 5    1  0.8900327E-005  0.9118800E+02  0.7818608E-02  0.1130116E+00
         25   -1    0    0    0    0  0.00000000000E+00  0.00000000000E+00  0.99999998245E-14  0.12500000000E+03  0.12500000000E+03 0.  0.
        -11    1    3    3    0    0  0.48018420831E+01  0.18770588574E+01 -0.36311487669E+02  0.36675675513E+02  0.51100000000E-03 0.  1.
         23    2    1    0    0    0 -0.82141598964E+01  0.14046020172E+02  0.21992956555E+02  0.97642126481E+02  0.93731166749E+02 0.  0.
         11    1    3    3    0    0 -0.13016001979E+02  0.12168961314E+02  0.58304444224E+02  0.60966450967E+02  0.51100000000E-03 0. -1.
         22    1    1    0    0    0  0.82141598964E+01 -0.14046020172E+02 -0.21992956555E+02  0.27357873519E+02  0.00000000000E+00 0. -1.
</event>
<event>
 5    1  0.8900327E-005  0.9118800E+02  0.7818608E-02  0.1130116E+00
         25   -1    0    0    0    0  0.00000000000E+00  0.00000000000E+00  0.99999998245E-14  0.12500000000E+03  0.12500000000E+03 0.  0.
        -11    1    3    3    0    0  0.19746008422E+02 -0.29113318874E+02  0.14319576438E+02  0.37980790593E+02  0.51100000000E-03 0. -1.
         23    2    1    0    0    0 -0.21641931514E+02  0.13794111275E+02 -0.18381490951E+00  0.99335150625E+02  0.95962428357E+02 0.  0.
         11    1    3    3    0    0 -0.41387939936E+02  0.42907430149E+02 -0.14503391347E+02  0.61354360032E+02  0.51100000000E-03 0.  1.
         22    1    1    0    0    0  0.21641931514E+02 -0.13794111275E+02  0.18381490951E+00  0.25664849375E+02  0.00000000000E+00 0.  1.
</event>
<event>
 5    1  0.8900327E-005  0.9118800E+02  0.7818608E-02  0.1130116E+00
         25   -1    0    0    0    0  0.00000000000E+00  0.00000000000E+00  0.99999998245E-14  0.12500000000E+03  0.12500000000E+03 0.  0.
        -11    1    3    3    0    0 -0.13262530578E+02  0.49772763157E+02 -0.42044045141E+01  0.51680747742E+02  0.51100000000E-03 0. -1.
         23    2    1    0    0    0  0.19207526897E+02  0.26342830739E+02  0.25965272792E+01  0.92295019114E+02  0.86306168832E+02 0.  0.
         11    1    3    3    0    0  0.32470057475E+02 -0.23429932418E+02  0.68009317933E+01  0.40614271372E+02  0.51100000000E-03 0.  1.
         22    1    1    0    0    0 -0.19207526897E+02 -0.26342830739E+02 -0.25965272792E+01  0.32704980886E+02  0.00000000000E+00 0.  1.
</event>
<event>
 5    1  0.8900327E-005  0.9118800E+02  0.7818608E-02  0.1130116E+00
         25   -1    0    0    0    0  0.00000000000E+00  0.00000000000E+00  0.99999998245E-14  0.12500000000E+03  0.12500000000E+03 0.  0.
        -11    1    3    3    0    0 -0.12237302419E+02  0.36126124635E+02 -0.36949593854E+02  0.53104810873E+02  0.51100000000E-03 0.  1.
         23    2    1    0    0    0 -0.14631744940E+02  0.22741369270E+02  0.52608386567E+01  0.97451238510E+02  0.93476251676E+02 0.  0.
         11    1    3    3    0    0 -0.23944425218E+01 -0.13384755365E+02  0.42210432511E+02  0.44346427637E+02  0.51100000000E-03 0. -1.
         22    1    1    0    0    0  0.14631744940E+02 -0.22741369270E+02 -0.52608386567E+01  0.27548761490E+02  0.00000000000E+00 0.  1.
</event>
<event>
 5    1  0.8900327E-005  0.9118800E+02  0.7818608E-02  0.1130116E+00
         25   -1    0    0    0    0  0.00000000000E+00  0.00000000000E+00  0.99999998245E-14  0.12500000000E+03  0.12500000000E+03 0.  0.
        -11    1    3    3    0    0 -0.53880488945E+01  0.35813597595E+02 -0.85729299833E+01  0.37217468645E+02  0.51100000000E-03 0. -1.
         23    2    1    0    0    0  0.27283575068E+02 -0.11552182185E+02 -0.15292060242E+00  0.95371132886E+02  0.90651989617E+02 0.  0.
         11    1    3    3    0    0  0.32671623962E+02 -0.47365779780E+02  0.84200093809E+01  0.58153664242E+02  0.51100000000E-03 0.  1.
         22    1    1    0    0    0 -0.27283575068E+02  0.11552182185E+02  0.15292060242E+00  0.29628867114E+02  0.00000000000E+00 0.  1.
</event>
<event>
 5    1  0.8900327E-005  0.9118800E+02  0.7818608E-02  0.1130116E+00
         25   -1    0    0    0    0  0.00000000000E+00  0.00000000000E+00  0.99999998245E-14  0.12500000000E+03  0.12500000000E+03 0.  0.
        -11    1    3    3    0    0  0.46576040324E+02  0.29628689509E+02  0.25736554862E+02  0.60906132948E+02  0.51100000000E-03 0.  1.
         23    2    1    0    0    0  0.25152533047E+02  0.15431984238E+02  0.27912002551E+01  0.95359034175E+02  0.90635305173E+02 0.  0.
         11    1    3    3    0    0 -0.21423507278E+02 -0.14196705271E+02 -0.22945354607E+02  0.34452901227E+02  0.51100000000E-03 0. -1.
         22    1    1    0    0    0 -0.25152533047E+02 -0.15431984238E+02 -0.27912002551E+01  0.29640965825E+02  0.00000000000E+00 0.  1.
</event>
<event>
 5    1  0.8900327E-005  0.9118800E+02  0.7818608E-02  0.1130116E+00
         25   -1    0    0    0    0  0.00000000000E+00  0.00000000000E+00  0.99999998245E-14  0.12500000000E+03  0.12500000000E+03 0.  0.
        -11    1    3    3    0    0 -0.56790713092E+01 -0.43685594611E+02 -0.13855324316E+02  0.46180656552E+02  0.51100000000E-03 0. -1.
         23    2    1    0    0    0 -0.22789982165E+02  0.31667881722E+01 -0.17350993891E+02  0.96182144018E+02  0.91763478598E+02 0.  0.
         11    1    3    3    0    0 -0.17110910856E+02  0.46852382783E+02 -0.34956695752E+01  0.50001487466E+02  0.51100000000E-03 0.  1.
         22    1    1    0    0    0  0.22789982165E+02 -0.31667881722E+01  0.17350993891E+02  0.28817855982E+02  0.00000000000E+00 0.  1.
</event>
<event>
 5    1  0.8900327E-005  0.9118800E+02  0.7818608E-02  0.1130116E+00
         25   -1    0    0    0    0  0.00000000000E+00  0.00000000000E+00  0.99999998245E-14  0.12500000000E+03  0.12500000000E+03 0.  0.
        -11    1    3    3    0    0  0.35262316960E+02  0.35148577033E+01  0.11207260378E+02  0.37167027155E+02  0.51100000000E-03 0.  1.
         23    2    1    0    0    0 -0.20764015455E+02 -0.11046879691E+02  0.17904263438E+02  0.95440897544E+02  0.90748137094E+02 0.  0.
         11    1    3    3    0    0 -0.56026332416E+02 -0.14561737394E+02  0.66970030604E+01  0.58273870389E+02  0.51100000000E-03 0. -1.
         22    1    1    0    0    0  0.20764015455E+02  0.11046879691E+02 -0.17904263438E+02  0.29559102456E+02  0.00000000000E+00 0. -1.
</event>
<event>
 5    1  0.8900327E-005  0.9118800E+02  0.7818608E-02  0.1130116E+00
         25   -1    0    0    0    0  0.00000000000E+00  0.00000000000E+00  0.99999998245E-14  0.12500000000E+03  0.12500000000E+03 0.  0.
        -11    1    3    3    0    0  0.12717888642E+02 -0.44137486182E+02  0.29694713952E+02  0.54695872010E+02  0.51100000000E-03 0.  1.
         23    2    1    0    0    0  0.10749386795E+02 -0.28930996459E+02 -0.60127393123E+01  0.93556321675E+02  0.88114019422E+02 0.  0.
         11    1    3    3    0    0 -0.19685018463E+01  0.15206489723E+02 -0.35707453265E+02  0.38860449665E+02  0.51100000000E-03 0. -1.
         22    1    1    0    0    0 -0.10749386795E+02  0.28930996459E+02  0.60127393123E+01  0.31443678325E+02  0.00000000000E+00 0.  1.
</event>
<event>
 5    1  0.8900327E-005  0.9118800E+02  0.7818608E-02  0.1130116E+00
         25   -1    0    0    0    0  0.00000000000E+00  0.00000000000E+00  0.99999998245E-14  0.12500000000E+03  0.12500000000E+03 0.  0.
        -11    1    3    3    0    0 -0.24853655702E+02  0.32745924573E+02  0.20576590896E+02  0.45971685537E+02  0.51100000000E-03 0.  1.
         23    2    1    0    0    0 -0.21504927594E+02  0.55878980453E+01 -0.20128436191E+02  0.95019331914E+02  0.90165586443E+02 0.  0.
         11    1    3    3    0    0  0.33487281085E+01 -0.27158026528E+02 -0.40705027086E+02  0.49047646378E+02  0.51100000000E-03 0. -1.
         22    1    1    0    0    0  0.21504927594E+02 -0.55878980453E+01  0.20128436191E+02  0.29980668086E+02  0.00000000000E+00 0. -1.
</event>
<event>
 5    1  0.8900327E-005  0.9118800E+02  0.7818608E-02  0.1130116E+00
         25   -1    0    0    0    0  0.00000000000E+00  0.00000000000E+00  0.99999998245E-14  0.12500000000E+03  0.12500000000E+03 0.  0.
        -11    1    3    3    0    0  0.96738976470E+01 -0.32849851262E+02 -0.50699745216E+02  0.61181379430E+02  0.51100000000E-03 0.  1.
         23    2    1    0    0    0  0.10567720154E+02 -0.87992299149E+01 -0.25505200042E+02  0.96023830731E+02  0.91547570600E+02 0.  0.
         11    1    3    3    0    0  0.89382250680E+00  0.24050621347E+02  0.25194545174E+02  0.34842451301E+02  0.51100000000E-03 0. -1.
         22    1    1    0    0    0 -0.10567720154E+02  0.87992299149E+01  0.25505200042E+02  0.28976169269E+02  0.00000000000E+00 0.  1.
</event>
<event>
 5    1  0.8900327E-005  0.9118800E+02  0.7818608E-02  0.1130116E+00
         25   -1    0    0    0    0  0.00000000000E+00  0.00000000000E+00  0.99999998245E-14  0.12500000000E+03  0.12500000000E+03 0.  0.
        -11    1    3    3    0    0  0.21089834893E+02 -0.18794302663E+02  0.21353522047E+02  0.35411577944E+02  0.51100000000E-03 0.  1.
         23    2    1    0    0    0 -0.48496446090E+01  0.28485409380E+02 -0.53894788057E+01  0.95606393856E+02  0.90975812521E+02 0.  0.
         11    1    3    3    0    0 -0.25939479502E+02  0.47279712043E+02 -0.26743000853E+02  0.60194815911E+02  0.51100000000E-03 0. -1.
         22    1    1    0    0    0  0.48496446090E+01 -0.28485409380E+02  0.53894788057E+01  0.29393606144E+02  0.00000000000E+00 0. -1.
</event>
<event>
 5    1  0.8900327E-005  0.9118800E+02  0.7818608E-02  0.1130116E+00
         25   -1    0    0    0    0  0.00000000000E+00  0.00000000000E+00  0.99999998245E-14  0.12500000000E+03  0.12500000000E+03 0.  0.
        -11    1    3    3    0    0 -0.11577526165E+02 -0.44007325343E+02 -0.55121513094E+01  0.45837404031E+02  0.51100000000E-03 0.  1.
         23    2    1    0    0    0 -0.13927678924E+02 -0.33750225795E+02  0.26727945844E+02  0.79751341783E+02  0.65672181674E+02 0.  0.
         11    1    3    3    0    0 -0.23501527588E+01  0.10257099549E+02  0.32240097153E+02  0.33913937752E+02  0.51100000000E-03 0. -1.
         22    1    1    0    0    0  0.13927678924E+02  0.33750225795E+02 -0.26727945844E+02  0.45248658217E+02  0.00000000000E+00 0. -1.
</event>
<event>
 5    1  0.8900327E-005  0.9118800E+02  0.7818608E-02  0.1130116E+00
         25   -1    0    0    0    0  0.00000000000E+00  0.00000000000E+00  0.99999998245E-14  0.12500000000E+03  0.12500000000E+03 0.  0.
        -11    1    3    3    0    0 -0.13646352538E+02 -0.28688881264E+02  0.27323808666E+02  0.41903047217E+02  0.51100000000E-03 0. -1.
         23    2    1    0    0    0 -0.24837074081E+02  0.42140060299E+00 -0.16123856108E+02  0.95385196891E+02  0.90671380395E+02 0.  0.
         11    1    3    3    0    0 -0.11190721543E+02  0.29110281867E+02 -0.43447664775E+02  0.53482149674E+02  0.51100000000E-03 0.  1.
         22    1    1    0    0    0  0.24837074081E+02 -0.42140060299E+00  0.16123856108E+02  0.29614803109E+02  0.00000000000E+00 0.  1.
</event>
<event>
 5    1  0.8900327E-005  0.9118800E+02  0.7818608E-02  0.1130116E+00
         25   -1    0    0    0    0  0.00000000000E+00  0.00000000000E+00  0.99999998245E-14  0.12500000000E+03  0.12500000000E+03 0.  0.
        -11    1    3    3    0    0  0.15282348027E+02 -0.48444962881E+01 -0.39269965434E+02  0.42416382342E+02  0.51100000000E-03 0. -1.
         23    2    1    0    0    0  0.24999560819E+02 -0.77251952995E+01  0.13085931540E+02  0.95744260600E+02  0.91165043465E+02 0.  0.
         11    1    3    3    0    0  0.97172127921E+01 -0.28806990115E+01  0.52355896974E+02  0.53327878258E+02  0.51100000000E-03 0.  1.
         22    1    1    0    0    0 -0.24999560819E+02  0.77251952995E+01 -0.13085931540E+02  0.29255739400E+02  0.00000000000E+00 0.  1.
</event>
<event>
 5    1  0.8900327E-005  0.9118800E+02  0.7818608E-02  0.1130116E+00
         25   -1    0    0    0    0  0.00000000000E+00  0.00000000000E+00  0.99999998245E-14  0.12500000000E+03  0.12500000000E+03 0.  0.
        -11    1    3    3    0    0  0.59903224083E+01 -0.25358602679E+02  0.55368383510E+02  0.61193141651E+02  0.51100000000E-03 0.  1.
         23    2    1    0    0    0  0.51830183732E+01 -0.15872870530E+02  0.15381958937E+02  0.10229721693E+03  0.99746199090E+02 0.  0.
         11    1    3    3    0    0 -0.80730403514E+00  0.94857321487E+01 -0.39986424573E+02  0.41104075280E+02  0.51100000000E-03 0. -1.
         22    1    1    0    0    0 -0.51830183732E+01  0.15872870530E+02 -0.15381958937E+02  0.22702783069E+02  0.00000000000E+00 0.  1.
</event>
<event>
 5    1  0.8900327E-005  0.9118800E+02  0.7818608E-02  0.1130116E+00
         25   -1    0    0    0    0  0.00000000000E+00  0.00000000000E+00  0.99999998245E-14  0.12500000000E+03  0.12500000000E+03 0.  0.
        -11    1    3    3    0    0  0.40003588755E+02  0.26343306780E+02  0.93168239871E+01  0.48796107784E+02  0.51100000000E-03 0. -1.
         23    2    1    0    0    0 -0.30065692565E+01  0.29862845922E+02 -0.56250855493E+01  0.94463618212E+02  0.89391859546E+02 0.  0.
         11    1    3    3    0    0 -0.43010158011E+02  0.35195391413E+01 -0.14941909536E+02  0.45667510429E+02  0.51100000000E-03 0.  1.
         22    1    1    0    0    0  0.30065692565E+01 -0.29862845922E+02  0.56250855493E+01  0.30536381788E+02  0.00000000000E+00 0. -1.
</event>
<event>
 5    1  0.8900327E-005  0.9118800E+02  0.7818608E-02  0.1130116E+00
         25   -1    0    0    0    0  0.00000000000E+00  0.00000000000E+00  0.99999998245E-14  0.12500000000E+03  0.12500000000E+03 0.  0.
        -11    1    3    3    0    0  0.16457031606E+02  0.32040436095E+02 -0.28707653504E+02  0.46060317025E+02  0.51100000000E-03 0. -1.
         23    2    1    0    0    0  0.18843846720E+02  0.14210602829E+02  0.17481843773E+02  0.95629152997E+02  0.91007078017E+02 0.  0.
         11    1    3    3    0    0  0.23868151139E+01 -0.17829833267E+02  0.46189497277E+02  0.49568835972E+02  0.51100000000E-03 0.  1.
         22    1    1    0    0    0 -0.18843846720E+02 -0.14210602829E+02 -0.17481843773E+02  0.29370847003E+02  0.00000000000E+00 0. -1.
</event>
<event>
 5    1  0.8900327E-005  0.9118800E+02  0.7818608E-02  0.1130116E+00
         25   -1    0    0    0    0  0.00000000000E+00  0.00000000000E+00  0.99999998245E-14  0.12500000000E+03  0.12500000000E+03 0.  0.
        -11    1    3    3    0    0 -0.15996462146E+02 -0.35182218823E+02 -0.40426863908E+01  0.38858958247E+02  0.51100000000E-03 0.  1.
         23    2    1    0    0    0 -0.20541284469E+01  0.15315030425E+02 -0.25267639139E+02  0.95382046184E+02  0.90667036711E+02 0.  0.
         11    1    3    3    0    0  0.13942333699E+02  0.50497249248E+02 -0.21224952748E+02  0.56523087937E+02  0.51100000000E-03 0. -1.
         22    1    1    0    0    0  0.20541284469E+01 -0.15315030425E+02  0.25267639139E+02  0.29617953816E+02  0.00000000000E+00 0. -1.
</event>
<event>
 4    1  0.8900327E-005  0.9118800E+02  0.7818608E-02  0.1130116E+00
         25   -1    0    0    0    0  0.00000000000E+00  0.00000000000E+00  0.99999998245E-14  0.12500000000E+03  0.12500000000E+03 0.  0.
        -11    1    1    0    0    0  0.32232646145E+01 -0.51540635811E+01  0.45906458221E+01  0.76176003766E+01  0.51100000000E-03 0. -1.
         11    1    1    0    0    0  0.64948448227E+00  0.29934325637E+02 -0.54128138626E+02  0.61857425365E+02  0.51100000000E-03 0.  1.
         22    1    1    0    0    0 -0.38727490968E+01 -0.24780262056E+02  0.49537492803E+02  0.55524974258E+02  0.00000000000E+00 0.  1.
</event>
<event>
 5    1  0.8900327E-005  0.9118800E+02  0.7818608E-02  0.1130116E+00
         25   -1    0    0    0    0  0.00000000000E+00  0.00000000000E+00  0.99999998245E-14  0.12500000000E+03  0.12500000000E+03 0.  0.
        -11    1    3    3    0    0 -0.35402701697E+02  0.13047989100E+02  0.15817298354E+02  0.40911957109E+02  0.51100000000E-03 0.  1.
         23    2    1    0    0    0  0.14370776807E+02  0.24291977124E+02 -0.55540197372E+01  0.96234282316E+02  0.91834473805E+02 0.  0.
         11    1    3    3    0    0  0.49773478504E+02  0.11243988024E+02 -0.21371318091E+02  0.55322325207E+02  0.51100000000E-03 0. -1.
         22    1    1    0    0    0 -0.14370776807E+02 -0.24291977124E+02  0.55540197372E+01  0.28765717684E+02  0.00000000000E+00 0. -1.
</event>
<event>
 5    1  0.8900327E-005  0.9118800E+02  0.7818608E-02  0.1130116E+00
         25   -1    0    0    0    0  0.00000000000E+00  0.00000000000E+00  0.99999998245E-14  0.12500000000E+03  0.12500000000E+03 0.  0.
        -11    1    3    3    0    0  0.51822959502E+02  0.18456813164E+02  0.22749198866E+02  0.59529817176E+02  0.51100000000E-03 0. -1.
         23    2    1    0    0    0  0.30007242805E+02  0.12867008153E+01  0.74292912407E+00  0.94955996215E+02  0.90077738947E+02 0.  0.
         11    1    3    3    0    0 -0.21815716698E+02 -0.17170112349E+02 -0.22006269741E+02  0.35426179039E+02  0.51100000000E-03 0.  1.
         22    1    1    0    0    0 -0.30007242805E+02 -0.12867008153E+01 -0.74292912407E+00  0.30044003785E+02  0.00000000000E+00 0. -1.
</event>
<event>
 5    1  0.8900327E-005  0.9118800E+02  0.7818608E-02  0.1130116E+00
         25   -1    0    0    0    0  0.00000000000E+00  0.00000000000E+00  0.99999998245E-14  0.12500000000E+03  0.12500000000E+03 0.  0.
        -11    1    3    3    0    0  0.13646590302E+02 -0.33830542880E+02 -0.47925148044E+01  0.36792706571E+02  0.51100000000E-03 0. -1.
         23    2    1    0    0    0  0.27863093486E+01  0.95412844833E+01  0.29968234267E+02  0.93426360766E+02  0.87929461453E+02 0.  0.
         11    1    3    3    0    0 -0.10860280954E+02  0.43371827363E+02  0.34760749072E+02  0.56633654195E+02  0.51100000000E-03 0.  1.
         22    1    1    0    0    0 -0.27863093486E+01 -0.95412844833E+01 -0.29968234267E+02  0.31573639234E+02  0.00000000000E+00 0.  1.
</event>
<event>
 5    1  0.8900327E-005  0.9118800E+02  0.7818608E-02  0.1130116E+00
         25   -1    0    0    0    0  0.00000000000E+00  0.00000000000E+00  0.99999998245E-14  0.12500000000E+03  0.12500000000E+03 0.  0.
        -11    1    3    3    0    0 -0.28589058958E+02 -0.56531430169E+01  0.44900595018E+02  0.53529017844E+02  0.51100000000E-03 0.  1.
         23    2    1    0    0    0 -0.20107272712E+02 -0.23368301888E+02  0.11855001251E+02  0.91970906708E+02  0.85835462817E+02 0.  0.
         11    1    3    3    0    0  0.84817862462E+01 -0.17715158871E+02 -0.33045593768E+02  0.38441888865E+02  0.51100000000E-03 0. -1.
         22    1    1    0    0    0  0.20107272712E+02  0.23368301888E+02 -0.11855001251E+02  0.33029093292E+02  0.00000000000E+00 0.  1.
</event>
<event>
 5    1  0.8900327E-005  0.9118800E+02  0.7818608E-02  0.1130116E+00
         25   -1    0    0    0    0  0.00000000000E+00  0.00000000000E+00  0.99999998245E-14  0.12500000000E+03  0.12500000000E+03 0.  0.
        -11    1    3    3    0    0  0.44827867390E+02 -0.38660893140E+02  0.36018985265E+01  0.59305784088E+02  0.51100000000E-03 0.  1.
         23    2    1    0    0    0  0.28153466210E+02 -0.58255612308E+01  0.79508257375E+00  0.96239141536E+02  0.91841087667E+02 0.  0.
         11    1    3    3    0    0 -0.16674401179E+02  0.32835331909E+02 -0.28068159527E+01  0.36933357447E+02  0.51100000000E-03 0. -1.
         22    1    1    0    0    0 -0.28153466210E+02  0.58255612308E+01 -0.79508257375E+00  0.28760858464E+02  0.00000000000E+00 0.  1.
</event>
<event>
 5    1  0.8900327E-005  0.9118800E+02  0.7818608E-02  0.1130116E+00
         25   -1    0    0    0    0  0.00000000000E+00  0.00000000000E+00  0.99999998245E-14  0.12500000000E+03  0.12500000000E+03 0.  0.
        -11    1    3    3    0    0  0.11491509840E+02  0.41996877020E+02  0.31858147758E+01  0.43657094428E+02  0.51100000000E-03 0.  1.
         23    2    1    0    0    0  0.18476879869E+02 -0.57768686437E+01 -0.19954757936E+02  0.97197847830E+02  0.93136791642E+02 0.  0.
         11    1    3    3    0    0  0.69853700286E+01 -0.47773745663E+02 -0.23140572712E+02  0.53540753402E+02  0.51100000000E-03 0. -1.
         22    1    1    0    0    0 -0.18476879869E+02  0.57768686437E+01  0.19954757936E+02  0.27802152170E+02  0.00000000000E+00 0. -1.
</event>
<event>
 5    1  0.8900327E-005  0.9118800E+02  0.7818608E-02  0.1130116E+00
         25   -1    0    0    0    0  0.00000000000E+00  0.00000000000E+00  0.99999998245E-14  0.12500000000E+03  0.12500000000E+03 0.  0.
        -11    1    3    3    0    0  0.19806169822E+01  0.26109232116E+01 -0.60279984883E+02  0.60369001494E+02  0.51100000000E-03 0. -1.
         23    2    1    0    0    0 -0.81878059942E+01  0.74802010001E+01 -0.39035351729E+02  0.84419804602E+02  0.74026692148E+02 0.  0.
         11    1    3    3    0    0 -0.10168422976E+02  0.48692777885E+01  0.21244633154E+02  0.24050803108E+02  0.51100000000E-03 0.  1.
         22    1    1    0    0    0  0.81878059942E+01 -0.74802010001E+01  0.39035351729E+02  0.40580195398E+02  0.00000000000E+00 0. -1.
</event>
<event>
 5    1  0.8900327E-005  0.9118800E+02  0.7818608E-02  0.1130116E+00
         25   -1    0    0    0    0  0.00000000000E+00  0.00000000000E+00  0.99999998245E-14  0.12500000000E+03  0.12500000000E+03 0.  0.
        -11    1    3    3    0    0  0.18685018765E+02  0.20173069484E+02 -0.26570657857E+02  0.38237187630E+02  0.51100000000E-03 0. -1.
         23    2    1    0    0    0  0.41627398082E+02 -0.68871993771E+01  0.40448844696E+00  0.82804770444E+02  0.71247404241E+02 0.  0.
         11    1    3    3    0    0  0.22942379317E+02 -0.27060268861E+02  0.26975146304E+02  0.44567582814E+02  0.51100000000E-03 0.  1.
         22    1    1    0    0    0 -0.41627398082E+02  0.68871993771E+01 -0.40448844696E+00  0.42195229556E+02  0.00000000000E+00 0.  1.
</event>
<event>
 5    1  0.8900327E-005  0.9118800E+02  0.7818608E-02  0.1130116E+00
         25   -1    0    0    0    0  0.00000000000E+00  0.00000000000E+00  0.99999998245E-14  0.12500000000E+03  0.12500000000E+03 0.  0.
        -11    1    3    3    0    0  0.43310385237E+02  0.43686233304E+02  0.10072003528E+02  0.62335557308E+02  0.51100000000E-03 0.  1.
         23    2    1    0    0    0  0.19047998777E+02  0.23729428055E+02  0.45435890416E+01  0.94233846282E+02  0.89069981310E+02 0.  0.
         11    1    3    3    0    0 -0.24262386459E+02 -0.19956805249E+02 -0.55284144865E+01  0.31898288974E+02  0.51100000000E-03 0. -1.
         22    1    1    0    0    0 -0.19047998777E+02 -0.23729428055E+02 -0.45435890416E+01  0.30766153718E+02  0.00000000000E+00 0.  1.
</event>
<event>
 4    1  0.8900327E-005  0.9118800E+02  0.7818608E-02  0.1130116E+00
         25   -1    0    0    0    0  0.00000000000E+00  0.00000000000E+00  0.99999998245E-14  0.12500000000E+03  0.12500000000E+03 0.  0.
        -11    1    1    0    0    0 -0.22309986234E+02 -0.50609004746E+02  0.28298654783E+02  0.62127455363E+02  0.51100000000E-03 0. -1.
         11    1    1    0    0    0  0.63194364555E+01  0.67308661906E+01 -0.27172523764E+01  0.96240998295E+01  0.51100000000E-03 0.  1.
         22    1    1    0    0    0  0.15990549778E+02  0.43878138555E+02 -0.25581402407E+02  0.53248444807E+02  0.00000000000E+00 0. -1.
</event>
<event>
 5    1  0.8900327E-005  0.9118800E+02  0.7818608E-02  0.1130116E+00
         25   -1    0    0    0    0  0.00000000000E+00  0.00000000000E+00  0.99999998245E-14  0.12500000000E+03  0.12500000000E+03 0.  0.
        -11    1    3    3    0    0  0.49445317255E+02 -0.29301693482E+02  0.15867553992E+02  0.59625564226E+02  0.51100000000E-03 0. -1.
         23    2    1    0    0    0  0.15436384555E+02 -0.19623878810E+02  0.16644174435E+02  0.94993215263E+02  0.90129372658E+02 0.  0.
         11    1    3    3    0    0 -0.34008932700E+02  0.96778146719E+01  0.77662044237E+00  0.35367651036E+02  0.51100000000E-03 0.  1.
         22    1    1    0    0    0 -0.15436384555E+02  0.19623878810E+02 -0.16644174435E+02  0.30006784737E+02  0.00000000000E+00 0. -1.
</event>
<event>
 5    1  0.8900327E-005  0.9118800E+02  0.7818608E-02  0.1130116E+00
         25   -1    0    0    0    0  0.00000000000E+00  0.00000000000E+00  0.99999998245E-14  0.12500000000E+03  0.12500000000E+03 0.  0.
        -11    1    3    3    0    0  0.20771579610E+02 -0.50435763314E+02 -0.57993103280E+01  0.54853046780E+02  0.51100000000E-03 0.  1.
         23    2    1    0    0    0  0.19357984618E+02 -0.16161484345E+02  0.15659949306E+02  0.95315674895E+02  0.90575486329E+02 0.  0.
         11    1    3    3    0    0 -0.14135949921E+01  0.34274278969E+02  0.21459259634E+02  0.40462628115E+02  0.51100000000E-03 0. -1.
         22    1    1    0    0    0 -0.19357984618E+02  0.16161484345E+02 -0.15659949306E+02  0.29684325105E+02  0.00000000000E+00 0.  1.
</event>
<event>
 5    1  0.8900327E-005  0.9118800E+02  0.7818608E-02  0.1130116E+00
         25   -1    0    0    0    0  0.00000000000E+00  0.00000000000E+00  0.99999998245E-14  0.12500000000E+03  0.12500000000E+03 0.  0.
        -11    1    3    3    0    0  0.18058814786E+01  0.20649245085E+02 -0.38583506909E+02  0.43798853138E+02  0.51100000000E-03 0. -1.
         23    2    1    0    0    0 -0.31523698247E+02  0.20381989047E+02 -0.15268093656E+02  0.84474900215E+02  0.74119667119E+02 0.  0.
         11    1    3    3    0    0 -0.33329579725E+02 -0.26725603750E+00  0.23315413253E+02  0.40676047078E+02  0.51100000000E-03 0.  1.
         22    1    1    0    0    0  0.31523698247E+02 -0.20381989047E+02  0.15268093656E+02  0.40525099785E+02  0.00000000000E+00 0. -1.
</event>
<event>
 5    1  0.8900327E-005  0.9118800E+02  0.7818608E-02  0.1130116E+00
         25   -1    0    0    0    0  0.00000000000E+00  0.00000000000E+00  0.99999998245E-14  0.12500000000E+03  0.12500000000E+03 0.  0.
        -11    1    3    3    0    0  0.32284660058E+02 -0.18966632900E+02  0.16222908617E+02  0.40807048446E+02  0.51100000000E-03 0.  1.
         23    2    1    0    0    0  0.15682113942E+02  0.22150995689E+02 -0.13991609916E+02  0.94465421966E+02  0.89394381767E+02 0.  0.
         11    1    3    3    0    0 -0.16602546116E+02  0.41117628589E+02 -0.30214518533E+02  0.53658373520E+02  0.51100000000E-03 0. -1.
         22    1    1    0    0    0 -0.15682113942E+02 -0.22150995689E+02  0.13991609916E+02  0.30534578034E+02  0.00000000000E+00 0. -1.
</event>
<event>
 5    1  0.8900327E-005  0.9118800E+02  0.7818608E-02  0.1130116E+00
         25   -1    0    0    0    0  0.00000000000E+00  0.00000000000E+00  0.99999998245E-14  0.12500000000E+03  0.12500000000E+03 0.  0.
        -11    1    3    3    0    0  0.54427834383E+02 -0.22293111647E+02 -0.78048963650E+01  0.59332018253E+02  0.51100000000E-03 0.  1.
         23    2    1    0    0    0  0.28462743490E+02 -0.43495257194E+01  0.86629646546E+01  0.94931859093E+02  0.90044237869E+02 0.  0.
         11    1    3    3    0    0 -0.25965090892E+02  0.17943585928E+02  0.16467861020E+02  0.35599840840E+02  0.51100000000E-03 0. -1.
         22    1    1    0    0    0 -0.28462743490E+02  0.43495257194E+01 -0.86629646546E+01  0.30068140907E+02  0.00000000000E+00 0.  1.
</event>
<event>
 5    1  0.8900327E-005  0.9118800E+02  0.7818608E-02  0.1130116E+00
         25   -1    0    0    0    0  0.00000000000E+00  0.00000000000E+00  0.99999998245E-14  0.12500000000E+03  0.12500000000E+03 0.  0.
        -11    1    3    3    0    0  0.40845461166E+02 -0.19510890331E+02  0.34781922923E+02  0.57085976403E+02  0.51100000000E-03 0.  1.
         23    2    1    0    0    0  0.63045479174E+01 -0.24862585534E+00  0.26845188607E+02  0.97423319804E+02  0.93438910263E+02 0.  0.
         11    1    3    3    0    0 -0.34540913249E+02  0.19262264476E+02 -0.79367343161E+01  0.40337343401E+02  0.51100000000E-03 0. -1.
         22    1    1    0    0    0 -0.63045479174E+01  0.24862585534E+00 -0.26845188607E+02  0.27576680196E+02  0.00000000000E+00 0.  1.
</event>
<event>
 5    1  0.8900327E-005  0.9118800E+02  0.7818608E-02  0.1130116E+00
         25   -1    0    0    0    0  0.00000000000E+00  0.00000000000E+00  0.99999998245E-14  0.12500000000E+03  0.12500000000E+03 0.  0.
        -11    1    3    3    0    0  0.30737838734E+02  0.24536491301E+02 -0.24746014233E+02  0.46467401004E+02  0.51100000000E-03 0. -1.
         23    2    1    0    0    0  0.25260652507E+02 -0.12811570659E+02  0.70388504581E+01  0.95814689935E+02  0.91261560822E+02 0.  0.
         11    1    3    3    0    0 -0.54771862270E+01 -0.37348061960E+02  0.31784864691E+02  0.49347288931E+02  0.51100000000E-03 0.  1.
         22    1    1    0    0    0 -0.25260652507E+02  0.12811570659E+02 -0.70388504581E+01  0.29185310065E+02  0.00000000000E+00 0.  1.
</event>
<event>
 5    1  0.8900327E-005  0.9118800E+02  0.7818608E-02  0.1130116E+00
         25   -1    0    0    0    0  0.00000000000E+00  0.00000000000E+00  0.99999998245E-14  0.12500000000E+03  0.12500000000E+03 0.  0.
        -11    1    3    3    0    0  0.32321163513E+01 -0.41481943513E+02 -0.26865319742E+02  0.49527200798E+02  0.51100000000E-03 0.  1.
         23    2    1    0    0    0 -0.20665982102E+02 -0.23020800174E+01 -0.20394168901E+02  0.95874332389E+02  0.91343215934E+02 0.  0.
         11    1    3    3    0    0 -0.23898098453E+02  0.39179863496E+02  0.64711508416E+01  0.46347131591E+02  0.51100000000E-03 0. -1.
         22    1    1    0    0    0  0.20665982102E+02  0.23020800174E+01  0.20394168901E+02  0.29125667611E+02  0.00000000000E+00 0. -1.
</event>
<event>
 5    1  0.8900327E-005  0.9118800E+02  0.7818608E-02  0.1130116E+00
         25   -1    0    0    0    0  0.00000000000E+00  0.00000000000E+00  0.99999998245E-14  0.12500000000E+03  0.12500000000E+03 0.  0.
        -11    1    3    3    0    0  0.28575009585E+02 -0.42614232511E+02  0.32095498414E+02  0.60519624949E+02  0.51100000000E-03 0.  1.
         23    2    1    0    0    0  0.31736605047E+01 -0.22034630975E+02  0.18984277542E+02  0.95742524426E+02  0.91162662897E+02 0.  0.
         11    1    3    3    0    0 -0.25401349080E+02  0.20579601536E+02 -0.13111220872E+02  0.35222899476E+02  0.51100000000E-03 0. -1.
         22    1    1    0    0    0 -0.31736605047E+01  0.22034630975E+02 -0.18984277542E+02  0.29257475574E+02  0.00000000000E+00 0.  1.
</event>
<event>
 5    1  0.8900327E-005  0.9118800E+02  0.7818608E-02  0.1130116E+00
         25   -1    0    0    0    0  0.00000000000E+00  0.00000000000E+00  0.99999998245E-14  0.12500000000E+03  0.12500000000E+03 0.  0.
        -11    1    3    3    0    0 -0.34514477788E+01 -0.33496025744E+02 -0.38392599673E+02  0.51067484199E+02  0.51100000000E-03 0.  1.
         23    2    1    0    0    0  0.18141049692E+02  0.35487227765E+01 -0.20122471420E+02  0.97675926853E+02  0.93776232134E+02 0.  0.
         11    1    3    3    0    0  0.21592497471E+02  0.37044748521E+02  0.18270128253E+02  0.46608442654E+02  0.51100000000E-03 0. -1.
         22    1    1    0    0    0 -0.18141049692E+02 -0.35487227765E+01  0.20122471420E+02  0.27324073147E+02  0.00000000000E+00 0.  1.
</event>
<event>
 5    1  0.8900327E-005  0.9118800E+02  0.7818608E-02  0.1130116E+00
         25   -1    0    0    0    0  0.00000000000E+00  0.00000000000E+00  0.99999998245E-14  0.12500000000E+03  0.12500000000E+03 0.  0.
        -11    1    3    3    0    0  0.45929518971E+01  0.12803188477E+02  0.52711820906E+02  0.54438524097E+02  0.51100000000E-03 0. -1.
         23    2    1    0    0    0 -0.99024000330E+01 -0.13311230033E+02  0.23643624295E+02  0.96116313580E+02  0.91673760668E+02 0.  0.
         11    1    3    3    0    0 -0.14495351930E+02 -0.26114418510E+02 -0.29068196611E+02  0.41677789483E+02  0.51100000000E-03 0.  1.
         22    1    1    0    0    0  0.99024000330E+01  0.13311230033E+02 -0.23643624295E+02  0.28883686420E+02  0.00000000000E+00 0. -1.
</event>
<event>
 5    1  0.8900327E-005  0.9118800E+02  0.7818608E-02  0.1130116E+00
         25   -1    0    0    0    0  0.00000000000E+00  0.00000000000E+00  0.99999998245E-14  0.12500000000E+03  0.12500000000E+03 0.  0.
        -11    1    3    3    0    0 -0.23656687707E+02  0.49921052580E+02 -0.23518618735E+01  0.55292690462E+02  0.51100000000E-03 0.  1.
         23    2    1    0    0    0 -0.81448519870E+01  0.22782615715E+02  0.19908279815E+02  0.93667496144E+02  0.88271592463E+02 0.  0.
         11    1    3    3    0    0  0.15511835720E+02 -0.27138436865E+02  0.22260141688E+02  0.38374805682E+02  0.51100000000E-03 0. -1.
         22    1    1    0    0    0  0.81448519870E+01 -0.22782615715E+02 -0.19908279815E+02  0.31332503856E+02  0.00000000000E+00 0.  1.
</event>
<event>
 5    1  0.8900327E-005  0.9118800E+02  0.7818608E-02  0.1130116E+00
         25   -1    0    0    0    0  0.00000000000E+00  0.00000000000E+00  0.99999998245E-14  0.12500000000E+03  0.12500000000E+03 0.  0.
        -11    1    3    3    0    0  0.24181071213E+02 -0.30537973735E+02 -0.87994296241E+01  0.39933970587E+02  0.51100000000E-03 0.  1.
         23    2    1    0    0    0 -0.93544251588E+01 -0.27569054315E+01  0.26990408056E+02  0.96301778371E+02  0.91926299789E+02 0.  0.
         11    1    3    3    0    0 -0.33535496372E+02  0.27781068304E+02  0.35789837680E+02  0.56367807785E+02  0.51100000000E-03 0. -1.
         22    1    1    0    0    0  0.93544251588E+01  0.27569054315E+01 -0.26990408056E+02  0.28698221629E+02  0.00000000000E+00 0. -1.
</event>
<event>
 5    1  0.8900327E-005  0.9118800E+02  0.7818608E-02  0.1130116E+00
         25   -1    0    0    0    0  0.00000000000E+00  0.00000000000E+00  0.99999998245E-14  0.12500000000E+03  0.12500000000E+03 0.  0.
        -11    1    3    3    0    0 -0.36527399450E+02  0.33544962271E+02  0.19112198975E+01  0.49630314991E+02  0.51100000000E-03 0.  1.
         23    2    1    0    0    0  0.42277466806E+01  0.22787240612E+02  0.18918126262E+02  0.95082986814E+02  0.90253790521E+02 0.  0.
         11    1    3    3    0    0  0.40755146131E+02 -0.10757721659E+02  0.17006906365E+02  0.45452671822E+02  0.51100000000E-03 0. -1.
         22    1    1    0    0    0 -0.42277466806E+01 -0.22787240612E+02 -0.18918126262E+02  0.29917013186E+02  0.00000000000E+00 0.  1.
</event>
<event>
 5    1  0.8900327E-005  0.9118800E+02  0.7818608E-02  0.1130116E+00
         25   -1    0    0    0    0  0.00000000000E+00  0.00000000000E+00  0.99999998245E-14  0.12500000000E+03  0.12500000000E+03 0.  0.
        -11    1    3    3    0    0  0.16581196968E+02 -0.24005501995E+02 -0.19028317189E+02  0.34832127041E+02  0.51100000000E-03 0. -1.
         23    2    1    0    0    0 -0.12925299023E+02  0.26293623578E+02 -0.17676910490E+01  0.95647951906E+02  0.91032895024E+02 0.  0.
         11    1    3    3    0    0 -0.29506495991E+02  0.50299125572E+02  0.17260626140E+02  0.60815824865E+02  0.51100000000E-03 0.  1.
         22    1    1    0    0    0  0.12925299023E+02 -0.26293623578E+02  0.17676910490E+01  0.29352048094E+02  0.00000000000E+00 0.  1.
</event>
<event>
 5    1  0.8900327E-005  0.9118800E+02  0.7818608E-02  0.1130116E+00
         25   -1    0    0    0    0  0.00000000000E+00  0.00000000000E+00  0.99999998245E-14  0.12500000000E+03  0.12500000000E+03 0.  0.
        -11    1    3    3    0    0  0.16340697019E+02  0.34477990781E+02  0.40220379819E+02  0.55438517119E+02  0.51100000000E-03 0.  1.
         23    2    1    0    0    0  0.19254675610E+02 -0.68624100894E+00  0.23861554267E+02  0.94331005370E+02  0.89206229281E+02 0.  0.
         11    1    3    3    0    0  0.29139785910E+01 -0.35164231790E+02 -0.16358825551E+02  0.38892488251E+02  0.51100000000E-03 0. -1.
         22    1    1    0    0    0 -0.19254675610E+02  0.68624100894E+00 -0.23861554267E+02  0.30668994630E+02  0.00000000000E+00 0. -1.
</event>
<event>
 5    1  0.8900327E-005  0.9118800E+02  0.7818608E-02  0.1130116E+00
         25   -1    0    0    0    0  0.00000000000E+00  0.00000000000E+00  0.99999998245E-14  0.12500000000E+03  0.12500000000E+03 0.  0.
        -11    1    3    3    0    0 -0.32158835118E+02 -0.46909519490E+02 -0.22558617677E+02  0.61184842295E+02  0.51100000000E-03 0.  1.
         23    2    1    0    0    0 -0.11117112608E+02 -0.30022455286E+02 -0.17074607092E+02  0.88716667442E+02  0.80957809139E+02 0.  0.
         11    1    3    3    0    0  0.21041722509E+02  0.16887064204E+02  0.54840105843E+01  0.27531825147E+02  0.51100000000E-03 0. -1.
         22    1    1    0    0    0  0.11117112608E+02  0.30022455286E+02  0.17074607092E+02  0.36283332558E+02  0.00000000000E+00 0.  1.
</event>
<event>
 5    1  0.8900327E-005  0.9118800E+02  0.7818608E-02  0.1130116E+00
         25   -1    0    0    0    0  0.00000000000E+00  0.00000000000E+00  0.99999998245E-14  0.12500000000E+03  0.12500000000E+03 0.  0.
        -11    1    3    3    0    0  0.28325067535E+02 -0.12192398582E+02  0.45017163288E+01  0.31164554934E+02  0.51100000000E-03 0.  1.
         23    2    1    0    0    0 -0.19224515696E+02 -0.35084733889E+02  0.85400248293E+01  0.84092145254E+02  0.73471329874E+02 0.  0.
         11    1    3    3    0    0 -0.47549583231E+02 -0.22892335307E+02  0.40383085005E+01  0.52927590320E+02  0.51100000000E-03 0. -1.
         22    1    1    0    0    0  0.19224515696E+02  0.35084733889E+02 -0.85400248293E+01  0.40907854746E+02  0.00000000000E+00 0. -1.
</event>
<event>
 5    1  0.8900327E-005  0.9118800E+02  0.7818608E-02  0.1130116E+00
         25   -1    0    0    0    0  0.00000000000E+00  0.00000000000E+00  0.99999998245E-14  0.12500000000E+03  0.12500000000E+03 0.  0.
        -11    1    3    3    0    0 -0.10598529116E+02 -0.34395827495E+02  0.14852682336E+02  0.38935895281E+02  0.51100000000E-03 0.  1.
         23    2    1    0    0    0 -0.14711676587E+02  0.13580172137E+02 -0.18683295345E+02  0.97615332242E+02  0.93695427105E+02 0.  0.
         11    1    3    3    0    0 -0.41131474710E+01  0.47975999632E+02 -0.33535977681E+02  0.58679436961E+02  0.51100000000E-03 0. -1.
         22    1    1    0    0    0  0.14711676587E+02 -0.13580172137E+02  0.18683295345E+02  0.27384667758E+02  0.00000000000E+00 0. -1.
</event>
<event>
 5    1  0.8900327E-005  0.9118800E+02  0.7818608E-02  0.1130116E+00
         25   -1    0    0    0    0  0.00000000000E+00  0.00000000000E+00  0.99999998245E-14  0.12500000000E+03  0.12500000000E+03 0.  0.
        -11    1    3    3    0    0  0.14645688749E+02  0.31921594671E+02  0.10907391283E+02  0.36775747308E+02  0.51100000000E-03 0. -1.
         23    2    1    0    0    0 -0.28000094852E+01 -0.95166812272E+01 -0.27410405897E+02  0.95849740548E+02  0.91309556657E+02 0.  0.
         11    1    3    3    0    0 -0.17445698234E+02 -0.41438275898E+02 -0.38317797180E+02  0.59073993239E+02  0.51100000000E-03 0.  1.
         22    1    1    0    0    0  0.28000094852E+01  0.95166812272E+01  0.27410405897E+02  0.29150259452E+02  0.00000000000E+00 0.  1.
</event>
<event>
 5    1  0.8900327E-005  0.9118800E+02  0.7818608E-02  0.1130116E+00
         25   -1    0    0    0    0  0.00000000000E+00  0.00000000000E+00  0.99999998245E-14  0.12500000000E+03  0.12500000000E+03 0.  0.
        -11    1    3    3    0    0  0.24485115309E+02  0.23270436555E+02  0.28380711492E+02  0.44119144078E+02  0.51100000000E-03 0.  1.
         23    2    1    0    0    0  0.25406272312E+02 -0.96135788453E+01 -0.11227230832E+02  0.95606968799E+02  0.90976602485E+02 0.  0.
         11    1    3    3    0    0  0.92115700391E+00 -0.32884015400E+02 -0.39607942324E+02  0.51487824721E+02  0.51100000000E-03 0. -1.
         22    1    1    0    0    0 -0.25406272312E+02  0.96135788453E+01  0.11227230832E+02  0.29393031201E+02  0.00000000000E+00 0. -1.
</event>
<event>
 5    1  0.8900327E-005  0.9118800E+02  0.7818608E-02  0.1130116E+00
         25   -1    0    0    0    0  0.00000000000E+00  0.00000000000E+00  0.99999998245E-14  0.12500000000E+03  0.12500000000E+03 0.  0.
        -11    1    3    3    0    0  0.13858075915E+02  0.37210548525E+02 -0.86529938075E+01  0.40639211258E+02  0.51100000000E-03 0. -1.
         23    2    1    0    0    0  0.17909631203E+02 -0.10857503009E+02  0.19408493069E+02  0.96446018410E+02  0.92122226430E+02 0.  0.
         11    1    3    3    0    0  0.40515552877E+01 -0.48068051534E+02  0.28061486877E+02  0.55806807152E+02  0.51100000000E-03 0.  1.
         22    1    1    0    0    0 -0.17909631203E+02  0.10857503009E+02 -0.19408493069E+02  0.28553981590E+02  0.00000000000E+00 0.  1.
</event>
<event>
 5    1  0.8900327E-005  0.9118800E+02  0.7818608E-02  0.1130116E+00
         25   -1    0    0    0    0  0.00000000000E+00  0.00000000000E+00  0.99999998245E-14  0.12500000000E+03  0.12500000000E+03 0.  0.
        -11    1    3    3    0    0  0.13311108400E+02  0.39127413791E+00 -0.56531290066E+02  0.58078614473E+02  0.51100000000E-03 0.  1.
         23    2    1    0    0    0 -0.98036562302E+01  0.50318873091E+01 -0.26799305708E+02  0.96023555225E+02  0.91547194420E+02 0.  0.
         11    1    3    3    0    0 -0.23114764630E+02  0.46406131712E+01  0.29731984358E+02  0.37944940752E+02  0.51100000000E-03 0. -1.
         22    1    1    0    0    0  0.98036562302E+01 -0.50318873091E+01  0.26799305708E+02  0.28976444775E+02  0.00000000000E+00 0.  1.
</event>
<event>
 5    1  0.8900327E-005  0.9118800E+02  0.7818608E-02  0.1130116E+00
         25   -1    0    0    0    0  0.00000000000E+00  0.00000000000E+00  0.99999998245E-14  0.12500000000E+03  0.12500000000E+03 0.  0.
        -11    1    3    3    0    0  0.52317539475E+01 -0.10256035890E+02 -0.33046198278E+02  0.34994410160E+02  0.51100000000E-03 0.  1.
         23    2    1    0    0    0  0.13791946681E+01  0.18720303523E+02  0.21242272193E+02  0.96652406277E+02  0.92401848300E+02 0.  0.
         11    1    3    3    0    0 -0.38525592795E+01  0.28976339414E+02  0.54288470471E+02  0.61657996117E+02  0.51100000000E-03 0. -1.
         22    1    1    0    0    0 -0.13791946681E+01 -0.18720303523E+02 -0.21242272193E+02  0.28347593723E+02  0.00000000000E+00 0. -1.
</event>
<event>
 5    1  0.8900327E-005  0.9118800E+02  0.7818608E-02  0.1130116E+00
         25   -1    0    0    0    0  0.00000000000E+00  0.00000000000E+00  0.99999998245E-14  0.12500000000E+03  0.12500000000E+03 0.  0.
        -11    1    3    3    0    0 -0.31082552252E+02 -0.51042464009E+02  0.30491246365E+00  0.59762456095E+02  0.51100000000E-03 0.  1.
         23    2    1    0    0    0 -0.22141078163E+02 -0.18559626179E+02 -0.90440474421E+01  0.94726548590E+02  0.89758771981E+02 0.  0.
         11    1    3    3    0    0  0.89414740891E+01  0.32482837831E+02 -0.93489599058E+01  0.34964092495E+02  0.51100000000E-03 0. -1.
         22    1    1    0    0    0  0.22141078163E+02  0.18559626179E+02  0.90440474421E+01  0.30273451410E+02  0.00000000000E+00 0.  1.
</event>
<event>
 5    1  0.8900327E-005  0.9118800E+02  0.7818608E-02  0.1130116E+00
         25   -1    0    0    0    0  0.00000000000E+00  0.00000000000E+00  0.99999998245E-14  0.12500000000E+03  0.12500000000E+03 0.  0.
        -11    1    3    3    0    0  0.26668346828E+01 -0.32592156859E+02  0.39495381151E+02  0.51276172132E+02  0.51100000000E-03 0. -1.
         23    2    1    0    0    0 -0.10759154726E+02  0.67857008732E+01  0.27698780137E+02  0.94520046460E+02  0.89470730493E+02 0.  0.
         11    1    3    3    0    0 -0.13425989409E+02  0.39377857732E+02 -0.11796601014E+02  0.43243874328E+02  0.51100000000E-03 0.  1.
         22    1    1    0    0    0  0.10759154726E+02 -0.67857008732E+01 -0.27698780137E+02  0.30479953540E+02  0.00000000000E+00 0.  1.
</event>
<event>
 5    1  0.8900327E-005  0.9118800E+02  0.7818608E-02  0.1130116E+00
         25   -1    0    0    0    0  0.00000000000E+00  0.00000000000E+00  0.99999998245E-14  0.12500000000E+03  0.12500000000E+03 0.  0.
        -11    1    3    3    0    0 -0.21667935139E+02 -0.12779568787E+02  0.20622929506E+02  0.32528787454E+02  0.51100000000E-03 0.  1.
         23    2    1    0    0    0  0.18487961739E+02 -0.99068464977E+01 -0.24332038087E+02  0.92875267873E+02  0.87142509536E+02 0.  0.
         11    1    3    3    0    0  0.40155896878E+02  0.28727222897E+01 -0.44954967593E+02  0.60346480419E+02  0.51100000000E-03 0. -1.
         22    1    1    0    0    0 -0.18487961739E+02  0.99068464977E+01  0.24332038087E+02  0.32124732127E+02  0.00000000000E+00 0. -1.
</event>
<event>
 5    1  0.8900327E-005  0.9118800E+02  0.7818608E-02  0.1130116E+00
         25   -1    0    0    0    0  0.00000000000E+00  0.00000000000E+00  0.99999998245E-14  0.12500000000E+03  0.12500000000E+03 0.  0.
        -11    1    3    3    0    0  0.11011990566E+02  0.36730184836E+02  0.23226587403E+02  0.44831292386E+02  0.51100000000E-03 0.  1.
         23    2    1    0    0    0 -0.25238074815E+02  0.13882619483E+02 -0.44675181200E+01  0.95851307710E+02  0.91311702029E+02 0.  0.
         11    1    3    3    0    0 -0.36250065381E+02 -0.22847565353E+02 -0.27694105523E+02  0.51020015324E+02  0.51100000000E-03 0. -1.
         22    1    1    0    0    0  0.25238074815E+02 -0.13882619483E+02  0.44675181200E+01  0.29148692290E+02  0.00000000000E+00 0. -1.
</event>
<event>
 5    1  0.8900327E-005  0.9118800E+02  0.7818608E-02  0.1130116E+00
         25   -1    0    0    0    0  0.00000000000E+00  0.00000000000E+00  0.99999998245E-14  0.12500000000E+03  0.12500000000E+03 0.  0.
        -11    1    3    3    0    0  0.72995871142E+01 -0.14914555444E+02 -0.33022321677E+02  0.36962165323E+02  0.51100000000E-03 0.  1.
         23    2    1    0    0    0  0.10799017219E+02  0.29305340177E+02  0.23255406675E+01  0.93681796425E+02  0.88291840542E+02 0.  0.
         11    1    3    3    0    0  0.34994301049E+01  0.44219895621E+02  0.35347862345E+02  0.56719631102E+02  0.51100000000E-03 0. -1.
         22    1    1    0    0    0 -0.10799017219E+02 -0.29305340177E+02 -0.23255406675E+01  0.31318203575E+02  0.00000000000E+00 0. -1.
</event>
<event>
 5    1  0.8900327E-005  0.9118800E+02  0.7818608E-02  0.1130116E+00
         25   -1    0    0    0    0  0.00000000000E+00  0.00000000000E+00  0.99999998245E-14  0.12500000000E+03  0.12500000000E+03 0.  0.
        -11    1    3    3    0    0  0.12855791501E+02 -0.21196627213E+02 -0.54152868634E+02  0.59557548320E+02  0.51100000000E-03 0. -1.
         23    2    1    0    0    0  0.15343288761E+02 -0.16600284681E+02 -0.17951933533E+02  0.96133793476E+02  0.91697591948E+02 0.  0.
         11    1    3    3    0    0  0.24874972605E+01  0.45963425325E+01  0.36200935101E+02  0.36576245156E+02  0.51100000000E-03 0.  1.
         22    1    1    0    0    0 -0.15343288761E+02  0.16600284681E+02  0.17951933533E+02  0.28866206524E+02  0.00000000000E+00 0. -1.
</event>
<event>
 5    1  0.8900327E-005  0.9118800E+02  0.7818608E-02  0.1130116E+00
         25   -1    0    0    0    0  0.00000000000E+00  0.00000000000E+00  0.99999998245E-14  0.12500000000E+03  0.12500000000E+03 0.  0.
        -11    1    3    3    0    0 -0.22163677635E+02 -0.41028342538E+02 -0.13380387192E+02  0.48513794527E+02  0.51100000000E-03 0. -1.
         23    2    1    0    0    0 -0.61329301207E+00 -0.18374116712E+02  0.22393986085E+02  0.96026306656E+02  0.91550951190E+02 0.  0.
         11    1    3    3    0    0  0.21550384623E+02  0.22654225826E+02  0.35774373276E+02  0.47512512129E+02  0.51100000000E-03 0.  1.
         22    1    1    0    0    0  0.61329301207E+00  0.18374116712E+02 -0.22393986085E+02  0.28973693344E+02  0.00000000000E+00 0. -1.
</event>
<event>
 5    1  0.8900327E-005  0.9118800E+02  0.7818608E-02  0.1130116E+00
         25   -1    0    0    0    0  0.00000000000E+00  0.00000000000E+00  0.99999998245E-14  0.12500000000E+03  0.12500000000E+03 0.  0.
        -11    1    3    3    0    0 -0.16516398712E+02 -0.59724021983E+01  0.56010026996E+02  0.58699098279E+02  0.51100000000E-03 0.  1.
         23    2    1    0    0    0  0.78305783919E+01 -0.27535594540E+01  0.27228253839E+02  0.96534620067E+02  0.92242371049E+02 0.  0.
         11    1    3    3    0    0  0.24346977104E+02  0.32188427443E+01 -0.28781773157E+02  0.37835521789E+02  0.51100000000E-03 0. -1.
         22    1    1    0    0    0 -0.78305783919E+01  0.27535594540E+01 -0.27228253839E+02  0.28465379933E+02  0.00000000000E+00 0. -1.
</event>
<event>
 5    1  0.8900327E-005  0.9118800E+02  0.7818608E-02  0.1130116E+00
         25   -1    0    0    0    0  0.00000000000E+00  0.00000000000E+00  0.99999998245E-14  0.12500000000E+03  0.12500000000E+03 0.  0.
        -11    1    3    3    0    0 -0.15021901416E+01  0.14242068389E+02 -0.31895862106E+02  0.34963396673E+02  0.51100000000E-03 0. -1.
         23    2    1    0    0    0  0.28598268623E+01 -0.29239237407E+02  0.84399432214E+01  0.94432954749E+02  0.89348971383E+02 0.  0.
         11    1    3    3    0    0  0.43620170038E+01 -0.43481305796E+02  0.40335805327E+02  0.59469558075E+02  0.51100000000E-03 0.  1.
         22    1    1    0    0    0 -0.28598268623E+01  0.29239237407E+02 -0.84399432214E+01  0.30567045251E+02  0.00000000000E+00 0.  1.
</event>
<event>
 5    1  0.8900327E-005  0.9118800E+02  0.7818608E-02  0.1130116E+00
         25   -1    0    0    0    0  0.00000000000E+00  0.00000000000E+00  0.99999998245E-14  0.12500000000E+03  0.12500000000E+03 0.  0.
        -11    1    3    3    0    0  0.17680556942E+02  0.31493531036E+02  0.16439163728E+01  0.36154488687E+02  0.51100000000E-03 0.  1.
         23    2    1    0    0    0  0.75815942586E+01 -0.26450582902E+02  0.10328272686E+02  0.95609744403E+02  0.90980416029E+02 0.  0.
         11    1    3    3    0    0 -0.10098962684E+02 -0.57944113939E+02  0.86843563133E+01  0.59455255716E+02  0.51100000000E-03 0. -1.
         22    1    1    0    0    0 -0.75815942586E+01  0.26450582902E+02 -0.10328272686E+02  0.29390255597E+02  0.00000000000E+00 0. -1.
</event>
<event>
 5    1  0.8900327E-005  0.9118800E+02  0.7818608E-02  0.1130116E+00
         25   -1    0    0    0    0  0.00000000000E+00  0.00000000000E+00  0.99999998245E-14  0.12500000000E+03  0.12500000000E+03 0.  0.
        -11    1    3    3    0    0 -0.89883085030E+01 -0.43353006739E+02  0.57784843160E+01  0.44650462084E+02  0.51100000000E-03 0. -1.
         23    2    1    0    0    0 -0.17100770945E+02 -0.37634130654E+01 -0.24314819452E+02  0.95036520732E+02  0.90189412811E+02 0.  0.
         11    1    3    3    0    0 -0.81124624423E+01  0.39589593674E+02 -0.30093303768E+02  0.50386058648E+02  0.51100000000E-03 0.  1.
         22    1    1    0    0    0  0.17100770945E+02  0.37634130654E+01  0.24314819452E+02  0.29963479268E+02  0.00000000000E+00 0.  1.
</event>
<event>
 5    1  0.8900327E-005  0.9118800E+02  0.7818608E-02  0.1130116E+00
         25   -1    0    0    0    0  0.00000000000E+00  0.00000000000E+00  0.99999998245E-14  0.12500000000E+03  0.12500000000E+03 0.  0.
        -11    1    3    3    0    0 -0.95872712601E+01 -0.19839688164E+02  0.41218248433E+02  0.46738346150E+02  0.51100000000E-03 0. -1.
         23    2    1    0    0    0  0.57926687549E+01 -0.37549128162E+02  0.10135693264E+02  0.85677941115E+02  0.76121516529E+02 0.  0.
         11    1    3    3    0    0  0.15379940015E+02 -0.17709439998E+02 -0.31082555169E+02  0.38939594965E+02  0.51100000000E-03 0.  1.
         22    1    1    0    0    0 -0.57926687549E+01  0.37549128162E+02 -0.10135693264E+02  0.39322058885E+02  0.00000000000E+00 0. -1.
</event>
<event>
 5    1  0.8900327E-005  0.9118800E+02  0.7818608E-02  0.1130116E+00
         25   -1    0    0    0    0  0.00000000000E+00  0.00000000000E+00  0.99999998245E-14  0.12500000000E+03  0.12500000000E+03 0.  0.
        -11    1    3    3    0    0 -0.17571658653E+02  0.50743049137E+02 -0.14713502787E+02  0.55678607994E+02  0.51100000000E-03 0.  1.
         23    2    1    0    0    0 -0.14352113336E+02  0.14915857232E+02 -0.24469511838E+02  0.92949680754E+02  0.87249184458E+02 0.  0.
         11    1    3    3    0    0  0.32195453175E+01 -0.35827191905E+02 -0.97560090508E+01  0.37271072761E+02  0.51100000000E-03 0. -1.
         22    1    1    0    0    0  0.14352113336E+02 -0.14915857232E+02  0.24469511838E+02  0.32050319246E+02  0.00000000000E+00 0.  1.
</event>
<event>
 5    1  0.8900327E-005  0.9118800E+02  0.7818608E-02  0.1130116E+00
         25   -1    0    0    0    0  0.00000000000E+00  0.00000000000E+00  0.99999998245E-14  0.12500000000E+03  0.12500000000E+03 0.  0.
        -11    1    3    3    0    0 -0.20668368267E+02 -0.17939910204E+02  0.27012651176E+02  0.38453935413E+02  0.51100000000E-03 0.  1.
         23    2    1    0    0    0 -0.96341905497E+01  0.21288337226E+02 -0.15197999513E+02  0.97125457518E+02  0.93039585014E+02 0.  0.
         11    1    3    3    0    0  0.11034177717E+02  0.39228247430E+02 -0.42210650689E+02  0.58671522105E+02  0.51100000000E-03 0. -1.
         22    1    1    0    0    0  0.96341905497E+01 -0.21288337226E+02  0.15197999513E+02  0.27874542482E+02  0.00000000000E+00 0. -1.
</event>
<event>
 5    1  0.8900327E-005  0.9118800E+02  0.7818608E-02  0.1130116E+00
         25   -1    0    0    0    0  0.00000000000E+00  0.00000000000E+00  0.99999998245E-14  0.12500000000E+03  0.12500000000E+03 0.  0.
        -11    1    3    3    0    0  0.18455440098E+02 -0.27647900886E+02 -0.48542406231E+02  0.58833450482E+02  0.51100000000E-03 0.  1.
         23    2    1    0    0    0 -0.77895358264E+00 -0.23969151019E+02 -0.18425880024E+02  0.94756983882E+02  0.89801146822E+02 0.  0.
         11    1    3    3    0    0 -0.19234393681E+02  0.36787498671E+01  0.30116526208E+02  0.35923533400E+02  0.51100000000E-03 0. -1.
         22    1    1    0    0    0  0.77895358264E+00  0.23969151019E+02  0.18425880024E+02  0.30243016118E+02  0.00000000000E+00 0.  1.
</event>
<event>
 5    1  0.8900327E-005  0.9118800E+02  0.7818608E-02  0.1130116E+00
         25   -1    0    0    0    0  0.00000000000E+00  0.00000000000E+00  0.99999998245E-14  0.12500000000E+03  0.12500000000E+03 0.  0.
        -11    1    3    3    0    0 -0.33610257175E+02 -0.35685291985E+02 -0.67173384408E+01  0.49479410742E+02  0.51100000000E-03 0. -1.
         23    2    1    0    0    0 -0.20784247708E+02 -0.59411384786E+00  0.20575256029E+02  0.95748007166E+02  0.91170180386E+02 0.  0.
         11    1    3    3    0    0  0.12826009467E+02  0.35091178137E+02  0.27292594470E+02  0.46268596424E+02  0.51100000000E-03 0.  1.
         22    1    1    0    0    0  0.20784247708E+02  0.59411384786E+00 -0.20575256029E+02  0.29251992834E+02  0.00000000000E+00 0.  1.
</event>
<event>
 5    1  0.8900327E-005  0.9118800E+02  0.7818608E-02  0.1130116E+00
         25   -1    0    0    0    0  0.00000000000E+00  0.00000000000E+00  0.99999998245E-14  0.12500000000E+03  0.12500000000E+03 0.  0.
        -11    1    3    3    0    0  0.58182174921E+02  0.52402533820E+01  0.24134466620E+01  0.58467516273E+02  0.51100000000E-03 0. -1.
         23    2    1    0    0    0  0.23827583875E+02  0.35678325320E+01  0.16671741708E+02  0.95701021283E+02  0.91105737035E+02 0.  0.
         11    1    3    3    0    0 -0.34354591046E+02 -0.16724208500E+01  0.14258295046E+02  0.37233505010E+02  0.51100000000E-03 0.  1.
         22    1    1    0    0    0 -0.23827583875E+02 -0.35678325320E+01 -0.16671741708E+02  0.29298978717E+02  0.00000000000E+00 0. -1.
</event>
<event>
 5    1  0.8900327E-005  0.9118800E+02  0.7818608E-02  0.1130116E+00
         25   -1    0    0    0    0  0.00000000000E+00  0.00000000000E+00  0.99999998245E-14  0.12500000000E+03  0.12500000000E+03 0.  0.
        -11    1    3    3    0    0  0.45827165885E+01  0.16900588383E+02 -0.23316109650E+02  0.29159426409E+02  0.51100000000E-03 0.  1.
         23    2    1    0    0    0  0.13512421849E+02 -0.21500306420E+02  0.23524877416E+02  0.90383983796E+02  0.83492490375E+02 0.  0.
         11    1    3    3    0    0  0.89297052604E+01 -0.38400894802E+02  0.46840987067E+02  0.61224557387E+02  0.51100000000E-03 0. -1.
         22    1    1    0    0    0 -0.13512421849E+02  0.21500306420E+02 -0.23524877416E+02  0.34616016204E+02  0.00000000000E+00 0. -1.
</event>
<event>
 5    1  0.8900327E-005  0.9118800E+02  0.7818608E-02  0.1130116E+00
         25   -1    0    0    0    0  0.00000000000E+00  0.00000000000E+00  0.99999998245E-14  0.12500000000E+03  0.12500000000E+03 0.  0.
        -11    1    3    3    0    0  0.27560765508E+02 -0.32772610955E+02  0.95323543532E+01  0.43869187409E+02  0.51100000000E-03 0.  1.
         23    2    1    0    0    0  0.11406755412E+02 -0.73304002332E+00 -0.27369307815E+02  0.95339750052E+02  0.90608705503E+02 0.  0.
         11    1    3    3    0    0 -0.16154010096E+02  0.32039570931E+02 -0.36901662169E+02  0.51470562642E+02  0.51100000000E-03 0. -1.
         22    1    1    0    0    0 -0.11406755412E+02  0.73304002332E+00  0.27369307815E+02  0.29660249948E+02  0.00000000000E+00 0.  1.
</event>
<event>
 5    1  0.8900327E-005  0.9118800E+02  0.7818608E-02  0.1130116E+00
         25   -1    0    0    0    0  0.00000000000E+00  0.00000000000E+00  0.99999998245E-14  0.12500000000E+03  0.12500000000E+03 0.  0.
        -11    1    3    3    0    0 -0.54552381944E+02 -0.29262340367E+02 -0.47760668690E+01  0.62089111401E+02  0.51100000000E-03 0. -1.
         23    2    1    0    0    0 -0.23423931501E+02 -0.18215387749E+02 -0.31629285934E+01  0.95159004120E+02  0.90359011892E+02 0.  0.
         11    1    3    3    0    0  0.31128450443E+02  0.11046952618E+02  0.16131382756E+01  0.33069892720E+02  0.51100000000E-03 0.  1.
         22    1    1    0    0    0  0.23423931501E+02  0.18215387749E+02  0.31629285934E+01  0.29840995880E+02  0.00000000000E+00 0. -1.
</event>
<event>
 5    1  0.8900327E-005  0.9118800E+02  0.7818608E-02  0.1130116E+00
         25   -1    0    0    0    0  0.00000000000E+00  0.00000000000E+00  0.99999998245E-14  0.12500000000E+03  0.12500000000E+03 0.  0.
        -11    1    3    3    0    0  0.36352890480E+02  0.10037060044E+02 -0.13746831276E+02  0.40140386034E+02  0.51100000000E-03 0.  1.
         23    2    1    0    0    0 -0.19287343869E+01 -0.28977719038E+02 -0.35604749100E+01  0.95740724572E+02  0.91160194949E+02 0.  0.
         11    1    3    3    0    0 -0.38281624867E+02 -0.39014779082E+02  0.10186356366E+02  0.55600338538E+02  0.51100000000E-03 0. -1.
         22    1    1    0    0    0  0.19287343869E+01  0.28977719038E+02  0.35604749100E+01  0.29259275428E+02  0.00000000000E+00 0. -1.
</event>
<event>
 5    1  0.8900327E-005  0.9118800E+02  0.7818608E-02  0.1130116E+00
         25   -1    0    0    0    0  0.00000000000E+00  0.00000000000E+00  0.99999998245E-14  0.12500000000E+03  0.12500000000E+03 0.  0.
        -11    1    3    3    0    0  0.11261614598E+02 -0.56161274490E+02  0.11589477355E+02  0.58439958088E+02  0.51100000000E-03 0.  1.
         23    2    1    0    0    0  0.40396881262E+01 -0.27176092363E+02 -0.10495477224E+02  0.95588877640E+02  0.90951742205E+02 0.  0.
         11    1    3    3    0    0 -0.72219264717E+01  0.28985182127E+02 -0.22084954579E+02  0.37148919552E+02  0.51100000000E-03 0. -1.
         22    1    1    0    0    0 -0.40396881262E+01  0.27176092363E+02  0.10495477224E+02  0.29411122360E+02  0.00000000000E+00 0.  1.
</event>
<event>
 5    1  0.8900327E-005  0.9118800E+02  0.7818608E-02  0.1130116E+00
         25   -1    0    0    0    0  0.00000000000E+00  0.00000000000E+00  0.99999998245E-14  0.12500000000E+03  0.12500000000E+03 0.  0.
        -11    1    3    3    0    0 -0.65664268136E+01 -0.33863990235E+02 -0.10754854221E+02  0.36132460272E+02  0.51100000000E-03 0. -1.
         23    2    1    0    0    0  0.68628407127E+01  0.96569560316E+01  0.27143536161E+02  0.95383671096E+02  0.90669276902E+02 0.  0.
         11    1    3    3    0    0  0.13429267526E+02  0.43520946267E+02  0.37898390382E+02  0.59251210824E+02  0.51100000000E-03 0.  1.
         22    1    1    0    0    0 -0.68628407127E+01 -0.96569560316E+01 -0.27143536161E+02  0.29616328904E+02  0.00000000000E+00 0.  1.
</event>
<event>
 5    1  0.8900327E-005  0.9118800E+02  0.7818608E-02  0.1130116E+00
         25   -1    0    0    0    0  0.00000000000E+00  0.00000000000E+00  0.99999998245E-14  0.12500000000E+03  0.12500000000E+03 0.  0.
        -11    1    3    3    0    0  0.18789399011E+01 -0.23538953211E+02 -0.28746264543E+02  0.37201619035E+02  0.51100000000E-03 0.  1.
         23    2    1    0    0    0 -0.24821932718E+02 -0.55798195509E+00  0.16977110455E+02  0.94922400908E+02  0.90031106996E+02 0.  0.
         11    1    3    3    0    0 -0.26700872619E+02  0.22980971256E+02  0.45723374998E+02  0.57720781873E+02  0.51100000000E-03 0. -1.
         22    1    1    0    0    0  0.24821932718E+02  0.55798195509E+00 -0.16977110455E+02  0.30077599092E+02  0.00000000000E+00 0. -1.
</event>
<event>
 5    1  0.8900327E-005  0.9118800E+02  0.7818608E-02  0.1130116E+00
         25   -1    0    0    0    0  0.00000000000E+00  0.00000000000E+00  0.99999998245E-14  0.12500000000E+03  0.12500000000E+03 0.  0.
        -11    1    3    3    0    0  0.59425446004E+02  0.11526616623E+01  0.10771909233E+02  0.60404853203E+02  0.51100000000E-03 0. -1.
         23    2    1    0    0    0  0.24667444386E+02  0.67761402117E+01  0.14132018119E+02  0.95774791278E+02  0.91206895680E+02 0.  0.
         11    1    3    3    0    0 -0.34758001618E+02  0.56234785494E+01  0.33601088860E+01  0.35369938075E+02  0.51100000000E-03 0.  1.
         22    1    1    0    0    0 -0.24667444386E+02 -0.67761402117E+01 -0.14132018119E+02  0.29225208722E+02  0.00000000000E+00 0. -1.
</event>
<event>
 5    1  0.8900327E-005  0.9118800E+02  0.7818608E-02  0.1130116E+00
         25   -1    0    0    0    0  0.00000000000E+00  0.00000000000E+00  0.99999998245E-14  0.12500000000E+03  0.12500000000E+03 0.  0.
        -11    1    3    3    0    0  0.24897787680E+02  0.12007979027E+02  0.50998383613E+02  0.58007986718E+02  0.51100000000E-03 0.  1.
         23    2    1    0    0    0 -0.38328198421E+00 -0.53917779741E+01  0.28321731600E+02  0.96167056070E+02  0.91742923529E+02 0.  0.
         11    1    3    3    0    0 -0.25281069664E+02 -0.17399757001E+02 -0.22676652012E+02  0.38159069352E+02  0.51100000000E-03 0. -1.
         22    1    1    0    0    0  0.38328198421E+00  0.53917779741E+01 -0.28321731600E+02  0.28832943930E+02  0.00000000000E+00 0.  1.
</event>
<event>
 5    1  0.8900327E-005  0.9118800E+02  0.7818608E-02  0.1130116E+00
         25   -1    0    0    0    0  0.00000000000E+00  0.00000000000E+00  0.99999998245E-14  0.12500000000E+03  0.12500000000E+03 0.  0.
        -11    1    3    3    0    0  0.34097867245E+01  0.35833953397E+02 -0.15201518276E+02  0.39074096531E+02  0.51100000000E-03 0. -1.
         23    2    1    0    0    0 -0.22928331449E+02 -0.10536667852E+02  0.97463979838E+01  0.97949639076E+02  0.94140372683E+02 0.  0.
         11    1    3    3    0    0 -0.26338118174E+02 -0.46370621249E+02  0.24947916260E+02  0.58875542545E+02  0.51100000000E-03 0.  1.
         22    1    1    0    0    0  0.22928331449E+02  0.10536667852E+02 -0.97463979838E+01  0.27050360924E+02  0.00000000000E+00 0.  1.
</event>
<event>
 5    1  0.8900327E-005  0.9118800E+02  0.7818608E-02  0.1130116E+00
         25   -1    0    0    0    0  0.00000000000E+00  0.00000000000E+00  0.99999998245E-14  0.12500000000E+03  0.12500000000E+03 0.  0.
        -11    1    3    3    0    0 -0.33753990890E+02  0.12062084267E+02 -0.80509228778E+00  0.35853506826E+02  0.51100000000E-03 0. -1.
         23    2    1    0    0    0  0.26457154029E+02  0.11704767866E+02 -0.26791847609E+00  0.96068108074E+02  0.91608007393E+02 0.  0.
         11    1    3    3    0    0  0.60211144919E+02 -0.35731640096E+00  0.53717381168E+00  0.60214601248E+02  0.51100000000E-03 0.  1.
         22    1    1    0    0    0 -0.26457154029E+02 -0.11704767866E+02  0.26791847609E+00  0.28931891926E+02  0.00000000000E+00 0.  1.
</event>
<event>
 5    1  0.8900327E-005  0.9118800E+02  0.7818608E-02  0.1130116E+00
         25   -1    0    0    0    0  0.00000000000E+00  0.00000000000E+00  0.99999998245E-14  0.12500000000E+03  0.12500000000E+03 0.  0.
        -11    1    3    3    0    0 -0.66211024020E+01  0.22833579360E+02 -0.31144511713E+02  0.39181525665E+02  0.51100000000E-03 0.  1.
         23    2    1    0    0    0  0.22104255798E+01  0.14412714692E+02  0.24685578573E+02  0.96329630007E+02  0.91964164226E+02 0.  0.
         11    1    3    3    0    0  0.88315279818E+01 -0.84208646678E+01  0.55830090286E+02  0.57148104342E+02  0.51100000000E-03 0. -1.
         22    1    1    0    0    0 -0.22104255798E+01 -0.14412714692E+02 -0.24685578573E+02  0.28670369993E+02  0.00000000000E+00 0. -1.
</event>
<event>
 5    1  0.8900327E-005  0.9118800E+02  0.7818608E-02  0.1130116E+00
         25   -1    0    0    0    0  0.00000000000E+00  0.00000000000E+00  0.99999998245E-14  0.12500000000E+03  0.12500000000E+03 0.  0.
        -11    1    3    3    0    0  0.18395618055E+02 -0.29928112170E+02 -0.45959055606E+01  0.35428985448E+02  0.51100000000E-03 0. -1.
         23    2    1    0    0    0 -0.31349166746E+02 -0.23718945025E+02 -0.13173043968E+01  0.85666885457E+02  0.76103359743E+02 0.  0.
         11    1    3    3    0    0 -0.49744784801E+02  0.62091671443E+01  0.32786011638E+01  0.50237900009E+02  0.51100000000E-03 0.  1.
         22    1    1    0    0    0  0.31349166746E+02  0.23718945025E+02  0.13173043968E+01  0.39333114543E+02  0.00000000000E+00 0. -1.
</event>
<event>
 5    1  0.8900327E-005  0.9118800E+02  0.7818608E-02  0.1130116E+00
         25   -1    0    0    0    0  0.00000000000E+00  0.00000000000E+00  0.99999998245E-14  0.12500000000E+03  0.12500000000E+03 0.  0.
        -11    1    3    3    0    0 -0.12186806596E+02 -0.32750874341E+02  0.49749644449E+00  0.34948326542E+02  0.51100000000E-03 0. -1.
         23    2    1    0    0    0 -0.42609880161E+01  0.21429396584E+02 -0.21859452303E+02  0.94093516670E+02  0.88872825810E+02 0.  0.
         11    1    3    3    0    0  0.79258185803E+01  0.54180270926E+02 -0.22356948747E+02  0.59145190128E+02  0.51100000000E-03 0.  1.
         22    1    1    0    0    0  0.42609880161E+01 -0.21429396584E+02  0.21859452303E+02  0.30906483330E+02  0.00000000000E+00 0.  1.
</event>
<event>
 5    1  0.8900327E-005  0.9118800E+02  0.7818608E-02  0.1130116E+00
         25   -1    0    0    0    0  0.00000000000E+00  0.00000000000E+00  0.99999998245E-14  0.12500000000E+03  0.12500000000E+03 0.  0.
        -11    1    3    3    0    0  0.17741340090E+02 -0.11349417690E+02  0.55995205591E+02  0.59824973711E+02  0.51100000000E-03 0. -1.
         23    2    1    0    0    0  0.20227541919E+02 -0.29394636934E+01  0.21843959751E+02  0.95084243675E+02  0.90255531236E+02 0.  0.
         11    1    3    3    0    0  0.24862018290E+01  0.84099539969E+01 -0.34151245839E+02  0.35259269964E+02  0.51100000000E-03 0.  1.
         22    1    1    0    0    0 -0.20227541919E+02  0.29394636934E+01 -0.21843959751E+02  0.29915756325E+02  0.00000000000E+00 0. -1.
</event>
<event>
 5    1  0.8900327E-005  0.9118800E+02  0.7818608E-02  0.1130116E+00
         25   -1    0    0    0    0  0.00000000000E+00  0.00000000000E+00  0.99999998245E-14  0.12500000000E+03  0.12500000000E+03 0.  0.
        -11    1    3    3    0    0  0.16339108201E+02 -0.19765958612E+02 -0.47534747953E+02  0.54011219574E+02  0.51100000000E-03 0.  1.
         23    2    1    0    0    0  0.27280572043E+02 -0.47518849322E+01 -0.10610953454E+02  0.95345281073E+02  0.90616335549E+02 0.  0.
         11    1    3    3    0    0  0.10941463843E+02  0.15014073680E+02  0.36923794500E+02  0.41334061499E+02  0.51100000000E-03 0. -1.
         22    1    1    0    0    0 -0.27280572043E+02  0.47518849322E+01  0.10610953454E+02  0.29654718927E+02  0.00000000000E+00 0.  1.
</event>
<event>
 5    1  0.8900327E-005  0.9118800E+02  0.7818608E-02  0.1130116E+00
         25   -1    0    0    0    0  0.00000000000E+00  0.00000000000E+00  0.99999998245E-14  0.12500000000E+03  0.12500000000E+03 0.  0.
        -11    1    3    3    0    0  0.14324557173E+02  0.11362856058E+02 -0.40881407790E+02  0.44783891514E+02  0.51100000000E-03 0.  1.
         23    2    1    0    0    0  0.16037551892E+02  0.25725167136E+02  0.62178734068E+01  0.94054091635E+02  0.88817357024E+02 0.  0.
         11    1    3    3    0    0  0.17129947191E+01  0.14362311078E+02  0.47099281197E+02  0.49270200120E+02  0.51100000000E-03 0. -1.
         22    1    1    0    0    0 -0.16037551892E+02 -0.25725167136E+02 -0.62178734068E+01  0.30945908365E+02  0.00000000000E+00 0. -1.
</event>
<event>
 5    1  0.8900327E-005  0.9118800E+02  0.7818608E-02  0.1130116E+00
         25   -1    0    0    0    0  0.00000000000E+00  0.00000000000E+00  0.99999998245E-14  0.12500000000E+03  0.12500000000E+03 0.  0.
        -11    1    3    3    0    0 -0.20602476534E+02 -0.14356060578E+01 -0.26926935908E+02  0.33934980208E+02  0.51100000000E-03 0.  1.
         23    2    1    0    0    0  0.24227895430E+02 -0.11715497648E+02  0.13247813409E+02  0.95004194256E+02  0.90144598086E+02 0.  0.
         11    1    3    3    0    0  0.44830371964E+02 -0.10279891590E+02  0.40174749317E+02  0.61069214048E+02  0.51100000000E-03 0. -1.
         22    1    1    0    0    0 -0.24227895430E+02  0.11715497648E+02 -0.13247813409E+02  0.29995805744E+02  0.00000000000E+00 0. -1.
</event>
<event>
 5    1  0.8900327E-005  0.9118800E+02  0.7818608E-02  0.1130116E+00
         25   -1    0    0    0    0  0.00000000000E+00  0.00000000000E+00  0.99999998245E-14  0.12500000000E+03  0.12500000000E+03 0.  0.
        -11    1    3    3    0    0  0.30414791009E+02 -0.37893174617E+02 -0.38748446941E+02  0.62148164376E+02  0.51100000000E-03 0. -1.
         23    2    1    0    0    0  0.19910528372E+02 -0.18753361837E+02 -0.18077273129E+02  0.92214248155E+02  0.86189106265E+02 0.  0.
         11    1    3    3    0    0 -0.10504262637E+02  0.19139812780E+02  0.20671173811E+02  0.30066083779E+02  0.51100000000E-03 0.  1.
         22    1    1    0    0    0 -0.19910528372E+02  0.18753361837E+02  0.18077273129E+02  0.32785751845E+02  0.00000000000E+00 0. -1.
</event>
<event>
 5    1  0.8900327E-005  0.9118800E+02  0.7818608E-02  0.1130116E+00
         25   -1    0    0    0    0  0.00000000000E+00  0.00000000000E+00  0.99999998245E-14  0.12500000000E+03  0.12500000000E+03 0.  0.
        -11    1    3    3    0    0  0.30366745019E+02  0.12068093607E+02  0.19220303278E+02  0.37910396261E+02  0.51100000000E-03 0.  1.
         23    2    1    0    0    0 -0.18610861567E+02  0.19871881213E+02 -0.10603117926E+02  0.95782163993E+02  0.91216999502E+02 0.  0.
         11    1    3    3    0    0 -0.48977606585E+02  0.78037876060E+01 -0.29823421204E+02  0.57871767732E+02  0.51100000000E-03 0. -1.
         22    1    1    0    0    0  0.18610861567E+02 -0.19871881213E+02  0.10603117926E+02  0.29217836007E+02  0.00000000000E+00 0. -1.
</event>
<event>
 5    1  0.8900327E-005  0.9118800E+02  0.7818608E-02  0.1130116E+00
         25   -1    0    0    0    0  0.00000000000E+00  0.00000000000E+00  0.99999998245E-14  0.12500000000E+03  0.12500000000E+03 0.  0.
        -11    1    3    3    0    0 -0.19754813766E+02 -0.30170367325E+02  0.65946346462E+01  0.36660509241E+02  0.51100000000E-03 0. -1.
         23    2    1    0    0    0 -0.12875719269E+02  0.26757209794E+02 -0.42032103341E+01  0.95010011674E+02  0.90152664512E+02 0.  0.
         11    1    3    3    0    0  0.68790944970E+01  0.56927577119E+02 -0.10797844980E+02  0.58349502433E+02  0.51100000000E-03 0.  1.
         22    1    1    0    0    0  0.12875719269E+02 -0.26757209794E+02  0.42032103341E+01  0.29989988326E+02  0.00000000000E+00 0.  1.
</event>
<event>
 5    1  0.8900327E-005  0.9118800E+02  0.7818608E-02  0.1130116E+00
         25   -1    0    0    0    0  0.00000000000E+00  0.00000000000E+00  0.99999998245E-14  0.12500000000E+03  0.12500000000E+03 0.  0.
        -11    1    3    3    0    0 -0.10237959517E+02  0.38040503425E+02 -0.56718577132E+01  0.39800322688E+02  0.51100000000E-03 0.  1.
         23    2    1    0    0    0  0.21462226153E+02 -0.74518418525E+01 -0.17287300273E+02  0.96451657681E+02  0.92129878000E+02 0.  0.
         11    1    3    3    0    0  0.31700185669E+02 -0.45492345278E+02 -0.11615442560E+02  0.56651334993E+02  0.51100000000E-03 0. -1.
         22    1    1    0    0    0 -0.21462226153E+02  0.74518418525E+01  0.17287300273E+02  0.28548342319E+02  0.00000000000E+00 0. -1.
</event>
<event>
 5    1  0.8900327E-005  0.9118800E+02  0.7818608E-02  0.1130116E+00
         25   -1    0    0    0    0  0.00000000000E+00  0.00000000000E+00  0.99999998245E-14  0.12500000000E+03  0.12500000000E+03 0.  0.
        -11    1    3    3    0    0 -0.16516644448E+02 -0.25516492404E+02  0.20151384656E+02  0.36468743222E+02  0.51100000000E-03 0.  1.
         23    2    1    0    0    0 -0.72186297763E+00  0.29212050846E+02  0.58412498258E+01  0.95200919472E+02  0.90416977764E+02 0.  0.
         11    1    3    3    0    0  0.15794781470E+02  0.54728543250E+02 -0.14310134830E+02  0.58732176250E+02  0.51100000000E-03 0. -1.
         22    1    1    0    0    0  0.72186297763E+00 -0.29212050846E+02 -0.58412498258E+01  0.29799080528E+02  0.00000000000E+00 0. -1.
</event>
<event>
 5    1  0.8900327E-005  0.9118800E+02  0.7818608E-02  0.1130116E+00
         25   -1    0    0    0    0  0.00000000000E+00  0.00000000000E+00  0.99999998245E-14  0.12500000000E+03  0.12500000000E+03 0.  0.
        -11    1    3    3    0    0  0.38052517729E+02  0.10991002865E+01  0.14740172777E+02  0.40822479356E+02  0.51100000000E-03 0. -1.
         23    2    1    0    0    0  0.77168921975E+01  0.69283813938E+01 -0.28903589016E+02  0.94292177675E+02  0.89151805471E+02 0.  0.
         11    1    3    3    0    0 -0.30335625532E+02  0.58292811073E+01 -0.43643761793E+02  0.53469698319E+02  0.51100000000E-03 0.  1.
         22    1    1    0    0    0 -0.77168921975E+01 -0.69283813938E+01  0.28903589016E+02  0.30707822325E+02  0.00000000000E+00 0. -1.
</event>
<event>
 5    1  0.8900327E-005  0.9118800E+02  0.7818608E-02  0.1130116E+00
         25   -1    0    0    0    0  0.00000000000E+00  0.00000000000E+00  0.99999998245E-14  0.12500000000E+03  0.12500000000E+03 0.  0.
        -11    1    3    3    0    0 -0.14861745942E+02 -0.35503574150E+02  0.16552339401E+02  0.41896959434E+02  0.51100000000E-03 0.  1.
         23    2    1    0    0    0  0.60699600879E+01  0.12765616948E+02  0.26052297407E+02  0.95360033878E+02  0.90636683906E+02 0.  0.
         11    1    3    3    0    0  0.20931706030E+02  0.48269191098E+02  0.94999580059E+01  0.53463074444E+02  0.51100000000E-03 0. -1.
         22    1    1    0    0    0 -0.60699600879E+01 -0.12765616948E+02 -0.26052297407E+02  0.29639966122E+02  0.00000000000E+00 0. -1.
</event>
<event>
 5    1  0.8900327E-005  0.9118800E+02  0.7818608E-02  0.1130116E+00
         25   -1    0    0    0    0  0.00000000000E+00  0.00000000000E+00  0.99999998245E-14  0.12500000000E+03  0.12500000000E+03 0.  0.
        -11    1    3    3    0    0  0.13594019328E+02 -0.45135301821E+02  0.19881187977E+02  0.51159109331E+02  0.51100000000E-03 0.  1.
         23    2    1    0    0    0  0.23750963521E+02 -0.12614490829E+02 -0.98323228633E+01  0.96365960468E+02  0.92013532249E+02 0.  0.
         11    1    3    3    0    0  0.10156944194E+02  0.32520810992E+02 -0.29713510840E+02  0.45206851136E+02  0.51100000000E-03 0. -1.
         22    1    1    0    0    0 -0.23750963521E+02  0.12614490829E+02  0.98323228633E+01  0.28634039532E+02  0.00000000000E+00 0. -1.
</event>
<event>
 5    1  0.8900327E-005  0.9118800E+02  0.7818608E-02  0.1130116E+00
         25   -1    0    0    0    0  0.00000000000E+00  0.00000000000E+00  0.99999998245E-14  0.12500000000E+03  0.12500000000E+03 0.  0.
        -11    1    3    3    0    0 -0.18840300240E+02 -0.97192783134E+01  0.48738119004E+02  0.53149087747E+02  0.51100000000E-03 0. -1.
         23    2    1    0    0    0 -0.23268482862E+02 -0.17214524320E+02  0.77711864502E+01  0.95030791116E+02  0.90181471373E+02 0.  0.
         11    1    3    3    0    0 -0.44281826226E+01 -0.74952460064E+01 -0.40966932553E+02  0.41881703369E+02  0.51100000000E-03 0.  1.
         22    1    1    0    0    0  0.23268482862E+02  0.17214524320E+02 -0.77711864502E+01  0.29969208884E+02  0.00000000000E+00 0.  1.
</event>
<event>
 5    1  0.8900327E-005  0.9118800E+02  0.7818608E-02  0.1130116E+00
         25   -1    0    0    0    0  0.00000000000E+00  0.00000000000E+00  0.99999998245E-14  0.12500000000E+03  0.12500000000E+03 0.  0.
        -11    1    3    3    0    0 -0.20023981009E+02  0.17173451316E+02 -0.54535459834E+02  0.60580554843E+02  0.51100000000E-03 0.  1.
         23    2    1    0    0    0 -0.31239733358E+01  0.13139558557E+02 -0.38407890892E+02  0.84286693929E+02  0.73801581842E+02 0.  0.
         11    1    3    3    0    0  0.16900007673E+02 -0.40338927588E+01  0.16127568942E+02  0.23706139086E+02  0.51100000000E-03 0. -1.
         22    1    1    0    0    0  0.31239733358E+01 -0.13139558557E+02  0.38407890892E+02  0.40713306071E+02  0.00000000000E+00 0.  1.
</event>
<event>
 5    1  0.8900327E-005  0.9118800E+02  0.7818608E-02  0.1130116E+00
         25   -1    0    0    0    0  0.00000000000E+00  0.00000000000E+00  0.99999998245E-14  0.12500000000E+03  0.12500000000E+03 0.  0.
        -11    1    3    3    0    0  0.42682537668E+02  0.28158115211E+02  0.26554114899E+02  0.57617701207E+02  0.51100000000E-03 0.  1.
         23    2    1    0    0    0  0.23867017301E+02 -0.40535444705E+01  0.14299962942E+02  0.96883195812E+02  0.92713531661E+02 0.  0.
         11    1    3    3    0    0 -0.18815520367E+02 -0.32211659682E+02 -0.12254151957E+02  0.39265494605E+02  0.51100000000E-03 0. -1.
         22    1    1    0    0    0 -0.23867017301E+02  0.40535444705E+01 -0.14299962942E+02  0.28116804188E+02  0.00000000000E+00 0.  1.
</event>
<event>
 5    1  0.8900327E-005  0.9118800E+02  0.7818608E-02  0.1130116E+00
         25   -1    0    0    0    0  0.00000000000E+00  0.00000000000E+00  0.99999998245E-14  0.12500000000E+03  0.12500000000E+03 0.  0.
        -11    1    3    3    0    0  0.11848837745E+02  0.38170654754E+02  0.13039343210E+02  0.42040674493E+02  0.51100000000E-03 0.  1.
         23    2    1    0    0    0 -0.18519484931E+02 -0.11517426036E+00  0.26446217617E+02  0.92713981146E+02  0.86910846771E+02 0.  0.
         11    1    3    3    0    0 -0.30368322676E+02 -0.38285829014E+02  0.13406874407E+02  0.50673306652E+02  0.51100000000E-03 0. -1.
         22    1    1    0    0    0  0.18519484931E+02  0.11517426036E+00 -0.26446217617E+02  0.32286018854E+02  0.00000000000E+00 0. -1.
</event>
<event>
 5    1  0.8900327E-005  0.9118800E+02  0.7818608E-02  0.1130116E+00
         25   -1    0    0    0    0  0.00000000000E+00  0.00000000000E+00  0.99999998245E-14  0.12500000000E+03  0.12500000000E+03 0.  0.
        -11    1    3    3    0    0  0.54458846429E+02  0.10007163744E+02 -0.26399884294E+02  0.61342181015E+02  0.51100000000E-03 0. -1.
         23    2    1    0    0    0  0.23148718122E+02  0.12749596756E+02 -0.13596830765E+02  0.95279818726E+02  0.90525988983E+02 0.  0.
         11    1    3    3    0    0 -0.31310128308E+02  0.27424330127E+01  0.12803053530E+02  0.33937637711E+02  0.51100000000E-03 0.  1.
         22    1    1    0    0    0 -0.23148718122E+02 -0.12749596756E+02  0.13596830765E+02  0.29720181274E+02  0.00000000000E+00 0. -1.
</event>
<event>
 5    1  0.8900327E-005  0.9118800E+02  0.7818608E-02  0.1130116E+00
         25   -1    0    0    0    0  0.00000000000E+00  0.00000000000E+00  0.99999998245E-14  0.12500000000E+03  0.12500000000E+03 0.  0.
        -11    1    3    3    0    0 -0.17901538245E+02 -0.34895721337E+02 -0.47501999075E+01  0.39506212659E+02  0.51100000000E-03 0.  1.
         23    2    1    0    0    0  0.24182658488E+02 -0.17001363657E+01 -0.18102113055E+02  0.94744786692E+02  0.89784167163E+02 0.  0.
         11    1    3    3    0    0  0.42084196733E+02  0.33195584972E+02 -0.13351913148E+02  0.55238574034E+02  0.51100000000E-03 0. -1.
         22    1    1    0    0    0 -0.24182658488E+02  0.17001363657E+01  0.18102113055E+02  0.30255213308E+02  0.00000000000E+00 0. -1.
</event>
<event>
 5    1  0.8900327E-005  0.9118800E+02  0.7818608E-02  0.1130116E+00
         25   -1    0    0    0    0  0.00000000000E+00  0.00000000000E+00  0.99999998245E-14  0.12500000000E+03  0.12500000000E+03 0.  0.
        -11    1    3    3    0    0 -0.15402204587E+02  0.34431387827E+02  0.27890548450E+02  0.46910884312E+02  0.51100000000E-03 0. -1.
         23    2    1    0    0    0  0.19793871133E+02  0.10841406369E+01  0.21401302400E+02  0.95828293849E+02  0.91280192058E+02 0.  0.
         11    1    3    3    0    0  0.35196075720E+02 -0.33347247190E+02 -0.64892460499E+01  0.48917409537E+02  0.51100000000E-03 0.  1.
         22    1    1    0    0    0 -0.19793871133E+02 -0.10841406369E+01 -0.21401302400E+02  0.29171706151E+02  0.00000000000E+00 0.  1.
</event>
<event>
 5    1  0.8900327E-005  0.9118800E+02  0.7818608E-02  0.1130116E+00
         25   -1    0    0    0    0  0.00000000000E+00  0.00000000000E+00  0.99999998245E-14  0.12500000000E+03  0.12500000000E+03 0.  0.
        -11    1    3    3    0    0 -0.26386336215E+02 -0.12205754358E+02  0.32694609812E+02  0.43751076436E+02  0.51100000000E-03 0. -1.
         23    2    1    0    0    0  0.21494686889E+02 -0.15163883488E+02  0.13635424924E+02  0.95370795829E+02  0.90651524848E+02 0.  0.
         11    1    3    3    0    0  0.47881023104E+02 -0.29581291303E+01 -0.19059184888E+02  0.51619719393E+02  0.51100000000E-03 0.  1.
         22    1    1    0    0    0 -0.21494686889E+02  0.15163883488E+02 -0.13635424924E+02  0.29629204171E+02  0.00000000000E+00 0. -1.
</event>
<event>
 5    1  0.8900327E-005  0.9118800E+02  0.7818608E-02  0.1130116E+00
         25   -1    0    0    0    0  0.00000000000E+00  0.00000000000E+00  0.99999998245E-14  0.12500000000E+03  0.12500000000E+03 0.  0.
        -11    1    3    3    0    0 -0.16957358984E+01 -0.57760371146E+01  0.59285494835E+02  0.59590334981E+02  0.51100000000E-03 0. -1.
         23    2    1    0    0    0 -0.14110883671E+02 -0.19976082760E+01  0.25414427819E+02  0.95862384823E+02  0.91326864645E+02 0.  0.
         11    1    3    3    0    0 -0.12415147773E+02  0.37784288387E+01 -0.33871067016E+02  0.36272049843E+02  0.51100000000E-03 0.  1.
         22    1    1    0    0    0  0.14110883671E+02  0.19976082760E+01 -0.25414427819E+02  0.29137615177E+02  0.00000000000E+00 0. -1.
</event>
<event>
 5    1  0.8900327E-005  0.9118800E+02  0.7818608E-02  0.1130116E+00
         25   -1    0    0    0    0  0.00000000000E+00  0.00000000000E+00  0.99999998245E-14  0.12500000000E+03  0.12500000000E+03 0.  0.
        -11    1    3    3    0    0  0.22776512536E+02  0.32168398149E+02 -0.43752500565E+02  0.58888510499E+02  0.51100000000E-03 0.  1.
         23    2    1    0    0    0  0.22644898623E+02  0.64690881400E+01 -0.17233384824E+02  0.95817298146E+02  0.91265133191E+02 0.  0.
         11    1    3    3    0    0 -0.13161391276E+00 -0.25699310009E+02  0.26519115741E+02  0.36928787647E+02  0.51100000000E-03 0. -1.
         22    1    1    0    0    0 -0.22644898623E+02 -0.64690881400E+01  0.17233384824E+02  0.29182701854E+02  0.00000000000E+00 0.  1.
</event>
<event>
 5    1  0.8900327E-005  0.9118800E+02  0.7818608E-02  0.1130116E+00
         25   -1    0    0    0    0  0.00000000000E+00  0.00000000000E+00  0.99999998245E-14  0.12500000000E+03  0.12500000000E+03 0.  0.
        -11    1    3    3    0    0  0.28991350578E+01  0.11017981484E+02 -0.47253343908E+02  0.48607400782E+02  0.51100000000E-03 0. -1.
         23    2    1    0    0    0 -0.17691014609E+02  0.23352527610E+02 -0.79779742476E+01  0.94636195614E+02  0.89632856161E+02 0.  0.
         11    1    3    3    0    0 -0.20590149667E+02  0.12334546126E+02  0.39275369660E+02  0.46028794832E+02  0.51100000000E-03 0.  1.
         22    1    1    0    0    0  0.17691014609E+02 -0.23352527610E+02  0.79779742476E+01  0.30363804386E+02  0.00000000000E+00 0. -1.
</event>
<event>
 5    1  0.8900327E-005  0.9118800E+02  0.7818608E-02  0.1130116E+00
         25   -1    0    0    0    0  0.00000000000E+00  0.00000000000E+00  0.99999998245E-14  0.12500000000E+03  0.12500000000E+03 0.  0.
        -11    1    3    3    0    0  0.20636251430E+02 -0.23490592345E+02  0.17271768106E+02  0.35720817118E+02  0.51100000000E-03 0.  1.
         23    2    1    0    0    0 -0.29008096596E+02 -0.57323201883E+00 -0.63755890140E+01  0.95294000634E+02  0.90545569513E+02 0.  0.
         11    1    3    3    0    0 -0.49644348025E+02  0.22917360327E+02 -0.23647357120E+02  0.59573183516E+02  0.51100000000E-03 0. -1.
         22    1    1    0    0    0  0.29008096596E+02  0.57323201883E+00  0.63755890140E+01  0.29705999366E+02  0.00000000000E+00 0. -1.
</event>
<event>
 5    1  0.8900327E-005  0.9118800E+02  0.7818608E-02  0.1130116E+00
         25   -1    0    0    0    0  0.00000000000E+00  0.00000000000E+00  0.99999998245E-14  0.12500000000E+03  0.12500000000E+03 0.  0.
        -11    1    3    3    0    0 -0.46353917898E+02  0.18670590690E+02  0.13554020045E+02  0.51778259152E+02  0.51100000000E-03 0. -1.
         23    2    1    0    0    0 -0.25565047232E+01  0.15173658214E+02  0.23579037750E+02  0.96844243196E+02  0.92660999341E+02 0.  0.
         11    1    3    3    0    0  0.43797413175E+02 -0.34969324764E+01  0.10025017706E+02  0.45065984043E+02  0.51100000000E-03 0.  1.
         22    1    1    0    0    0  0.25565047232E+01 -0.15173658214E+02 -0.23579037750E+02  0.28155756804E+02  0.00000000000E+00 0. -1.
</event>
<event>
 5    1  0.8900327E-005  0.9118800E+02  0.7818608E-02  0.1130116E+00
         25   -1    0    0    0    0  0.00000000000E+00  0.00000000000E+00  0.99999998245E-14  0.12500000000E+03  0.12500000000E+03 0.  0.
        -11    1    3    3    0    0  0.16731147796E+02  0.54289980481E+02 -0.19056121671E+02  0.59920522867E+02  0.51100000000E-03 0. -1.
         23    2    1    0    0    0  0.14306355674E+02  0.18844757344E+02 -0.17659810138E+02  0.95476016764E+02  0.90796498781E+02 0.  0.
         11    1    3    3    0    0 -0.24247921218E+01 -0.35445223138E+02  0.13963115329E+01  0.35555493897E+02  0.51100000000E-03 0.  1.
         22    1    1    0    0    0 -0.14306355674E+02 -0.18844757344E+02  0.17659810138E+02  0.29523983236E+02  0.00000000000E+00 0. -1.
</event>
<event>
 5    1  0.8900327E-005  0.9118800E+02  0.7818608E-02  0.1130116E+00
         25   -1    0    0    0    0  0.00000000000E+00  0.00000000000E+00  0.99999998245E-14  0.12500000000E+03  0.12500000000E+03 0.  0.
        -11    1    3    3    0    0 -0.48743410038E+02  0.96119696060E+00  0.16968279813E+01  0.48782406124E+02  0.51100000000E-03 0.  1.
         23    2    1    0    0    0 -0.10448949160E+02  0.24051691499E+02 -0.12838228163E+02  0.95802662709E+02  0.91245085771E+02 0.  0.
         11    1    3    3    0    0  0.38294460878E+02  0.23090494538E+02 -0.14535056144E+02  0.47020256585E+02  0.51100000000E-03 0. -1.
         22    1    1    0    0    0  0.10448949160E+02 -0.24051691499E+02  0.12838228163E+02  0.29197337291E+02  0.00000000000E+00 0. -1.
</event>
<event>
 5    1  0.8900327E-005  0.9118800E+02  0.7818608E-02  0.1130116E+00
         25   -1    0    0    0    0  0.00000000000E+00  0.00000000000E+00  0.99999998245E-14  0.12500000000E+03  0.12500000000E+03 0.  0.
        -11    1    3    3    0    0  0.68348382801E+01 -0.34726019978E+01  0.49746883888E+02  0.50334147811E+02  0.51100000000E-03 0.  1.
         23    2    1    0    0    0  0.56670150454E+00 -0.27019415544E+02  0.11619892620E+02  0.95582456401E+02  0.90942916712E+02 0.  0.
         11    1    3    3    0    0 -0.62681367755E+01 -0.23546813546E+02 -0.38126991269E+02  0.45248308590E+02  0.51100000000E-03 0. -1.
         22    1    1    0    0    0 -0.56670150454E+00  0.27019415544E+02 -0.11619892620E+02  0.29417543599E+02  0.00000000000E+00 0.  1.
</event>
<event>
 5    1  0.8900327E-005  0.9118800E+02  0.7818608E-02  0.1130116E+00
         25   -1    0    0    0    0  0.00000000000E+00  0.00000000000E+00  0.99999998245E-14  0.12500000000E+03  0.12500000000E+03 0.  0.
        -11    1    3    3    0    0  0.18358203863E+02 -0.50798959241E+02  0.10667750926E+02  0.55057777099E+02  0.51100000000E-03 0.  1.
         23    2    1    0    0    0  0.18526678152E+02 -0.16750964651E+02 -0.13306586289E+02  0.96699861153E+02  0.92466022345E+02 0.  0.
         11    1    3    3    0    0  0.16847428820E+00  0.34047994590E+02 -0.23974337215E+02  0.41642084054E+02  0.51100000000E-03 0. -1.
         22    1    1    0    0    0 -0.18526678152E+02  0.16750964651E+02  0.13306586289E+02  0.28300138847E+02  0.00000000000E+00 0.  1.
</event>
<event>
 5    1  0.8900327E-005  0.9118800E+02  0.7818608E-02  0.1130116E+00
         25   -1    0    0    0    0  0.00000000000E+00  0.00000000000E+00  0.99999998245E-14  0.12500000000E+03  0.12500000000E+03 0.  0.
        -11    1    3    3    0    0 -0.29550190794E+02 -0.40352718732E+01 -0.19474503674E+02  0.35619566094E+02  0.51100000000E-03 0.  1.
         23    2    1    0    0    0  0.10232233860E+02  0.32050262872E+01  0.26241446618E+02  0.96652437074E+02  0.92401889962E+02 0.  0.
         11    1    3    3    0    0  0.39782424654E+02  0.72402981604E+01  0.45715950292E+02  0.61032870981E+02  0.51100000000E-03 0. -1.
         22    1    1    0    0    0 -0.10232233860E+02 -0.32050262872E+01 -0.26241446618E+02  0.28347562926E+02  0.00000000000E+00 0. -1.
</event>
<event>
 5    1  0.8900327E-005  0.9118800E+02  0.7818608E-02  0.1130116E+00
         25   -1    0    0    0    0  0.00000000000E+00  0.00000000000E+00  0.99999998245E-14  0.12500000000E+03  0.12500000000E+03 0.  0.
        -11    1    3    3    0    0 -0.35247858512E+01 -0.47280736566E+02  0.15883578444E+02  0.50001802267E+02  0.51100000000E-03 0. -1.
         23    2    1    0    0    0 -0.27918449478E+02 -0.13072378475E+02  0.26162710731E+01  0.94061807186E+02  0.88828215093E+02 0.  0.
         11    1    3    3    0    0 -0.24393663627E+02  0.34208358091E+02 -0.13267307371E+02  0.44060004920E+02  0.51100000000E-03 0.  1.
         22    1    1    0    0    0  0.27918449478E+02  0.13072378475E+02 -0.26162710731E+01  0.30938192814E+02  0.00000000000E+00 0. -1.
</event>
<event>
 5    1  0.8900327E-005  0.9118800E+02  0.7818608E-02  0.1130116E+00
         25   -1    0    0    0    0  0.00000000000E+00  0.00000000000E+00  0.99999998245E-14  0.12500000000E+03  0.12500000000E+03 0.  0.
        -11    1    3    3    0    0  0.18708953945E+02 -0.37591793661E+02  0.12927769105E+02  0.43935124020E+02  0.51100000000E-03 0. -1.
         23    2    1    0    0    0 -0.25951878057E+02 -0.12756087121E+02  0.41180347005E+01  0.95790824334E+02  0.91228866503E+02 0.  0.
         11    1    3    3    0    0 -0.44660832002E+02  0.24835706540E+02 -0.88097344043E+01  0.51855700313E+02  0.51100000000E-03 0.  1.
         22    1    1    0    0    0  0.25951878057E+02  0.12756087121E+02 -0.41180347005E+01  0.29209175666E+02  0.00000000000E+00 0.  1.
</event>
<event>
 5    1  0.8900327E-005  0.9118800E+02  0.7818608E-02  0.1130116E+00
         25   -1    0    0    0    0  0.00000000000E+00  0.00000000000E+00  0.99999998245E-14  0.12500000000E+03  0.12500000000E+03 0.  0.
        -11    1    3    3    0    0 -0.53993138730E+01 -0.25816738766E+02 -0.17768235136E+02  0.31801993191E+02  0.51100000000E-03 0.  1.
         23    2    1    0    0    0 -0.34687404931E+02  0.67712951637E-01  0.18987076292E+02  0.85455977544E+02  0.75756150813E+02 0.  0.
         11    1    3    3    0    0 -0.29288091058E+02  0.25884451717E+02  0.36755311429E+02  0.53653984353E+02  0.51100000000E-03 0. -1.
         22    1    1    0    0    0  0.34687404931E+02 -0.67712951637E-01 -0.18987076292E+02  0.39544022456E+02  0.00000000000E+00 0. -1.
</event>
<event>
 5    1  0.8900327E-005  0.9118800E+02  0.7818608E-02  0.1130116E+00
         25   -1    0    0    0    0  0.00000000000E+00  0.00000000000E+00  0.99999998245E-14  0.12500000000E+03  0.12500000000E+03 0.  0.
        -11    1    3    3    0    0  0.55565158197E+01 -0.24639232071E+02  0.34271726596E+02  0.42573675778E+02  0.51100000000E-03 0.  1.
         23    2    1    0    0    0  0.24686763859E+02  0.10506849296E+02 -0.39154041046E+01  0.97886155174E+02  0.94056040707E+02 0.  0.
         11    1    3    3    0    0  0.19130248039E+02  0.35146081367E+02 -0.38187130701E+02  0.55312479396E+02  0.51100000000E-03 0. -1.
         22    1    1    0    0    0 -0.24686763859E+02 -0.10506849296E+02  0.39154041046E+01  0.27113844826E+02  0.00000000000E+00 0. -1.
</event>
<event>
 5    1  0.8900327E-005  0.9118800E+02  0.7818608E-02  0.1130116E+00
         25   -1    0    0    0    0  0.00000000000E+00  0.00000000000E+00  0.99999998245E-14  0.12500000000E+03  0.12500000000E+03 0.  0.
        -11    1    3    3    0    0  0.17973484983E+02  0.30870621487E+02  0.80214449332E+01  0.36611268928E+02  0.51100000000E-03 0. -1.
         23    2    1    0    0    0 -0.20959985766E+02 -0.10667777471E+02  0.19211036396E+02  0.94632477894E+02  0.89627671360E+02 0.  0.
         11    1    3    3    0    0 -0.38933470749E+02 -0.41538398958E+02  0.11189591463E+02  0.58021208966E+02  0.51100000000E-03 0.  1.
         22    1    1    0    0    0  0.20959985766E+02  0.10667777471E+02 -0.19211036396E+02  0.30367522106E+02  0.00000000000E+00 0.  1.
</event>
<event>
 5    1  0.8900327E-005  0.9118800E+02  0.7818608E-02  0.1130116E+00
         25   -1    0    0    0    0  0.00000000000E+00  0.00000000000E+00  0.99999998245E-14  0.12500000000E+03  0.12500000000E+03 0.  0.
        -11    1    3    3    0    0  0.30405715718E+02  0.48725139213E+02 -0.12311651810E+02  0.58738603237E+02  0.51100000000E-03 0.  1.
         23    2    1    0    0    0  0.12491996519E+02  0.17209524461E+02 -0.20012650054E+02  0.95798563881E+02  0.91239470463E+02 0.  0.
         11    1    3    3    0    0 -0.17913719198E+02 -0.31515614752E+02 -0.77009982445E+01  0.37059960644E+02  0.51100000000E-03 0. -1.
         22    1    1    0    0    0 -0.12491996519E+02 -0.17209524461E+02  0.20012650054E+02  0.29201436119E+02  0.00000000000E+00 0.  1.
</event>
<event>
 5    1  0.8900327E-005  0.9118800E+02  0.7818608E-02  0.1130116E+00
         25   -1    0    0    0    0  0.00000000000E+00  0.00000000000E+00  0.99999998245E-14  0.12500000000E+03  0.12500000000E+03 0.  0.
        -11    1    3    3    0    0  0.36295489011E+00 -0.43111449601E+02 -0.20174832112E+02  0.47599923046E+02  0.51100000000E-03 0. -1.
         23    2    1    0    0    0  0.75274231457E+01  0.48285882845E+01 -0.27006396787E+02  0.96551400185E+02  0.92265107414E+02 0.  0.
         11    1    3    3    0    0  0.71644682556E+01  0.47940037886E+02 -0.68315646747E+01  0.48951477138E+02  0.51100000000E-03 0.  1.
         22    1    1    0    0    0 -0.75274231457E+01 -0.48285882845E+01  0.27006396787E+02  0.28448599815E+02  0.00000000000E+00 0.  1.
</event>
<event>
 5    1  0.8900327E-005  0.9118800E+02  0.7818608E-02  0.1130116E+00
         25   -1    0    0    0    0  0.00000000000E+00  0.00000000000E+00  0.99999998245E-14  0.12500000000E+03  0.12500000000E+03 0.  0.
        -11    1    3    3    0    0  0.35396739465E+02  0.66469582523E+01 -0.13230635989E+02  0.38368749623E+02  0.51100000000E-03 0. -1.
         23    2    1    0    0    0 -0.48082474442E+01  0.93333381812E+01  0.27439724456E+02  0.95620263389E+02  0.90994867148E+02 0.  0.
         11    1    3    3    0    0 -0.40204986909E+02  0.26863799288E+01  0.40670360445E+02  0.57251513766E+02  0.51100000000E-03 0.  1.
         22    1    1    0    0    0  0.48082474442E+01 -0.93333381812E+01 -0.27439724456E+02  0.29379736611E+02  0.00000000000E+00 0.  1.
</event>
<event>
 5    1  0.8900327E-005  0.9118800E+02  0.7818608E-02  0.1130116E+00
         25   -1    0    0    0    0  0.00000000000E+00  0.00000000000E+00  0.99999998245E-14  0.12500000000E+03  0.12500000000E+03 0.  0.
        -11    1    3    3    0    0 -0.61837504725E+01 -0.23334613949E+02  0.24726718541E+02  0.34556527432E+02  0.51100000000E-03 0. -1.
         23    2    1    0    0    0 -0.12166103523E+02  0.20629383773E+02 -0.17131145805E+02  0.95554088461E+02  0.90903916941E+02 0.  0.
         11    1    3    3    0    0 -0.59823530503E+01  0.43963997721E+02 -0.41857864346E+02  0.60997561030E+02  0.51100000000E-03 0.  1.
         22    1    1    0    0    0  0.12166103523E+02 -0.20629383773E+02  0.17131145805E+02  0.29445911539E+02  0.00000000000E+00 0.  1.
</event>
<event>
 5    1  0.8900327E-005  0.9118800E+02  0.7818608E-02  0.1130116E+00
         25   -1    0    0    0    0  0.00000000000E+00  0.00000000000E+00  0.99999998245E-14  0.12500000000E+03  0.12500000000E+03 0.  0.
        -11    1    3    3    0    0 -0.41868526877E+02 -0.24940426167E+02 -0.17821183666E+02  0.51890201269E+02  0.51100000000E-03 0. -1.
         23    2    1    0    0    0 -0.18418139529E+02 -0.14793598467E+02  0.17582473153E+02  0.95551370465E+02  0.90900179407E+02 0.  0.
         11    1    3    3    0    0  0.23450387348E+02  0.10146827700E+02  0.35403656819E+02  0.43661169196E+02  0.51100000000E-03 0.  1.
         22    1    1    0    0    0  0.18418139529E+02  0.14793598467E+02 -0.17582473153E+02  0.29448629535E+02  0.00000000000E+00 0. -1.
</event>
<event>
 5    1  0.8900327E-005  0.9118800E+02  0.7818608E-02  0.1130116E+00
         25   -1    0    0    0    0  0.00000000000E+00  0.00000000000E+00  0.99999998245E-14  0.12500000000E+03  0.12500000000E+03 0.  0.
        -11    1    3    3    0    0  0.28867782977E+01  0.44392834591E+02 -0.22198416245E+01  0.44541945951E+02  0.51100000000E-03 0. -1.
         23    2    1    0    0    0  0.73352929023E+01  0.31805373528E+01  0.28026423567E+02  0.95855484946E+02  0.91317420224E+02 0.  0.
         11    1    3    3    0    0  0.44485146047E+01 -0.41212297239E+02  0.30246265191E+02  0.51313538995E+02  0.51100000000E-03 0.  1.
         22    1    1    0    0    0 -0.73352929023E+01 -0.31805373528E+01 -0.28026423567E+02  0.29144515054E+02  0.00000000000E+00 0. -1.
</event>
<event>
 5    1  0.8900327E-005  0.9118800E+02  0.7818608E-02  0.1130116E+00
         25   -1    0    0    0    0  0.00000000000E+00  0.00000000000E+00  0.99999998245E-14  0.12500000000E+03  0.12500000000E+03 0.  0.
        -11    1    3    3    0    0  0.40457786269E+02 -0.22079486446E+02 -0.12118444209E+02  0.47657033918E+02  0.51100000000E-03 0.  1.
         23    2    1    0    0    0  0.83778555235E+01 -0.21522481551E+02  0.21011550948E+02  0.93776756277E+02  0.88426178643E+02 0.  0.
         11    1    3    3    0    0 -0.32079930746E+02  0.55700489443E+00  0.33129995158E+02  0.46119722360E+02  0.51100000000E-03 0. -1.
         22    1    1    0    0    0 -0.83778555235E+01  0.21522481551E+02 -0.21011550948E+02  0.31223243723E+02  0.00000000000E+00 0. -1.
</event>
<event>
 5    1  0.8900327E-005  0.9118800E+02  0.7818608E-02  0.1130116E+00
         25   -1    0    0    0    0  0.00000000000E+00  0.00000000000E+00  0.99999998245E-14  0.12500000000E+03  0.12500000000E+03 0.  0.
        -11    1    3    3    0    0  0.22515553616E+02  0.24625803237E+02 -0.16094307822E+02  0.37046013068E+02  0.51100000000E-03 0. -1.
         23    2    1    0    0    0 -0.29146213295E+02  0.67796230780E+01  0.29604675006E+01  0.94929592515E+02  0.90041091334E+02 0.  0.
         11    1    3    3    0    0 -0.51661766912E+02 -0.17846180159E+02  0.19054775322E+02  0.57883579446E+02  0.51100000000E-03 0.  1.
         22    1    1    0    0    0  0.29146213295E+02 -0.67796230780E+01 -0.29604675006E+01  0.30070407485E+02  0.00000000000E+00 0.  1.
</event>
<event>
 5    1  0.8900327E-005  0.9118800E+02  0.7818608E-02  0.1130116E+00
         25   -1    0    0    0    0  0.00000000000E+00  0.00000000000E+00  0.99999998245E-14  0.12500000000E+03  0.12500000000E+03 0.  0.
        -11    1    3    3    0    0 -0.55926876564E+02 -0.13141423418E+02 -0.15225355262E+02  0.59433357424E+02  0.51100000000E-03 0.  1.
         23    2    1    0    0    0 -0.19454031645E+02 -0.16990121752E+02 -0.12759547041E+02  0.96191500819E+02  0.91776223526E+02 0.  0.
         11    1    3    3    0    0  0.36472844919E+02 -0.38486983340E+01  0.24658082213E+01  0.36758143394E+02  0.51100000000E-03 0. -1.
         22    1    1    0    0    0  0.19454031645E+02  0.16990121752E+02  0.12759547041E+02  0.28808499181E+02  0.00000000000E+00 0.  1.
</event>
<event>
 5    1  0.8900327E-005  0.9118800E+02  0.7818608E-02  0.1130116E+00
         25   -1    0    0    0    0  0.00000000000E+00  0.00000000000E+00  0.99999998245E-14  0.12500000000E+03  0.12500000000E+03 0.  0.
        -11    1    3    3    0    0  0.12852049114E+02  0.44748289612E+02  0.14011629826E+02  0.48620061294E+02  0.51100000000E-03 0.  1.
         23    2    1    0    0    0  0.10737693079E+02  0.38066475717E+02 -0.18111267558E+02  0.81498590382E+02  0.68917687103E+02 0.  0.
         11    1    3    3    0    0 -0.21143560346E+01 -0.66818138947E+01 -0.32122897385E+02  0.32878529088E+02  0.51100000000E-03 0. -1.
         22    1    1    0    0    0 -0.10737693079E+02 -0.38066475717E+02  0.18111267558E+02  0.43501409618E+02  0.00000000000E+00 0.  1.
</event>
<event>
 5    1  0.8900327E-005  0.9118800E+02  0.7818608E-02  0.1130116E+00
         25   -1    0    0    0    0  0.00000000000E+00  0.00000000000E+00  0.99999998245E-14  0.12500000000E+03  0.12500000000E+03 0.  0.
        -11    1    3    3    0    0 -0.18302255626E+02  0.21935683594E+01 -0.58587536428E+01  0.19341905223E+02  0.51100000000E-03 0.  1.
         23    2    1    0    0    0  0.16178638951E+02 -0.84667478026E+00  0.42902701280E+02  0.79140355501E+02  0.64498750959E+02 0.  0.
         11    1    3    3    0    0  0.34480894577E+02 -0.30402431397E+01  0.48761454922E+02  0.59798450278E+02  0.51100000000E-03 0. -1.
         22    1    1    0    0    0 -0.16178638951E+02  0.84667478026E+00 -0.42902701280E+02  0.45859644499E+02  0.00000000000E+00 0. -1.
</event>
<event>
 5    1  0.8900327E-005  0.9118800E+02  0.7818608E-02  0.1130116E+00
         25   -1    0    0    0    0  0.00000000000E+00  0.00000000000E+00  0.99999998245E-14  0.12500000000E+03  0.12500000000E+03 0.  0.
        -11    1    3    3    0    0 -0.16471057382E+02  0.39122140062E+02 -0.36868283780E+02  0.56223730964E+02  0.51100000000E-03 0.  1.
         23    2    1    0    0    0 -0.22419357717E+02  0.79476369013E+01 -0.25978067196E+02  0.89777102504E+02  0.82578905454E+02 0.  0.
         11    1    3    3    0    0 -0.59483003353E+01 -0.31174503161E+02  0.10890216585E+02  0.33553371540E+02  0.51100000000E-03 0. -1.
         22    1    1    0    0    0  0.22419357717E+02 -0.79476369013E+01  0.25978067196E+02  0.35222897496E+02  0.00000000000E+00 0.  1.
</event>
<event>
 5    1  0.8900327E-005  0.9118800E+02  0.7818608E-02  0.1130116E+00
         25   -1    0    0    0    0  0.00000000000E+00  0.00000000000E+00  0.99999998245E-14  0.12500000000E+03  0.12500000000E+03 0.  0.
        -11    1    3    3    0    0 -0.10586893933E+02 -0.38527079993E+02 -0.12112272164E+02  0.41750752726E+02  0.51100000000E-03 0.  1.
         23    2    1    0    0    0  0.17579257337E+02  0.74723667247E+01 -0.21216737060E+02  0.96451506441E+02  0.92129672800E+02 0.  0.
         11    1    3    3    0    0  0.28166151271E+02  0.45999446718E+02 -0.91044648968E+01  0.54700753715E+02  0.51100000000E-03 0. -1.
         22    1    1    0    0    0 -0.17579257337E+02 -0.74723667247E+01  0.21216737060E+02  0.28548493559E+02  0.00000000000E+00 0. -1.
</event>
<event>
 5    1  0.8900327E-005  0.9118800E+02  0.7818608E-02  0.1130116E+00
         25   -1    0    0    0    0  0.00000000000E+00  0.00000000000E+00  0.99999998245E-14  0.12500000000E+03  0.12500000000E+03 0.  0.
        -11    1    3    3    0    0 -0.18470495647E+02  0.25419711080E+02 -0.48476540907E+02  0.57769333902E+02  0.51100000000E-03 0.  1.
         23    2    1    0    0    0 -0.34531409575E+01  0.43434672897E+00 -0.34899912219E+02  0.89926980277E+02  0.82805465214E+02 0.  0.
         11    1    3    3    0    0  0.15017354690E+02 -0.24985364351E+02  0.13576628688E+02  0.32157646376E+02  0.51100000000E-03 0. -1.
         22    1    1    0    0    0  0.34531409575E+01 -0.43434672897E+00  0.34899912219E+02  0.35073019723E+02  0.00000000000E+00 0.  1.
</event>
<event>
 5    1  0.8900327E-005  0.9118800E+02  0.7818608E-02  0.1130116E+00
         25   -1    0    0    0    0  0.00000000000E+00  0.00000000000E+00  0.99999998245E-14  0.12500000000E+03  0.12500000000E+03 0.  0.
        -11    1    3    3    0    0  0.51531590730E+02 -0.17565264248E+02  0.14468038549E+02  0.56332650310E+02  0.51100000000E-03 0.  1.
         23    2    1    0    0    0  0.29132310951E+02 -0.34373901068E+01 -0.11565038203E+02  0.93468154181E+02  0.87988854665E+02 0.  0.
         11    1    3    3    0    0 -0.22399279778E+02  0.14127874141E+02 -0.26033076752E+02  0.37135503872E+02  0.51100000000E-03 0. -1.
         22    1    1    0    0    0 -0.29132310951E+02  0.34373901068E+01  0.11565038203E+02  0.31531845819E+02  0.00000000000E+00 0.  1.
</event>
<event>
 5    1  0.8900327E-005  0.9118800E+02  0.7818608E-02  0.1130116E+00
         25   -1    0    0    0    0  0.00000000000E+00  0.00000000000E+00  0.99999998245E-14  0.12500000000E+03  0.12500000000E+03 0.  0.
        -11    1    3    3    0    0 -0.23812445262E+02 -0.12187865376E+02  0.22925232181E+02  0.35229857828E+02  0.51100000000E-03 0. -1.
         23    2    1    0    0    0  0.67631073893E+01  0.13223977179E+02 -0.24026606753E+02  0.96753035100E+02  0.92537877515E+02 0.  0.
         11    1    3    3    0    0  0.30575552652E+02  0.25411842555E+02 -0.46951838935E+02  0.61523177271E+02  0.51100000000E-03 0.  1.
         22    1    1    0    0    0 -0.67631073893E+01 -0.13223977179E+02  0.24026606753E+02  0.28246964900E+02  0.00000000000E+00 0.  1.
</event>
<event>
 5    1  0.8900327E-005  0.9118800E+02  0.7818608E-02  0.1130116E+00
         25   -1    0    0    0    0  0.00000000000E+00  0.00000000000E+00  0.99999998245E-14  0.12500000000E+03  0.12500000000E+03 0.  0.
        -11    1    3    3    0    0 -0.26121508333E+02 -0.30630295780E+02  0.41885141693E+02  0.58094004097E+02  0.51100000000E-03 0.  1.
         23    2    1    0    0    0  0.35165899297E+01 -0.20396924409E+02  0.18897616286E+02  0.96972855454E+02  0.92834335585E+02 0.  0.
         11    1    3    3    0    0  0.29638098263E+02  0.10233371371E+02 -0.22987525407E+02  0.38878851357E+02  0.51100000000E-03 0. -1.
         22    1    1    0    0    0 -0.35165899297E+01  0.20396924409E+02 -0.18897616286E+02  0.28027144546E+02  0.00000000000E+00 0.  1.
</event>
<event>
 5    1  0.8900327E-005  0.9118800E+02  0.7818608E-02  0.1130116E+00
         25   -1    0    0    0    0  0.00000000000E+00  0.00000000000E+00  0.99999998245E-14  0.12500000000E+03  0.12500000000E+03 0.  0.
        -11    1    3    3    0    0 -0.39256083380E+02 -0.24113858092E+01 -0.47086170548E+02  0.61351139525E+02  0.51100000000E-03 0. -1.
         23    2    1    0    0    0 -0.24883208623E+02  0.14351439300E+01 -0.17259342788E+02  0.94683030776E+02  0.89698147662E+02 0.  0.
         11    1    3    3    0    0  0.14372874757E+02  0.38465297392E+01  0.29826827761E+02  0.33331891251E+02  0.51100000000E-03 0.  1.
         22    1    1    0    0    0  0.24883208623E+02 -0.14351439300E+01  0.17259342788E+02  0.30316969224E+02  0.00000000000E+00 0. -1.
</event>
<event>
 5    1  0.8900327E-005  0.9118800E+02  0.7818608E-02  0.1130116E+00
         25   -1    0    0    0    0  0.00000000000E+00  0.00000000000E+00  0.99999998245E-14  0.12500000000E+03  0.12500000000E+03 0.  0.
        -11    1    3    3    0    0 -0.24659626706E+02  0.33293780793E+02  0.29155026116E+01  0.41534000343E+02  0.51100000000E-03 0.  1.
         23    2    1    0    0    0  0.91447283341E+01  0.94833880376E+01 -0.28592203563E+02  0.93518659343E+02  0.88060574810E+02 0.  0.
         11    1    3    3    0    0  0.33804355040E+02 -0.23810392755E+02 -0.31507706174E+02  0.51984659001E+02  0.51100000000E-03 0. -1.
         22    1    1    0    0    0 -0.91447283341E+01 -0.94833880376E+01  0.28592203563E+02  0.31481340657E+02  0.00000000000E+00 0.  1.
</event>
<event>
 5    1  0.8900327E-005  0.9118800E+02  0.7818608E-02  0.1130116E+00
         25   -1    0    0    0    0  0.00000000000E+00  0.00000000000E+00  0.99999998245E-14  0.12500000000E+03  0.12500000000E+03 0.  0.
        -11    1    3    3    0    0  0.33293720639E+02 -0.18838740315E+02 -0.64257382960E+01  0.38789948228E+02  0.51100000000E-03 0. -1.
         23    2    1    0    0    0 -0.22800238903E+02 -0.15433516705E+02 -0.11386629322E+02  0.95205710963E+02  0.90423601679E+02 0.  0.
         11    1    3    3    0    0 -0.56093959542E+02  0.34052236095E+01 -0.49608910262E+01  0.56415762735E+02  0.51100000000E-03 0.  1.
         22    1    1    0    0    0  0.22800238903E+02  0.15433516705E+02  0.11386629322E+02  0.29794289037E+02  0.00000000000E+00 0.  1.
</event>
<event>
 5    1  0.8900327E-005  0.9118800E+02  0.7818608E-02  0.1130116E+00
         25   -1    0    0    0    0  0.00000000000E+00  0.00000000000E+00  0.99999998245E-14  0.12500000000E+03  0.12500000000E+03 0.  0.
        -11    1    3    3    0    0  0.35235959759E+01 -0.53069726076E+02  0.17600236971E+02  0.56023030051E+02  0.51100000000E-03 0.  1.
         23    2    1    0    0    0 -0.17217708958E+02 -0.22892068146E+02  0.71499628940E+00  0.96346771466E+02  0.91987460376E+02 0.  0.
         11    1    3    3    0    0 -0.20741304934E+02  0.30177657930E+02 -0.16885240682E+02  0.40323741415E+02  0.51100000000E-03 0. -1.
         22    1    1    0    0    0  0.17217708958E+02  0.22892068146E+02 -0.71499628940E+00  0.28653228534E+02  0.00000000000E+00 0.  1.
</event>
<event>
 5    1  0.8900327E-005  0.9118800E+02  0.7818608E-02  0.1130116E+00
         25   -1    0    0    0    0  0.00000000000E+00  0.00000000000E+00  0.99999998245E-14  0.12500000000E+03  0.12500000000E+03 0.  0.
        -11    1    3    3    0    0  0.37255443606E+02 -0.69450187719E+01 -0.46676328650E+02  0.60123880617E+02  0.51100000000E-03 0.  1.
         23    2    1    0    0    0  0.18018540976E+02  0.88854183696E+01 -0.19253662069E+02  0.97173358421E+02  0.93103918313E+02 0.  0.
         11    1    3    3    0    0 -0.19236902630E+02  0.15830437142E+02  0.27422666581E+02  0.37049477804E+02  0.51100000000E-03 0. -1.
         22    1    1    0    0    0 -0.18018540976E+02 -0.88854183696E+01  0.19253662069E+02  0.27826641579E+02  0.00000000000E+00 0.  1.
</event>
<event>
 5    1  0.8900327E-005  0.9118800E+02  0.7818608E-02  0.1130116E+00
         25   -1    0    0    0    0  0.00000000000E+00  0.00000000000E+00  0.99999998245E-14  0.12500000000E+03  0.12500000000E+03 0.  0.
        -11    1    3    3    0    0  0.10012890945E+02  0.25099842704E+02  0.32778958813E+02  0.42481998894E+02  0.51100000000E-03 0.  1.
         23    2    1    0    0    0 -0.26427343229E+02  0.13173339236E+02 -0.34966192792E+01  0.95265042741E+02  0.90505583725E+02 0.  0.
         11    1    3    3    0    0 -0.36440234174E+02 -0.11926503468E+02 -0.36275578092E+02  0.52783043848E+02  0.51100000000E-03 0. -1.
         22    1    1    0    0    0  0.26427343229E+02 -0.13173339236E+02  0.34966192792E+01  0.29734957259E+02  0.00000000000E+00 0. -1.
</event>
<event>
 5    1  0.8900327E-005  0.9118800E+02  0.7818608E-02  0.1130116E+00
         25   -1    0    0    0    0  0.00000000000E+00  0.00000000000E+00  0.99999998245E-14  0.12500000000E+03  0.12500000000E+03 0.  0.
        -11    1    3    3    0    0  0.90417865783E+01 -0.17615600304E+02 -0.39599079656E+02  0.44273585674E+02  0.51100000000E-03 0.  1.
         23    2    1    0    0    0  0.50593633505E+00  0.25944803594E+02 -0.14016311604E+02  0.95506851709E+02  0.90838939488E+02 0.  0.
         11    1    3    3    0    0 -0.85358502433E+01  0.43560403898E+02  0.25582768051E+02  0.51233266035E+02  0.51100000000E-03 0. -1.
         22    1    1    0    0    0 -0.50593633505E+00 -0.25944803594E+02  0.14016311604E+02  0.29493148291E+02  0.00000000000E+00 0.  1.
</event>
<event>
 5    1  0.8900327E-005  0.9118800E+02  0.7818608E-02  0.1130116E+00
         25   -1    0    0    0    0  0.00000000000E+00  0.00000000000E+00  0.99999998245E-14  0.12500000000E+03  0.12500000000E+03 0.  0.
        -11    1    3    3    0    0  0.34103983797E+02  0.55053226137E+01 -0.62962420970E+01  0.35114568953E+02  0.51100000000E-03 0. -1.
         23    2    1    0    0    0 -0.23425061326E+02  0.14103201841E+02  0.10580513666E+02  0.95681386975E+02  0.91078794149E+02 0.  0.
         11    1    3    3    0    0 -0.57529045123E+02  0.85978792273E+01  0.16876755763E+02  0.60566818022E+02  0.51100000000E-03 0.  1.
         22    1    1    0    0    0  0.23425061326E+02 -0.14103201841E+02 -0.10580513666E+02  0.29318613025E+02  0.00000000000E+00 0.  1.
</event>
<event>
 5    1  0.8900327E-005  0.9118800E+02  0.7818608E-02  0.1130116E+00
         25   -1    0    0    0    0  0.00000000000E+00  0.00000000000E+00  0.99999998245E-14  0.12500000000E+03  0.12500000000E+03 0.  0.
        -11    1    3    3    0    0 -0.52641261305E+01  0.91061898327E+01  0.55099187250E+02  0.56094154357E+02  0.51100000000E-03 0.  1.
         23    2    1    0    0    0  0.17449746637E+02  0.59221003809E+01  0.23650911346E+02  0.95017829662E+02  0.90163503790E+02 0.  0.
         11    1    3    3    0    0  0.22713872768E+02 -0.31840894518E+01 -0.31448275903E+02  0.38923675306E+02  0.51100000000E-03 0. -1.
         22    1    1    0    0    0 -0.17449746637E+02 -0.59221003809E+01 -0.23650911346E+02  0.29982170338E+02  0.00000000000E+00 0.  1.
</event>
<event>
 5    1  0.8900327E-005  0.9118800E+02  0.7818608E-02  0.1130116E+00
         25   -1    0    0    0    0  0.00000000000E+00  0.00000000000E+00  0.99999998245E-14  0.12500000000E+03  0.12500000000E+03 0.  0.
        -11    1    3    3    0    0  0.15830532374E+02  0.18201148815E+02  0.32262130368E+02  0.40283155656E+02  0.51100000000E-03 0.  1.
         23    2    1    0    0    0  0.40107556574E+01  0.17356797088E+02 -0.22493727849E+02  0.96306579871E+02  0.91932828565E+02 0.  0.
         11    1    3    3    0    0 -0.11819776717E+02 -0.84435172711E+00 -0.54755858217E+02  0.56023424216E+02  0.51100000000E-03 0. -1.
         22    1    1    0    0    0 -0.40107556574E+01 -0.17356797088E+02  0.22493727849E+02  0.28693420129E+02  0.00000000000E+00 0. -1.
</event>
<event>
 5    1  0.8900327E-005  0.9118800E+02  0.7818608E-02  0.1130116E+00
         25   -1    0    0    0    0  0.00000000000E+00  0.00000000000E+00  0.99999998245E-14  0.12500000000E+03  0.12500000000E+03 0.  0.
        -11    1    3    3    0    0 -0.22320021922E+02 -0.24470114976E+02  0.17755623312E+02  0.37579676223E+02  0.51100000000E-03 0.  1.
         23    2    1    0    0    0 -0.11067519207E+01  0.28426342203E+02  0.34143091937E+01  0.96347961013E+02  0.91989076814E+02 0.  0.
         11    1    3    3    0    0  0.21213270002E+02  0.52896457179E+02 -0.14341314118E+02  0.58768284790E+02  0.51100000000E-03 0. -1.
         22    1    1    0    0    0  0.11067519207E+01 -0.28426342203E+02 -0.34143091937E+01  0.28652038987E+02  0.00000000000E+00 0. -1.
</event>
<event>
 5    1  0.8900327E-005  0.9118800E+02  0.7818608E-02  0.1130116E+00
         25   -1    0    0    0    0  0.00000000000E+00  0.00000000000E+00  0.99999998245E-14  0.12500000000E+03  0.12500000000E+03 0.  0.
        -11    1    3    3    0    0 -0.44005795746E+02 -0.30568652106E+02  0.24174594873E+02  0.58782340787E+02  0.51100000000E-03 0.  1.
         23    2    1    0    0    0 -0.21709260266E+02 -0.31201148666E+02  0.84830059551E+01  0.86054332084E+02  0.76737103288E+02 0.  0.
         11    1    3    3    0    0  0.22296535480E+02 -0.63249655983E+00 -0.15691588918E+02  0.27271991298E+02  0.51100000000E-03 0. -1.
         22    1    1    0    0    0  0.21709260266E+02  0.31201148666E+02 -0.84830059551E+01  0.38945667916E+02  0.00000000000E+00 0.  1.
</event>
<event>
 5    1  0.8900327E-005  0.9118800E+02  0.7818608E-02  0.1130116E+00
         25   -1    0    0    0    0  0.00000000000E+00  0.00000000000E+00  0.99999998245E-14  0.12500000000E+03  0.12500000000E+03 0.  0.
        -11    1    3    3    0    0  0.39937983506E+02 -0.43044179930E+01 -0.12447504557E+02  0.42053667030E+02  0.51100000000E-03 0.  1.
         23    2    1    0    0    0 -0.15025489029E+01 -0.28113735415E+02  0.10347640835E+02  0.95004776330E+02  0.90145405221E+02 0.  0.
         11    1    3    3    0    0 -0.41440532408E+02 -0.23809317422E+02  0.22795145392E+02  0.52951109300E+02  0.51100000000E-03 0. -1.
         22    1    1    0    0    0  0.15025489029E+01  0.28113735415E+02 -0.10347640835E+02  0.29995223670E+02  0.00000000000E+00 0.  1.
</event>
<event>
 5    1  0.8900327E-005  0.9118800E+02  0.7818608E-02  0.1130116E+00
         25   -1    0    0    0    0  0.00000000000E+00  0.00000000000E+00  0.99999998245E-14  0.12500000000E+03  0.12500000000E+03 0.  0.
        -11    1    3    3    0    0  0.19582750263E+02  0.50366557147E+02  0.22939769493E+02  0.58706960502E+02  0.51100000000E-03 0.  1.
         23    2    1    0    0    0 -0.57936472469E+00  0.29700801922E+02  0.47384973909E+00  0.95289768902E+02  0.90539727333E+02 0.  0.
         11    1    3    3    0    0 -0.20162114988E+02 -0.20665755225E+02 -0.22465919754E+02  0.36582808400E+02  0.51100000000E-03 0. -1.
         22    1    1    0    0    0  0.57936472469E+00 -0.29700801922E+02 -0.47384973909E+00  0.29710231098E+02  0.00000000000E+00 0.  1.
</event>
<event>
 5    1  0.8900327E-005  0.9118800E+02  0.7818608E-02  0.1130116E+00
         25   -1    0    0    0    0  0.00000000000E+00  0.00000000000E+00  0.99999998245E-14  0.12500000000E+03  0.12500000000E+03 0.  0.
        -11    1    3    3    0    0 -0.14701439164E+02  0.53962070225E+02 -0.51367141758E+01  0.56164251702E+02  0.51100000000E-03 0. -1.
         23    2    1    0    0    0  0.70327694187E+01  0.26714743102E+02  0.11854244193E+02  0.94939054404E+02  0.90054225892E+02 0.  0.
         11    1    3    3    0    0  0.21734208582E+02 -0.27247327123E+02  0.16990958369E+02  0.38774802702E+02  0.51100000000E-03 0.  1.
         22    1    1    0    0    0 -0.70327694187E+01 -0.26714743102E+02 -0.11854244193E+02  0.30060945596E+02  0.00000000000E+00 0. -1.
</event>
<event>
 5    1  0.8900327E-005  0.9118800E+02  0.7818608E-02  0.1130116E+00
         25   -1    0    0    0    0  0.00000000000E+00  0.00000000000E+00  0.99999998245E-14  0.12500000000E+03  0.12500000000E+03 0.  0.
        -11    1    3    3    0    0 -0.23409731551E+02  0.43802667392E+02 -0.13973534512E+02  0.51594077847E+02  0.51100000000E-03 0. -1.
         23    2    1    0    0    0  0.13291980137E+02  0.21454061458E+02 -0.16839026046E+02  0.94660153475E+02  0.89666261039E+02 0.  0.
         11    1    3    3    0    0  0.36701711688E+02 -0.22348605933E+02 -0.28654915337E+01  0.43066075627E+02  0.51100000000E-03 0.  1.
         22    1    1    0    0    0 -0.13291980137E+02 -0.21454061458E+02  0.16839026046E+02  0.30339846525E+02  0.00000000000E+00 0. -1.
</event>
<event>
 5    1  0.8900327E-005  0.9118800E+02  0.7818608E-02  0.1130116E+00
         25   -1    0    0    0    0  0.00000000000E+00  0.00000000000E+00  0.99999998245E-14  0.12500000000E+03  0.12500000000E+03 0.  0.
        -11    1    3    3    0    0  0.23664760180E+02  0.95523132697E+01  0.25158161366E+02  0.35835745378E+02  0.51100000000E-03 0. -1.
         23    2    1    0    0    0 -0.29015057711E+02 -0.73205201409E+01  0.52892016093E+01  0.94611856872E+02  0.89598907460E+02 0.  0.
         11    1    3    3    0    0 -0.52679817891E+02 -0.16872833411E+02 -0.19868959756E+02  0.58776111495E+02  0.51100000000E-03 0.  1.
         22    1    1    0    0    0  0.29015057711E+02  0.73205201409E+01 -0.52892016093E+01  0.30388143128E+02  0.00000000000E+00 0.  1.
</event>
<event>
 5    1  0.8900327E-005  0.9118800E+02  0.7818608E-02  0.1130116E+00
         25   -1    0    0    0    0  0.00000000000E+00  0.00000000000E+00  0.99999998245E-14  0.12500000000E+03  0.12500000000E+03 0.  0.
        -11    1    3    3    0    0 -0.30642235796E+02 -0.20964397304E+02  0.35716121030E+02  0.51517898546E+02  0.51100000000E-03 0.  1.
         23    2    1    0    0    0 -0.30482400837E+02 -0.26111644737E+01 -0.28949636033E+01  0.94269302725E+02  0.89119726668E+02 0.  0.
         11    1    3    3    0    0  0.15983495884E+00  0.18353232830E+02 -0.38611084633E+02  0.42751404180E+02  0.51100000000E-03 0. -1.
         22    1    1    0    0    0  0.30482400837E+02  0.26111644737E+01  0.28949636033E+01  0.30730697275E+02  0.00000000000E+00 0.  1.
</event>
<event>
 5    1  0.8900327E-005  0.9118800E+02  0.7818608E-02  0.1130116E+00
         25   -1    0    0    0    0  0.00000000000E+00  0.00000000000E+00  0.99999998245E-14  0.12500000000E+03  0.12500000000E+03 0.  0.
        -11    1    3    3    0    0 -0.29116817741E+02 -0.82532308395E+00  0.20355393355E+02  0.35536070020E+02  0.51100000000E-03 0.  1.
         23    2    1    0    0    0  0.23190495370E+02  0.19009897058E+02  0.15500593616E+00  0.95013348161E+02  0.90157290556E+02 0.  0.
         11    1    3    3    0    0  0.52307313111E+02  0.19835220142E+02 -0.20200387419E+02  0.59477278141E+02  0.51100000000E-03 0. -1.
         22    1    1    0    0    0 -0.23190495370E+02 -0.19009897058E+02 -0.15500593616E+00  0.29986651839E+02  0.00000000000E+00 0. -1.
</event>
<event>
 5    1  0.8900327E-005  0.9118800E+02  0.7818608E-02  0.1130116E+00
         25   -1    0    0    0    0  0.00000000000E+00  0.00000000000E+00  0.99999998245E-14  0.12500000000E+03  0.12500000000E+03 0.  0.
        -11    1    3    3    0    0 -0.82139459225E+01 -0.32526247028E+02 -0.15993654828E+02  0.37164803892E+02  0.51100000000E-03 0. -1.
         23    2    1    0    0    0 -0.15408978777E+02  0.24394919624E+02 -0.77094145593E+01  0.95133902108E+02  0.90324279831E+02 0.  0.
         11    1    3    3    0    0 -0.71950328550E+01  0.56921166652E+02  0.82842402682E+01  0.57969098216E+02  0.51100000000E-03 0.  1.
         22    1    1    0    0    0  0.15408978777E+02 -0.24394919624E+02  0.77094145593E+01  0.29866097892E+02  0.00000000000E+00 0.  1.
</event>
<event>
 5    1  0.8900327E-005  0.9118800E+02  0.7818608E-02  0.1130116E+00
         25   -1    0    0    0    0  0.00000000000E+00  0.00000000000E+00  0.99999998245E-14  0.12500000000E+03  0.12500000000E+03 0.  0.
        -11    1    3    3    0    0  0.28134295262E+02 -0.18219725060E+02  0.13409836231E+02  0.36101532642E+02  0.51100000000E-03 0. -1.
         23    2    1    0    0    0  0.75776486303E+01  0.29085411900E+02 -0.10777577478E+02  0.93069792978E+02  0.87421097251E+02 0.  0.
         11    1    3    3    0    0 -0.20556646631E+02  0.47305136960E+02 -0.24187413709E+02  0.56968260336E+02  0.51100000000E-03 0.  1.
         22    1    1    0    0    0 -0.75776486303E+01 -0.29085411900E+02  0.10777577478E+02  0.31930207022E+02  0.00000000000E+00 0.  1.
</event>
<event>
 5    1  0.8900327E-005  0.9118800E+02  0.7818608E-02  0.1130116E+00
         25   -1    0    0    0    0  0.00000000000E+00  0.00000000000E+00  0.99999998245E-14  0.12500000000E+03  0.12500000000E+03 0.  0.
        -11    1    3    3    0    0  0.30285946599E+02 -0.45090752710E+02  0.20092451550E+02  0.57914774893E+02  0.51100000000E-03 0.  1.
         23    2    1    0    0    0  0.26752593076E+02 -0.97277912703E+01  0.88390605874E+01  0.95192951314E+02  0.90405961244E+02 0.  0.
         11    1    3    3    0    0 -0.35333535225E+01  0.35362961439E+02 -0.11253390963E+02  0.37278176421E+02  0.51100000000E-03 0. -1.
         22    1    1    0    0    0 -0.26752593076E+02  0.97277912703E+01 -0.88390605874E+01  0.29807048686E+02  0.00000000000E+00 0.  1.
</event>
<event>
 5    1  0.8900327E-005  0.9118800E+02  0.7818608E-02  0.1130116E+00
         25   -1    0    0    0    0  0.00000000000E+00  0.00000000000E+00  0.99999998245E-14  0.12500000000E+03  0.12500000000E+03 0.  0.
        -11    1    3    3    0    0 -0.93753294140E+01  0.28696407922E+02  0.44210113421E+02  0.53534239120E+02  0.51100000000E-03 0.  1.
         23    2    1    0    0    0 -0.26036984587E+02  0.90509086594E+01  0.11594251949E+02  0.95095649277E+02  0.90271326118E+02 0.  0.
         11    1    3    3    0    0 -0.16661655173E+02 -0.19645499263E+02 -0.32615861472E+02  0.41561410156E+02  0.51100000000E-03 0. -1.
         22    1    1    0    0    0  0.26036984587E+02 -0.90509086594E+01 -0.11594251949E+02  0.29904350723E+02  0.00000000000E+00 0.  1.
</event>
<event>
 5    1  0.8900327E-005  0.9118800E+02  0.7818608E-02  0.1130116E+00
         25   -1    0    0    0    0  0.00000000000E+00  0.00000000000E+00  0.99999998245E-14  0.12500000000E+03  0.12500000000E+03 0.  0.
        -11    1    3    3    0    0  0.13004674368E+02 -0.44046144998E+02  0.19763484985E+02  0.49997797788E+02  0.51100000000E-03 0.  1.
         23    2    1    0    0    0  0.43801643093E+01 -0.20679570577E+02 -0.19332858281E+02  0.96354059835E+02  0.91997363869E+02 0.  0.
         11    1    3    3    0    0 -0.86245100584E+01  0.23366574422E+02 -0.39096343266E+02  0.46356262047E+02  0.51100000000E-03 0. -1.
         22    1    1    0    0    0 -0.43801643093E+01  0.20679570577E+02  0.19332858281E+02  0.28645940165E+02  0.00000000000E+00 0.  1.
</event>
<event>
 5    1  0.8900327E-005  0.9118800E+02  0.7818608E-02  0.1130116E+00
         25   -1    0    0    0    0  0.00000000000E+00  0.00000000000E+00  0.99999998245E-14  0.12500000000E+03  0.12500000000E+03 0.  0.
        -11    1    3    3    0    0 -0.25133388153E+02 -0.57545064571E+01  0.31212470868E+02  0.40484810516E+02  0.51100000000E-03 0.  1.
         23    2    1    0    0    0 -0.23753443956E+01  0.29991759229E+02 -0.27469276789E+01  0.94789182495E+02  0.89845954966E+02 0.  0.
         11    1    3    3    0    0  0.22758043757E+02  0.35746265686E+02 -0.33959398547E+02  0.54304371979E+02  0.51100000000E-03 0. -1.
         22    1    1    0    0    0  0.23753443956E+01 -0.29991759229E+02  0.27469276789E+01  0.30210817505E+02  0.00000000000E+00 0.  1.
</event>
<event>
 5    1  0.8900327E-005  0.9118800E+02  0.7818608E-02  0.1130116E+00
         25   -1    0    0    0    0  0.00000000000E+00  0.00000000000E+00  0.99999998245E-14  0.12500000000E+03  0.12500000000E+03 0.  0.
        -11    1    3    3    0    0  0.29151480606E+02 -0.79815498239E+01 -0.17262371612E+02  0.34806657884E+02  0.51100000000E-03 0.  1.
         23    2    1    0    0    0 -0.85369863217E+01  0.16253114699E+02  0.23361233784E+02  0.95288199032E+02  0.90537559929E+02 0.  0.
         11    1    3    3    0    0 -0.37688466928E+02  0.24234664522E+02  0.40623605397E+02  0.60481541147E+02  0.51100000000E-03 0. -1.
         22    1    1    0    0    0  0.85369863217E+01 -0.16253114699E+02 -0.23361233784E+02  0.29711800968E+02  0.00000000000E+00 0. -1.
</event>
<event>
 5    1  0.8900327E-005  0.9118800E+02  0.7818608E-02  0.1130116E+00
         25   -1    0    0    0    0  0.00000000000E+00  0.00000000000E+00  0.99999998245E-14  0.12500000000E+03  0.12500000000E+03 0.  0.
        -11    1    3    3    0    0 -0.26465721077E+02 -0.44080954135E+02 -0.20178905041E+02  0.55233623080E+02  0.51100000000E-03 0.  1.
         23    2    1    0    0    0  0.70938424095E+01 -0.28557723628E+02 -0.52489827540E+01  0.95109901324E+02  0.90291058975E+02 0.  0.
         11    1    3    3    0    0  0.33559563487E+02  0.15523230507E+02  0.14929922287E+02  0.39876278244E+02  0.51100000000E-03 0. -1.
         22    1    1    0    0    0 -0.70938424095E+01  0.28557723628E+02  0.52489827540E+01  0.29890098676E+02  0.00000000000E+00 0.  1.
</event>
<event>
 5    1  0.8900327E-005  0.9118800E+02  0.7818608E-02  0.1130116E+00
         25   -1    0    0    0    0  0.00000000000E+00  0.00000000000E+00  0.99999998245E-14  0.12500000000E+03  0.12500000000E+03 0.  0.
        -11    1    3    3    0    0 -0.33527229969E+02 -0.16462042006E+02  0.78447716787E+01  0.38165618289E+02  0.51100000000E-03 0.  1.
         23    2    1    0    0    0  0.11031151005E+02 -0.58297055876E+01 -0.26692357987E+02  0.95535551343E+02  0.90878423379E+02 0.  0.
         11    1    3    3    0    0  0.44558380975E+02  0.10632336419E+02 -0.34537129666E+02  0.57369933054E+02  0.51100000000E-03 0. -1.
         22    1    1    0    0    0 -0.11031151005E+02  0.58297055876E+01  0.26692357987E+02  0.29464448657E+02  0.00000000000E+00 0. -1.
</event>
<event>
 5    1  0.8900327E-005  0.9118800E+02  0.7818608E-02  0.1130116E+00
         25   -1    0    0    0    0  0.00000000000E+00  0.00000000000E+00  0.99999998245E-14  0.12500000000E+03  0.12500000000E+03 0.  0.
        -11    1    3    3    0    0  0.54412876940E+02  0.42986697636E+01 -0.23299227096E+02  0.59347230114E+02  0.51100000000E-03 0. -1.
         23    2    1    0    0    0  0.21860875084E+02  0.77377570006E+01 -0.23365042929E+02  0.92080462124E+02  0.85994857585E+02 0.  0.
         11    1    3    3    0    0 -0.32552001856E+02  0.34390872370E+01 -0.65815833262E-01  0.32733232011E+02  0.51100000000E-03 0.  1.
         22    1    1    0    0    0 -0.21860875084E+02 -0.77377570006E+01  0.23365042929E+02  0.32919537876E+02  0.00000000000E+00 0. -1.
</event>
<event>
 5    1  0.8900327E-005  0.9118800E+02  0.7818608E-02  0.1130116E+00
         25   -1    0    0    0    0  0.00000000000E+00  0.00000000000E+00  0.99999998245E-14  0.12500000000E+03  0.12500000000E+03 0.  0.
        -11    1    3    3    0    0  0.23026138338E+02  0.21266085289E+02 -0.24689804361E+02  0.39900324184E+02  0.51100000000E-03 0.  1.
         23    2    1    0    0    0 -0.53273625205E+01  0.10139416661E+02  0.24612808714E+02  0.97852644430E+02  0.94011494550E+02 0.  0.
         11    1    3    3    0    0 -0.28353500859E+02 -0.11126668628E+02  0.49302613075E+02  0.57952320247E+02  0.51100000000E-03 0. -1.
         22    1    1    0    0    0  0.53273625205E+01 -0.10139416661E+02 -0.24612808714E+02  0.27147355570E+02  0.00000000000E+00 0. -1.
</event>
<event>
 5    1  0.8900327E-005  0.9118800E+02  0.7818608E-02  0.1130116E+00
         25   -1    0    0    0    0  0.00000000000E+00  0.00000000000E+00  0.99999998245E-14  0.12500000000E+03  0.12500000000E+03 0.  0.
        -11    1    3    3    0    0 -0.27677359557E+02 -0.94633852102E+00 -0.21779356484E+02  0.35231692519E+02  0.51100000000E-03 0. -1.
         23    2    1    0    0    0  0.27648755029E+02  0.60476550108E+01  0.35404188300E+01  0.96476985586E+02  0.92164235994E+02 0.  0.
         11    1    3    3    0    0  0.55326114586E+02  0.69939935318E+01  0.25319775314E+02  0.61245293067E+02  0.51100000000E-03 0.  1.
         22    1    1    0    0    0 -0.27648755029E+02 -0.60476550108E+01 -0.35404188300E+01  0.28523014414E+02  0.00000000000E+00 0.  1.
</event>
<event>
 5    1  0.8900327E-005  0.9118800E+02  0.7818608E-02  0.1130116E+00
         25   -1    0    0    0    0  0.00000000000E+00  0.00000000000E+00  0.99999998245E-14  0.12500000000E+03  0.12500000000E+03 0.  0.
        -11    1    3    3    0    0 -0.47430962957E+02  0.23146320287E+02 -0.31057712229E+02  0.61237487530E+02  0.51100000000E-03 0. -1.
         23    2    1    0    0    0 -0.17693610012E+02  0.70516232093E+01 -0.21289735894E+02  0.96433549755E+02  0.92105306247E+02 0.  0.
         11    1    3    3    0    0  0.29737352945E+02 -0.16094697078E+02  0.97679763357E+01  0.35196062225E+02  0.51100000000E-03 0.  1.
         22    1    1    0    0    0  0.17693610012E+02 -0.70516232093E+01  0.21289735894E+02  0.28566450245E+02  0.00000000000E+00 0. -1.
</event>
<event>
 5    1  0.8900327E-005  0.9118800E+02  0.7818608E-02  0.1130116E+00
         25   -1    0    0    0    0  0.00000000000E+00  0.00000000000E+00  0.99999998245E-14  0.12500000000E+03  0.12500000000E+03 0.  0.
        -11    1    3    3    0    0  0.74523864790E+01  0.22859308382E+02 -0.55209982814E+02  0.60218172062E+02  0.51100000000E-03 0.  1.
         23    2    1    0    0    0 -0.37708907653E+00  0.20783381367E+02 -0.20706239317E+02  0.95659933812E+02  0.91049346253E+02 0.  0.
         11    1    3    3    0    0 -0.78294755555E+01 -0.20759270147E+01  0.34503743496E+02  0.35441761750E+02  0.51100000000E-03 0. -1.
         22    1    1    0    0    0  0.37708907653E+00 -0.20783381367E+02  0.20706239317E+02  0.29340066188E+02  0.00000000000E+00 0.  1.
</event>
<event>
 5    1  0.8900327E-005  0.9118800E+02  0.7818608E-02  0.1130116E+00
         25   -1    0    0    0    0  0.00000000000E+00  0.00000000000E+00  0.99999998245E-14  0.12500000000E+03  0.12500000000E+03 0.  0.
        -11    1    3    3    0    0 -0.39060477978E+02  0.93192041200E+01  0.76024864259E+01  0.40870115065E+02  0.51100000000E-03 0.  1.
         23    2    1    0    0    0  0.11148896049E+02  0.49816798206E+01  0.27389406729E+02  0.95011758673E+02  0.90155086757E+02 0.  0.
         11    1    3    3    0    0  0.50209374027E+02 -0.43375242993E+01  0.19786920303E+02  0.54141643608E+02  0.51100000000E-03 0. -1.
         22    1    1    0    0    0 -0.11148896049E+02 -0.49816798206E+01 -0.27389406729E+02  0.29988241327E+02  0.00000000000E+00 0. -1.
</event>
<event>
 5    1  0.8900327E-005  0.9118800E+02  0.7818608E-02  0.1130116E+00
         25   -1    0    0    0    0  0.00000000000E+00  0.00000000000E+00  0.99999998245E-14  0.12500000000E+03  0.12500000000E+03 0.  0.
        -11    1    3    3    0    0 -0.78753028692E+01  0.16892025258E+02 -0.29561892892E+02  0.34946622501E+02  0.51100000000E-03 0.  1.
         23    2    1    0    0    0  0.18403071279E+02 -0.22520514893E+01  0.22202462979E+02  0.96074334394E+02  0.91616502872E+02 0.  0.
         11    1    3    3    0    0  0.26278374148E+02 -0.19144076747E+02  0.51764355871E+02  0.61127711894E+02  0.51100000000E-03 0. -1.
         22    1    1    0    0    0 -0.18403071279E+02  0.22520514893E+01 -0.22202462979E+02  0.28925665606E+02  0.00000000000E+00 0. -1.
</event>
<event>
 5    1  0.8900327E-005  0.9118800E+02  0.7818608E-02  0.1130116E+00
         25   -1    0    0    0    0  0.00000000000E+00  0.00000000000E+00  0.99999998245E-14  0.12500000000E+03  0.12500000000E+03 0.  0.
        -11    1    3    3    0    0  0.12765389404E+02 -0.20719748673E+02 -0.34149514743E+02  0.41933906438E+02  0.51100000000E-03 0.  1.
         23    2    1    0    0    0 -0.25952068253E+02  0.22201593887E+01  0.84138225746E+00  0.98939553373E+02  0.95445735071E+02 0.  0.
         11    1    3    3    0    0 -0.38717457656E+02  0.22939908062E+02  0.34990897001E+02  0.57005646935E+02  0.51100000000E-03 0. -1.
         22    1    1    0    0    0  0.25952068253E+02 -0.22201593887E+01 -0.84138225746E+00  0.26060446627E+02  0.00000000000E+00 0. -1.
</event>
<event>
 5    1  0.8900327E-005  0.9118800E+02  0.7818608E-02  0.1130116E+00
         25   -1    0    0    0    0  0.00000000000E+00  0.00000000000E+00  0.99999998245E-14  0.12500000000E+03  0.12500000000E+03 0.  0.
        -11    1    3    3    0    0 -0.21702472868E+02 -0.39270673049E+02 -0.42477282732E+02  0.61785942081E+02  0.51100000000E-03 0.  1.
         23    2    1    0    0    0 -0.18166481312E+02 -0.19387633196E+02 -0.22655079191E+02  0.90083614486E+02  0.83041577667E+02 0.  0.
         11    1    3    3    0    0  0.35359915560E+01  0.19883039852E+02  0.19822203541E+02  0.28297672405E+02  0.51100000000E-03 0. -1.
         22    1    1    0    0    0  0.18166481312E+02  0.19387633196E+02  0.22655079191E+02  0.34916385514E+02  0.00000000000E+00 0.  1.
</event>
<event>
 5    1  0.8900327E-005  0.9118800E+02  0.7818608E-02  0.1130116E+00
         25   -1    0    0    0    0  0.00000000000E+00  0.00000000000E+00  0.99999998245E-14  0.12500000000E+03  0.12500000000E+03 0.  0.
        -11    1    3    3    0    0  0.25033861469E+02  0.11970569636E+02 -0.37148969774E+02  0.46368466795E+02  0.51100000000E-03 0. -1.
         23    2    1    0    0    0  0.18946520436E+01 -0.25293676773E+02 -0.15375103483E+02  0.95339359444E+02  0.90608166635E+02 0.  0.
         11    1    3    3    0    0 -0.23139209425E+02 -0.37264246410E+02  0.21773866291E+02  0.48970892649E+02  0.51100000000E-03 0.  1.
         22    1    1    0    0    0 -0.18946520436E+01  0.25293676773E+02  0.15375103483E+02  0.29660640556E+02  0.00000000000E+00 0. -1.
</event>
<event>
 5    1  0.8900327E-005  0.9118800E+02  0.7818608E-02  0.1130116E+00
         25   -1    0    0    0    0  0.00000000000E+00  0.00000000000E+00  0.99999998245E-14  0.12500000000E+03  0.12500000000E+03 0.  0.
        -11    1    3    3    0    0 -0.10106191051E+02 -0.10605156697E+02  0.35470578278E+02  0.38376638333E+02  0.51100000000E-03 0. -1.
         23    2    1    0    0    0 -0.19351567875E+02  0.17648477020E+02 -0.13401294268E+02  0.95579826506E+02  0.90939301881E+02 0.  0.
         11    1    3    3    0    0 -0.92453768241E+01  0.28253633717E+02 -0.48871872546E+02  0.57203188174E+02  0.51100000000E-03 0.  1.
         22    1    1    0    0    0  0.19351567875E+02 -0.17648477020E+02  0.13401294268E+02  0.29420173494E+02  0.00000000000E+00 0.  1.
</event>
<event>
 5    1  0.8900327E-005  0.9118800E+02  0.7818608E-02  0.1130116E+00
         25   -1    0    0    0    0  0.00000000000E+00  0.00000000000E+00  0.99999998245E-14  0.12500000000E+03  0.12500000000E+03 0.  0.
        -11    1    3    3    0    0 -0.65059874336E+01 -0.27357183947E+02  0.30987399724E+02  0.41844501765E+02  0.51100000000E-03 0.  1.
         23    2    1    0    0    0 -0.99763744875E+01 -0.13193135510E+02 -0.22381441385E+02  0.97169876196E+02  0.93099243010E+02 0.  0.
         11    1    3    3    0    0 -0.34703870539E+01  0.14164048438E+02 -0.53368841109E+02  0.55325374431E+02  0.51100000000E-03 0. -1.
         22    1    1    0    0    0  0.99763744875E+01  0.13193135510E+02  0.22381441385E+02  0.27830123804E+02  0.00000000000E+00 0. -1.
</event>
<event>
 5    1  0.8900327E-005  0.9118800E+02  0.7818608E-02  0.1130116E+00
         25   -1    0    0    0    0  0.00000000000E+00  0.00000000000E+00  0.99999998245E-14  0.12500000000E+03  0.12500000000E+03 0.  0.
        -11    1    3    3    0    0 -0.43303224555E+02 -0.17523974254E+02  0.33806652683E+02  0.57664102320E+02  0.51100000000E-03 0.  1.
         23    2    1    0    0    0 -0.68660775475E+01 -0.54477325321E+01  0.26953465041E+02  0.96657274508E+02  0.92408433743E+02 0.  0.
         11    1    3    3    0    0  0.36437147007E+02  0.12076241722E+02 -0.68531876418E+01  0.38993172188E+02  0.51100000000E-03 0. -1.
         22    1    1    0    0    0  0.68660775475E+01  0.54477325321E+01 -0.26953465041E+02  0.28342725492E+02  0.00000000000E+00 0.  1.
</event>
<event>
 5    1  0.8900327E-005  0.9118800E+02  0.7818608E-02  0.1130116E+00
         25   -1    0    0    0    0  0.00000000000E+00  0.00000000000E+00  0.99999998245E-14  0.12500000000E+03  0.12500000000E+03 0.  0.
        -11    1    3    3    0    0  0.46624626028E+02 -0.47894416394E+01  0.25458052459E+02  0.53337669041E+02  0.51100000000E-03 0.  1.
         23    2    1    0    0    0  0.40656599181E+01  0.29268848377E+01  0.27894653912E+02  0.96659076192E+02  0.92410870832E+02 0.  0.
         11    1    3    3    0    0 -0.42558966110E+02  0.77163264771E+01  0.24366014525E+01  0.43321407151E+02  0.51100000000E-03 0. -1.
         22    1    1    0    0    0 -0.40656599181E+01 -0.29268848377E+01 -0.27894653912E+02  0.28340923808E+02  0.00000000000E+00 0.  1.
</event>
<event>
 5    1  0.8900327E-005  0.9118800E+02  0.7818608E-02  0.1130116E+00
         25   -1    0    0    0    0  0.00000000000E+00  0.00000000000E+00  0.99999998245E-14  0.12500000000E+03  0.12500000000E+03 0.  0.
        -11    1    3    3    0    0  0.47754309800E+02  0.26684642427E+01  0.19784660319E+02  0.51759323702E+02  0.51100000000E-03 0. -1.
         23    2    1    0    0    0  0.42283862283E+01  0.80310498249E+01  0.27279565817E+02  0.96250187434E+02  0.91856120420E+02 0.  0.
         11    1    3    3    0    0 -0.43525923572E+02  0.53625855821E+01  0.74949054978E+01  0.44490863732E+02  0.51100000000E-03 0.  1.
         22    1    1    0    0    0 -0.42283862283E+01 -0.80310498249E+01 -0.27279565817E+02  0.28749812566E+02  0.00000000000E+00 0.  1.
</event>
<event>
 5    1  0.8900327E-005  0.9118800E+02  0.7818608E-02  0.1130116E+00
         25   -1    0    0    0    0  0.00000000000E+00  0.00000000000E+00  0.99999998245E-14  0.12500000000E+03  0.12500000000E+03 0.  0.
        -11    1    3    3    0    0  0.46504486115E+02  0.16420625784E+02  0.15417093945E+02  0.51671955313E+02  0.51100000000E-03 0. -1.
         23    2    1    0    0    0  0.21155180712E+02 -0.15296567106E+02  0.19407828378E+02  0.92470160798E+02  0.86559460485E+02 0.  0.
         11    1    3    3    0    0 -0.25349305403E+02 -0.31717192890E+02  0.39907344329E+01  0.40798205485E+02  0.51100000000E-03 0.  1.
         22    1    1    0    0    0 -0.21155180712E+02  0.15296567106E+02 -0.19407828378E+02  0.32529839202E+02  0.00000000000E+00 0. -1.
</event>
<event>
 5    1  0.8900327E-005  0.9118800E+02  0.7818608E-02  0.1130116E+00
         25   -1    0    0    0    0  0.00000000000E+00  0.00000000000E+00  0.99999998245E-14  0.12500000000E+03  0.12500000000E+03 0.  0.
        -11    1    3    3    0    0 -0.34836024798E+02  0.45938011974E+02 -0.54880670422E+01  0.57913456537E+02  0.51100000000E-03 0. -1.
         23    2    1    0    0    0 -0.19028882317E+02  0.45272242069E+02 -0.11012852797E+02  0.74671507166E+02  0.55162276889E+02 0.  0.
         11    1    3    3    0    0  0.15807142482E+02 -0.66576990528E+00 -0.55247857545E+01  0.16758050629E+02  0.51100000000E-03 0.  1.
         22    1    1    0    0    0  0.19028882317E+02 -0.45272242069E+02  0.11012852797E+02  0.50328492834E+02  0.00000000000E+00 0. -1.
</event>
<event>
 5    1  0.8900327E-005  0.9118800E+02  0.7818608E-02  0.1130116E+00
         25   -1    0    0    0    0  0.00000000000E+00  0.00000000000E+00  0.99999998245E-14  0.12500000000E+03  0.12500000000E+03 0.  0.
        -11    1    3    3    0    0 -0.25607656321E+02 -0.20674798705E+02  0.16878003911E+02  0.36987381362E+02  0.51100000000E-03 0.  1.
         23    2    1    0    0    0  0.24073597663E+02  0.10587896614E+02  0.12589412453E+02  0.95842925986E+02  0.91300227254E+02 0.  0.
         11    1    3    3    0    0  0.49681253983E+02  0.31262695319E+02 -0.42885914583E+01  0.58855544624E+02  0.51100000000E-03 0. -1.
         22    1    1    0    0    0 -0.24073597663E+02 -0.10587896614E+02 -0.12589412453E+02  0.29157074014E+02  0.00000000000E+00 0. -1.
</event>
<event>
 5    1  0.8900327E-005  0.9118800E+02  0.7818608E-02  0.1130116E+00
         25   -1    0    0    0    0  0.00000000000E+00  0.00000000000E+00  0.99999998245E-14  0.12500000000E+03  0.12500000000E+03 0.  0.
        -11    1    3    3    0    0 -0.30859324129E+02  0.41320753046E+02  0.23397041468E+02  0.56631475945E+02  0.51100000000E-03 0.  1.
         23    2    1    0    0    0 -0.26502798142E+02  0.46533761780E+01  0.60912837958E+01  0.97410944969E+02  0.93422354082E+02 0.  0.
         11    1    3    3    0    0  0.43565259873E+01 -0.36667376868E+02 -0.17305757672E+02  0.40779469024E+02  0.51100000000E-03 0. -1.
         22    1    1    0    0    0  0.26502798142E+02 -0.46533761780E+01 -0.60912837958E+01  0.27589055031E+02  0.00000000000E+00 0.  1.
</event>
<event>
 5    1  0.8900327E-005  0.9118800E+02  0.7818608E-02  0.1130116E+00
         25   -1    0    0    0    0  0.00000000000E+00  0.00000000000E+00  0.99999998245E-14  0.12500000000E+03  0.12500000000E+03 0.  0.
        -11    1    3    3    0    0 -0.23009258921E+02 -0.43901200928E+02 -0.27258181262E+02  0.56566331726E+02  0.51100000000E-03 0. -1.
         23    2    1    0    0    0 -0.11329817958E+02 -0.26443598661E+02  0.57228113360E+01  0.95667777877E+02  0.91060114590E+02 0.  0.
         11    1    3    3    0    0  0.11679440963E+02  0.17457602267E+02  0.32980992598E+02  0.39101446151E+02  0.51100000000E-03 0.  1.
         22    1    1    0    0    0  0.11329817958E+02  0.26443598661E+02 -0.57228113360E+01  0.29332222123E+02  0.00000000000E+00 0. -1.
</event>
<event>
 5    1  0.8900327E-005  0.9118800E+02  0.7818608E-02  0.1130116E+00
         25   -1    0    0    0    0  0.00000000000E+00  0.00000000000E+00  0.99999998245E-14  0.12500000000E+03  0.12500000000E+03 0.  0.
        -11    1    3    3    0    0 -0.31838332526E+02 -0.70425178994E+00 -0.37565529931E+02  0.49247786020E+02  0.51100000000E-03 0.  1.
         23    2    1    0    0    0 -0.22992805069E+02 -0.17656894198E+02  0.46940909748E+01  0.95632169168E+02  0.91011220693E+02 0.  0.
         11    1    3    3    0    0  0.88455274566E+01 -0.16952642408E+02  0.42259620906E+02  0.46384383148E+02  0.51100000000E-03 0. -1.
         22    1    1    0    0    0  0.22992805069E+02  0.17656894198E+02 -0.46940909748E+01  0.29367830832E+02  0.00000000000E+00 0.  1.
</event>
<event>
 5    1  0.8900327E-005  0.9118800E+02  0.7818608E-02  0.1130116E+00
         25   -1    0    0    0    0  0.00000000000E+00  0.00000000000E+00  0.99999998245E-14  0.12500000000E+03  0.12500000000E+03 0.  0.
        -11    1    3    3    0    0 -0.11951142548E+02  0.40655187694E+02  0.71663782092E+01  0.42977099385E+02  0.51100000000E-03 0.  1.
         23    2    1    0    0    0 -0.30834847017E+02 -0.48303770449E+01 -0.41618860093E+01  0.93512833915E+02  0.88052305357E+02 0.  0.
         11    1    3    3    0    0 -0.18883704468E+02 -0.45485564738E+02 -0.11328264219E+02  0.50535734530E+02  0.51100000000E-03 0. -1.
         22    1    1    0    0    0  0.30834847017E+02  0.48303770449E+01  0.41618860093E+01  0.31487166085E+02  0.00000000000E+00 0.  1.
</event>
<event>
 5    1  0.8900327E-005  0.9118800E+02  0.7818608E-02  0.1130116E+00
         25   -1    0    0    0    0  0.00000000000E+00  0.00000000000E+00  0.99999998245E-14  0.12500000000E+03  0.12500000000E+03 0.  0.
        -11    1    3    3    0    0  0.38357319743E+02  0.34148131573E+02  0.24780914412E+02  0.57021685236E+02  0.51100000000E-03 0.  1.
         23    2    1    0    0    0  0.30460398592E+02  0.24394154639E+01  0.13519114696E+02  0.91585136655E+02  0.85271825147E+02 0.  0.
         11    1    3    3    0    0 -0.78969211507E+01 -0.31708716109E+02 -0.11261799716E+02  0.34563451420E+02  0.51100000000E-03 0. -1.
         22    1    1    0    0    0 -0.30460398592E+02 -0.24394154639E+01 -0.13519114696E+02  0.33414863345E+02  0.00000000000E+00 0.  1.
</event>
<event>
 5    1  0.8900327E-005  0.9118800E+02  0.7818608E-02  0.1130116E+00
         25   -1    0    0    0    0  0.00000000000E+00  0.00000000000E+00  0.99999998245E-14  0.12500000000E+03  0.12500000000E+03 0.  0.
        -11    1    3    3    0    0 -0.10489911863E+02 -0.54583967740E+01 -0.59787057623E+02  0.60945259091E+02  0.51100000000E-03 0. -1.
         23    2    1    0    0    0 -0.81916686759E+01 -0.12095841462E+02 -0.28940891013E+02  0.92581055091E+02  0.86719454408E+02 0.  0.
         11    1    3    3    0    0  0.22982431869E+01 -0.66374446883E+01  0.30846166610E+02  0.31635796000E+02  0.51100000000E-03 0.  1.
         22    1    1    0    0    0  0.81916686759E+01  0.12095841462E+02  0.28940891013E+02  0.32418944909E+02  0.00000000000E+00 0. -1.
</event>
<event>
 5    1  0.8900327E-005  0.9118800E+02  0.7818608E-02  0.1130116E+00
         25   -1    0    0    0    0  0.00000000000E+00  0.00000000000E+00  0.99999998245E-14  0.12500000000E+03  0.12500000000E+03 0.  0.
        -11    1    3    3    0    0  0.28935737001E+02 -0.50403414084E+02 -0.17851318528E+02  0.60798442419E+02  0.51100000000E-03 0.  1.
         23    2    1    0    0    0  0.59345639587E+01 -0.30253262743E+02 -0.60122079875E+01  0.93589403048E+02  0.88160936712E+02 0.  0.
         11    1    3    3    0    0 -0.23001173042E+02  0.20150151341E+02  0.11839110541E+02  0.32790960629E+02  0.51100000000E-03 0. -1.
         22    1    1    0    0    0 -0.59345639587E+01  0.30253262743E+02  0.60122079875E+01  0.31410596952E+02  0.00000000000E+00 0.  1.
</event>
<event>
 5    1  0.8900327E-005  0.9118800E+02  0.7818608E-02  0.1130116E+00
         25   -1    0    0    0    0  0.00000000000E+00  0.00000000000E+00  0.99999998245E-14  0.12500000000E+03  0.12500000000E+03 0.  0.
        -11    1    3    3    0    0 -0.10836566673E+02 -0.38457878362E+02  0.12191868303E+02  0.41774169511E+02  0.51100000000E-03 0. -1.
         23    2    1    0    0    0 -0.34718361365E+02 -0.42433254029E+00 -0.51168788347E+01  0.89904029818E+02  0.82770812818E+02 0.  0.
         11    1    3    3    0    0 -0.23881794692E+02  0.38033545822E+02 -0.17308747138E+02  0.48129860307E+02  0.51100000000E-03 0.  1.
         22    1    1    0    0    0  0.34718361365E+02  0.42433254029E+00  0.51168788347E+01  0.35095970182E+02  0.00000000000E+00 0. -1.
</event>
<event>
 5    1  0.8900327E-005  0.9118800E+02  0.7818608E-02  0.1130116E+00
         25   -1    0    0    0    0  0.00000000000E+00  0.00000000000E+00  0.99999998245E-14  0.12500000000E+03  0.12500000000E+03 0.  0.
        -11    1    3    3    0    0 -0.45868291311E+02 -0.47287215354E+00 -0.11433406696E+02  0.47274163608E+02  0.51100000000E-03 0. -1.
         23    2    1    0    0    0 -0.15830964241E+02  0.14468521544E+02  0.21745290365E+02  0.94457976532E+02  0.89383970224E+02 0.  0.
         11    1    3    3    0    0  0.30037327070E+02  0.14941393697E+02  0.33178697061E+02  0.47183812924E+02  0.51100000000E-03 0.  1.
         22    1    1    0    0    0  0.15830964241E+02 -0.14468521544E+02 -0.21745290365E+02  0.30542023468E+02  0.00000000000E+00 0.  1.
</event>
<event>
 5    1  0.8900327E-005  0.9118800E+02  0.7818608E-02  0.1130116E+00
         25   -1    0    0    0    0  0.00000000000E+00  0.00000000000E+00  0.99999998245E-14  0.12500000000E+03  0.12500000000E+03 0.  0.
        -11    1    3    3    0    0 -0.41723378817E+02 -0.14177141339E+02 -0.26641940301E+02  0.51493928378E+02  0.51100000000E-03 0.  1.
         23    2    1    0    0    0 -0.26558221700E+02  0.96219881444E+01  0.74851918854E+01  0.95777578929E+02  0.91210716104E+02 0.  0.
         11    1    3    3    0    0  0.15165157118E+02  0.23799129483E+02  0.34127132187E+02  0.44283650551E+02  0.51100000000E-03 0. -1.
         22    1    1    0    0    0  0.26558221700E+02 -0.96219881444E+01 -0.74851918854E+01  0.29222421071E+02  0.00000000000E+00 0.  1.
</event>
<event>
 5    1  0.8900327E-005  0.9118800E+02  0.7818608E-02  0.1130116E+00
         25   -1    0    0    0    0  0.00000000000E+00  0.00000000000E+00  0.99999998245E-14  0.12500000000E+03  0.12500000000E+03 0.  0.
        -11    1    3    3    0    0 -0.35255865896E+01 -0.85724786396E+01 -0.37025573974E+02  0.38168184122E+02  0.51100000000E-03 0.  1.
         23    2    1    0    0    0  0.70089023030E+01  0.18755788805E+02  0.16415263993E+02  0.99108587965E+02  0.95666854194E+02 0.  0.
         11    1    3    3    0    0  0.10534488893E+02  0.27328267444E+02  0.53440837967E+02  0.60940403843E+02  0.51100000000E-03 0. -1.
         22    1    1    0    0    0 -0.70089023030E+01 -0.18755788805E+02 -0.16415263993E+02  0.25891412035E+02  0.00000000000E+00 0. -1.
</event>
<event>
 5    1  0.8900327E-005  0.9118800E+02  0.7818608E-02  0.1130116E+00
         25   -1    0    0    0    0  0.00000000000E+00  0.00000000000E+00  0.99999998245E-14  0.12500000000E+03  0.12500000000E+03 0.  0.
        -11    1    3    3    0    0 -0.27339206639E+01 -0.10642193658E+02  0.36437441808E+02  0.38058084212E+02  0.51100000000E-03 0.  1.
         23    2    1    0    0    0 -0.11881222049E+02  0.24263617775E+02 -0.94002671641E+01  0.96394902418E+02  0.92052841372E+02 0.  0.
         11    1    3    3    0    0 -0.91473013851E+01  0.34905811432E+02 -0.45837708973E+02  0.58336818207E+02  0.51100000000E-03 0. -1.
         22    1    1    0    0    0  0.11881222049E+02 -0.24263617775E+02  0.94002671641E+01  0.28605097582E+02  0.00000000000E+00 0. -1.
</event>
<event>
 5    1  0.8900327E-005  0.9118800E+02  0.7818608E-02  0.1130116E+00
         25   -1    0    0    0    0  0.00000000000E+00  0.00000000000E+00  0.99999998245E-14  0.12500000000E+03  0.12500000000E+03 0.  0.
        -11    1    3    3    0    0  0.17939641075E+02  0.15653406149E+02 -0.32922934613E+02  0.40629785500E+02  0.51100000000E-03 0. -1.
         23    2    1    0    0    0  0.10206974595E+02  0.13947130644E+02  0.22507129836E+02  0.96622620328E+02  0.92361545472E+02 0.  0.
         11    1    3    3    0    0 -0.77326664801E+01 -0.17062755050E+01  0.55430064449E+02  0.55992834828E+02  0.51100000000E-03 0.  1.
         22    1    1    0    0    0 -0.10206974595E+02 -0.13947130644E+02 -0.22507129836E+02  0.28377379672E+02  0.00000000000E+00 0.  1.
</event>
<event>
 5    1  0.8900327E-005  0.9118800E+02  0.7818608E-02  0.1130116E+00
         25   -1    0    0    0    0  0.00000000000E+00  0.00000000000E+00  0.99999998245E-14  0.12500000000E+03  0.12500000000E+03 0.  0.
        -11    1    3    3    0    0 -0.13919153899E+02 -0.62743755495E+01  0.44165264045E+02  0.46729874622E+02  0.51100000000E-03 0.  1.
         23    2    1    0    0    0  0.23987810232E+02 -0.99067710680E+01  0.12812517776E+02  0.96056611041E+02  0.91592318238E+02 0.  0.
         11    1    3    3    0    0  0.37906964131E+02 -0.36323955185E+01 -0.31352746269E+02  0.49326736418E+02  0.51100000000E-03 0. -1.
         22    1    1    0    0    0 -0.23987810232E+02  0.99067710680E+01 -0.12812517776E+02  0.28943388959E+02  0.00000000000E+00 0. -1.
</event>
<event>
 5    1  0.8900327E-005  0.9118800E+02  0.7818608E-02  0.1130116E+00
         25   -1    0    0    0    0  0.00000000000E+00  0.00000000000E+00  0.99999998245E-14  0.12500000000E+03  0.12500000000E+03 0.  0.
        -11    1    3    3    0    0 -0.75469176401E+01 -0.29965991638E+02  0.24960448979E+02  0.39723300898E+02  0.51100000000E-03 0.  1.
         23    2    1    0    0    0 -0.57003566443E+01 -0.65242863500E+01 -0.26939515878E+02  0.96701627362E+02  0.92468409960E+02 0.  0.
         11    1    3    3    0    0  0.18465609958E+01  0.23441705288E+02 -0.51899964856E+02  0.56978326464E+02  0.51100000000E-03 0. -1.
         22    1    1    0    0    0  0.57003566443E+01  0.65242863500E+01  0.26939515878E+02  0.28298372638E+02  0.00000000000E+00 0. -1.
</event>
<event>
 5    1  0.8900327E-005  0.9118800E+02  0.7818608E-02  0.1130116E+00
         25   -1    0    0    0    0  0.00000000000E+00  0.00000000000E+00  0.99999998245E-14  0.12500000000E+03  0.12500000000E+03 0.  0.
        -11    1    3    3    0    0  0.55943929879E+02  0.57001862320E+01 -0.10888640492E+02  0.57278075259E+02  0.51100000000E-03 0.  1.
         23    2    1    0    0    0  0.19927544847E+02 -0.59799410871E+01 -0.19912075427E+02  0.96201432555E+02  0.91789749639E+02 0.  0.
         11    1    3    3    0    0 -0.36016385032E+02 -0.11680127319E+02 -0.90234349355E+01  0.38923357296E+02  0.51100000000E-03 0. -1.
         22    1    1    0    0    0 -0.19927544847E+02  0.59799410871E+01  0.19912075427E+02  0.28798567445E+02  0.00000000000E+00 0.  1.
</event>
<event>
 5    1  0.8900327E-005  0.9118800E+02  0.7818608E-02  0.1130116E+00
         25   -1    0    0    0    0  0.00000000000E+00  0.00000000000E+00  0.99999998245E-14  0.12500000000E+03  0.12500000000E+03 0.  0.
        -11    1    3    3    0    0 -0.19906719260E+02  0.27724534673E+02  0.51982211793E+02  0.62185831487E+02  0.51100000000E-03 0.  1.
         23    2    1    0    0    0 -0.16877060565E+02  0.22030442616E+02  0.35126693360E+02  0.80233269478E+02  0.66583161306E+02 0.  0.
         11    1    3    3    0    0  0.30296586949E+01 -0.56940920566E+01 -0.16855518433E+02  0.18047437991E+02  0.51100000000E-03 0. -1.
         22    1    1    0    0    0  0.16877060565E+02 -0.22030442616E+02 -0.35126693360E+02  0.44766730522E+02  0.00000000000E+00 0.  1.
</event>
<event>
 5    1  0.8900327E-005  0.9118800E+02  0.7818608E-02  0.1130116E+00
         25   -1    0    0    0    0  0.00000000000E+00  0.00000000000E+00  0.99999998245E-14  0.12500000000E+03  0.12500000000E+03 0.  0.
        -11    1    3    3    0    0 -0.39150745668E+02 -0.18942136937E+02  0.28448053445E+02  0.51969964241E+02  0.51100000000E-03 0.  1.
         23    2    1    0    0    0  0.33230817005E+01 -0.22439698381E+02  0.18487808687E+02  0.95735994713E+02  0.91153709075E+02 0.  0.
         11    1    3    3    0    0  0.42473827369E+02 -0.34975614438E+01 -0.99602447579E+01  0.43766030472E+02  0.51100000000E-03 0. -1.
         22    1    1    0    0    0 -0.33230817005E+01  0.22439698381E+02 -0.18487808687E+02  0.29264005287E+02  0.00000000000E+00 0.  1.
</event>
<event>
 5    1  0.8900327E-005  0.9118800E+02  0.7818608E-02  0.1130116E+00
         25   -1    0    0    0    0  0.00000000000E+00  0.00000000000E+00  0.99999998245E-14  0.12500000000E+03  0.12500000000E+03 0.  0.
        -11    1    3    3    0    0 -0.88567448733E+01  0.14908969659E+02 -0.35952448966E+02  0.39916135747E+02  0.51100000000E-03 0.  1.
         23    2    1    0    0    0  0.17511950108E+02 -0.22977552532E+02 -0.45272070924E+01  0.95757361251E+02  0.91183004517E+02 0.  0.
         11    1    3    3    0    0  0.26368694981E+02 -0.37886522192E+02  0.31425241873E+02  0.55841225504E+02  0.51100000000E-03 0. -1.
         22    1    1    0    0    0 -0.17511950108E+02  0.22977552532E+02  0.45272070924E+01  0.29242638749E+02  0.00000000000E+00 0. -1.
</event>
<event>
 5    1  0.8900327E-005  0.9118800E+02  0.7818608E-02  0.1130116E+00
         25   -1    0    0    0    0  0.00000000000E+00  0.00000000000E+00  0.99999998245E-14  0.12500000000E+03  0.12500000000E+03 0.  0.
        -11    1    3    3    0    0 -0.40951172824E+01  0.22250676976E+02  0.19731121543E+02  0.30019656378E+02  0.51100000000E-03 0. -1.
         23    2    1    0    0    0  0.39787365946E+02  0.32703166272E+01  0.24646893352E+02  0.78083064767E+02  0.62416073185E+02 0.  0.
         11    1    3    3    0    0  0.43882483228E+02 -0.18980360349E+02  0.49157718092E+01  0.48063408389E+02  0.51100000000E-03 0.  1.
         22    1    1    0    0    0 -0.39787365946E+02 -0.32703166272E+01 -0.24646893352E+02  0.46916935233E+02  0.00000000000E+00 0.  1.
</event>
<event>
 5    1  0.8900327E-005  0.9118800E+02  0.7818608E-02  0.1130116E+00
         25   -1    0    0    0    0  0.00000000000E+00  0.00000000000E+00  0.99999998245E-14  0.12500000000E+03  0.12500000000E+03 0.  0.
        -11    1    3    3    0    0  0.92195038505E+01  0.18664144138E+02 -0.33639340971E+02  0.39559509463E+02  0.51100000000E-03 0.  1.
         23    2    1    0    0    0  0.23338133026E+02 -0.31219972213E+01  0.16655047375E+02  0.96158954200E+02  0.91731884042E+02 0.  0.
         11    1    3    3    0    0  0.14118629175E+02 -0.21786141360E+02  0.50294388347E+02  0.56599444737E+02  0.51100000000E-03 0. -1.
         22    1    1    0    0    0 -0.23338133026E+02  0.31219972213E+01 -0.16655047375E+02  0.28841045800E+02  0.00000000000E+00 0.  1.
</event>
<event>
 5    1  0.8900327E-005  0.9118800E+02  0.7818608E-02  0.1130116E+00
         25   -1    0    0    0    0  0.00000000000E+00  0.00000000000E+00  0.99999998245E-14  0.12500000000E+03  0.12500000000E+03 0.  0.
        -11    1    3    3    0    0 -0.14133764938E+02  0.56991106935E+02 -0.66599599718E+01  0.59094032255E+02  0.51100000000E-03 0.  1.
         23    2    1    0    0    0  0.32857900614E+00  0.27165102143E+02 -0.15921780287E+02  0.93511052318E+02  0.88049776146E+02 0.  0.
         11    1    3    3    0    0  0.14462343944E+02 -0.29826004792E+02 -0.92618203156E+01  0.34417020063E+02  0.51100000000E-03 0. -1.
         22    1    1    0    0    0 -0.32857900614E+00 -0.27165102143E+02  0.15921780287E+02  0.31488947682E+02  0.00000000000E+00 0.  1.
</event>
<event>
 5    1  0.8900327E-005  0.9118800E+02  0.7818608E-02  0.1130116E+00
         25   -1    0    0    0    0  0.00000000000E+00  0.00000000000E+00  0.99999998245E-14  0.12500000000E+03  0.12500000000E+03 0.  0.
        -11    1    3    3    0    0 -0.50548456914E+02 -0.11492331805E+02  0.13755198162E+02  0.53632319206E+02  0.51100000000E-03 0.  1.
         23    2    1    0    0    0 -0.21223360207E+02  0.17542750090E+02  0.12074346355E+02  0.94933923782E+02  0.90047104038E+02 0.  0.
         11    1    3    3    0    0  0.29325096707E+02  0.29035081895E+02 -0.16808518072E+01  0.41301604576E+02  0.51100000000E-03 0. -1.
         22    1    1    0    0    0  0.21223360207E+02 -0.17542750090E+02 -0.12074346355E+02  0.30066076218E+02  0.00000000000E+00 0.  1.
</event>
<event>
 5    1  0.8900327E-005  0.9118800E+02  0.7818608E-02  0.1130116E+00
         25   -1    0    0    0    0  0.00000000000E+00  0.00000000000E+00  0.99999998245E-14  0.12500000000E+03  0.12500000000E+03 0.  0.
        -11    1    3    3    0    0  0.57463204050E+02 -0.98614759566E+01 -0.11003457531E+01  0.58313628671E+02  0.51100000000E-03 0.  1.
         23    2    1    0    0    0  0.26230099949E+02 -0.77516822979E+01 -0.16349429242E+02  0.93134492656E+02  0.87513559886E+02 0.  0.
         11    1    3    3    0    0 -0.31233104102E+02  0.21097936587E+01 -0.15249083489E+02  0.34820863984E+02  0.51100000000E-03 0. -1.
         22    1    1    0    0    0 -0.26230099949E+02  0.77516822979E+01  0.16349429242E+02  0.31865507344E+02  0.00000000000E+00 0.  1.
</event>
<event>
 5    1  0.8900327E-005  0.9118800E+02  0.7818608E-02  0.1130116E+00
         25   -1    0    0    0    0  0.00000000000E+00  0.00000000000E+00  0.99999998245E-14  0.12500000000E+03  0.12500000000E+03 0.  0.
        -11    1    3    3    0    0  0.35084269915E+02  0.21417177432E+02 -0.28086725890E+02  0.49784190825E+02  0.51100000000E-03 0.  1.
         23    2    1    0    0    0  0.21362801824E+02 -0.17881346641E+02 -0.79199889749E+01  0.96037298385E+02  0.91565957628E+02 0.  0.
         11    1    3    3    0    0 -0.13721468091E+02 -0.39298524073E+02  0.20166736915E+02  0.46253107560E+02  0.51100000000E-03 0. -1.
         22    1    1    0    0    0 -0.21362801824E+02  0.17881346641E+02  0.79199889749E+01  0.28962701615E+02  0.00000000000E+00 0. -1.
</event>
<event>
 5    1  0.8900327E-005  0.9118800E+02  0.7818608E-02  0.1130116E+00
         25   -1    0    0    0    0  0.00000000000E+00  0.00000000000E+00  0.99999998245E-14  0.12500000000E+03  0.12500000000E+03 0.  0.
        -11    1    3    3    0    0  0.24706449753E+02 -0.14764586575E+02 -0.28931404537E+02  0.40809653819E+02  0.51100000000E-03 0.  1.
         23    2    1    0    0    0 -0.12885283426E+02 -0.21234789577E+02  0.12556729039E+02  0.97168035256E+02  0.93096771233E+02 0.  0.
         11    1    3    3    0    0 -0.37591733179E+02 -0.64702030020E+01  0.41488133576E+02  0.56358381437E+02  0.51100000000E-03 0. -1.
         22    1    1    0    0    0  0.12885283426E+02  0.21234789577E+02 -0.12556729039E+02  0.27831964744E+02  0.00000000000E+00 0. -1.
</event>
<event>
 5    1  0.8900327E-005  0.9118800E+02  0.7818608E-02  0.1130116E+00
         25   -1    0    0    0    0  0.00000000000E+00  0.00000000000E+00  0.99999998245E-14  0.12500000000E+03  0.12500000000E+03 0.  0.
        -11    1    3    3    0    0 -0.34353189705E+02  0.95503127179E+01  0.37191619183E+02  0.51522486873E+02  0.51100000000E-03 0. -1.
         23    2    1    0    0    0  0.10504946152E+02  0.82030068350E+01  0.22688813977E+02  0.98686020930E+02  0.95113118089E+02 0.  0.
         11    1    3    3    0    0  0.44858135856E+02 -0.13473058829E+01 -0.14502805206E+02  0.47163534057E+02  0.51100000000E-03 0.  1.
         22    1    1    0    0    0 -0.10504946152E+02 -0.82030068350E+01 -0.22688813977E+02  0.26313979070E+02  0.00000000000E+00 0.  1.
</event>
<event>
 5    1  0.8900327E-005  0.9118800E+02  0.7818608E-02  0.1130116E+00
         25   -1    0    0    0    0  0.00000000000E+00  0.00000000000E+00  0.99999998245E-14  0.12500000000E+03  0.12500000000E+03 0.  0.
        -11    1    3    3    0    0  0.30028442038E+01 -0.37759590905E+02  0.21438119866E+02  0.43524668434E+02  0.51100000000E-03 0.  1.
         23    2    1    0    0    0  0.24401912681E+02 -0.75587939748E+00 -0.12001223837E+02  0.97796065179E+02  0.93936235260E+02 0.  0.
         11    1    3    3    0    0  0.21399068477E+02  0.37003711508E+02 -0.33439343703E+02  0.54271396745E+02  0.51100000000E-03 0. -1.
         22    1    1    0    0    0 -0.24401912681E+02  0.75587939748E+00  0.12001223837E+02  0.27203934821E+02  0.00000000000E+00 0. -1.
</event>
<event>
 5    1  0.8900327E-005  0.9118800E+02  0.7818608E-02  0.1130116E+00
         25   -1    0    0    0    0  0.00000000000E+00  0.00000000000E+00  0.99999998245E-14  0.12500000000E+03  0.12500000000E+03 0.  0.
        -11    1    3    3    0    0  0.36099112625E+02  0.19047002452E+02 -0.43921789593E+02  0.59958801156E+02  0.51100000000E-03 0.  1.
         23    2    1    0    0    0  0.59235133267E+01  0.11199494507E+02 -0.26383237617E+02  0.95732408461E+02  0.91148791079E+02 0.  0.
         11    1    3    3    0    0 -0.30175599298E+02 -0.78475079444E+01  0.17538551976E+02  0.35773607305E+02  0.51100000000E-03 0. -1.
         22    1    1    0    0    0 -0.59235133267E+01 -0.11199494507E+02  0.26383237617E+02  0.29267591539E+02  0.00000000000E+00 0.  1.
</event>
<event>
 5    1  0.8900327E-005  0.9118800E+02  0.7818608E-02  0.1130116E+00
         25   -1    0    0    0    0  0.00000000000E+00  0.00000000000E+00  0.99999998245E-14  0.12500000000E+03  0.12500000000E+03 0.  0.
        -11    1    3    3    0    0  0.38260166881E+02  0.30685400963E+02 -0.20681403631E+02  0.53227386358E+02  0.51100000000E-03 0.  1.
         23    2    1    0    0    0  0.35624949415E+01  0.29026252586E+02  0.34922783868E+01  0.95548162744E+02  0.90895768252E+02 0.  0.
         11    1    3    3    0    0 -0.34697671940E+02 -0.16591483774E+01  0.24173682018E+02  0.42320776386E+02  0.51100000000E-03 0. -1.
         22    1    1    0    0    0 -0.35624949415E+01 -0.29026252586E+02 -0.34922783868E+01  0.29451837256E+02  0.00000000000E+00 0.  1.
</event>
<event>
 5    1  0.8900327E-005  0.9118800E+02  0.7818608E-02  0.1130116E+00
         25   -1    0    0    0    0  0.00000000000E+00  0.00000000000E+00  0.99999998245E-14  0.12500000000E+03  0.12500000000E+03 0.  0.
        -11    1    3    3    0    0  0.85376475520E+01  0.37199970688E+02 -0.44477462865E+02  0.58608650796E+02  0.51100000000E-03 0. -1.
         23    2    1    0    0    0 -0.43406272261E+01  0.68142276143E+01 -0.28692799685E+02  0.95191419080E+02  0.90403842673E+02 0.  0.
         11    1    3    3    0    0 -0.12878274778E+02 -0.30385743074E+02  0.15784663180E+02  0.36582768285E+02  0.51100000000E-03 0.  1.
         22    1    1    0    0    0  0.43406272261E+01 -0.68142276143E+01  0.28692799685E+02  0.29808580920E+02  0.00000000000E+00 0. -1.
</event>
<event>
 5    1  0.8900327E-005  0.9118800E+02  0.7818608E-02  0.1130116E+00
         25   -1    0    0    0    0  0.00000000000E+00  0.00000000000E+00  0.99999998245E-14  0.12500000000E+03  0.12500000000E+03 0.  0.
        -11    1    3    3    0    0 -0.95841186392E+01 -0.18728003079E+02 -0.55609990829E+02  0.59456408482E+02  0.51100000000E-03 0.  1.
         23    2    1    0    0    0  0.93540599052E+01 -0.89480105513E+01 -0.26185410132E+02  0.95789710147E+02  0.91227339853E+02 0.  0.
         11    1    3    3    0    0  0.18938178544E+02  0.97799925272E+01  0.29424580696E+02  0.36333301664E+02  0.51100000000E-03 0. -1.
         22    1    1    0    0    0 -0.93540599052E+01  0.89480105513E+01  0.26185410132E+02  0.29210289853E+02  0.00000000000E+00 0.  1.
</event>
<event>
 5    1  0.8900327E-005  0.9118800E+02  0.7818608E-02  0.1130116E+00
         25   -1    0    0    0    0  0.00000000000E+00  0.00000000000E+00  0.99999998245E-14  0.12500000000E+03  0.12500000000E+03 0.  0.
        -11    1    3    3    0    0 -0.37592665895E+02  0.34877579271E+02  0.28493865607E+02  0.58664763209E+02  0.51100000000E-03 0. -1.
         23    2    1    0    0    0 -0.27450813169E+02  0.90742349662E+01  0.25315636988E+02  0.86571230048E+02  0.77574528758E+02 0.  0.
         11    1    3    3    0    0  0.10141852726E+02 -0.25803344305E+02 -0.31782286190E+01  0.27906466839E+02  0.51100000000E-03 0.  1.
         22    1    1    0    0    0  0.27450813169E+02 -0.90742349662E+01 -0.25315636988E+02  0.38428769952E+02  0.00000000000E+00 0. -1.
</event>
<event>
 5    1  0.8900327E-005  0.9118800E+02  0.7818608E-02  0.1130116E+00
         25   -1    0    0    0    0  0.00000000000E+00  0.00000000000E+00  0.99999998245E-14  0.12500000000E+03  0.12500000000E+03 0.  0.
        -11    1    3    3    0    0  0.53716977512E+02 -0.26963774052E+02 -0.50733137721E+00  0.60106706527E+02  0.51100000000E-03 0. -1.
         23    2    1    0    0    0  0.17814275967E+02  0.29346532112E+01 -0.18755353905E+01  0.10684846423E+03  0.10529537529E+03 0.  0.
         11    1    3    3    0    0 -0.35902701545E+02  0.29898427263E+02 -0.13682040132E+01  0.46741757706E+02  0.51100000000E-03 0.  1.
         22    1    1    0    0    0 -0.17814275967E+02 -0.29346532112E+01  0.18755353905E+01  0.18151535767E+02  0.00000000000E+00 0. -1.
</event>
<event>
 5    1  0.8900327E-005  0.9118800E+02  0.7818608E-02  0.1130116E+00
         25   -1    0    0    0    0  0.00000000000E+00  0.00000000000E+00  0.99999998245E-14  0.12500000000E+03  0.12500000000E+03 0.  0.
        -11    1    3    3    0    0  0.30907261481E+02  0.15411212863E+02  0.32314812723E+02  0.47297055043E+02  0.51100000000E-03 0.  1.
         23    2    1    0    0    0 -0.10197109618E+02  0.26221050595E+02  0.13956370070E+02  0.93594509964E+02  0.88168177315E+02 0.  0.
         11    1    3    3    0    0 -0.41104371099E+02  0.10809837732E+02 -0.18358442654E+02  0.46297454921E+02  0.51100000000E-03 0. -1.
         22    1    1    0    0    0  0.10197109618E+02 -0.26221050595E+02 -0.13956370070E+02  0.31405490036E+02  0.00000000000E+00 0. -1.
</event>
<event>
 5    1  0.8900327E-005  0.9118800E+02  0.7818608E-02  0.1130116E+00
         25   -1    0    0    0    0  0.00000000000E+00  0.00000000000E+00  0.99999998245E-14  0.12500000000E+03  0.12500000000E+03 0.  0.
        -11    1    3    3    0    0  0.28736677439E+02 -0.20887592971E+02  0.16062923228E+01  0.35562175772E+02  0.51100000000E-03 0.  1.
         23    2    1    0    0    0 -0.27648713836E+02 -0.68733298414E+00 -0.79695071190E+01  0.96217421118E+02  0.91811520407E+02 0.  0.
         11    1    3    3    0    0 -0.56385391275E+02  0.20200259987E+02 -0.95757994417E+01  0.60655245346E+02  0.51100000000E-03 0. -1.
         22    1    1    0    0    0  0.27648713836E+02  0.68733298414E+00  0.79695071190E+01  0.28782578882E+02  0.00000000000E+00 0. -1.
</event>
<event>
 5    1  0.8900327E-005  0.9118800E+02  0.7818608E-02  0.1130116E+00
         25   -1    0    0    0    0  0.00000000000E+00  0.00000000000E+00  0.99999998245E-14  0.12500000000E+03  0.12500000000E+03 0.  0.
        -11    1    3    3    0    0  0.23880717321E+02  0.18545027840E+02 -0.48848652698E+02  0.57449086921E+02  0.51100000000E-03 0.  1.
         23    2    1    0    0    0  0.20905906363E+02  0.19409922490E+02 -0.12626707195E+02  0.93803273465E+02  0.88463655624E+02 0.  0.
         11    1    3    3    0    0 -0.29748109584E+01  0.86489465013E+00  0.36221945503E+02  0.36354186544E+02  0.51100000000E-03 0. -1.
         22    1    1    0    0    0 -0.20905906363E+02 -0.19409922490E+02  0.12626707195E+02  0.31196726535E+02  0.00000000000E+00 0.  1.
</event>
<event>
 5    1  0.8900327E-005  0.9118800E+02  0.7818608E-02  0.1130116E+00
         25   -1    0    0    0    0  0.00000000000E+00  0.00000000000E+00  0.99999998245E-14  0.12500000000E+03  0.12500000000E+03 0.  0.
        -11    1    3    3    0    0  0.73599869053E+01 -0.72481167576E+01  0.27223931277E+02  0.29117813074E+02  0.51100000000E-03 0. -1.
         23    2    1    0    0    0 -0.15164285164E+02  0.26249993502E+02 -0.18005309976E+02  0.89740832529E+02  0.82523985193E+02 0.  0.
         11    1    3    3    0    0 -0.22524272070E+02  0.33498110260E+02 -0.45229241253E+02  0.60623019455E+02  0.51100000000E-03 0.  1.
         22    1    1    0    0    0  0.15164285164E+02 -0.26249993502E+02  0.18005309976E+02  0.35259167471E+02  0.00000000000E+00 0.  1.
</event>
<event>
 5    1  0.8900327E-005  0.9118800E+02  0.7818608E-02  0.1130116E+00
         25   -1    0    0    0    0  0.00000000000E+00  0.00000000000E+00  0.99999998245E-14  0.12500000000E+03  0.12500000000E+03 0.  0.
        -11    1    3    3    0    0  0.42383116713E+02 -0.45392380759E+02  0.52235076369E+01  0.62322402437E+02  0.51100000000E-03 0.  1.
         23    2    1    0    0    0  0.20858549944E+02 -0.22029108472E+02 -0.78331787834E+00  0.94652441404E+02  0.89655509317E+02 0.  0.
         11    1    3    3    0    0 -0.21524566769E+02  0.23363272287E+02 -0.60068255152E+01  0.32330038966E+02  0.51100000000E-03 0. -1.
         22    1    1    0    0    0 -0.20858549944E+02  0.22029108472E+02  0.78331787834E+00  0.30347558596E+02  0.00000000000E+00 0.  1.
</event>
<event>
 5    1  0.8900327E-005  0.9118800E+02  0.7818608E-02  0.1130116E+00
         25   -1    0    0    0    0  0.00000000000E+00  0.00000000000E+00  0.99999998245E-14  0.12500000000E+03  0.12500000000E+03 0.  0.
        -11    1    3    3    0    0 -0.10343836814E+02  0.60727917499E+02  0.46344711224E+00  0.61604299422E+02  0.51100000000E-03 0. -1.
         23    2    1    0    0    0  0.14781593503E+01  0.27570887651E+02  0.44586641669E+01  0.97031830824E+02  0.92913711076E+02 0.  0.
         11    1    3    3    0    0  0.11821996165E+02 -0.33157029848E+02  0.39952170547E+01  0.35427531402E+02  0.51100000000E-03 0.  1.
         22    1    1    0    0    0 -0.14781593503E+01 -0.27570887651E+02 -0.44586641669E+01  0.27968169176E+02  0.00000000000E+00 0. -1.
</event>
<event>
 5    1  0.8900327E-005  0.9118800E+02  0.7818608E-02  0.1130116E+00
         25   -1    0    0    0    0  0.00000000000E+00  0.00000000000E+00  0.99999998245E-14  0.12500000000E+03  0.12500000000E+03 0.  0.
        -11    1    3    3    0    0  0.35687750843E+02  0.30592988991E+02  0.10046368069E+02  0.48067411490E+02  0.51100000000E-03 0.  1.
         23    2    1    0    0    0  0.19834180436E+02  0.57585965789E+00 -0.22434094033E+02  0.95049792939E+02  0.90207805842E+02 0.  0.
         11    1    3    3    0    0 -0.15853570407E+02 -0.30017129333E+02 -0.32480462101E+02  0.46982381449E+02  0.51100000000E-03 0. -1.
         22    1    1    0    0    0 -0.19834180436E+02 -0.57585965789E+00  0.22434094033E+02  0.29950207061E+02  0.00000000000E+00 0.  1.
</event>
<event>
 5    1  0.8900327E-005  0.9118800E+02  0.7818608E-02  0.1130116E+00
         25   -1    0    0    0    0  0.00000000000E+00  0.00000000000E+00  0.99999998245E-14  0.12500000000E+03  0.12500000000E+03 0.  0.
        -11    1    3    3    0    0 -0.43615900382E+02 -0.25516264678E+02 -0.63729951037E+01  0.50931734666E+02  0.51100000000E-03 0.  1.
         23    2    1    0    0    0 -0.25265492850E+02  0.12470056566E+02  0.83498194840E+01  0.95613490763E+02  0.90985563090E+02 0.  0.
         11    1    3    3    0    0  0.18350407532E+02  0.37986321244E+02  0.14722814588E+02  0.44681756097E+02  0.51100000000E-03 0. -1.
         22    1    1    0    0    0  0.25265492850E+02 -0.12470056566E+02 -0.83498194840E+01  0.29386509237E+02  0.00000000000E+00 0.  1.
</event>
<event>
 5    1  0.8900327E-005  0.9118800E+02  0.7818608E-02  0.1130116E+00
         25   -1    0    0    0    0  0.00000000000E+00  0.00000000000E+00  0.99999998245E-14  0.12500000000E+03  0.12500000000E+03 0.  0.
        -11    1    3    3    0    0 -0.52331684955E+02 -0.27055906550E+00  0.16321242822E+02  0.54818440510E+02  0.51100000000E-03 0.  1.
         23    2    1    0    0    0 -0.24009746781E+02 -0.16293680679E+02 -0.73613157572E+01  0.95064386757E+02  0.90228026075E+02 0.  0.
         11    1    3    3    0    0  0.28321938175E+02 -0.16023121614E+02 -0.23682558579E+02  0.40245946247E+02  0.51100000000E-03 0. -1.
         22    1    1    0    0    0  0.24009746781E+02  0.16293680679E+02  0.73613157572E+01  0.29935613243E+02  0.00000000000E+00 0.  1.
</event>
<event>
 5    1  0.8900327E-005  0.9118800E+02  0.7818608E-02  0.1130116E+00
         25   -1    0    0    0    0  0.00000000000E+00  0.00000000000E+00  0.99999998245E-14  0.12500000000E+03  0.12500000000E+03 0.  0.
        -11    1    3    3    0    0 -0.49188944151E+02 -0.83499002247E+01 -0.83113499666E+01  0.50580150247E+02  0.51100000000E-03 0. -1.
         23    2    1    0    0    0 -0.15485304725E+02 -0.53001636722E+01  0.23057570968E+02  0.96723897434E+02  0.92498510034E+02 0.  0.
         11    1    3    3    0    0  0.33703639426E+02  0.30497365525E+01  0.31368920935E+02  0.46143747187E+02  0.51100000000E-03 0.  1.
         22    1    1    0    0    0  0.15485304725E+02  0.53001636722E+01 -0.23057570968E+02  0.28276102566E+02  0.00000000000E+00 0. -1.
</event>
<event>
 5    1  0.8900327E-005  0.9118800E+02  0.7818608E-02  0.1130116E+00
         25   -1    0    0    0    0  0.00000000000E+00  0.00000000000E+00  0.99999998245E-14  0.12500000000E+03  0.12500000000E+03 0.  0.
        -11    1    3    3    0    0  0.28949437515E+02  0.22317246978E+02 -0.49663689433E+02  0.61665318401E+02  0.51100000000E-03 0.  1.
         23    2    1    0    0    0  0.12993280364E+02  0.17179477646E+02 -0.20723145885E+02  0.95110059181E+02  0.90291277515E+02 0.  0.
         11    1    3    3    0    0 -0.15956157151E+02 -0.51377693319E+01  0.28940543548E+02  0.33444740781E+02  0.51100000000E-03 0. -1.
         22    1    1    0    0    0 -0.12993280364E+02 -0.17179477646E+02  0.20723145885E+02  0.29889940819E+02  0.00000000000E+00 0.  1.
</event>
<event>
 5    1  0.8900327E-005  0.9118800E+02  0.7818608E-02  0.1130116E+00
         25   -1    0    0    0    0  0.00000000000E+00  0.00000000000E+00  0.99999998245E-14  0.12500000000E+03  0.12500000000E+03 0.  0.
        -11    1    3    3    0    0 -0.44944667756E+02  0.79594878096E+01  0.23774645274E+02  0.51464651598E+02  0.51100000000E-03 0. -1.
         23    2    1    0    0    0 -0.23376524890E+02 -0.42172882029E+01 -0.14585173993E+02  0.97125733442E+02  0.93039955721E+02 0.  0.
         11    1    3    3    0    0  0.21568142866E+02 -0.12176776013E+02 -0.38359819267E+02  0.45661081845E+02  0.51100000000E-03 0.  1.
         22    1    1    0    0    0  0.23376524890E+02  0.42172882029E+01  0.14585173993E+02  0.27874266558E+02  0.00000000000E+00 0.  1.
</event>
<event>
 5    1  0.8900327E-005  0.9118800E+02  0.7818608E-02  0.1130116E+00
         25   -1    0    0    0    0  0.00000000000E+00  0.00000000000E+00  0.99999998245E-14  0.12500000000E+03  0.12500000000E+03 0.  0.
        -11    1    3    3    0    0 -0.37820453931E+02 -0.33188461237E+02 -0.29116151210E+02  0.58134421442E+02  0.51100000000E-03 0. -1.
         23    2    1    0    0    0 -0.24416551909E+02 -0.10990931384E+01 -0.18005766552E+02  0.94642403883E+02  0.89641513657E+02 0.  0.
         11    1    3    3    0    0  0.13403902022E+02  0.32089368099E+02  0.11110384658E+02  0.36507982441E+02  0.51100000000E-03 0.  1.
         22    1    1    0    0    0  0.24416551909E+02  0.10990931384E+01  0.18005766552E+02  0.30357596117E+02  0.00000000000E+00 0. -1.
</event>
<event>
 5    1  0.8900327E-005  0.9118800E+02  0.7818608E-02  0.1130116E+00
         25   -1    0    0    0    0  0.00000000000E+00  0.00000000000E+00  0.99999998245E-14  0.12500000000E+03  0.12500000000E+03 0.  0.
        -11    1    3    3    0    0  0.14843664855E+01  0.27930602400E+02 -0.17164126938E+02  0.32816598668E+02  0.51100000000E-03 0.  1.
         23    2    1    0    0    0  0.69640986399E+01 -0.25675834247E+02  0.13867689522E+02  0.94999000902E+02  0.90137396377E+02 0.  0.
         11    1    3    3    0    0  0.54797321543E+01 -0.53606436648E+02  0.31031816460E+02  0.62182402235E+02  0.51100000000E-03 0. -1.
         22    1    1    0    0    0 -0.69640986399E+01  0.25675834247E+02 -0.13867689522E+02  0.30000999098E+02  0.00000000000E+00 0. -1.
</event>
<event>
 5    1  0.8900327E-005  0.9118800E+02  0.7818608E-02  0.1130116E+00
         25   -1    0    0    0    0  0.00000000000E+00  0.00000000000E+00  0.99999998245E-14  0.12500000000E+03  0.12500000000E+03 0.  0.
        -11    1    3    3    0    0 -0.25007537709E+01  0.32037066267E+02 -0.12334371917E+02  0.34420402602E+02  0.51100000000E-03 0.  1.
         23    2    1    0    0    0  0.13198277815E+02 -0.15036476565E+02  0.22380573834E+02  0.94980335613E+02  0.90111508162E+02 0.  0.
         11    1    3    3    0    0  0.15699031586E+02 -0.47073542832E+02  0.34714945751E+02  0.60559933011E+02  0.51100000000E-03 0. -1.
         22    1    1    0    0    0 -0.13198277815E+02  0.15036476565E+02 -0.22380573834E+02  0.30019664387E+02  0.00000000000E+00 0. -1.
</event>
<event>
 5    1  0.8900327E-005  0.9118800E+02  0.7818608E-02  0.1130116E+00
         25   -1    0    0    0    0  0.00000000000E+00  0.00000000000E+00  0.99999998245E-14  0.12500000000E+03  0.12500000000E+03 0.  0.
        -11    1    3    3    0    0  0.31796542319E+02  0.16233468647E+02  0.47529889575E+02  0.59444394277E+02  0.51100000000E-03 0.  1.
         23    2    1    0    0    0  0.11556074037E+02  0.20307656155E+02  0.17862764718E+02  0.95588741798E+02  0.90951555509E+02 0.  0.
         11    1    3    3    0    0 -0.20240468282E+02  0.40741875085E+01 -0.29667124857E+02  0.36144347520E+02  0.51100000000E-03 0. -1.
         22    1    1    0    0    0 -0.11556074037E+02 -0.20307656155E+02 -0.17862764718E+02  0.29411258202E+02  0.00000000000E+00 0.  1.
</event>
<event>
 5    1  0.8900327E-005  0.9118800E+02  0.7818608E-02  0.1130116E+00
         25   -1    0    0    0    0  0.00000000000E+00  0.00000000000E+00  0.99999998245E-14  0.12500000000E+03  0.12500000000E+03 0.  0.
        -11    1    3    3    0    0  0.34023991207E+01  0.72232675077E+01  0.33482220538E+02  0.34421083738E+02  0.51100000000E-03 0.  1.
         23    2    1    0    0    0 -0.21332407726E+02 -0.98104876814E+01 -0.18937592422E+02  0.94834627556E+02  0.89909159094E+02 0.  0.
         11    1    3    3    0    0 -0.24734806847E+02 -0.17033755189E+02 -0.52419812960E+02  0.60413543818E+02  0.51100000000E-03 0. -1.
         22    1    1    0    0    0  0.21332407726E+02  0.98104876814E+01  0.18937592422E+02  0.30165372444E+02  0.00000000000E+00 0. -1.
</event>
<event>
 5    1  0.8900327E-005  0.9118800E+02  0.7818608E-02  0.1130116E+00
         25   -1    0    0    0    0  0.00000000000E+00  0.00000000000E+00  0.99999998245E-14  0.12500000000E+03  0.12500000000E+03 0.  0.
        -11    1    3    3    0    0 -0.34605064337E+02  0.96434295238E+01 -0.12527415246E+02  0.38045267035E+02  0.51100000000E-03 0. -1.
         23    2    1    0    0    0 -0.35387031693E+00 -0.26424419631E+02  0.14710769718E+02  0.94754637997E+02  0.89797881374E+02 0.  0.
         11    1    3    3    0    0  0.34251194020E+02 -0.36067849155E+02  0.27238184964E+02  0.56709370962E+02  0.51100000000E-03 0.  1.
         22    1    1    0    0    0  0.35387031693E+00  0.26424419631E+02 -0.14710769718E+02  0.30245362003E+02  0.00000000000E+00 0.  1.
</event>
<event>
 5    1  0.8900327E-005  0.9118800E+02  0.7818608E-02  0.1130116E+00
         25   -1    0    0    0    0  0.00000000000E+00  0.00000000000E+00  0.99999998245E-14  0.12500000000E+03  0.12500000000E+03 0.  0.
        -11    1    3    3    0    0 -0.16119640638E+02  0.31754196606E+02 -0.27216090395E+02  0.44820613483E+02  0.51100000000E-03 0.  1.
         23    2    1    0    0    0  0.23802495117E+02  0.29613957557E+01 -0.18268604002E+02  0.94849203480E+02  0.89929421603E+02 0.  0.
         11    1    3    3    0    0  0.39922135755E+02 -0.28792800850E+02  0.89474863931E+01  0.50028589997E+02  0.51100000000E-03 0. -1.
         22    1    1    0    0    0 -0.23802495117E+02 -0.29613957557E+01  0.18268604002E+02  0.30150796520E+02  0.00000000000E+00 0. -1.
</event>
<event>
 5    1  0.8900327E-005  0.9118800E+02  0.7818608E-02  0.1130116E+00
         25   -1    0    0    0    0  0.00000000000E+00  0.00000000000E+00  0.99999998245E-14  0.12500000000E+03  0.12500000000E+03 0.  0.
        -11    1    3    3    0    0  0.34807082171E+02 -0.44798134266E+02 -0.10592651681E+02  0.57711437973E+02  0.51100000000E-03 0.  1.
         23    2    1    0    0    0  0.35460500451E+02 -0.18396834788E+02 -0.46451329070E+01  0.84782244192E+02  0.74636191275E+02 0.  0.
         11    1    3    3    0    0  0.65341828064E+00  0.26401299478E+02  0.59475187735E+01  0.27070806220E+02  0.51100000000E-03 0. -1.
         22    1    1    0    0    0 -0.35460500451E+02  0.18396834788E+02  0.46451329070E+01  0.40217755808E+02  0.00000000000E+00 0.  1.
</event>
<event>
 5    1  0.8900327E-005  0.9118800E+02  0.7818608E-02  0.1130116E+00
         25   -1    0    0    0    0  0.00000000000E+00  0.00000000000E+00  0.99999998245E-14  0.12500000000E+03  0.12500000000E+03 0.  0.
        -11    1    3    3    0    0 -0.15733700627E+02 -0.34262028244E+02 -0.69175635169E+01  0.38331300527E+02  0.51100000000E-03 0.  1.
         23    2    1    0    0    0  0.26332653259E+02  0.72288836740E+01 -0.22026836177E+01  0.97604430980E+02  0.93680882495E+02 0.  0.
         11    1    3    3    0    0  0.42066353885E+02  0.41490911918E+02  0.47148798992E+01  0.59273130453E+02  0.51100000000E-03 0. -1.
         22    1    1    0    0    0 -0.26332653259E+02 -0.72288836740E+01  0.22026836177E+01  0.27395569020E+02  0.00000000000E+00 0. -1.
</event>
<event>
 5    1  0.8900327E-005  0.9118800E+02  0.7818608E-02  0.1130116E+00
         25   -1    0    0    0    0  0.00000000000E+00  0.00000000000E+00  0.99999998245E-14  0.12500000000E+03  0.12500000000E+03 0.  0.
        -11    1    3    3    0    0  0.14186236251E+02  0.34580912531E+02  0.34140619214E+02  0.50622827766E+02  0.51100000000E-03 0.  1.
         23    2    1    0    0    0  0.58114026427E+01  0.25150990975E+02 -0.10590801481E+02  0.97098211101E+02  0.93002971863E+02 0.  0.
         11    1    3    3    0    0 -0.83748336086E+01 -0.94299215551E+01 -0.44731420695E+02  0.46475383336E+02  0.51100000000E-03 0. -1.
         22    1    1    0    0    0 -0.58114026427E+01 -0.25150990975E+02  0.10590801481E+02  0.27901788899E+02  0.00000000000E+00 0.  1.
</event>
<event>
 5    1  0.8900327E-005  0.9118800E+02  0.7818608E-02  0.1130116E+00
         25   -1    0    0    0    0  0.00000000000E+00  0.00000000000E+00  0.99999998245E-14  0.12500000000E+03  0.12500000000E+03 0.  0.
        -11    1    3    3    0    0  0.34129712664E+02 -0.25010183187E+02  0.22608851071E+02  0.47974021059E+02  0.51100000000E-03 0. -1.
         23    2    1    0    0    0 -0.11200796128E+02 -0.10909413271E+02  0.25006632097E+02  0.95507547056E+02  0.90839896323E+02 0.  0.
         11    1    3    3    0    0 -0.45330508793E+02  0.14100769916E+02  0.23977810257E+01  0.47533525997E+02  0.51100000000E-03 0.  1.
         22    1    1    0    0    0  0.11200796128E+02  0.10909413271E+02 -0.25006632097E+02  0.29492452944E+02  0.00000000000E+00 0.  1.
</event>
<event>
 5    1  0.8900327E-005  0.9118800E+02  0.7818608E-02  0.1130116E+00
         25   -1    0    0    0    0  0.00000000000E+00  0.00000000000E+00  0.99999998245E-14  0.12500000000E+03  0.12500000000E+03 0.  0.
        -11    1    3    3    0    0  0.80567001157E+01  0.50262757670E+01  0.37906483650E+02  0.39077811707E+02  0.51100000000E-03 0. -1.
         23    2    1    0    0    0  0.28442071238E+02  0.10976055964E+00 -0.12695628471E+02  0.93852890247E+02  0.88533736856E+02 0.  0.
         11    1    3    3    0    0  0.20385371122E+02 -0.49165152074E+01 -0.50602112122E+02  0.54775078540E+02  0.51100000000E-03 0.  1.
         22    1    1    0    0    0 -0.28442071238E+02 -0.10976055964E+00  0.12695628471E+02  0.31147109753E+02  0.00000000000E+00 0.  1.
</event>
<event>
 5    1  0.8900327E-005  0.9118800E+02  0.7818608E-02  0.1130116E+00
         25   -1    0    0    0    0  0.00000000000E+00  0.00000000000E+00  0.99999998245E-14  0.12500000000E+03  0.12500000000E+03 0.  0.
        -11    1    3    3    0    0 -0.30766262877E+02  0.31566902054E+02  0.51852388869E+01  0.44383768873E+02  0.51100000000E-03 0.  1.
         23    2    1    0    0    0 -0.20969354811E+02 -0.16021323100E+02 -0.12120927423E+02  0.95960139176E+02  0.91460564147E+02 0.  0.
         11    1    3    3    0    0  0.97969080667E+01 -0.47588225155E+02 -0.17306166310E+02  0.51576370304E+02  0.51100000000E-03 0. -1.
         22    1    1    0    0    0  0.20969354811E+02  0.16021323100E+02  0.12120927423E+02  0.29039860824E+02  0.00000000000E+00 0. -1.
</event>
<event>
 5    1  0.8900327E-005  0.9118800E+02  0.7818608E-02  0.1130116E+00
         25   -1    0    0    0    0  0.00000000000E+00  0.00000000000E+00  0.99999998245E-14  0.12500000000E+03  0.12500000000E+03 0.  0.
        -11    1    3    3    0    0 -0.15834539795E+02  0.17930034694E+02  0.25967010356E+02  0.35305869509E+02  0.51100000000E-03 0.  1.
         23    2    1    0    0    0 -0.51459414262E+01 -0.11270249075E+02 -0.26189252255E+02  0.96028010751E+02  0.91553277865E+02 0.  0.
         11    1    3    3    0    0  0.10688598369E+02 -0.29200283769E+02 -0.52156262611E+02  0.60722141243E+02  0.51100000000E-03 0. -1.
         22    1    1    0    0    0  0.51459414262E+01  0.11270249075E+02  0.26189252255E+02  0.28971989249E+02  0.00000000000E+00 0. -1.
</event>
<event>
 5    1  0.8900327E-005  0.9118800E+02  0.7818608E-02  0.1130116E+00
         25   -1    0    0    0    0  0.00000000000E+00  0.00000000000E+00  0.99999998245E-14  0.12500000000E+03  0.12500000000E+03 0.  0.
        -11    1    3    3    0    0  0.47089828774E+02  0.30700893718E+01  0.40153528566E+02  0.61961143302E+02  0.51100000000E-03 0.  1.
         23    2    1    0    0    0  0.24170986573E+02  0.37339386231E+01  0.13706312073E+02  0.96963561564E+02  0.92821820662E+02 0.  0.
         11    1    3    3    0    0 -0.22918842201E+02  0.66384925129E+00 -0.26447216493E+02  0.35002418262E+02  0.51100000000E-03 0. -1.
         22    1    1    0    0    0 -0.24170986573E+02 -0.37339386231E+01 -0.13706312073E+02  0.28036438436E+02  0.00000000000E+00 0.  1.
</event>
<event>
 5    1  0.8900327E-005  0.9118800E+02  0.7818608E-02  0.1130116E+00
         25   -1    0    0    0    0  0.00000000000E+00  0.00000000000E+00  0.99999998245E-14  0.12500000000E+03  0.12500000000E+03 0.  0.
        -11    1    3    3    0    0 -0.42640985938E+02  0.37001479515E+02 -0.26527599567E+02  0.62378495550E+02  0.51100000000E-03 0. -1.
         23    2    1    0    0    0 -0.20778964178E+02  0.18541979426E+02 -0.10074116446E+02  0.95384832003E+02  0.90670877357E+02 0.  0.
         11    1    3    3    0    0  0.21862021760E+02 -0.18459500089E+02  0.16453483120E+02  0.33006336453E+02  0.51100000000E-03 0.  1.
         22    1    1    0    0    0  0.20778964178E+02 -0.18541979426E+02  0.10074116446E+02  0.29615167997E+02  0.00000000000E+00 0. -1.
</event>
<event>
 5    1  0.8900327E-005  0.9118800E+02  0.7818608E-02  0.1130116E+00
         25   -1    0    0    0    0  0.00000000000E+00  0.00000000000E+00  0.99999998245E-14  0.12500000000E+03  0.12500000000E+03 0.  0.
        -11    1    3    3    0    0 -0.17435583178E+02 -0.55729521425E+02 -0.10398043013E+02  0.59311874172E+02  0.51100000000E-03 0. -1.
         23    2    1    0    0    0 -0.14280980730E+02 -0.24256096312E+02  0.77830984906E+01  0.95795869453E+02  0.91235778964E+02 0.  0.
         11    1    3    3    0    0  0.31546024475E+01  0.31473425113E+02  0.18181141504E+02  0.36483995280E+02  0.51100000000E-03 0.  1.
         22    1    1    0    0    0  0.14280980730E+02  0.24256096312E+02 -0.77830984906E+01  0.29204130547E+02  0.00000000000E+00 0. -1.
</event>
<event>
 5    1  0.8900327E-005  0.9118800E+02  0.7818608E-02  0.1130116E+00
         25   -1    0    0    0    0  0.00000000000E+00  0.00000000000E+00  0.99999998245E-14  0.12500000000E+03  0.12500000000E+03 0.  0.
        -11    1    3    3    0    0  0.18627906674E+02  0.39892861075E+02  0.27977656504E+02  0.52165012562E+02  0.51100000000E-03 0.  1.
         23    2    1    0    0    0 -0.14323871627E+02  0.25876258718E+02  0.42545048205E+01  0.95119322717E+02  0.90304101121E+02 0.  0.
         11    1    3    3    0    0 -0.32951778301E+02 -0.14016602358E+02 -0.23723151684E+02  0.42954310155E+02  0.51100000000E-03 0. -1.
         22    1    1    0    0    0  0.14323871627E+02 -0.25876258718E+02 -0.42545048205E+01  0.29880677283E+02  0.00000000000E+00 0.  1.
</event>
<event>
 5    1  0.8900327E-005  0.9118800E+02  0.7818608E-02  0.1130116E+00
         25   -1    0    0    0    0  0.00000000000E+00  0.00000000000E+00  0.99999998245E-14  0.12500000000E+03  0.12500000000E+03 0.  0.
        -11    1    3    3    0    0  0.12865207546E+02  0.33292439682E+02  0.22646309966E+02  0.42270030288E+02  0.51100000000E-03 0.  1.
         23    2    1    0    0    0  0.17037782931E+02  0.80442202290E+01 -0.23404692490E+02  0.94953782986E+02  0.90074667618E+02 0.  0.
         11    1    3    3    0    0  0.41725753857E+01 -0.25248219453E+02 -0.46051002456E+02  0.52683752698E+02  0.51100000000E-03 0. -1.
         22    1    1    0    0    0 -0.17037782931E+02 -0.80442202290E+01  0.23404692490E+02  0.30046217014E+02  0.00000000000E+00 0.  1.
</event>
<event>
 5    1  0.8900327E-005  0.9118800E+02  0.7818608E-02  0.1130116E+00
         25   -1    0    0    0    0  0.00000000000E+00  0.00000000000E+00  0.99999998245E-14  0.12500000000E+03  0.12500000000E+03 0.  0.
        -11    1    3    3    0    0  0.29865581372E+02  0.12075852908E+00  0.18808709305E+02  0.35294972437E+02  0.51100000000E-03 0.  1.
         23    2    1    0    0    0 -0.17874148703E+02  0.25226374833E+02 -0.39371626832E+01  0.93833408446E+02  0.88506226400E+02 0.  0.
         11    1    3    3    0    0 -0.47739730075E+02  0.25105616304E+02 -0.22745871989E+02  0.58538436009E+02  0.51100000000E-03 0. -1.
         22    1    1    0    0    0  0.17874148703E+02 -0.25226374833E+02  0.39371626832E+01  0.31166591554E+02  0.00000000000E+00 0. -1.
</event>
<event>
 5    1  0.8900327E-005  0.9118800E+02  0.7818608E-02  0.1130116E+00
         25   -1    0    0    0    0  0.00000000000E+00  0.00000000000E+00  0.99999998245E-14  0.12500000000E+03  0.12500000000E+03 0.  0.
        -11    1    3    3    0    0  0.23923738425E+02 -0.57546421840E+01  0.11867077531E+01  0.24634720263E+02  0.51100000000E-03 0. -1.
         23    2    1    0    0    0 -0.37597710941E+02  0.49746983767E+00  0.70262809286E+01  0.86748150791E+02  0.77859088729E+02 0.  0.
         11    1    3    3    0    0 -0.61521449366E+02  0.62521120216E+01  0.58395731755E+01  0.62113430528E+02  0.51100000000E-03 0.  1.
         22    1    1    0    0    0  0.37597710941E+02 -0.49746983767E+00 -0.70262809286E+01  0.38251849209E+02  0.00000000000E+00 0.  1.
</event>
<event>
 5    1  0.8900327E-005  0.9118800E+02  0.7818608E-02  0.1130116E+00
         25   -1    0    0    0    0  0.00000000000E+00  0.00000000000E+00  0.99999998245E-14  0.12500000000E+03  0.12500000000E+03 0.  0.
        -11    1    3    3    0    0 -0.26509136085E+02 -0.20059667673E+02  0.29964043179E+02  0.44754535491E+02  0.51100000000E-03 0. -1.
         23    2    1    0    0    0 -0.89296827821E+01 -0.21266487225E+02 -0.17928897403E+02  0.95786166366E+02  0.91222484024E+02 0.  0.
         11    1    3    3    0    0  0.17579453303E+02 -0.12068195517E+01 -0.47892940583E+02  0.51031630875E+02  0.51100000000E-03 0.  1.
         22    1    1    0    0    0  0.89296827821E+01  0.21266487225E+02  0.17928897403E+02  0.29213833634E+02  0.00000000000E+00 0. -1.
</event>
<event>
 5    1  0.8900327E-005  0.9118800E+02  0.7818608E-02  0.1130116E+00
         25   -1    0    0    0    0  0.00000000000E+00  0.00000000000E+00  0.99999998245E-14  0.12500000000E+03  0.12500000000E+03 0.  0.
        -11    1    3    3    0    0  0.87339246186E+01 -0.32989134475E+02 -0.30526409956E+02  0.45786746311E+02  0.51100000000E-03 0.  1.
         23    2    1    0    0    0  0.21195803815E+02  0.11580631808E+02 -0.20907069833E+02  0.93055067672E+02  0.87400039576E+02 0.  0.
         11    1    3    3    0    0  0.12461879196E+02  0.44569766283E+02  0.96193401229E+01  0.47268321361E+02  0.51100000000E-03 0. -1.
         22    1    1    0    0    0 -0.21195803815E+02 -0.11580631808E+02  0.20907069833E+02  0.31944932328E+02  0.00000000000E+00 0. -1.
</event>
<event>
 5    1  0.8900327E-005  0.9118800E+02  0.7818608E-02  0.1130116E+00
         25   -1    0    0    0    0  0.00000000000E+00  0.00000000000E+00  0.99999998245E-14  0.12500000000E+03  0.12500000000E+03 0.  0.
        -11    1    3    3    0    0  0.32122552423E+02  0.98088434984E+01  0.10696818047E+02  0.35249024122E+02  0.51100000000E-03 0. -1.
         23    2    1    0    0    0 -0.23537480699E+02  0.98422582477E+01  0.21124072899E+02  0.91877356674E+02  0.85699119998E+02 0.  0.
         11    1    3    3    0    0 -0.55660033122E+02  0.33414749289E-01  0.10427254852E+02  0.56628332552E+02  0.51100000000E-03 0.  1.
         22    1    1    0    0    0  0.23537480699E+02 -0.98422582477E+01 -0.21124072899E+02  0.33122643326E+02  0.00000000000E+00 0.  1.
</event>
<event>
 5    1  0.8900327E-005  0.9118800E+02  0.7818608E-02  0.1130116E+00
         25   -1    0    0    0    0  0.00000000000E+00  0.00000000000E+00  0.99999998245E-14  0.12500000000E+03  0.12500000000E+03 0.  0.
        -11    1    3    3    0    0  0.97404186813E+01  0.24719260504E+02  0.29712344160E+02  0.39859013933E+02  0.51100000000E-03 0.  1.
         23    2    1    0    0    0  0.18293907099E+02  0.64269087766E+01 -0.22178519226E+02  0.95540554852E+02  0.90885305265E+02 0.  0.
         11    1    3    3    0    0  0.85534884177E+01 -0.18292351728E+02 -0.51890863386E+02  0.55681540919E+02  0.51100000000E-03 0. -1.
         22    1    1    0    0    0 -0.18293907099E+02 -0.64269087766E+01  0.22178519226E+02  0.29459445148E+02  0.00000000000E+00 0. -1.
</event>
<event>
 5    1  0.8900327E-005  0.9118800E+02  0.7818608E-02  0.1130116E+00
         25   -1    0    0    0    0  0.00000000000E+00  0.00000000000E+00  0.99999998245E-14  0.12500000000E+03  0.12500000000E+03 0.  0.
        -11    1    3    3    0    0 -0.12996857132E+02  0.14850990818E+01 -0.41776624352E+02  0.43776822145E+02  0.51100000000E-03 0. -1.
         23    2    1    0    0    0 -0.23945215914E+02 -0.18286761916E+02  0.37828704386E+01  0.94634079377E+02  0.89629904854E+02 0.  0.
         11    1    3    3    0    0 -0.10948358782E+02 -0.19771860997E+02  0.45559494791E+02  0.50857257232E+02  0.51100000000E-03 0.  1.
         22    1    1    0    0    0  0.23945215914E+02  0.18286761916E+02 -0.37828704386E+01  0.30365920623E+02  0.00000000000E+00 0.  1.
</event>
<event>
 5    1  0.8900327E-005  0.9118800E+02  0.7818608E-02  0.1130116E+00
         25   -1    0    0    0    0  0.00000000000E+00  0.00000000000E+00  0.99999998245E-14  0.12500000000E+03  0.12500000000E+03 0.  0.
        -11    1    3    3    0    0  0.26246474123E+02 -0.45764090014E+02 -0.10489308654E+02  0.53788985257E+02  0.51100000000E-03 0. -1.
         23    2    1    0    0    0  0.22934616745E+02 -0.34461253867E+01 -0.16328966812E+02  0.96636157126E+02  0.92379864048E+02 0.  0.
         11    1    3    3    0    0 -0.33118573784E+01  0.42317964627E+02 -0.58396581580E+01  0.42847171869E+02  0.51100000000E-03 0.  1.
         22    1    1    0    0    0 -0.22934616745E+02  0.34461253867E+01  0.16328966812E+02  0.28363842874E+02  0.00000000000E+00 0. -1.
</event>
<event>
 5    1  0.8900327E-005  0.9118800E+02  0.7818608E-02  0.1130116E+00
         25   -1    0    0    0    0  0.00000000000E+00  0.00000000000E+00  0.99999998245E-14  0.12500000000E+03  0.12500000000E+03 0.  0.
        -11    1    3    3    0    0 -0.31530471155E+02  0.95968760319E+01  0.49773096783E+02  0.59696162393E+02  0.51100000000E-03 0.  1.
         23    2    1    0    0    0 -0.18235261200E+02  0.15361861568E+02  0.16453724222E+02  0.96030419702E+02  0.91556566807E+02 0.  0.
         11    1    3    3    0    0  0.13295209955E+02  0.57649855366E+01 -0.33319372562E+02  0.36334257308E+02  0.51100000000E-03 0. -1.
         22    1    1    0    0    0  0.18235261200E+02 -0.15361861568E+02 -0.16453724222E+02  0.28969580298E+02  0.00000000000E+00 0.  1.
</event>
<event>
 5    1  0.8900327E-005  0.9118800E+02  0.7818608E-02  0.1130116E+00
         25   -1    0    0    0    0  0.00000000000E+00  0.00000000000E+00  0.99999998245E-14  0.12500000000E+03  0.12500000000E+03 0.  0.
        -11    1    3    3    0    0 -0.23002875634E+02 -0.74960221617E+01  0.30665565084E+02  0.39060203761E+02  0.51100000000E-03 0.  1.
         23    2    1    0    0    0  0.10550431479E+02 -0.22036020869E+02 -0.14043817655E+02  0.96819747438E+02  0.92627948588E+02 0.  0.
         11    1    3    3    0    0  0.33553307113E+02 -0.14539998707E+02 -0.44709382739E+02  0.57759543677E+02  0.51100000000E-03 0. -1.
         22    1    1    0    0    0 -0.10550431479E+02  0.22036020869E+02  0.14043817655E+02  0.28180252562E+02  0.00000000000E+00 0. -1.
</event>
<event>
 5    1  0.8900327E-005  0.9118800E+02  0.7818608E-02  0.1130116E+00
         25   -1    0    0    0    0  0.00000000000E+00  0.00000000000E+00  0.99999998245E-14  0.12500000000E+03  0.12500000000E+03 0.  0.
        -11    1    3    3    0    0  0.34158090547E+02  0.70903937003E+01 -0.39404589596E+02  0.52628609274E+02  0.51100000000E-03 0.  1.
         23    2    1    0    0    0 -0.36525448164E+00  0.22505930994E+02 -0.18709335247E+02  0.95730740253E+02  0.91146503297E+02 0.  0.
         11    1    3    3    0    0 -0.34523345029E+02  0.15415537294E+02  0.20695254350E+02  0.43102130979E+02  0.51100000000E-03 0. -1.
         22    1    1    0    0    0  0.36525448164E+00 -0.22505930994E+02  0.18709335247E+02  0.29269259747E+02  0.00000000000E+00 0.  1.
</event>
<event>
 5    1  0.8900327E-005  0.9118800E+02  0.7818608E-02  0.1130116E+00
         25   -1    0    0    0    0  0.00000000000E+00  0.00000000000E+00  0.99999998245E-14  0.12500000000E+03  0.12500000000E+03 0.  0.
        -11    1    3    3    0    0  0.17867919770E+02 -0.40821211008E+02  0.25354489753E+02  0.51268742680E+02  0.51100000000E-03 0. -1.
         23    2    1    0    0    0  0.20299018426E+02 -0.13928017103E+01  0.27454483059E+02  0.90827808298E+02  0.84154334853E+02 0.  0.
         11    1    3    3    0    0  0.24310986560E+01  0.39428409298E+02  0.20999933060E+01  0.39559065618E+02  0.51100000000E-03 0.  1.
         22    1    1    0    0    0 -0.20299018426E+02  0.13928017103E+01 -0.27454483059E+02  0.34172191702E+02  0.00000000000E+00 0. -1.
</event>
<event>
 5    1  0.8900327E-005  0.9118800E+02  0.7818608E-02  0.1130116E+00
         25   -1    0    0    0    0  0.00000000000E+00  0.00000000000E+00  0.99999998245E-14  0.12500000000E+03  0.12500000000E+03 0.  0.
        -11    1    3    3    0    0  0.13865034484E+02 -0.26627083570E+02 -0.11723622437E+02  0.32228622124E+02  0.51100000000E-03 0. -1.
         23    2    1    0    0    0 -0.22094888240E+02  0.19776055806E+02  0.82193244760E+01  0.94229335976E+02  0.89063651363E+02 0.  0.
         11    1    3    3    0    0 -0.35959922725E+02  0.46403139376E+02  0.19942946913E+02  0.62000713852E+02  0.51100000000E-03 0.  1.
         22    1    1    0    0    0  0.22094888240E+02 -0.19776055806E+02 -0.82193244760E+01  0.30770664024E+02  0.00000000000E+00 0.  1.
</event>
<event>
 5    1  0.8900327E-005  0.9118800E+02  0.7818608E-02  0.1130116E+00
         25   -1    0    0    0    0  0.00000000000E+00  0.00000000000E+00  0.99999998245E-14  0.12500000000E+03  0.12500000000E+03 0.  0.
        -11    1    3    3    0    0  0.12174471242E+02  0.32168652149E+02  0.10622912718E+02  0.35998419493E+02  0.51100000000E-03 0. -1.
         23    2    1    0    0    0 -0.12945991239E+01 -0.23579159317E+02 -0.13021615915E+02  0.98033071699E+02  0.94251089780E+02 0.  0.
         11    1    3    3    0    0 -0.13469070366E+02 -0.55747811466E+02 -0.23644528633E+02  0.62034652206E+02  0.51100000000E-03 0.  1.
         22    1    1    0    0    0  0.12945991239E+01  0.23579159317E+02  0.13021615915E+02  0.26966928301E+02  0.00000000000E+00 0.  1.
</event>
<event>
 5    1  0.8900327E-005  0.9118800E+02  0.7818608E-02  0.1130116E+00
         25   -1    0    0    0    0  0.00000000000E+00  0.00000000000E+00  0.99999998245E-14  0.12500000000E+03  0.12500000000E+03 0.  0.
        -11    1    3    3    0    0  0.38064772662E+02 -0.38134592288E+01 -0.85606921929E+01  0.39201464771E+02  0.51100000000E-03 0. -1.
         23    2    1    0    0    0 -0.19782464568E+01  0.18380420906E+02  0.23504993779E+02  0.95096186459E+02  0.90272069960E+02 0.  0.
         11    1    3    3    0    0 -0.40043019118E+02  0.22193880135E+02  0.32065685972E+02  0.55894721689E+02  0.51100000000E-03 0.  1.
         22    1    1    0    0    0  0.19782464568E+01 -0.18380420906E+02 -0.23504993779E+02  0.29903813541E+02  0.00000000000E+00 0. -1.
</event>
<event>
 5    1  0.8900327E-005  0.9118800E+02  0.7818608E-02  0.1130116E+00
         25   -1    0    0    0    0  0.00000000000E+00  0.00000000000E+00  0.99999998245E-14  0.12500000000E+03  0.12500000000E+03 0.  0.
        -11    1    3    3    0    0 -0.32498668952E+02 -0.29647509216E+02  0.22081113109E+02  0.49221071125E+02  0.51100000000E-03 0.  1.
         23    2    1    0    0    0 -0.91725414298E+01  0.10413998648E+02  0.25775872978E+02  0.95725736356E+02  0.91139640602E+02 0.  0.
         11    1    3    3    0    0  0.23326127522E+02  0.40061507864E+02  0.36947598695E+01  0.46504665231E+02  0.51100000000E-03 0. -1.
         22    1    1    0    0    0  0.91725414298E+01 -0.10413998648E+02 -0.25775872978E+02  0.29274263644E+02  0.00000000000E+00 0.  1.
</event>
<event>
 5    1  0.8900327E-005  0.9118800E+02  0.7818608E-02  0.1130116E+00
         25   -1    0    0    0    0  0.00000000000E+00  0.00000000000E+00  0.99999998245E-14  0.12500000000E+03  0.12500000000E+03 0.  0.
        -11    1    3    3    0    0  0.83413986603E+01  0.53939388104E+02 -0.18137573610E+02  0.57515285772E+02  0.51100000000E-03 0. -1.
         23    2    1    0    0    0  0.19090973026E+02  0.17280721292E+02 -0.13285024862E+02  0.96024485077E+02  0.91548464046E+02 0.  0.
         11    1    3    3    0    0  0.10749574366E+02 -0.36658666813E+02  0.48525487473E+01  0.38509199305E+02  0.51100000000E-03 0.  1.
         22    1    1    0    0    0 -0.19090973026E+02 -0.17280721292E+02  0.13285024862E+02  0.28975514923E+02  0.00000000000E+00 0. -1.
</event>
<event>
 5    1  0.8900327E-005  0.9118800E+02  0.7818608E-02  0.1130116E+00
         25   -1    0    0    0    0  0.00000000000E+00  0.00000000000E+00  0.99999998245E-14  0.12500000000E+03  0.12500000000E+03 0.  0.
        -11    1    3    3    0    0  0.30199305578E+02  0.77144581572E+01 -0.79651835450E+01  0.32170717605E+02  0.51100000000E-03 0.  1.
         23    2    1    0    0    0 -0.23165817504E+02 -0.15949241654E+02 -0.18286528169E+02  0.91452563101E+02  0.85077263563E+02 0.  0.
         11    1    3    3    0    0 -0.53365123082E+02 -0.23663699811E+02 -0.10321344624E+02  0.59281845496E+02  0.51100000000E-03 0. -1.
         22    1    1    0    0    0  0.23165817504E+02  0.15949241654E+02  0.18286528169E+02  0.33547436899E+02  0.00000000000E+00 0. -1.
</event>
<event>
 5    1  0.8900327E-005  0.9118800E+02  0.7818608E-02  0.1130116E+00
         25   -1    0    0    0    0  0.00000000000E+00  0.00000000000E+00  0.99999998245E-14  0.12500000000E+03  0.12500000000E+03 0.  0.
        -11    1    3    3    0    0 -0.57562099457E+02 -0.27005873410E+01 -0.15893474027E+02  0.59777010487E+02  0.51100000000E-03 0. -1.
         23    2    1    0    0    0 -0.25896614272E+02  0.35746766445E+01  0.52091776295E+01  0.98343884840E+02  0.94662406530E+02 0.  0.
         11    1    3    3    0    0  0.31665485186E+02  0.62752639855E+01  0.21102651657E+02  0.38566874353E+02  0.51100000000E-03 0.  1.
         22    1    1    0    0    0  0.25896614272E+02 -0.35746766445E+01 -0.52091776295E+01  0.26656115160E+02  0.00000000000E+00 0. -1.
</event>
<event>
 5    1  0.8900327E-005  0.9118800E+02  0.7818608E-02  0.1130116E+00
         25   -1    0    0    0    0  0.00000000000E+00  0.00000000000E+00  0.99999998245E-14  0.12500000000E+03  0.12500000000E+03 0.  0.
        -11    1    3    3    0    0  0.27507417157E+02 -0.18068714892E+02 -0.49813106538E+02  0.59703283324E+02  0.51100000000E-03 0.  1.
         23    2    1    0    0    0  0.10755898475E+01 -0.92969595114E+01 -0.29159430074E+02  0.94375455727E+02  0.89268493500E+02 0.  0.
         11    1    3    3    0    0 -0.26431827310E+02  0.87717553804E+01  0.20653676463E+02  0.34672172402E+02  0.51100000000E-03 0. -1.
         22    1    1    0    0    0 -0.10755898475E+01  0.92969595114E+01  0.29159430074E+02  0.30624544273E+02  0.00000000000E+00 0.  1.
</event>
<event>
 5    1  0.8900327E-005  0.9118800E+02  0.7818608E-02  0.1130116E+00
         25   -1    0    0    0    0  0.00000000000E+00  0.00000000000E+00  0.99999998245E-14  0.12500000000E+03  0.12500000000E+03 0.  0.
        -11    1    3    3    0    0  0.31035883642E+01 -0.52394041386E+02  0.98794266344E+01  0.53407592198E+02  0.51100000000E-03 0. -1.
         23    2    1    0    0    0 -0.17244506065E+02 -0.31655592452E+02 -0.87296717959E+01  0.87910153781E+02  0.79702813283E+02 0.  0.
         11    1    3    3    0    0 -0.20348094429E+02  0.20738448935E+02 -0.18609098430E+02  0.34502561583E+02  0.51100000000E-03 0.  1.
         22    1    1    0    0    0  0.17244506065E+02  0.31655592452E+02  0.87296717959E+01  0.37089846219E+02  0.00000000000E+00 0. -1.
</event>
<event>
 5    1  0.8900327E-005  0.9118800E+02  0.7818608E-02  0.1130116E+00
         25   -1    0    0    0    0  0.00000000000E+00  0.00000000000E+00  0.99999998245E-14  0.12500000000E+03  0.12500000000E+03 0.  0.
        -11    1    3    3    0    0 -0.13290252728E+02  0.32359495677E+02 -0.16146869931E+02  0.38529069375E+02  0.51100000000E-03 0.  1.
         23    2    1    0    0    0 -0.94521583240E+01 -0.23859137224E+02 -0.15767761339E+02  0.94879840244E+02  0.89971995982E+02 0.  0.
         11    1    3    3    0    0  0.38380944038E+01 -0.56218632902E+02  0.37910859118E+00  0.56350770869E+02  0.51100000000E-03 0. -1.
         22    1    1    0    0    0  0.94521583240E+01  0.23859137224E+02  0.15767761339E+02  0.30120159756E+02  0.00000000000E+00 0. -1.
</event>
<event>
 5    1  0.8900327E-005  0.9118800E+02  0.7818608E-02  0.1130116E+00
         25   -1    0    0    0    0  0.00000000000E+00  0.00000000000E+00  0.99999998245E-14  0.12500000000E+03  0.12500000000E+03 0.  0.
        -11    1    3    3    0    0 -0.10825839343E+02 -0.44998012572E+02 -0.36122316895E+02  0.58709809325E+02  0.51100000000E-03 0.  1.
         23    2    1    0    0    0  0.75513123825E+01 -0.13626630983E+02 -0.22704711321E+02  0.97464362967E+02  0.93493800553E+02 0.  0.
         11    1    3    3    0    0  0.18377151726E+02  0.31371381589E+02  0.13417605574E+02  0.38754553642E+02  0.51100000000E-03 0. -1.
         22    1    1    0    0    0 -0.75513123825E+01  0.13626630983E+02  0.22704711321E+02  0.27535637033E+02  0.00000000000E+00 0.  1.
</event>
<event>
 5    1  0.8900327E-005  0.9118800E+02  0.7818608E-02  0.1130116E+00
         25   -1    0    0    0    0  0.00000000000E+00  0.00000000000E+00  0.99999998245E-14  0.12500000000E+03  0.12500000000E+03 0.  0.
        -11    1    3    3    0    0 -0.37510306219E+02  0.16690942215E+02  0.26001154018E+02  0.48597022905E+02  0.51100000000E-03 0. -1.
         23    2    1    0    0    0  0.58170096980E+01  0.26718890967E+02  0.10883821013E+02  0.95568821020E+02  0.90924173106E+02 0.  0.
         11    1    3    3    0    0  0.43327315917E+02  0.10027948752E+02 -0.15117333005E+02  0.46971798115E+02  0.51100000000E-03 0.  1.
         22    1    1    0    0    0 -0.58170096980E+01 -0.26718890967E+02 -0.10883821013E+02  0.29431178980E+02  0.00000000000E+00 0.  1.
</event>
<event>
 5    1  0.8900327E-005  0.9118800E+02  0.7818608E-02  0.1130116E+00
         25   -1    0    0    0    0  0.00000000000E+00  0.00000000000E+00  0.99999998245E-14  0.12500000000E+03  0.12500000000E+03 0.  0.
        -11    1    3    3    0    0 -0.17431252281E+02 -0.38390213858E+02  0.37017543451E+02  0.56106644878E+02  0.51100000000E-03 0.  1.
         23    2    1    0    0    0  0.10711475887E+02 -0.13981053977E+02  0.23270773807E+02  0.95815509263E+02  0.91262683040E+02 0.  0.
         11    1    3    3    0    0  0.28142728168E+02  0.24409159880E+02 -0.13746769643E+02  0.39708864384E+02  0.51100000000E-03 0. -1.
         22    1    1    0    0    0 -0.10711475887E+02  0.13981053977E+02 -0.23270773807E+02  0.29184490737E+02  0.00000000000E+00 0.  1.
</event>
<event>
 5    1  0.8900327E-005  0.9118800E+02  0.7818608E-02  0.1130116E+00
         25   -1    0    0    0    0  0.00000000000E+00  0.00000000000E+00  0.99999998245E-14  0.12500000000E+03  0.12500000000E+03 0.  0.
        -11    1    3    3    0    0  0.21537708060E+02 -0.24112400525E+02  0.79583204734E+01  0.33295879513E+02  0.51100000000E-03 0.  1.
         23    2    1    0    0    0 -0.22582048188E+02  0.18629534493E+02 -0.25422241701E+01  0.95615116820E+02  0.90987797011E+02 0.  0.
         11    1    3    3    0    0 -0.44119756247E+02  0.42741935018E+02 -0.10500544643E+02  0.62319237307E+02  0.51100000000E-03 0. -1.
         22    1    1    0    0    0  0.22582048188E+02 -0.18629534493E+02  0.25422241701E+01  0.29384883180E+02  0.00000000000E+00 0. -1.
</event>
<event>
 5    1  0.8900327E-005  0.9118800E+02  0.7818608E-02  0.1130116E+00
         25   -1    0    0    0    0  0.00000000000E+00  0.00000000000E+00  0.99999998245E-14  0.12500000000E+03  0.12500000000E+03 0.  0.
        -11    1    3    3    0    0 -0.39847043304E+01 -0.46420780594E+02  0.34483536226E+02  0.57964480594E+02  0.51100000000E-03 0. -1.
         23    2    1    0    0    0  0.14425881056E+02 -0.19479887552E+02  0.19591300844E+02  0.93832851718E+02  0.88505440112E+02 0.  0.
         11    1    3    3    0    0  0.18410585386E+02  0.26940893042E+02 -0.14892235382E+02  0.35868371124E+02  0.51100000000E-03 0.  1.
         22    1    1    0    0    0 -0.14425881056E+02  0.19479887552E+02 -0.19591300844E+02  0.31167148282E+02  0.00000000000E+00 0.  1.
</event>
<event>
 5    1  0.8900327E-005  0.9118800E+02  0.7818608E-02  0.1130116E+00
         25   -1    0    0    0    0  0.00000000000E+00  0.00000000000E+00  0.99999998245E-14  0.12500000000E+03  0.12500000000E+03 0.  0.
        -11    1    3    3    0    0  0.25475508352E+02  0.25552230430E+01  0.42802644618E+02  0.49875816556E+02  0.51100000000E-03 0.  1.
         23    2    1    0    0    0  0.30126122215E+02 -0.27660419714E-01 -0.18242714275E+01  0.94818681754E+02  0.89886987037E+02 0.  0.
         11    1    3    3    0    0  0.46506138629E+01 -0.25828834627E+01 -0.44626916045E+02  0.44942865198E+02  0.51100000000E-03 0. -1.
         22    1    1    0    0    0 -0.30126122215E+02  0.27660419714E-01  0.18242714275E+01  0.30181318246E+02  0.00000000000E+00 0. -1.
</event>
<event>
 5    1  0.8900327E-005  0.9118800E+02  0.7818608E-02  0.1130116E+00
         25   -1    0    0    0    0  0.00000000000E+00  0.00000000000E+00  0.99999998245E-14  0.12500000000E+03  0.12500000000E+03 0.  0.
        -11    1    3    3    0    0 -0.20434021723E+02 -0.47523712566E+02  0.38999306506E+01  0.51877374251E+02  0.51100000000E-03 0. -1.
         23    2    1    0    0    0 -0.18970121474E+02 -0.63121167848E+01  0.20531520469E+02  0.96342511279E+02  0.91981671107E+02 0.  0.
         11    1    3    3    0    0  0.14639002496E+01  0.41211595781E+02  0.16631589819E+02  0.44465137028E+02  0.51100000000E-03 0.  1.
         22    1    1    0    0    0  0.18970121474E+02  0.63121167848E+01 -0.20531520469E+02  0.28657488721E+02  0.00000000000E+00 0. -1.
</event>
<event>
 5    1  0.8900327E-005  0.9118800E+02  0.7818608E-02  0.1130116E+00
         25   -1    0    0    0    0  0.00000000000E+00  0.00000000000E+00  0.99999998245E-14  0.12500000000E+03  0.12500000000E+03 0.  0.
        -11    1    3    3    0    0 -0.13578361202E+02 -0.25246187481E+02 -0.26423082090E+02  0.38986166042E+02  0.51100000000E-03 0. -1.
         23    2    1    0    0    0  0.30279618458E+02 -0.53971701482E+01  0.68739593450E+00  0.94235454615E+02  0.89072238402E+02 0.  0.
         11    1    3    3    0    0  0.43857979660E+02  0.19849017333E+02  0.27110478024E+02  0.55249288574E+02  0.51100000000E-03 0.  1.
         22    1    1    0    0    0 -0.30279618458E+02  0.53971701482E+01 -0.68739593450E+00  0.30764545385E+02  0.00000000000E+00 0.  1.
</event>
<event>
 5    1  0.8900327E-005  0.9118800E+02  0.7818608E-02  0.1130116E+00
         25   -1    0    0    0    0  0.00000000000E+00  0.00000000000E+00  0.99999998245E-14  0.12500000000E+03  0.12500000000E+03 0.  0.
        -11    1    3    3    0    0 -0.39246449079E+02  0.15469918519E+02 -0.37744892749E+02  0.56606351880E+02  0.51100000000E-03 0.  1.
         23    2    1    0    0    0 -0.17990550200E+02 -0.11441007955E+02 -0.22076110715E+02  0.94309427770E+02  0.89175988598E+02 0.  0.
         11    1    3    3    0    0  0.21255898879E+02 -0.26910926474E+02  0.15668782034E+02  0.37703075889E+02  0.51100000000E-03 0. -1.
         22    1    1    0    0    0  0.17990550200E+02  0.11441007955E+02  0.22076110715E+02  0.30690572230E+02  0.00000000000E+00 0.  1.
</event>
<event>
 5    1  0.8900327E-005  0.9118800E+02  0.7818608E-02  0.1130116E+00
         25   -1    0    0    0    0  0.00000000000E+00  0.00000000000E+00  0.99999998245E-14  0.12500000000E+03  0.12500000000E+03 0.  0.
        -11    1    3    3    0    0  0.15782626081E+02 -0.37483784802E+02  0.11109392668E+02  0.42160929957E+02  0.51100000000E-03 0. -1.
         23    2    1    0    0    0  0.14423330734E+02  0.19166287103E+02  0.10461203183E+02  0.98831014486E+02  0.95303481686E+02 0.  0.
         11    1    3    3    0    0 -0.13592953473E+01  0.56650071905E+02 -0.64818948471E+00  0.56670084529E+02  0.51100000000E-03 0.  1.
         22    1    1    0    0    0 -0.14423330734E+02 -0.19166287103E+02 -0.10461203183E+02  0.26168985514E+02  0.00000000000E+00 0. -1.
</event>
<event>
 5    1  0.8900327E-005  0.9118800E+02  0.7818608E-02  0.1130116E+00
         25   -1    0    0    0    0  0.00000000000E+00  0.00000000000E+00  0.99999998245E-14  0.12500000000E+03  0.12500000000E+03 0.  0.
        -11    1    3    3    0    0 -0.11413382905E+02  0.40618884137E+02  0.77576833351E+00  0.42199062485E+02  0.51100000000E-03 0.  1.
         23    2    1    0    0    0  0.12055739087E+02  0.13643094328E+02  0.31020664051E+02  0.89031173693E+02  0.81441963527E+02 0.  0.
         11    1    3    3    0    0  0.23469121992E+02 -0.26975789809E+02  0.30244895717E+02  0.46832111207E+02  0.51100000000E-03 0. -1.
         22    1    1    0    0    0 -0.12055739087E+02 -0.13643094328E+02 -0.31020664051E+02  0.35968826307E+02  0.00000000000E+00 0. -1.
</event>
<event>
 5    1  0.8900327E-005  0.9118800E+02  0.7818608E-02  0.1130116E+00
         25   -1    0    0    0    0  0.00000000000E+00  0.00000000000E+00  0.99999998245E-14  0.12500000000E+03  0.12500000000E+03 0.  0.
        -11    1    3    3    0    0 -0.41501795179E+02  0.42605937709E+01  0.36945401798E+02  0.55727142190E+02  0.51100000000E-03 0.  1.
         23    2    1    0    0    0 -0.27184822626E+02 -0.50061740996E+01 -0.10117394497E+01  0.97339559349E+02  0.93326790565E+02 0.  0.
         11    1    3    3    0    0  0.14316972553E+02 -0.92667678705E+01 -0.37957141248E+02  0.41612417159E+02  0.51100000000E-03 0. -1.
         22    1    1    0    0    0  0.27184822626E+02  0.50061740996E+01  0.10117394497E+01  0.27660440651E+02  0.00000000000E+00 0.  1.
</event>
<event>
 5    1  0.8900327E-005  0.9118800E+02  0.7818608E-02  0.1130116E+00
         25   -1    0    0    0    0  0.00000000000E+00  0.00000000000E+00  0.99999998245E-14  0.12500000000E+03  0.12500000000E+03 0.  0.
        -11    1    3    3    0    0  0.31526156098E+02  0.22964007910E+02  0.25524333482E+02  0.46612613932E+02  0.51100000000E-03 0. -1.
         23    2    1    0    0    0  0.18179377926E+02 -0.21188999655E+02  0.79751954110E+01  0.95964379979E+02  0.91466359908E+02 0.  0.
         11    1    3    3    0    0 -0.13346778172E+02 -0.44153007565E+02 -0.17549138071E+02  0.49351766047E+02  0.51100000000E-03 0.  1.
         22    1    1    0    0    0 -0.18179377926E+02  0.21188999655E+02 -0.79751954110E+01  0.29035620021E+02  0.00000000000E+00 0.  1.
</event>
<event>
 5    1  0.8900327E-005  0.9118800E+02  0.7818608E-02  0.1130116E+00
         25   -1    0    0    0    0  0.00000000000E+00  0.00000000000E+00  0.99999998245E-14  0.12500000000E+03  0.12500000000E+03 0.  0.
        -11    1    3    3    0    0  0.86307847567E+01 -0.59813250743E+02  0.65346171878E+01  0.60785003348E+02  0.51100000000E-03 0.  1.
         23    2    1    0    0    0  0.61264733950E+00 -0.25783363483E+02  0.12644282731E+02  0.96276576544E+02  0.91892024333E+02 0.  0.
         11    1    3    3    0    0 -0.80181374172E+01  0.34029887260E+02  0.61096655434E+01  0.35491573196E+02  0.51100000000E-03 0. -1.
         22    1    1    0    0    0 -0.61264733950E+00  0.25783363483E+02 -0.12644282731E+02  0.28723423456E+02  0.00000000000E+00 0.  1.
</event>
<event>
 5    1  0.8900327E-005  0.9118800E+02  0.7818608E-02  0.1130116E+00
         25   -1    0    0    0    0  0.00000000000E+00  0.00000000000E+00  0.99999998245E-14  0.12500000000E+03  0.12500000000E+03 0.  0.
        -11    1    3    3    0    0 -0.57287048265E+01 -0.38912322256E+02  0.27592793991E+02  0.48045282420E+02  0.51100000000E-03 0. -1.
         23    2    1    0    0    0  0.23793731161E+02 -0.30627978904E+01  0.16766979233E+02  0.95731348407E+02  0.91147337326E+02 0.  0.
         11    1    3    3    0    0  0.29522435988E+02  0.35849524365E+02 -0.10825814757E+02  0.47686065987E+02  0.51100000000E-03 0.  1.
         22    1    1    0    0    0 -0.23793731161E+02  0.30627978904E+01 -0.16766979233E+02  0.29268651593E+02  0.00000000000E+00 0.  1.
</event>
<event>
 5    1  0.8900327E-005  0.9118800E+02  0.7818608E-02  0.1130116E+00
         25   -1    0    0    0    0  0.00000000000E+00  0.00000000000E+00  0.99999998245E-14  0.12500000000E+03  0.12500000000E+03 0.  0.
        -11    1    3    3    0    0  0.14973079710E+02  0.14955227293E+01  0.34328133846E+02  0.37481335060E+02  0.51100000000E-03 0. -1.
         23    2    1    0    0    0  0.51561166204E+01  0.31852098445E+02 -0.91977336407E+01  0.91447950613E+02  0.85070486382E+02 0.  0.
         11    1    3    3    0    0 -0.98169630901E+01  0.30356575715E+02 -0.43525867487E+02  0.53966615553E+02  0.51100000000E-03 0.  1.
         22    1    1    0    0    0 -0.51561166204E+01 -0.31852098445E+02  0.91977336407E+01  0.33552049387E+02  0.00000000000E+00 0.  1.
</event>
<event>
 5    1  0.8900327E-005  0.9118800E+02  0.7818608E-02  0.1130116E+00
         25   -1    0    0    0    0  0.00000000000E+00  0.00000000000E+00  0.99999998245E-14  0.12500000000E+03  0.12500000000E+03 0.  0.
        -11    1    3    3    0    0 -0.21153752213E+02 -0.99420518806E+01  0.24510247139E+02  0.33868537662E+02  0.51100000000E-03 0.  1.
         23    2    1    0    0    0  0.65620713605E+01  0.17338389575E+02 -0.23124304086E+02  0.95361950586E+02  0.90639327262E+02 0.  0.
         11    1    3    3    0    0  0.27715823574E+02  0.27280441456E+02 -0.47634551225E+02  0.61493412924E+02  0.51100000000E-03 0. -1.
         22    1    1    0    0    0 -0.65620713605E+01 -0.17338389575E+02  0.23124304086E+02  0.29638049414E+02  0.00000000000E+00 0. -1.
</event>
<event>
 5    1  0.8900327E-005  0.9118800E+02  0.7818608E-02  0.1130116E+00
         25   -1    0    0    0    0  0.00000000000E+00  0.00000000000E+00  0.99999998245E-14  0.12500000000E+03  0.12500000000E+03 0.  0.
        -11    1    3    3    0    0  0.99649722143E+01  0.15598035571E+02  0.49911562419E+02  0.53233104816E+02  0.51100000000E-03 0.  1.
         23    2    1    0    0    0 -0.12738768863E+02 -0.97282229424E+01  0.24634042413E+02  0.95610365784E+02  0.90981269753E+02 0.  0.
         11    1    3    3    0    0 -0.22703741078E+02 -0.25326258513E+02 -0.25277520007E+02  0.42377260968E+02  0.51100000000E-03 0. -1.
         22    1    1    0    0    0  0.12738768863E+02  0.97282229424E+01 -0.24634042413E+02  0.29389634216E+02  0.00000000000E+00 0.  1.
</event>
<event>
 5    1  0.8900327E-005  0.9118800E+02  0.7818608E-02  0.1130116E+00
         25   -1    0    0    0    0  0.00000000000E+00  0.00000000000E+00  0.99999998245E-14  0.12500000000E+03  0.12500000000E+03 0.  0.
        -11    1    3    3    0    0  0.30936179833E+02 -0.30173888504E+02  0.39676384491E+02  0.58666227565E+02  0.51100000000E-03 0.  1.
         23    2    1    0    0    0  0.65599910368E+01 -0.46733505203E+01  0.28060267578E+02  0.95806639384E+02  0.91250533401E+02 0.  0.
         11    1    3    3    0    0 -0.24376188797E+02  0.25500537984E+02 -0.11616116913E+02  0.37140411819E+02  0.51100000000E-03 0. -1.
         22    1    1    0    0    0 -0.65599910368E+01  0.46733505203E+01 -0.28060267578E+02  0.29193360616E+02  0.00000000000E+00 0.  1.
</event>
<event>
 5    1  0.8900327E-005  0.9118800E+02  0.7818608E-02  0.1130116E+00
         25   -1    0    0    0    0  0.00000000000E+00  0.00000000000E+00  0.99999998245E-14  0.12500000000E+03  0.12500000000E+03 0.  0.
        -11    1    3    3    0    0 -0.14105927954E+02  0.12015359921E+02  0.34020673491E+02  0.38739544429E+02  0.51100000000E-03 0. -1.
         23    2    1    0    0    0  0.21465495860E+02 -0.17963415458E+02 -0.10382146328E+01  0.96990542722E+02  0.92858148164E+02 0.  0.
         11    1    3    3    0    0  0.35571423814E+02 -0.29978775379E+02 -0.35058888124E+02  0.58250998293E+02  0.51100000000E-03 0.  1.
         22    1    1    0    0    0 -0.21465495860E+02  0.17963415458E+02  0.10382146328E+01  0.28009457278E+02  0.00000000000E+00 0.  1.
</event>
<event>
 5    1  0.8900327E-005  0.9118800E+02  0.7818608E-02  0.1130116E+00
         25   -1    0    0    0    0  0.00000000000E+00  0.00000000000E+00  0.99999998245E-14  0.12500000000E+03  0.12500000000E+03 0.  0.
        -11    1    3    3    0    0 -0.41170062400E+01  0.38190247391E+02  0.26240371513E+01  0.38501042939E+02  0.51100000000E-03 0.  1.
         23    2    1    0    0    0  0.63099542603E+00 -0.42379211927E+01 -0.31533509666E+02  0.93176732363E+02  0.87573872192E+02 0.  0.
         11    1    3    3    0    0  0.47480016660E+01 -0.42428168583E+02 -0.34157546817E+02  0.54675689424E+02  0.51100000000E-03 0. -1.
         22    1    1    0    0    0 -0.63099542603E+00  0.42379211927E+01  0.31533509666E+02  0.31823267637E+02  0.00000000000E+00 0. -1.
</event>
<event>
 5    1  0.8900327E-005  0.9118800E+02  0.7818608E-02  0.1130116E+00
         25   -1    0    0    0    0  0.00000000000E+00  0.00000000000E+00  0.99999998245E-14  0.12500000000E+03  0.12500000000E+03 0.  0.
        -11    1    3    3    0    0 -0.13469313579E+02  0.33408900922E+02  0.18084959047E+02  0.40306858140E+02  0.51100000000E-03 0.  1.
         23    2    1    0    0    0  0.29556943317E+02  0.41380286247E+01  0.79027313736E+00  0.95144335365E+02  0.90338717289E+02 0.  0.
         11    1    3    3    0    0  0.43026256896E+02 -0.29270872297E+02 -0.17294685910E+02  0.54837477226E+02  0.51100000000E-03 0. -1.
         22    1    1    0    0    0 -0.29556943317E+02 -0.41380286247E+01 -0.79027313736E+00  0.29855664635E+02  0.00000000000E+00 0. -1.
</event>
<event>
 5    1  0.8900327E-005  0.9118800E+02  0.7818608E-02  0.1130116E+00
         25   -1    0    0    0    0  0.00000000000E+00  0.00000000000E+00  0.99999998245E-14  0.12500000000E+03  0.12500000000E+03 0.  0.
        -11    1    3    3    0    0 -0.11167879777E+02 -0.25082960899E+02 -0.18746557909E+02  0.33246201285E+02  0.51100000000E-03 0.  1.
         23    2    1    0    0    0  0.71989310919E+00  0.33036059453E+01  0.32122419136E+02  0.92700125860E+02  0.86890917045E+02 0.  0.
         11    1    3    3    0    0  0.11887772886E+02  0.28386566844E+02  0.50868977046E+02  0.59453924575E+02  0.51100000000E-03 0. -1.
         22    1    1    0    0    0 -0.71989310919E+00 -0.33036059453E+01 -0.32122419136E+02  0.32299874140E+02  0.00000000000E+00 0. -1.
</event>
<event>
 5    1  0.8900327E-005  0.9118800E+02  0.7818608E-02  0.1130116E+00
         25   -1    0    0    0    0  0.00000000000E+00  0.00000000000E+00  0.99999998245E-14  0.12500000000E+03  0.12500000000E+03 0.  0.
        -11    1    3    3    0    0  0.13225147260E+02  0.10175179683E+02 -0.57823610228E+02  0.60183126387E+02  0.51100000000E-03 0. -1.
         23    2    1    0    0    0  0.18949830452E+01  0.15619069021E+02 -0.23656662848E+02  0.96589016650E+02  0.92316055822E+02 0.  0.
         11    1    3    3    0    0 -0.11330164215E+02  0.54438893377E+01  0.34166947381E+02  0.36405890263E+02  0.51100000000E-03 0.  1.
         22    1    1    0    0    0 -0.18949830452E+01 -0.15619069021E+02  0.23656662848E+02  0.28410983350E+02  0.00000000000E+00 0. -1.
</event>
<event>
 5    1  0.8900327E-005  0.9118800E+02  0.7818608E-02  0.1130116E+00
         25   -1    0    0    0    0  0.00000000000E+00  0.00000000000E+00  0.99999998245E-14  0.12500000000E+03  0.12500000000E+03 0.  0.
        -11    1    3    3    0    0  0.62853653406E+01  0.40323515629E+02  0.28565698491E+02  0.49814564745E+02  0.51100000000E-03 0. -1.
         23    2    1    0    0    0  0.10779085662E+02 -0.42243342278E+01  0.28119225109E+02  0.94590716745E+02  0.89569409880E+02 0.  0.
         11    1    3    3    0    0  0.44937203210E+01 -0.44547849857E+02 -0.44647338207E+00  0.44776152000E+02  0.51100000000E-03 0.  1.
         22    1    1    0    0    0 -0.10779085662E+02  0.42243342278E+01 -0.28119225109E+02  0.30409283255E+02  0.00000000000E+00 0. -1.
</event>
<event>
 5    1  0.8900327E-005  0.9118800E+02  0.7818608E-02  0.1130116E+00
         25   -1    0    0    0    0  0.00000000000E+00  0.00000000000E+00  0.99999998245E-14  0.12500000000E+03  0.12500000000E+03 0.  0.
        -11    1    3    3    0    0  0.21121973449E+02  0.26162602315E+02 -0.22862809627E+02  0.40661131152E+02  0.51100000000E-03 0.  1.
         23    2    1    0    0    0  0.26419184278E+02 -0.19186312596E+02  0.13102195022E+01  0.92322720981E+02  0.86346281016E+02 0.  0.
         11    1    3    3    0    0  0.52972108290E+01 -0.45348914911E+02  0.24173029129E+02  0.51661589829E+02  0.51100000000E-03 0. -1.
         22    1    1    0    0    0 -0.26419184278E+02  0.19186312596E+02 -0.13102195022E+01  0.32677279019E+02  0.00000000000E+00 0. -1.
</event>
<event>
 5    1  0.8900327E-005  0.9118800E+02  0.7818608E-02  0.1130116E+00
         25   -1    0    0    0    0  0.00000000000E+00  0.00000000000E+00  0.99999998245E-14  0.12500000000E+03  0.12500000000E+03 0.  0.
        -11    1    3    3    0    0 -0.25671857877E+02 -0.32785061202E+02 -0.36261856085E+01  0.41797772037E+02  0.51100000000E-03 0. -1.
         23    2    1    0    0    0  0.96896638475E+01  0.61583525073E-02 -0.27668348495E+02  0.95684012350E+02  0.91082397243E+02 0.  0.
         11    1    3    3    0    0  0.35361521725E+02  0.32791219555E+02 -0.24042162887E+02  0.53886240314E+02  0.51100000000E-03 0.  1.
         22    1    1    0    0    0 -0.96896638475E+01 -0.61583525073E-02  0.27668348495E+02  0.29315987650E+02  0.00000000000E+00 0.  1.
</event>
<event>
 5    1  0.8900327E-005  0.9118800E+02  0.7818608E-02  0.1130116E+00
         25   -1    0    0    0    0  0.00000000000E+00  0.00000000000E+00  0.99999998245E-14  0.12500000000E+03  0.12500000000E+03 0.  0.
        -11    1    3    3    0    0  0.14704194470E+02 -0.30233920623E+02 -0.17278527291E+02  0.37800142815E+02  0.51100000000E-03 0. -1.
         23    2    1    0    0    0 -0.28423111324E+02 -0.22782390148E+02  0.70847396917E+01  0.87890646803E+02  0.79672214108E+02 0.  0.
         11    1    3    3    0    0 -0.43127305793E+02  0.74515304753E+01  0.24363266983E+02  0.50090503988E+02  0.51100000000E-03 0.  1.
         22    1    1    0    0    0  0.28423111324E+02  0.22782390148E+02 -0.70847396917E+01  0.37109353197E+02  0.00000000000E+00 0.  1.
</event>
<event>
 5    1  0.8900327E-005  0.9118800E+02  0.7818608E-02  0.1130116E+00
         25   -1    0    0    0    0  0.00000000000E+00  0.00000000000E+00  0.99999998245E-14  0.12500000000E+03  0.12500000000E+03 0.  0.
        -11    1    3    3    0    0 -0.51431847111E+02 -0.16863939571E+01 -0.26187856531E+01  0.51526079420E+02  0.51100000000E-03 0. -1.
         23    2    1    0    0    0 -0.11576272208E+02 -0.17338145089E+02 -0.18433192640E+02  0.97171885723E+02  0.93101941068E+02 0.  0.
         11    1    3    3    0    0  0.39855574904E+02 -0.15651751132E+02 -0.15814406986E+02  0.45645806302E+02  0.51100000000E-03 0.  1.
         22    1    1    0    0    0  0.11576272208E+02  0.17338145089E+02  0.18433192640E+02  0.27828114277E+02  0.00000000000E+00 0. -1.
</event>
<event>
 5    1  0.8900327E-005  0.9118800E+02  0.7818608E-02  0.1130116E+00
         25   -1    0    0    0    0  0.00000000000E+00  0.00000000000E+00  0.99999998245E-14  0.12500000000E+03  0.12500000000E+03 0.  0.
        -11    1    3    3    0    0 -0.28732637754E+02 -0.38373408282E+02 -0.20772796380E+01  0.47983309873E+02  0.51100000000E-03 0.  1.
         23    2    1    0    0    0  0.39325375231E+01 -0.12705097419E+02 -0.25908698083E+02  0.95877071093E+02  0.91346963678E+02 0.  0.
         11    1    3    3    0    0  0.32665175277E+02  0.25668310863E+02 -0.23831418445E+02  0.47893761220E+02  0.51100000000E-03 0. -1.
         22    1    1    0    0    0 -0.39325375231E+01  0.12705097419E+02  0.25908698083E+02  0.29122928907E+02  0.00000000000E+00 0.  1.
</event>
<event>
 5    1  0.8900327E-005  0.9118800E+02  0.7818608E-02  0.1130116E+00
         25   -1    0    0    0    0  0.00000000000E+00  0.00000000000E+00  0.99999998245E-14  0.12500000000E+03  0.12500000000E+03 0.  0.
        -11    1    3    3    0    0  0.52467310285E+01 -0.25300382836E+02 -0.30821052108E+02  0.40219085164E+02  0.51100000000E-03 0.  1.
         23    2    1    0    0    0  0.24059108583E+02 -0.23822737201E+01  0.16263784685E+02  0.95861938531E+02  0.91326253798E+02 0.  0.
         11    1    3    3    0    0  0.18812377555E+02  0.22918109116E+02  0.47084836793E+02  0.55642853367E+02  0.51100000000E-03 0. -1.
         22    1    1    0    0    0 -0.24059108583E+02  0.23822737201E+01 -0.16263784685E+02  0.29138061469E+02  0.00000000000E+00 0. -1.
</event>
<event>
 5    1  0.8900327E-005  0.9118800E+02  0.7818608E-02  0.1130116E+00
         25   -1    0    0    0    0  0.00000000000E+00  0.00000000000E+00  0.99999998245E-14  0.12500000000E+03  0.12500000000E+03 0.  0.
        -11    1    3    3    0    0  0.17798484878E+02 -0.20090005783E+02 -0.47421682988E+02  0.54490461680E+02  0.51100000000E-03 0. -1.
         23    2    1    0    0    0 -0.13943663078E+02 -0.13222176379E+02 -0.22392456331E+02  0.95492818014E+02  0.90819626202E+02 0.  0.
         11    1    3    3    0    0 -0.31742147956E+02  0.68678294040E+01  0.25029226657E+02  0.41002356334E+02  0.51100000000E-03 0.  1.
         22    1    1    0    0    0  0.13943663078E+02  0.13222176379E+02  0.22392456331E+02  0.29507181986E+02  0.00000000000E+00 0. -1.
</event>
<event>
 5    1  0.8900327E-005  0.9118800E+02  0.7818608E-02  0.1130116E+00
         25   -1    0    0    0    0  0.00000000000E+00  0.00000000000E+00  0.99999998245E-14  0.12500000000E+03  0.12500000000E+03 0.  0.
        -11    1    3    3    0    0 -0.26592340600E+02 -0.28521513872E+02 -0.71420067770E+01  0.39643884689E+02  0.51100000000E-03 0.  1.
         23    2    1    0    0    0  0.23620308703E+02 -0.62402857333E+01  0.11952743251E+02  0.97802054848E+02  0.93944205314E+02 0.  0.
         11    1    3    3    0    0  0.50212649303E+02  0.22281228139E+02  0.19094750028E+02  0.58158170159E+02  0.51100000000E-03 0. -1.
         22    1    1    0    0    0 -0.23620308703E+02  0.62402857333E+01 -0.11952743251E+02  0.27197945152E+02  0.00000000000E+00 0.  1.
</event>
<event>
 5    1  0.8900327E-005  0.9118800E+02  0.7818608E-02  0.1130116E+00
         25   -1    0    0    0    0  0.00000000000E+00  0.00000000000E+00  0.99999998245E-14  0.12500000000E+03  0.12500000000E+03 0.  0.
        -11    1    3    3    0    0 -0.55729610826E+02  0.18183501604E+02 -0.50107360205E+01  0.58834825819E+02  0.51100000000E-03 0. -1.
         23    2    1    0    0    0 -0.23629904678E+02 -0.57282411767E+01 -0.90297760236E+01  0.99063115123E+02  0.95607420114E+02 0.  0.
         11    1    3    3    0    0  0.32099706148E+02 -0.23911742780E+02 -0.40190400031E+01  0.40228289305E+02  0.51100000000E-03 0.  1.
         22    1    1    0    0    0  0.23629904678E+02  0.57282411767E+01  0.90297760236E+01  0.25936884877E+02  0.00000000000E+00 0. -1.
</event>
<event>
 5    1  0.8900327E-005  0.9118800E+02  0.7818608E-02  0.1130116E+00
         25   -1    0    0    0    0  0.00000000000E+00  0.00000000000E+00  0.99999998245E-14  0.12500000000E+03  0.12500000000E+03 0.  0.
        -11    1    3    3    0    0  0.34125896273E+02  0.24286360622E+02  0.37775170758E+01  0.42055603006E+02  0.51100000000E-03 0.  1.
         23    2    1    0    0    0  0.76974648458E+01 -0.23061220697E+02  0.13570671208E+02  0.97156976060E+02  0.93081920989E+02 0.  0.
         11    1    3    3    0    0 -0.26428431427E+02 -0.47347581318E+02  0.97931541324E+01  0.55101373055E+02  0.51100000000E-03 0. -1.
         22    1    1    0    0    0 -0.76974648458E+01  0.23061220697E+02 -0.13570671208E+02  0.27843023940E+02  0.00000000000E+00 0. -1.
</event>
<event>
 5    1  0.8900327E-005  0.9118800E+02  0.7818608E-02  0.1130116E+00
         25   -1    0    0    0    0  0.00000000000E+00  0.00000000000E+00  0.99999998245E-14  0.12500000000E+03  0.12500000000E+03 0.  0.
        -11    1    3    3    0    0 -0.25440448527E+02  0.15263257629E+02  0.35521422082E+02  0.46281258428E+02  0.51100000000E-03 0. -1.
         23    2    1    0    0    0  0.13211642802E+02  0.22061537450E+02 -0.10410553548E+00  0.99284833694E+02  0.95896863470E+02 0.  0.
         11    1    3    3    0    0  0.38652091329E+02  0.67982798210E+01 -0.35625527618E+02  0.53003575265E+02  0.51100000000E-03 0.  1.
         22    1    1    0    0    0 -0.13211642802E+02 -0.22061537450E+02  0.10410553548E+00  0.25715166306E+02  0.00000000000E+00 0. -1.
</event>
<event>
 5    1  0.8900327E-005  0.9118800E+02  0.7818608E-02  0.1130116E+00
         25   -1    0    0    0    0  0.00000000000E+00  0.00000000000E+00  0.99999998245E-14  0.12500000000E+03  0.12500000000E+03 0.  0.
        -11    1    3    3    0    0  0.29700972425E+02 -0.46144221079E+02 -0.22440695234E+02  0.59287618479E+02  0.51100000000E-03 0.  1.
         23    2    1    0    0    0  0.14148817704E+02 -0.25428716737E+02  0.31866118763E+01  0.95726066671E+02  0.91140093635E+02 0.  0.
         11    1    3    3    0    0 -0.15552154722E+02  0.20715504343E+02  0.25627307111E+02  0.36438448192E+02  0.51100000000E-03 0. -1.
         22    1    1    0    0    0 -0.14148817704E+02  0.25428716737E+02 -0.31866118763E+01  0.29273933329E+02  0.00000000000E+00 0.  1.
</event>
<event>
 5    1  0.8900327E-005  0.9118800E+02  0.7818608E-02  0.1130116E+00
         25   -1    0    0    0    0  0.00000000000E+00  0.00000000000E+00  0.99999998245E-14  0.12500000000E+03  0.12500000000E+03 0.  0.
        -11    1    3    3    0    0  0.29872318175E+02 -0.36038414638E+02  0.40333839277E+02  0.61789491937E+02  0.51100000000E-03 0.  1.
         23    2    1    0    0    0  0.20820224439E+02 -0.14886984963E+02  0.19572807077E+02  0.92778906849E+02  0.87004176406E+02 0.  0.
         11    1    3    3    0    0 -0.90520937363E+01  0.21151429675E+02 -0.20761032199E+02  0.30989414911E+02  0.51100000000E-03 0. -1.
         22    1    1    0    0    0 -0.20820224439E+02  0.14886984963E+02 -0.19572807077E+02  0.32221093151E+02  0.00000000000E+00 0.  1.
</event>
<event>
 5    1  0.8900327E-005  0.9118800E+02  0.7818608E-02  0.1130116E+00
         25   -1    0    0    0    0  0.00000000000E+00  0.00000000000E+00  0.99999998245E-14  0.12500000000E+03  0.12500000000E+03 0.  0.
        -11    1    3    3    0    0  0.39075989817E+01 -0.39135414336E+02 -0.35368504544E+02  0.52894055422E+02  0.51100000000E-03 0. -1.
         23    2    1    0    0    0  0.12112169434E+01 -0.28170792255E+02  0.63360126353E+01  0.96100075453E+02  0.91651616806E+02 0.  0.
         11    1    3    3    0    0 -0.26963820384E+01  0.10964622082E+02  0.41704517179E+02  0.43206020031E+02  0.51100000000E-03 0.  1.
         22    1    1    0    0    0 -0.12112169434E+01  0.28170792255E+02 -0.63360126353E+01  0.28899924547E+02  0.00000000000E+00 0. -1.
</event>
<event>
 5    1  0.8900327E-005  0.9118800E+02  0.7818608E-02  0.1130116E+00
         25   -1    0    0    0    0  0.00000000000E+00  0.00000000000E+00  0.99999998245E-14  0.12500000000E+03  0.12500000000E+03 0.  0.
        -11    1    3    3    0    0  0.28358168159E+02  0.47903736538E+01  0.31061253354E+02  0.42331251355E+02  0.51100000000E-03 0. -1.
         23    2    1    0    0    0 -0.20264614656E+02 -0.83009997569E+01  0.22849851582E+02  0.93350720049E+02  0.87821865228E+02 0.  0.
         11    1    3    3    0    0 -0.48622782815E+02 -0.13091373411E+02 -0.82114017727E+01  0.51019468694E+02  0.51100000000E-03 0.  1.
         22    1    1    0    0    0  0.20264614656E+02  0.83009997569E+01 -0.22849851582E+02  0.31649279951E+02  0.00000000000E+00 0.  1.
</event>
<event>
 5    1  0.8900327E-005  0.9118800E+02  0.7818608E-02  0.1130116E+00
         25   -1    0    0    0    0  0.00000000000E+00  0.00000000000E+00  0.99999998245E-14  0.12500000000E+03  0.12500000000E+03 0.  0.
        -11    1    3    3    0    0  0.49996718310E+01  0.13920290076E+02  0.46206798613E+02  0.48516383135E+02  0.51100000000E-03 0. -1.
         23    2    1    0    0    0  0.27681515077E+02 -0.23320268849E+01  0.75120292181E+01  0.96222661532E+02  0.91818654874E+02 0.  0.
         11    1    3    3    0    0  0.22681843246E+02 -0.16252316961E+02 -0.38694769395E+02  0.47706278396E+02  0.51100000000E-03 0.  1.
         22    1    1    0    0    0 -0.27681515077E+02  0.23320268849E+01 -0.75120292181E+01  0.28777338468E+02  0.00000000000E+00 0. -1.
</event>
<event>
 5    1  0.8900327E-005  0.9118800E+02  0.7818608E-02  0.1130116E+00
         25   -1    0    0    0    0  0.00000000000E+00  0.00000000000E+00  0.99999998245E-14  0.12500000000E+03  0.12500000000E+03 0.  0.
        -11    1    3    3    0    0  0.28522966985E+02 -0.26134279205E+02 -0.10381907853E+02  0.40054265767E+02  0.51100000000E-03 0.  1.
         23    2    1    0    0    0  0.17010319730E+02  0.21493622651E+02  0.13364998217E+02  0.94504918932E+02  0.89449593253E+02 0.  0.
         11    1    3    3    0    0 -0.11512647255E+02  0.47627901856E+02  0.23746906070E+02  0.54450653166E+02  0.51100000000E-03 0. -1.
         22    1    1    0    0    0 -0.17010319730E+02 -0.21493622651E+02 -0.13364998217E+02  0.30495081068E+02  0.00000000000E+00 0. -1.
</event>
<event>
 5    1  0.8900327E-005  0.9118800E+02  0.7818608E-02  0.1130116E+00
         25   -1    0    0    0    0  0.00000000000E+00  0.00000000000E+00  0.99999998245E-14  0.12500000000E+03  0.12500000000E+03 0.  0.
        -11    1    3    3    0    0  0.20078292423E+02  0.15545649715E+02 -0.36151710008E+02  0.44178628187E+02  0.51100000000E-03 0.  1.
         23    2    1    0    0    0 -0.11206166852E+02 -0.20914412414E+02 -0.16576035770E+02  0.96055988806E+02  0.91591469043E+02 0.  0.
         11    1    3    3    0    0 -0.31284459276E+02 -0.36460062129E+02  0.19575674238E+02  0.51877360619E+02  0.51100000000E-03 0. -1.
         22    1    1    0    0    0  0.11206166852E+02  0.20914412414E+02  0.16576035770E+02  0.28944011194E+02  0.00000000000E+00 0. -1.
</event>
<event>
 5    1  0.8900327E-005  0.9118800E+02  0.7818608E-02  0.1130116E+00
         25   -1    0    0    0    0  0.00000000000E+00  0.00000000000E+00  0.99999998245E-14  0.12500000000E+03  0.12500000000E+03 0.  0.
        -11    1    3    3    0    0  0.45145782546E+02 -0.16252815719E+02  0.36251050110E+02  0.60136796846E+02  0.51100000000E-03 0. -1.
         23    2    1    0    0    0  0.23293158411E+02  0.44158608641E+01  0.15811899308E+02  0.96502856009E+02  0.92199316712E+02 0.  0.
         11    1    3    3    0    0 -0.21852624136E+02  0.20668676583E+02 -0.20439150802E+02  0.36366059163E+02  0.51100000000E-03 0.  1.
         22    1    1    0    0    0 -0.23293158411E+02 -0.44158608641E+01 -0.15811899308E+02  0.28497143991E+02  0.00000000000E+00 0. -1.
</event>
<event>
 5    1  0.8900327E-005  0.9118800E+02  0.7818608E-02  0.1130116E+00
         25   -1    0    0    0    0  0.00000000000E+00  0.00000000000E+00  0.99999998245E-14  0.12500000000E+03  0.12500000000E+03 0.  0.
        -11    1    3    3    0    0 -0.39344419397E+02 -0.50374679673E+01  0.37120937519E+02  0.54326084193E+02  0.51100000000E-03 0.  1.
         23    2    1    0    0    0 -0.27267824489E+02 -0.22982185037E+01 -0.40666451932E+01  0.97334973997E+02  0.93320648836E+02 0.  0.
         11    1    3    3    0    0  0.12076594908E+02  0.27392494636E+01 -0.41187582712E+02  0.43008889804E+02  0.51100000000E-03 0. -1.
         22    1    1    0    0    0  0.27267824489E+02  0.22982185037E+01  0.40666451932E+01  0.27665026003E+02  0.00000000000E+00 0.  1.
</event>
<event>
 5    1  0.8900327E-005  0.9118800E+02  0.7818608E-02  0.1130116E+00
         25   -1    0    0    0    0  0.00000000000E+00  0.00000000000E+00  0.99999998245E-14  0.12500000000E+03  0.12500000000E+03 0.  0.
        -11    1    3    3    0    0  0.13884042619E+02 -0.53509402444E+02  0.28686493840E+02  0.62281118474E+02  0.51100000000E-03 0. -1.
         23    2    1    0    0    0  0.77752698745E+01 -0.26813087737E+02  0.10416170065E+02  0.95202464961E+02  0.90419114352E+02 0.  0.
         11    1    3    3    0    0 -0.61087727450E+01  0.26696314707E+02 -0.18270323775E+02  0.32921346486E+02  0.51100000000E-03 0.  1.
         22    1    1    0    0    0 -0.77752698745E+01  0.26813087737E+02 -0.10416170065E+02  0.29797535039E+02  0.00000000000E+00 0. -1.
</event>
<event>
 5    1  0.8900327E-005  0.9118800E+02  0.7818608E-02  0.1130116E+00
         25   -1    0    0    0    0  0.00000000000E+00  0.00000000000E+00  0.99999998245E-14  0.12500000000E+03  0.12500000000E+03 0.  0.
        -11    1    3    3    0    0  0.40427642270E+02  0.27694769335E+02  0.22085064384E+02  0.53750763503E+02  0.51100000000E-03 0.  1.
         23    2    1    0    0    0  0.24123249691E+02  0.29233953900E+02 -0.63549631590E+01  0.86569012593E+02  0.77570955572E+02 0.  0.
         11    1    3    3    0    0 -0.16304392579E+02  0.15391845656E+01 -0.28440027542E+02  0.32818249091E+02  0.51100000000E-03 0. -1.
         22    1    1    0    0    0 -0.24123249691E+02 -0.29233953900E+02  0.63549631590E+01  0.38430987407E+02  0.00000000000E+00 0.  1.
</event>
<event>
 5    1  0.8900327E-005  0.9118800E+02  0.7818608E-02  0.1130116E+00
         25   -1    0    0    0    0  0.00000000000E+00  0.00000000000E+00  0.99999998245E-14  0.12500000000E+03  0.12500000000E+03 0.  0.
        -11    1    3    3    0    0  0.30284323679E+02 -0.31491861517E+01 -0.13727848854E+01  0.30478552668E+02  0.51100000000E-03 0.  1.
         23    2    1    0    0    0 -0.31623833945E+02  0.48284432886E+01 -0.25347302421E+01  0.92909415783E+02  0.87191478630E+02 0.  0.
         11    1    3    3    0    0 -0.61908157625E+02  0.79776294402E+01 -0.11619453568E+01  0.62430863115E+02  0.51100000000E-03 0. -1.
         22    1    1    0    0    0  0.31623833945E+02 -0.48284432886E+01  0.25347302421E+01  0.32090584217E+02  0.00000000000E+00 0. -1.
</event>
<event>
 5    1  0.8900327E-005  0.9118800E+02  0.7818608E-02  0.1130116E+00
         25   -1    0    0    0    0  0.00000000000E+00  0.00000000000E+00  0.99999998245E-14  0.12500000000E+03  0.12500000000E+03 0.  0.
        -11    1    3    3    0    0  0.24897270405E+02  0.75632696802E+01  0.19991614976E+02  0.32813743942E+02  0.51100000000E-03 0.  1.
         23    2    1    0    0    0 -0.24481438750E+02 -0.96613730092E+01 -0.14002560691E+02  0.95188011177E+02  0.90399130494E+02 0.  0.
         11    1    3    3    0    0 -0.49378709155E+02 -0.17224642689E+02 -0.33994175667E+02  0.62374267235E+02  0.51100000000E-03 0. -1.
         22    1    1    0    0    0  0.24481438750E+02  0.96613730092E+01  0.14002560691E+02  0.29811988823E+02  0.00000000000E+00 0. -1.
</event>
<event>
 5    1  0.8900327E-005  0.9118800E+02  0.7818608E-02  0.1130116E+00
         25   -1    0    0    0    0  0.00000000000E+00  0.00000000000E+00  0.99999998245E-14  0.12500000000E+03  0.12500000000E+03 0.  0.
        -11    1    3    3    0    0 -0.44336851774E+02 -0.30641648837E+02 -0.80998681706E+01  0.54500228745E+02  0.51100000000E-03 0.  1.
         23    2    1    0    0    0 -0.20125686124E+02  0.26777493898E+01 -0.19093697036E+02  0.97129175644E+02  0.93044580235E+02 0.  0.
         11    1    3    3    0    0  0.24211165650E+02  0.33319398227E+02 -0.10993828866E+02  0.42628946899E+02  0.51100000000E-03 0. -1.
         22    1    1    0    0    0  0.20125686124E+02 -0.26777493898E+01  0.19093697036E+02  0.27870824356E+02  0.00000000000E+00 0.  1.
</event>
<event>
 5    1  0.8900327E-005  0.9118800E+02  0.7818608E-02  0.1130116E+00
         25   -1    0    0    0    0  0.00000000000E+00  0.00000000000E+00  0.99999998245E-14  0.12500000000E+03  0.12500000000E+03 0.  0.
        -11    1    3    3    0    0  0.23028318901E+02 -0.43543255823E+02  0.41064476031E+01  0.49428549556E+02  0.51100000000E-03 0.  1.
         23    2    1    0    0    0  0.19391218677E+02 -0.52632331176E+01 -0.21457803770E+02  0.95603430009E+02  0.90971740130E+02 0.  0.
         11    1    3    3    0    0 -0.36371002243E+01  0.38280022705E+02 -0.25564251373E+02  0.46174880453E+02  0.51100000000E-03 0. -1.
         22    1    1    0    0    0 -0.19391218677E+02  0.52632331176E+01  0.21457803770E+02  0.29396569991E+02  0.00000000000E+00 0.  1.
</event>
<event>
 5    1  0.8900327E-005  0.9118800E+02  0.7818608E-02  0.1130116E+00
         25   -1    0    0    0    0  0.00000000000E+00  0.00000000000E+00  0.99999998245E-14  0.12500000000E+03  0.12500000000E+03 0.  0.
        -11    1    3    3    0    0  0.28069349910E+02 -0.38696664526E+01  0.32429856696E+02  0.43064583226E+02  0.51100000000E-03 0. -1.
         23    2    1    0    0    0 -0.15862817685E+00  0.26230361201E+02 -0.44329873619E+01  0.98397210887E+02  0.94732796442E+02 0.  0.
         11    1    3    3    0    0 -0.28227978087E+02  0.30100027654E+02 -0.36862844057E+02  0.55332627661E+02  0.51100000000E-03 0.  1.
         22    1    1    0    0    0  0.15862817685E+00 -0.26230361201E+02  0.44329873619E+01  0.26602789113E+02  0.00000000000E+00 0.  1.
</event>
<event>
 5    1  0.8900327E-005  0.9118800E+02  0.7818608E-02  0.1130116E+00
         25   -1    0    0    0    0  0.00000000000E+00  0.00000000000E+00  0.99999998245E-14  0.12500000000E+03  0.12500000000E+03 0.  0.
        -11    1    3    3    0    0  0.67369425564E+01 -0.22462611930E+02  0.57855950037E+02  0.62428088907E+02  0.51100000000E-03 0.  1.
         23    2    1    0    0    0  0.16747967381E+01 -0.12553389503E+02  0.28996932273E+02  0.93358024503E+02  0.87832261303E+02 0.  0.
         11    1    3    3    0    0 -0.50621458182E+01  0.99092224271E+01 -0.28859017763E+02  0.30929935595E+02  0.51100000000E-03 0. -1.
         22    1    1    0    0    0 -0.16747967381E+01  0.12553389503E+02 -0.28996932273E+02  0.31641975497E+02  0.00000000000E+00 0.  1.
</event>
<event>
 5    1  0.8900327E-005  0.9118800E+02  0.7818608E-02  0.1130116E+00
         25   -1    0    0    0    0  0.00000000000E+00  0.00000000000E+00  0.99999998245E-14  0.12500000000E+03  0.12500000000E+03 0.  0.
        -11    1    3    3    0    0  0.24183501916E+02  0.41208845610E+02  0.35083857840E+02  0.59278054984E+02  0.51100000000E-03 0. -1.
         23    2    1    0    0    0 -0.22445716947E+01  0.23246648995E+02  0.18007598879E+02  0.95509011394E+02  0.90841911299E+02 0.  0.
         11    1    3    3    0    0 -0.26428073610E+02 -0.17962196616E+02 -0.17076258961E+02  0.36230956410E+02  0.51100000000E-03 0.  1.
         22    1    1    0    0    0  0.22445716947E+01 -0.23246648995E+02 -0.18007598879E+02  0.29490988606E+02  0.00000000000E+00 0. -1.
</event>
<event>
 5    1  0.8900327E-005  0.9118800E+02  0.7818608E-02  0.1130116E+00
         25   -1    0    0    0    0  0.00000000000E+00  0.00000000000E+00  0.99999998245E-14  0.12500000000E+03  0.12500000000E+03 0.  0.
        -11    1    3    3    0    0 -0.35403148609E+02 -0.72024681962E+00  0.33418254938E+01  0.35567815294E+02  0.51100000000E-03 0. -1.
         23    2    1    0    0    0  0.22197038274E+02 -0.17754331985E+02 -0.47676355157E+01  0.96178911180E+02  0.91759074728E+02 0.  0.
         11    1    3    3    0    0  0.57600186883E+02 -0.17034085165E+02 -0.81094610095E+01  0.60611095886E+02  0.51100000000E-03 0.  1.
         22    1    1    0    0    0 -0.22197038274E+02  0.17754331985E+02  0.47676355157E+01  0.28821088820E+02  0.00000000000E+00 0.  1.
</event>
<event>
 5    1  0.8900327E-005  0.9118800E+02  0.7818608E-02  0.1130116E+00
         25   -1    0    0    0    0  0.00000000000E+00  0.00000000000E+00  0.99999998245E-14  0.12500000000E+03  0.12500000000E+03 0.  0.
        -11    1    3    3    0    0  0.20115402023E+02 -0.12018957452E+02  0.32337287652E+02  0.39934758166E+02  0.51100000000E-03 0.  1.
         23    2    1    0    0    0  0.19663932473E+01  0.28266879274E+02 -0.29914696719E+01  0.96507333276E+02  0.92205386605E+02 0.  0.
         11    1    3    3    0    0 -0.18149008776E+02  0.40285836726E+02 -0.35328757324E+02  0.56572575110E+02  0.51100000000E-03 0. -1.
         22    1    1    0    0    0 -0.19663932473E+01 -0.28266879274E+02  0.29914696719E+01  0.28492666724E+02  0.00000000000E+00 0. -1.
</event>
<event>
 5    1  0.8900327E-005  0.9118800E+02  0.7818608E-02  0.1130116E+00
         25   -1    0    0    0    0  0.00000000000E+00  0.00000000000E+00  0.99999998245E-14  0.12500000000E+03  0.12500000000E+03 0.  0.
        -11    1    3    3    0    0 -0.33879365169E+02 -0.50095923607E+02  0.28072570038E+01  0.60541668613E+02  0.51100000000E-03 0.  1.
         23    2    1    0    0    0 -0.20060170303E+02 -0.13005322631E+02 -0.41662028996E+01  0.10073261250E+03  0.97765807549E+02 0.  0.
         11    1    3    3    0    0  0.13819194866E+02  0.37090600976E+02 -0.69734599034E+01  0.40190943890E+02  0.51100000000E-03 0. -1.
         22    1    1    0    0    0  0.20060170303E+02  0.13005322631E+02  0.41662028996E+01  0.24267387497E+02  0.00000000000E+00 0.  1.
</event>
<event>
 5    1  0.8900327E-005  0.9118800E+02  0.7818608E-02  0.1130116E+00
         25   -1    0    0    0    0  0.00000000000E+00  0.00000000000E+00  0.99999998245E-14  0.12500000000E+03  0.12500000000E+03 0.  0.
        -11    1    3    3    0    0 -0.23469673138E+02 -0.10136740281E+02  0.25508887554E+02  0.36114850203E+02  0.51100000000E-03 0. -1.
         23    2    1    0    0    0  0.10150317677E+02  0.26630025537E+02 -0.70639367479E+01  0.95638691933E+02  0.91020178989E+02 0.  0.
         11    1    3    3    0    0  0.33619990814E+02  0.36766765818E+02 -0.32572824301E+02  0.59523841730E+02  0.51100000000E-03 0.  1.
         22    1    1    0    0    0 -0.10150317677E+02 -0.26630025537E+02  0.70639367479E+01  0.29361308067E+02  0.00000000000E+00 0.  1.
</event>
<event>
 5    1  0.8900327E-005  0.9118800E+02  0.7818608E-02  0.1130116E+00
         25   -1    0    0    0    0  0.00000000000E+00  0.00000000000E+00  0.99999998245E-14  0.12500000000E+03  0.12500000000E+03 0.  0.
        -11    1    3    3    0    0  0.27173814634E+02  0.12099368869E+02  0.13929615354E+02  0.32845777704E+02  0.51100000000E-03 0. -1.
         23    2    1    0    0    0 -0.29510341018E+02 -0.70245886519E+01  0.10971131008E+02  0.92742120523E+02  0.86951308965E+02 0.  0.
         11    1    3    3    0    0 -0.56684155652E+02 -0.19123957520E+02 -0.29584843462E+01  0.59896342819E+02  0.51100000000E-03 0.  1.
         22    1    1    0    0    0  0.29510341018E+02  0.70245886519E+01 -0.10971131008E+02  0.32257879477E+02  0.00000000000E+00 0.  1.
</event>
<event>
 5    1  0.8900327E-005  0.9118800E+02  0.7818608E-02  0.1130116E+00
         25   -1    0    0    0    0  0.00000000000E+00  0.00000000000E+00  0.99999998245E-14  0.12500000000E+03  0.12500000000E+03 0.  0.
        -11    1    3    3    0    0  0.38484485696E+02 -0.37352450448E+02  0.29528362533E+02  0.61222425531E+02  0.51100000000E-03 0.  1.
         23    2    1    0    0    0  0.18842487626E+02 -0.11411973110E+02  0.20300700010E+02  0.95043516710E+02  0.90199108518E+02 0.  0.
         11    1    3    3    0    0 -0.19641998069E+02  0.25940477338E+02 -0.92276625232E+01  0.33821091179E+02  0.51100000000E-03 0. -1.
         22    1    1    0    0    0 -0.18842487626E+02  0.11411973110E+02 -0.20300700010E+02  0.29956483290E+02  0.00000000000E+00 0.  1.
</event>
<event>
 5    1  0.8900327E-005  0.9118800E+02  0.7818608E-02  0.1130116E+00
         25   -1    0    0    0    0  0.00000000000E+00  0.00000000000E+00  0.99999998245E-14  0.12500000000E+03  0.12500000000E+03 0.  0.
        -11    1    3    3    0    0 -0.61278474942E+01  0.37072817492E+02 -0.39733818651E+02  0.54687481717E+02  0.51100000000E-03 0. -1.
         23    2    1    0    0    0  0.10387620660E+02  0.29410243867E+02 -0.56892341641E+01  0.93294598368E+02  0.87741948872E+02 0.  0.
         11    1    3    3    0    0  0.16515468154E+02 -0.76625736250E+01  0.34044584487E+02  0.38607116650E+02  0.51100000000E-03 0.  1.
         22    1    1    0    0    0 -0.10387620660E+02 -0.29410243867E+02  0.56892341641E+01  0.31705401632E+02  0.00000000000E+00 0.  1.
</event>
<event>
 5    1  0.8900327E-005  0.9118800E+02  0.7818608E-02  0.1130116E+00
         25   -1    0    0    0    0  0.00000000000E+00  0.00000000000E+00  0.99999998245E-14  0.12500000000E+03  0.12500000000E+03 0.  0.
        -11    1    3    3    0    0 -0.35699211665E+02  0.22341598813E+02  0.10607952655E+02  0.43429361160E+02  0.51100000000E-03 0. -1.
         23    2    1    0    0    0  0.83695675700E+01 -0.99784983469E+00  0.27622747316E+02  0.96119876474E+02  0.91678618655E+02 0.  0.
         11    1    3    3    0    0  0.44068779235E+02 -0.23339448648E+02  0.17014794661E+02  0.52690515314E+02  0.51100000000E-03 0.  1.
         22    1    1    0    0    0 -0.83695675700E+01  0.99784983469E+00 -0.27622747316E+02  0.28880123526E+02  0.00000000000E+00 0.  1.
</event>
<event>
 5    1  0.8900327E-005  0.9118800E+02  0.7818608E-02  0.1130116E+00
         25   -1    0    0    0    0  0.00000000000E+00  0.00000000000E+00  0.99999998245E-14  0.12500000000E+03  0.12500000000E+03 0.  0.
        -11    1    3    3    0    0  0.79520373080E+01 -0.23639022316E+02 -0.37204983474E+02  0.44791171775E+02  0.51100000000E-03 0.  1.
         23    2    1    0    0    0 -0.26289451877E+02  0.10682189613E+01 -0.42632005976E+01  0.98345708581E+02  0.94664814716E+02 0.  0.
         11    1    3    3    0    0 -0.34241489185E+02  0.24707241278E+02  0.32941782877E+02  0.53554536806E+02  0.51100000000E-03 0. -1.
         22    1    1    0    0    0  0.26289451877E+02 -0.10682189613E+01  0.42632005976E+01  0.26654291419E+02  0.00000000000E+00 0.  1.
</event>
<event>
 5    1  0.8900327E-005  0.9118800E+02  0.7818608E-02  0.1130116E+00
         25   -1    0    0    0    0  0.00000000000E+00  0.00000000000E+00  0.99999998245E-14  0.12500000000E+03  0.12500000000E+03 0.  0.
        -11    1    3    3    0    0  0.38132336424E+02  0.12751517158E+02  0.18070969497E+02  0.44082152962E+02  0.51100000000E-03 0. -1.
         23    2    1    0    0    0 -0.81594966164E+01 -0.99470096238E+01  0.25756418320E+02  0.96209142594E+02  0.91800248630E+02 0.  0.
         11    1    3    3    0    0 -0.46291833040E+02 -0.22698526782E+02  0.76854488228E+01  0.52126989632E+02  0.51100000000E-03 0.  1.
         22    1    1    0    0    0  0.81594966164E+01  0.99470096238E+01 -0.25756418320E+02  0.28790857406E+02  0.00000000000E+00 0.  1.
</event>
<event>
 5    1  0.8900327E-005  0.9118800E+02  0.7818608E-02  0.1130116E+00
         25   -1    0    0    0    0  0.00000000000E+00  0.00000000000E+00  0.99999998245E-14  0.12500000000E+03  0.12500000000E+03 0.  0.
        -11    1    3    3    0    0 -0.18336806368E+02  0.98072656154E+01  0.31286770789E+02  0.37567046108E+02  0.51100000000E-03 0.  1.
         23    2    1    0    0    0 -0.65589086937E+01  0.16920713864E+02 -0.24209697721E+02  0.94743772465E+02  0.89782755116E+02 0.  0.
         11    1    3    3    0    0  0.11777897674E+02  0.71134482490E+01 -0.55496468509E+02  0.57176726357E+02  0.51100000000E-03 0. -1.
         22    1    1    0    0    0  0.65589086937E+01 -0.16920713864E+02  0.24209697721E+02  0.30256227535E+02  0.00000000000E+00 0. -1.
</event>
<event>
 5    1  0.8900327E-005  0.9118800E+02  0.7818608E-02  0.1130116E+00
         25   -1    0    0    0    0  0.00000000000E+00  0.00000000000E+00  0.99999998245E-14  0.12500000000E+03  0.12500000000E+03 0.  0.
        -11    1    3    3    0    0  0.47078337961E+02  0.34878463662E+02  0.16912824311E+02  0.60982954660E+02  0.51100000000E-03 0. -1.
         23    2    1    0    0    0  0.23889155798E+02  0.15191649802E+02 -0.16898809895E+01  0.96639222750E+02  0.92384012078E+02 0.  0.
         11    1    3    3    0    0 -0.23189182163E+02 -0.19686813861E+02 -0.18602705300E+02  0.35656268090E+02  0.51100000000E-03 0.  1.
         22    1    1    0    0    0 -0.23889155798E+02 -0.15191649802E+02  0.16898809895E+01  0.28360777250E+02  0.00000000000E+00 0. -1.
</event>
<event>
 5    1  0.8900327E-005  0.9118800E+02  0.7818608E-02  0.1130116E+00
         25   -1    0    0    0    0  0.00000000000E+00  0.00000000000E+00  0.99999998245E-14  0.12500000000E+03  0.12500000000E+03 0.  0.
        -11    1    3    3    0    0  0.20540834083E+01 -0.44532184880E+02  0.16399767660E+02  0.47500390824E+02  0.51100000000E-03 0.  1.
         23    2    1    0    0    0 -0.19179849574E+02 -0.12053954002E+01  0.21668165515E+02  0.96037455144E+02  0.91566171624E+02 0.  0.
         11    1    3    3    0    0 -0.21233932983E+02  0.43326789480E+02  0.52683978553E+01  0.48537064320E+02  0.51100000000E-03 0. -1.
         22    1    1    0    0    0  0.19179849574E+02  0.12053954002E+01 -0.21668165515E+02  0.28962544856E+02  0.00000000000E+00 0. -1.
</event>
<event>
 5    1  0.8900327E-005  0.9118800E+02  0.7818608E-02  0.1130116E+00
         25   -1    0    0    0    0  0.00000000000E+00  0.00000000000E+00  0.99999998245E-14  0.12500000000E+03  0.12500000000E+03 0.  0.
        -11    1    3    3    0    0 -0.54955402876E+01  0.32391719134E+02  0.29975893710E+02  0.44474471728E+02  0.51100000000E-03 0. -1.
         23    2    1    0    0    0 -0.24618260257E+02 -0.11194738424E+02  0.88962986180E+01  0.96530278618E+02  0.92236487653E+02 0.  0.
         11    1    3    3    0    0 -0.19122719969E+02 -0.43586457558E+02 -0.21079595092E+02  0.52055806890E+02  0.51100000000E-03 0.  1.
         22    1    1    0    0    0  0.24618260257E+02  0.11194738424E+02 -0.88962986180E+01  0.28469721382E+02  0.00000000000E+00 0.  1.
</event>
<event>
 5    1  0.8900327E-005  0.9118800E+02  0.7818608E-02  0.1130116E+00
         25   -1    0    0    0    0  0.00000000000E+00  0.00000000000E+00  0.99999998245E-14  0.12500000000E+03  0.12500000000E+03 0.  0.
        -11    1    3    3    0    0  0.31495920027E+01 -0.41548728682E+02  0.45422745235E+02  0.61639618508E+02  0.51100000000E-03 0.  1.
         23    2    1    0    0    0 -0.12068982524E+01 -0.12617898860E+02  0.23852933438E+02  0.97988328289E+02  0.94191730381E+02 0.  0.
         11    1    3    3    0    0 -0.43564902551E+01  0.28930829821E+02 -0.21569811797E+02  0.36348709781E+02  0.51100000000E-03 0. -1.
         22    1    1    0    0    0  0.12068982524E+01  0.12617898860E+02 -0.23852933438E+02  0.27011671711E+02  0.00000000000E+00 0.  1.
</event>
<event>
 5    1  0.8900327E-005  0.9118800E+02  0.7818608E-02  0.1130116E+00
         25   -1    0    0    0    0  0.00000000000E+00  0.00000000000E+00  0.99999998245E-14  0.12500000000E+03  0.12500000000E+03 0.  0.
        -11    1    3    3    0    0 -0.14756378611E+02 -0.59858247547E+02  0.38031781701E+01  0.61767504998E+02  0.51100000000E-03 0.  1.
         23    2    1    0    0    0 -0.46289382669E+01 -0.75034625247E+01 -0.33461923855E+01  0.11556994047E+03  0.11518456978E+03 0.  0.
         11    1    3    3    0    0  0.10127440344E+02  0.52354785023E+02 -0.71493705556E+01  0.53802435468E+02  0.51100000000E-03 0. -1.
         22    1    1    0    0    0  0.46289382669E+01  0.75034625247E+01  0.33461923855E+01  0.94300595342E+01  0.00000000000E+00 0.  1.
</event>
<event>
 5    1  0.8900327E-005  0.9118800E+02  0.7818608E-02  0.1130116E+00
         25   -1    0    0    0    0  0.00000000000E+00  0.00000000000E+00  0.99999998245E-14  0.12500000000E+03  0.12500000000E+03 0.  0.
        -11    1    3    3    0    0  0.46352785384E+02 -0.20842895122E+02  0.90890846758E+01  0.51629627642E+02  0.51100000000E-03 0.  1.
         23    2    1    0    0    0  0.27897013985E+02  0.37409872645E+01 -0.17144993268E+02  0.92042615863E+02  0.85939827588E+02 0.  0.
         11    1    3    3    0    0 -0.18455771400E+02  0.24583882387E+02 -0.26234077944E+02  0.40412988221E+02  0.51100000000E-03 0. -1.
         22    1    1    0    0    0 -0.27897013985E+02 -0.37409872645E+01  0.17144993268E+02  0.32957384137E+02  0.00000000000E+00 0.  1.
</event>
<event>
 5    1  0.8900327E-005  0.9118800E+02  0.7818608E-02  0.1130116E+00
         25   -1    0    0    0    0  0.00000000000E+00  0.00000000000E+00  0.99999998245E-14  0.12500000000E+03  0.12500000000E+03 0.  0.
        -11    1    3    3    0    0 -0.28130471142E+02 -0.50578575667E+01  0.11524098282E+02  0.30817368013E+02  0.51100000000E-03 0.  1.
         23    2    1    0    0    0  0.30434688440E+02 -0.25954272070E+01 -0.93750304373E+01  0.93048510230E+02  0.87390660585E+02 0.  0.
         11    1    3    3    0    0  0.58565159582E+02  0.24624303597E+01 -0.20899128719E+02  0.62231142216E+02  0.51100000000E-03 0. -1.
         22    1    1    0    0    0 -0.30434688440E+02  0.25954272070E+01  0.93750304373E+01  0.31951489770E+02  0.00000000000E+00 0. -1.
</event>
<event>
 5    1  0.8900327E-005  0.9118800E+02  0.7818608E-02  0.1130116E+00
         25   -1    0    0    0    0  0.00000000000E+00  0.00000000000E+00  0.99999998245E-14  0.12500000000E+03  0.12500000000E+03 0.  0.
        -11    1    3    3    0    0  0.37159174465E+02  0.29892998361E+02 -0.60544569789E+01  0.48073402704E+02  0.51100000000E-03 0.  1.
         23    2    1    0    0    0  0.21319244029E+01  0.39857240904E+02  0.53750789317E+00  0.85082163524E+02  0.75136814420E+02 0.  0.
         11    1    3    3    0    0 -0.35027250062E+02  0.99642425430E+01  0.65919648721E+01  0.37008760821E+02  0.51100000000E-03 0. -1.
         22    1    1    0    0    0 -0.21319244029E+01 -0.39857240904E+02 -0.53750789317E+00  0.39917836476E+02  0.00000000000E+00 0. -1.
</event>
<event>
 5    1  0.8900327E-005  0.9118800E+02  0.7818608E-02  0.1130116E+00
         25   -1    0    0    0    0  0.00000000000E+00  0.00000000000E+00  0.99999998245E-14  0.12500000000E+03  0.12500000000E+03 0.  0.
        -11    1    3    3    0    0 -0.53183871598E+02 -0.41650900184E+01 -0.31365737793E+02  0.61884421954E+02  0.51100000000E-03 0. -1.
         23    2    1    0    0    0 -0.39011525046E+02 -0.38274063288E+01 -0.28960472637E+02  0.76263390547E+02  0.58658738792E+02 0.  0.
         11    1    3    3    0    0  0.14172346552E+02  0.33768368968E+00  0.24052651554E+01  0.14378968593E+02  0.51100000000E-03 0.  1.
         22    1    1    0    0    0  0.39011525046E+02  0.38274063288E+01  0.28960472637E+02  0.48736609453E+02  0.00000000000E+00 0. -1.
</event>
<event>
 5    1  0.8900327E-005  0.9118800E+02  0.7818608E-02  0.1130116E+00
         25   -1    0    0    0    0  0.00000000000E+00  0.00000000000E+00  0.99999998245E-14  0.12500000000E+03  0.12500000000E+03 0.  0.
        -11    1    3    3    0    0  0.73380186530E+01  0.31153364871E+02 -0.29288678763E+02  0.43384390793E+02  0.51100000000E-03 0.  1.
         23    2    1    0    0    0  0.26261290382E+01 -0.19493578374E+02 -0.23154582059E+02  0.94618577685E+02  0.89608283218E+02 0.  0.
         11    1    3    3    0    0 -0.47118896148E+01 -0.50646943245E+02  0.61340967038E+01  0.51234186892E+02  0.51100000000E-03 0. -1.
         22    1    1    0    0    0 -0.26261290382E+01  0.19493578374E+02  0.23154582059E+02  0.30381422315E+02  0.00000000000E+00 0.  1.
</event>
<event>
 5    1  0.8900327E-005  0.9118800E+02  0.7818608E-02  0.1130116E+00
         25   -1    0    0    0    0  0.00000000000E+00  0.00000000000E+00  0.99999998245E-14  0.12500000000E+03  0.12500000000E+03 0.  0.
        -11    1    3    3    0    0  0.57785564624E+01  0.29984488687E+02  0.37531412001E+02  0.48384586013E+02  0.51100000000E-03 0.  1.
         23    2    1    0    0    0 -0.23045070455E+02  0.21171619436E+01  0.26190603715E+02  0.90049958942E+02  0.82990901523E+02 0.  0.
         11    1    3    3    0    0 -0.28823626917E+02 -0.27867326743E+02 -0.11340808286E+02  0.41665372929E+02  0.51100000000E-03 0. -1.
         22    1    1    0    0    0  0.23045070455E+02 -0.21171619436E+01 -0.26190603715E+02  0.34950041058E+02  0.00000000000E+00 0.  1.
</event>
<event>
 5    1  0.8900327E-005  0.9118800E+02  0.7818608E-02  0.1130116E+00
         25   -1    0    0    0    0  0.00000000000E+00  0.00000000000E+00  0.99999998245E-14  0.12500000000E+03  0.12500000000E+03 0.  0.
        -11    1    3    3    0    0  0.11999965054E+02  0.13614369613E+02 -0.36028735130E+02  0.40341293690E+02  0.51100000000E-03 0.  1.
         23    2    1    0    0    0  0.16961132816E+01 -0.26997701854E+02  0.32277827311E+01  0.97757179166E+02  0.93884475775E+02 0.  0.
         11    1    3    3    0    0 -0.10303851772E+02 -0.40612071467E+02  0.39256517861E+02  0.57415885476E+02  0.51100000000E-03 0. -1.
         22    1    1    0    0    0 -0.16961132816E+01  0.26997701854E+02 -0.32277827311E+01  0.27242820834E+02  0.00000000000E+00 0. -1.
</event>
<event>
 5    1  0.8900327E-005  0.9118800E+02  0.7818608E-02  0.1130116E+00
         25   -1    0    0    0    0  0.00000000000E+00  0.00000000000E+00  0.99999998245E-14  0.12500000000E+03  0.12500000000E+03 0.  0.
        -11    1    3    3    0    0  0.11450428741E+02 -0.28628477325E+02 -0.15685981084E+02  0.34594104052E+02  0.51100000000E-03 0. -1.
         23    2    1    0    0    0 -0.16233647995E+01  0.27246644360E+02  0.78212827756E+01  0.96606560504E+02  0.92339807916E+02 0.  0.
         11    1    3    3    0    0 -0.13073793541E+02  0.55875121685E+02  0.23507263860E+02  0.62012456452E+02  0.51100000000E-03 0.  1.
         22    1    1    0    0    0  0.16233647995E+01 -0.27246644360E+02 -0.78212827756E+01  0.28393439496E+02  0.00000000000E+00 0.  1.
</event>
<event>
 5    1  0.8900327E-005  0.9118800E+02  0.7818608E-02  0.1130116E+00
         25   -1    0    0    0    0  0.00000000000E+00  0.00000000000E+00  0.99999998245E-14  0.12500000000E+03  0.12500000000E+03 0.  0.
        -11    1    3    3    0    0  0.26774876406E+02 -0.35666936840E+02  0.22398148418E+02  0.49906927805E+02  0.51100000000E-03 0.  1.
         23    2    1    0    0    0  0.21931400477E+02  0.97957048575E+01  0.16159514825E+02  0.96050525395E+02  0.91584012517E+02 0.  0.
         11    1    3    3    0    0 -0.48434759297E+01  0.45462641697E+02 -0.62386335931E+01  0.46143597590E+02  0.51100000000E-03 0. -1.
         22    1    1    0    0    0 -0.21931400477E+02 -0.97957048575E+01 -0.16159514825E+02  0.28949474605E+02  0.00000000000E+00 0.  1.
</event>
<event>
 5    1  0.8900327E-005  0.9118800E+02  0.7818608E-02  0.1130116E+00
         25   -1    0    0    0    0  0.00000000000E+00  0.00000000000E+00  0.99999998245E-14  0.12500000000E+03  0.12500000000E+03 0.  0.
        -11    1    3    3    0    0 -0.17074998822E+02 -0.15423176385E+01 -0.39305211893E+02  0.42881627892E+02  0.51100000000E-03 0.  1.
         23    2    1    0    0    0  0.24620657551E+02 -0.13063152806E+02 -0.89532797177E+01  0.95725711670E+02  0.91139606745E+02 0.  0.
         11    1    3    3    0    0  0.41695656373E+02 -0.11520835168E+02  0.30351932175E+02  0.52844083778E+02  0.51100000000E-03 0. -1.
         22    1    1    0    0    0 -0.24620657551E+02  0.13063152806E+02  0.89532797177E+01  0.29274288330E+02  0.00000000000E+00 0.  1.
</event>
<event>
 5    1  0.8900327E-005  0.9118800E+02  0.7818608E-02  0.1130116E+00
         25   -1    0    0    0    0  0.00000000000E+00  0.00000000000E+00  0.99999998245E-14  0.12500000000E+03  0.12500000000E+03 0.  0.
        -11    1    3    3    0    0  0.94238142659E+01  0.18300415756E+02  0.32534188832E+02  0.38499180970E+02  0.51100000000E-03 0. -1.
         23    2    1    0    0    0  0.82936045207E+01  0.13432826283E+02 -0.24555734757E+02  0.95807384370E+02  0.91251553918E+02 0.  0.
         11    1    3    3    0    0 -0.11302097452E+01 -0.48675894729E+01 -0.57089923588E+02  0.57308203400E+02  0.51100000000E-03 0.  1.
         22    1    1    0    0    0 -0.82936045207E+01 -0.13432826283E+02  0.24555734757E+02  0.29192615630E+02  0.00000000000E+00 0.  1.
</event>
<event>
 5    1  0.8900327E-005  0.9118800E+02  0.7818608E-02  0.1130116E+00
         25   -1    0    0    0    0  0.00000000000E+00  0.00000000000E+00  0.99999998245E-14  0.12500000000E+03  0.12500000000E+03 0.  0.
        -11    1    3    3    0    0 -0.22603471973E+02  0.22299569343E+01 -0.37763219817E+02  0.44067566581E+02  0.51100000000E-03 0.  1.
         23    2    1    0    0    0  0.20320775911E+02  0.16546019893E+02 -0.16202751161E+02  0.94190361036E+02  0.89008933591E+02 0.  0.
         11    1    3    3    0    0  0.42924247884E+02  0.14316062958E+02  0.21560468656E+02  0.50122794455E+02  0.51100000000E-03 0. -1.
         22    1    1    0    0    0 -0.20320775911E+02 -0.16546019893E+02  0.16202751161E+02  0.30809638964E+02  0.00000000000E+00 0. -1.
</event>
<event>
 5    1  0.8900327E-005  0.9118800E+02  0.7818608E-02  0.1130116E+00
         25   -1    0    0    0    0  0.00000000000E+00  0.00000000000E+00  0.99999998245E-14  0.12500000000E+03  0.12500000000E+03 0.  0.
        -11    1    3    3    0    0 -0.27439858358E+02  0.63466686446E+01 -0.27655547077E+02  0.39472209388E+02  0.51100000000E-03 0. -1.
         23    2    1    0    0    0  0.13574465043E+02 -0.25061409680E+02 -0.42604894991E+01  0.96181739693E+02  0.91762927826E+02 0.  0.
         11    1    3    3    0    0  0.41014323401E+02 -0.31408078325E+02  0.23395057578E+02  0.56709530305E+02  0.51100000000E-03 0.  1.
         22    1    1    0    0    0 -0.13574465043E+02  0.25061409680E+02  0.42604894991E+01  0.28818260307E+02  0.00000000000E+00 0.  1.
</event>
<event>
 5    1  0.8900327E-005  0.9118800E+02  0.7818608E-02  0.1130116E+00
         25   -1    0    0    0    0  0.00000000000E+00  0.00000000000E+00  0.99999998245E-14  0.12500000000E+03  0.12500000000E+03 0.  0.
        -11    1    3    3    0    0 -0.46967868977E+02 -0.25000664611E+02 -0.27685359666E+02  0.59979105423E+02  0.51100000000E-03 0. -1.
         23    2    1    0    0    0 -0.14067645754E+02 -0.21303223409E+02 -0.14695077572E+02  0.95543739384E+02  0.90889685036E+02 0.  0.
         11    1    3    3    0    0  0.32900223224E+02  0.36974412022E+01  0.12990282094E+02  0.35564633961E+02  0.51100000000E-03 0.  1.
         22    1    1    0    0    0  0.14067645754E+02  0.21303223409E+02  0.14695077572E+02  0.29456260616E+02  0.00000000000E+00 0. -1.
</event>
<event>
 5    1  0.8900327E-005  0.9118800E+02  0.7818608E-02  0.1130116E+00
         25   -1    0    0    0    0  0.00000000000E+00  0.00000000000E+00  0.99999998245E-14  0.12500000000E+03  0.12500000000E+03 0.  0.
        -11    1    3    3    0    0 -0.26824163848E+01 -0.24574039876E+02  0.23663792751E+02  0.34220664534E+02  0.51100000000E-03 0. -1.
         23    2    1    0    0    0 -0.23673369911E+02  0.14495654671E+02 -0.15341396716E+02  0.93283901556E+02  0.87726708528E+02 0.  0.
         11    1    3    3    0    0 -0.20990953526E+02  0.39069694548E+02 -0.39005189467E+02  0.59063237023E+02  0.51100000000E-03 0.  1.
         22    1    1    0    0    0  0.23673369911E+02 -0.14495654671E+02  0.15341396716E+02  0.31716098444E+02  0.00000000000E+00 0.  1.
</event>
<event>
 5    1  0.8900327E-005  0.9118800E+02  0.7818608E-02  0.1130116E+00
         25   -1    0    0    0    0  0.00000000000E+00  0.00000000000E+00  0.99999998245E-14  0.12500000000E+03  0.12500000000E+03 0.  0.
        -11    1    3    3    0    0  0.17954337135E+02  0.33948244625E+02  0.48003918808E+02  0.61475342670E+02  0.51100000000E-03 0. -1.
         23    2    1    0    0    0  0.20416266269E+01  0.17479095641E+02  0.28241635537E+02  0.91724228010E+02  0.85475476030E+02 0.  0.
         11    1    3    3    0    0 -0.15912710508E+02 -0.16469148985E+02 -0.19762283271E+02  0.30248885341E+02  0.51100000000E-03 0.  1.
         22    1    1    0    0    0 -0.20416266269E+01 -0.17479095641E+02 -0.28241635537E+02  0.33275771990E+02  0.00000000000E+00 0. -1.
</event>
<event>
 5    1  0.8900327E-005  0.9118800E+02  0.7818608E-02  0.1130116E+00
         25   -1    0    0    0    0  0.00000000000E+00  0.00000000000E+00  0.99999998245E-14  0.12500000000E+03  0.12500000000E+03 0.  0.
        -11    1    3    3    0    0 -0.10171490453E+02 -0.35214362644E+02 -0.99905072001E+01  0.37991061959E+02  0.51100000000E-03 0. -1.
         23    2    1    0    0    0 -0.20375153595E+02  0.21023746085E+02 -0.33040116392E+01  0.95537120365E+02  0.90880581486E+02 0.  0.
         11    1    3    3    0    0 -0.10203663142E+02  0.56238108729E+02  0.66864955609E+01  0.57546058406E+02  0.51100000000E-03 0.  1.
         22    1    1    0    0    0  0.20375153595E+02 -0.21023746085E+02  0.33040116392E+01  0.29462879635E+02  0.00000000000E+00 0. -1.
</event>
<event>
 5    1  0.8900327E-005  0.9118800E+02  0.7818608E-02  0.1130116E+00
         25   -1    0    0    0    0  0.00000000000E+00  0.00000000000E+00  0.99999998245E-14  0.12500000000E+03  0.12500000000E+03 0.  0.
        -11    1    3    3    0    0 -0.42206586567E+02 -0.28390830758E+02 -0.29679916240E+02  0.58892551728E+02  0.51100000000E-03 0.  1.
         23    2    1    0    0    0 -0.24706170685E+02  0.82422931699E+00 -0.15762749514E+02  0.95682113035E+02  0.91079790616E+02 0.  0.
         11    1    3    3    0    0  0.17500415882E+02  0.29215060075E+02  0.13917166726E+02  0.36789561307E+02  0.51100000000E-03 0. -1.
         22    1    1    0    0    0  0.24706170685E+02 -0.82422931699E+00  0.15762749514E+02  0.29317886965E+02  0.00000000000E+00 0.  1.
</event>
<event>
 5    1  0.8900327E-005  0.9118800E+02  0.7818608E-02  0.1130116E+00
         25   -1    0    0    0    0  0.00000000000E+00  0.00000000000E+00  0.99999998245E-14  0.12500000000E+03  0.12500000000E+03 0.  0.
        -11    1    3    3    0    0  0.26061244796E+02  0.26722677178E+02  0.42509507300E+02  0.56571619802E+02  0.51100000000E-03 0. -1.
         23    2    1    0    0    0 -0.62554871315E+01  0.11962639487E+02  0.25905917342E+02  0.95787803641E+02  0.91224727516E+02 0.  0.
         11    1    3    3    0    0 -0.32316731928E+02 -0.14760037690E+02 -0.16603589958E+02  0.39216183839E+02  0.51100000000E-03 0.  1.
         22    1    1    0    0    0  0.62554871315E+01 -0.11962639487E+02 -0.25905917342E+02  0.29212196359E+02  0.00000000000E+00 0. -1.
</event>
<event>
 5    1  0.8900327E-005  0.9118800E+02  0.7818608E-02  0.1130116E+00
         25   -1    0    0    0    0  0.00000000000E+00  0.00000000000E+00  0.99999998245E-14  0.12500000000E+03  0.12500000000E+03 0.  0.
        -11    1    3    3    0    0  0.20147190017E+02  0.27813634008E+02 -0.17745941970E+02  0.38657805926E+02  0.51100000000E-03 0.  1.
         23    2    1    0    0    0 -0.24168264913E+02  0.89474340425E+01  0.13338175514E+02  0.95981582902E+02  0.91489866791E+02 0.  0.
         11    1    3    3    0    0 -0.44315454930E+02 -0.18866199966E+02  0.31084117484E+02  0.57323776976E+02  0.51100000000E-03 0. -1.
         22    1    1    0    0    0  0.24168264913E+02 -0.89474340425E+01 -0.13338175514E+02  0.29018417098E+02  0.00000000000E+00 0. -1.
</event>
<event>
 5    1  0.8900327E-005  0.9118800E+02  0.7818608E-02  0.1130116E+00
         25   -1    0    0    0    0  0.00000000000E+00  0.00000000000E+00  0.99999998245E-14  0.12500000000E+03  0.12500000000E+03 0.  0.
        -11    1    3    3    0    0 -0.30800788479E+01  0.71677535597E+01 -0.39644406097E+02  0.40404733780E+02  0.51100000000E-03 0.  1.
         23    2    1    0    0    0  0.28279058506E+02  0.94161378083E+01  0.47644292950E+01  0.94816087269E+02  0.89883378983E+02 0.  0.
         11    1    3    3    0    0  0.31359137354E+02  0.22483842486E+01  0.44408835392E+02  0.54411353489E+02  0.51100000000E-03 0. -1.
         22    1    1    0    0    0 -0.28279058506E+02 -0.94161378083E+01 -0.47644292950E+01  0.30183912731E+02  0.00000000000E+00 0. -1.
</event>
<event>
 5    1  0.8900327E-005  0.9118800E+02  0.7818608E-02  0.1130116E+00
         25   -1    0    0    0    0  0.00000000000E+00  0.00000000000E+00  0.99999998245E-14  0.12500000000E+03  0.12500000000E+03 0.  0.
        -11    1    3    3    0    0 -0.26846659623E+02  0.47473022284E+02 -0.11149879919E+02  0.55666424352E+02  0.51100000000E-03 0.  1.
         23    2    1    0    0    0  0.69217338990E+01  0.28658936123E+02 -0.16586276384E+01  0.95470420499E+02  0.90788794048E+02 0.  0.
         11    1    3    3    0    0  0.33768393522E+02 -0.18814086160E+02  0.94912522803E+01  0.39803996147E+02  0.51100000000E-03 0. -1.
         22    1    1    0    0    0 -0.69217338990E+01 -0.28658936123E+02  0.16586276384E+01  0.29529579501E+02  0.00000000000E+00 0.  1.
</event>
<event>
 5    1  0.8900327E-005  0.9118800E+02  0.7818608E-02  0.1130116E+00
         25   -1    0    0    0    0  0.00000000000E+00  0.00000000000E+00  0.99999998245E-14  0.12500000000E+03  0.12500000000E+03 0.  0.
        -11    1    3    3    0    0  0.47020967957E+02  0.23983633400E+02 -0.16335447087E+02  0.55254257125E+02  0.51100000000E-03 0.  1.
         23    2    1    0    0    0  0.20975628910E+02 -0.71342177698E+01 -0.18848790140E+02  0.95911325897E+02  0.91393826236E+02 0.  0.
         11    1    3    3    0    0 -0.26045339047E+02 -0.31117851170E+02 -0.25133430531E+01  0.40657068771E+02  0.51100000000E-03 0. -1.
         22    1    1    0    0    0 -0.20975628910E+02  0.71342177698E+01  0.18848790140E+02  0.29088674103E+02  0.00000000000E+00 0.  1.
</event>
<event>
 5    1  0.8900327E-005  0.9118800E+02  0.7818608E-02  0.1130116E+00
         25   -1    0    0    0    0  0.00000000000E+00  0.00000000000E+00  0.99999998245E-14  0.12500000000E+03  0.12500000000E+03 0.  0.
        -11    1    3    3    0    0  0.47704058899E+02  0.17146484119E+02 -0.15704011727E+02  0.53068777427E+02  0.51100000000E-03 0.  1.
         23    2    1    0    0    0  0.12606793601E+02  0.29660076155E+02 -0.22175970962E+01  0.92695679866E+02  0.86884520868E+02 0.  0.
         11    1    3    3    0    0 -0.35097265298E+02  0.12513592036E+02  0.13486414631E+02  0.39626902439E+02  0.51100000000E-03 0. -1.
         22    1    1    0    0    0 -0.12606793601E+02 -0.29660076155E+02  0.22175970962E+01  0.32304320134E+02  0.00000000000E+00 0. -1.
</event>
<event>
 5    1  0.8900327E-005  0.9118800E+02  0.7818608E-02  0.1130116E+00
         25   -1    0    0    0    0  0.00000000000E+00  0.00000000000E+00  0.99999998245E-14  0.12500000000E+03  0.12500000000E+03 0.  0.
        -11    1    3    3    0    0 -0.71398414341E+01 -0.23374387148E+02 -0.41132663690E+02  0.47845954194E+02  0.51100000000E-03 0.  1.
         23    2    1    0    0    0  0.25614545122E+02 -0.20314954806E+01 -0.11778035622E+02  0.96734225310E+02  0.92512465795E+02 0.  0.
         11    1    3    3    0    0  0.32754386556E+02  0.21342891668E+02  0.29354628068E+02  0.48888271116E+02  0.51100000000E-03 0. -1.
         22    1    1    0    0    0 -0.25614545122E+02  0.20314954806E+01  0.11778035622E+02  0.28265774690E+02  0.00000000000E+00 0.  1.
</event>
<event>
 5    1  0.8900327E-005  0.9118800E+02  0.7818608E-02  0.1130116E+00
         25   -1    0    0    0    0  0.00000000000E+00  0.00000000000E+00  0.99999998245E-14  0.12500000000E+03  0.12500000000E+03 0.  0.
        -11    1    3    3    0    0  0.37736708200E+02  0.22477655848E+02 -0.64733512595E+01  0.44398293154E+02  0.51100000000E-03 0.  1.
         23    2    1    0    0    0 -0.12260625157E+02  0.18721183553E+02  0.14052146619E+02  0.98575230040E+02  0.94967402354E+02 0.  0.
         11    1    3    3    0    0 -0.49997333357E+02 -0.37564722947E+01  0.20525497878E+02  0.54176936886E+02  0.51100000000E-03 0. -1.
         22    1    1    0    0    0  0.12260625157E+02 -0.18721183553E+02 -0.14052146619E+02  0.26424769960E+02  0.00000000000E+00 0. -1.
</event>
<event>
 5    1  0.8900327E-005  0.9118800E+02  0.7818608E-02  0.1130116E+00
         25   -1    0    0    0    0  0.00000000000E+00  0.00000000000E+00  0.99999998245E-14  0.12500000000E+03  0.12500000000E+03 0.  0.
        -11    1    3    3    0    0 -0.29991443199E+01 -0.25773967221E+02  0.56183192345E+02  0.61885728203E+02  0.51100000000E-03 0. -1.
         23    2    1    0    0    0 -0.73869754964E+01 -0.10496789964E+02  0.26410000215E+02  0.95636108604E+02  0.91016631179E+02 0.  0.
         11    1    3    3    0    0 -0.43878311765E+01  0.15277177257E+02 -0.29773192130E+02  0.33750380401E+02  0.51100000000E-03 0.  1.
         22    1    1    0    0    0  0.73869754964E+01  0.10496789964E+02 -0.26410000215E+02  0.29363891396E+02  0.00000000000E+00 0. -1.
</event>
<event>
 5    1  0.8900327E-005  0.9118800E+02  0.7818608E-02  0.1130116E+00
         25   -1    0    0    0    0  0.00000000000E+00  0.00000000000E+00  0.99999998245E-14  0.12500000000E+03  0.12500000000E+03 0.  0.
        -11    1    3    3    0    0  0.33531105309E+02  0.31338345505E+02  0.39808271224E+02  0.60754632584E+02  0.51100000000E-03 0. -1.
         23    2    1    0    0    0  0.24455945875E+02  0.10616542962E+02  0.14683406350E+02  0.94563070208E+02  0.89530819007E+02 0.  0.
         11    1    3    3    0    0 -0.90751594343E+01 -0.20721802543E+02 -0.25124864874E+02  0.33808437624E+02  0.51100000000E-03 0.  1.
         22    1    1    0    0    0 -0.24455945875E+02 -0.10616542962E+02 -0.14683406350E+02  0.30436929792E+02  0.00000000000E+00 0. -1.
</event>
<event>
 5    1  0.8900327E-005  0.9118800E+02  0.7818608E-02  0.1130116E+00
         25   -1    0    0    0    0  0.00000000000E+00  0.00000000000E+00  0.99999998245E-14  0.12500000000E+03  0.12500000000E+03 0.  0.
        -11    1    3    3    0    0 -0.32712179484E+02  0.10873125545E+02  0.12489907526E+02  0.36664824232E+02  0.51100000000E-03 0.  1.
         23    2    1    0    0    0  0.21135431478E+02 -0.13156602121E+02  0.15440702513E+02  0.95704643077E+02  0.91110706118E+02 0.  0.
         11    1    3    3    0    0  0.53847610962E+02 -0.24029727666E+02  0.29507949866E+01  0.59039818845E+02  0.51100000000E-03 0. -1.
         22    1    1    0    0    0 -0.21135431478E+02  0.13156602121E+02 -0.15440702513E+02  0.29295356923E+02  0.00000000000E+00 0. -1.
</event>
<event>
 5    1  0.8900327E-005  0.9118800E+02  0.7818608E-02  0.1130116E+00
         25   -1    0    0    0    0  0.00000000000E+00  0.00000000000E+00  0.99999998245E-14  0.12500000000E+03  0.12500000000E+03 0.  0.
        -11    1    3    3    0    0  0.14170618261E+02 -0.32486185887E+01 -0.34184326012E+02  0.37147383351E+02  0.51100000000E-03 0.  1.
         23    2    1    0    0    0  0.16348540203E+02  0.27653392260E+01  0.24081012570E+02  0.95762745782E+02  0.91190385708E+02 0.  0.
         11    1    3    3    0    0  0.21779219422E+01  0.60139578147E+01  0.58265338582E+02  0.58615362432E+02  0.51100000000E-03 0. -1.
         22    1    1    0    0    0 -0.16348540203E+02 -0.27653392260E+01 -0.24081012570E+02  0.29237254218E+02  0.00000000000E+00 0. -1.
</event>
<event>
 5    1  0.8900327E-005  0.9118800E+02  0.7818608E-02  0.1130116E+00
         25   -1    0    0    0    0  0.00000000000E+00  0.00000000000E+00  0.99999998245E-14  0.12500000000E+03  0.12500000000E+03 0.  0.
        -11    1    3    3    0    0  0.45695409093E+02  0.28934901248E+02  0.40396647856E+01  0.54236683289E+02  0.51100000000E-03 0.  1.
         23    2    1    0    0    0  0.16901580765E+02  0.22127029286E+02  0.22578256751E+02  0.89152454264E+02  0.81627896983E+02 0.  0.
         11    1    3    3    0    0 -0.28793828327E+02 -0.68078719617E+01  0.18538591966E+02  0.34915770974E+02  0.51100000000E-03 0. -1.
         22    1    1    0    0    0 -0.16901580765E+02 -0.22127029286E+02 -0.22578256751E+02  0.35847545736E+02  0.00000000000E+00 0.  1.
</event>
<event>
 5    1  0.8900327E-005  0.9118800E+02  0.7818608E-02  0.1130116E+00
         25   -1    0    0    0    0  0.00000000000E+00  0.00000000000E+00  0.99999998245E-14  0.12500000000E+03  0.12500000000E+03 0.  0.
        -11    1    3    3    0    0 -0.45127489765E+02 -0.68084521558E+01  0.39738206748E+01  0.45810878667E+02  0.51100000000E-03 0.  1.
         23    2    1    0    0    0 -0.87709671248E+01  0.27619790568E+02  0.26615593312E+01  0.95899027621E+02  0.91377004247E+02 0.  0.
         11    1    3    3    0    0  0.36356522640E+02  0.34428242724E+02 -0.13122613437E+01  0.50088148954E+02  0.51100000000E-03 0. -1.
         22    1    1    0    0    0  0.87709671248E+01 -0.27619790568E+02 -0.26615593312E+01  0.29100972379E+02  0.00000000000E+00 0. -1.
</event>
<event>
 5    1  0.8900327E-005  0.9118800E+02  0.7818608E-02  0.1130116E+00
         25   -1    0    0    0    0  0.00000000000E+00  0.00000000000E+00  0.99999998245E-14  0.12500000000E+03  0.12500000000E+03 0.  0.
        -11    1    3    3    0    0 -0.41425787933E+02  0.33297582870E+02 -0.42465393605E+01  0.53318458602E+02  0.51100000000E-03 0.  1.
         23    2    1    0    0    0 -0.65124953041E+00  0.30491169608E+02 -0.43750696110E+01  0.94189664330E+02  0.89007955164E+02 0.  0.
         11    1    3    3    0    0  0.40774538403E+02 -0.28064132620E+01 -0.12853025047E+00  0.40871205728E+02  0.51100000000E-03 0. -1.
         22    1    1    0    0    0  0.65124953041E+00 -0.30491169608E+02  0.43750696110E+01  0.30810335670E+02  0.00000000000E+00 0.  1.
</event>
<event>
 5    1  0.8900327E-005  0.9118800E+02  0.7818608E-02  0.1130116E+00
         25   -1    0    0    0    0  0.00000000000E+00  0.00000000000E+00  0.99999998245E-14  0.12500000000E+03  0.12500000000E+03 0.  0.
        -11    1    3    3    0    0 -0.28791563722E+02  0.82131155019E+01 -0.12016658336E+02  0.32261579094E+02  0.51100000000E-03 0.  1.
         23    2    1    0    0    0  0.30047866875E+02 -0.36505103435E+01  0.42100994901E+01  0.94439805838E+02  0.89358555603E+02 0.  0.
         11    1    3    3    0    0  0.58839430597E+02 -0.11863625845E+02  0.16226757826E+02  0.62178226744E+02  0.51100000000E-03 0. -1.
         22    1    1    0    0    0 -0.30047866875E+02  0.36505103435E+01 -0.42100994901E+01  0.30560194162E+02  0.00000000000E+00 0. -1.
</event>
<event>
 5    1  0.8900327E-005  0.9118800E+02  0.7818608E-02  0.1130116E+00
         25   -1    0    0    0    0  0.00000000000E+00  0.00000000000E+00  0.99999998245E-14  0.12500000000E+03  0.12500000000E+03 0.  0.
        -11    1    3    3    0    0 -0.19786730908E+02 -0.31668432309E+02  0.45831926449E+02  0.59118269656E+02  0.51100000000E-03 0.  1.
         23    2    1    0    0    0 -0.12540265746E+02 -0.25099512143E+02  0.11740771178E+02  0.94584716299E+02  0.89561035471E+02 0.  0.
         11    1    3    3    0    0  0.72464651619E+01  0.65689201660E+01 -0.34091155270E+02  0.35466446642E+02  0.51100000000E-03 0. -1.
         22    1    1    0    0    0  0.12540265746E+02  0.25099512143E+02 -0.11740771178E+02  0.30415283701E+02  0.00000000000E+00 0.  1.
</event>
<event>
 5    1  0.8900327E-005  0.9118800E+02  0.7818608E-02  0.1130116E+00
         25   -1    0    0    0    0  0.00000000000E+00  0.00000000000E+00  0.99999998245E-14  0.12500000000E+03  0.12500000000E+03 0.  0.
        -11    1    3    3    0    0 -0.10684209985E+02 -0.33121491473E+02 -0.51551365845E+02  0.62199106594E+02  0.51100000000E-03 0. -1.
         23    2    1    0    0    0 -0.95704916988E+00 -0.14704179390E+02 -0.25447854591E+02  0.95593841836E+02  0.90958564517E+02 0.  0.
         11    1    3    3    0    0  0.97271608148E+01  0.18417312083E+02  0.26103511253E+02  0.33394735242E+02  0.51100000000E-03 0.  1.
         22    1    1    0    0    0  0.95704916988E+00  0.14704179390E+02  0.25447854591E+02  0.29406158164E+02  0.00000000000E+00 0. -1.
</event>
<event>
 5    1  0.8900327E-005  0.9118800E+02  0.7818608E-02  0.1130116E+00
         25   -1    0    0    0    0  0.00000000000E+00  0.00000000000E+00  0.99999998245E-14  0.12500000000E+03  0.12500000000E+03 0.  0.
        -11    1    3    3    0    0  0.29118065962E+02 -0.90761985514E+01  0.39874714998E+02  0.50201912732E+02  0.51100000000E-03 0. -1.
         23    2    1    0    0    0  0.15831557159E+02 -0.24590817272E+02 -0.82742213134E+00  0.95741990437E+02  0.91161930702E+02 0.  0.
         11    1    3    3    0    0 -0.13286508803E+02 -0.15514618721E+02 -0.40702137129E+02  0.45540077705E+02  0.51100000000E-03 0.  1.
         22    1    1    0    0    0 -0.15831557159E+02  0.24590817272E+02  0.82742213134E+00  0.29258009563E+02  0.00000000000E+00 0. -1.
</event>
<event>
 5    1  0.8900327E-005  0.9118800E+02  0.7818608E-02  0.1130116E+00
         25   -1    0    0    0    0  0.00000000000E+00  0.00000000000E+00  0.99999998245E-14  0.12500000000E+03  0.12500000000E+03 0.  0.
        -11    1    3    3    0    0 -0.58743513773E+02 -0.13267381432E+02 -0.14840921035E+01  0.60241400632E+02  0.51100000000E-03 0.  1.
         23    2    1    0    0    0 -0.25724471222E+02 -0.29618551083E+01  0.10794172425E+02  0.96945853004E+02  0.92797970080E+02 0.  0.
         11    1    3    3    0    0  0.33019042552E+02  0.10305526324E+02  0.12278264529E+02  0.36704452372E+02  0.51100000000E-03 0. -1.
         22    1    1    0    0    0  0.25724471222E+02  0.29618551083E+01 -0.10794172425E+02  0.28054146996E+02  0.00000000000E+00 0.  1.
</event>
<event>
 5    1  0.8900327E-005  0.9118800E+02  0.7818608E-02  0.1130116E+00
         25   -1    0    0    0    0  0.00000000000E+00  0.00000000000E+00  0.99999998245E-14  0.12500000000E+03  0.12500000000E+03 0.  0.
        -11    1    3    3    0    0 -0.48975033518E+02 -0.12871074218E+02  0.25466106672E+02  0.56681046646E+02  0.51100000000E-03 0. -1.
         23    2    1    0    0    0 -0.25324234699E+02 -0.10487330645E+01  0.32253378634E+02  0.83979308423E+02  0.73279104155E+02 0.  0.
         11    1    3    3    0    0  0.23650798819E+02  0.11822341153E+02  0.67872719614E+01  0.27298261777E+02  0.51100000000E-03 0.  1.
         22    1    1    0    0    0  0.25324234699E+02  0.10487330645E+01 -0.32253378634E+02  0.41020691577E+02  0.00000000000E+00 0. -1.
</event>
<event>
 5    1  0.8900327E-005  0.9118800E+02  0.7818608E-02  0.1130116E+00
         25   -1    0    0    0    0  0.00000000000E+00  0.00000000000E+00  0.99999998245E-14  0.12500000000E+03  0.12500000000E+03 0.  0.
        -11    1    3    3    0    0 -0.19832897106E+02  0.54435458921E+02 -0.16904332039E+02  0.60351631606E+02  0.51100000000E-03 0.  1.
         23    2    1    0    0    0  0.22521680016E+01  0.26973798004E+02 -0.56166803079E+01  0.97355739526E+02  0.93348459449E+02 0.  0.
         11    1    3    3    0    0  0.22085065108E+02 -0.27461660917E+02  0.11287651731E+02  0.37004107921E+02  0.51100000000E-03 0. -1.
         22    1    1    0    0    0 -0.22521680016E+01 -0.26973798004E+02  0.56166803079E+01  0.27644260474E+02  0.00000000000E+00 0.  1.
</event>
<event>
 5    1  0.8900327E-005  0.9118800E+02  0.7818608E-02  0.1130116E+00
         25   -1    0    0    0    0  0.00000000000E+00  0.00000000000E+00  0.99999998245E-14  0.12500000000E+03  0.12500000000E+03 0.  0.
        -11    1    3    3    0    0  0.84712954772E+01  0.24833143634E+02 -0.33750283432E+02  0.42749614055E+02  0.51100000000E-03 0.  1.
         23    2    1    0    0    0 -0.21509923441E+02 -0.13004098445E+02 -0.19806934149E+02  0.92998468425E+02  0.87319053512E+02 0.  0.
         11    1    3    3    0    0 -0.29981218918E+02 -0.37837242079E+02  0.13943349284E+02  0.50248854370E+02  0.51100000000E-03 0. -1.
         22    1    1    0    0    0  0.21509923441E+02  0.13004098445E+02  0.19806934149E+02  0.32001531575E+02  0.00000000000E+00 0. -1.
</event>
<event>
 5    1  0.8900327E-005  0.9118800E+02  0.7818608E-02  0.1130116E+00
         25   -1    0    0    0    0  0.00000000000E+00  0.00000000000E+00  0.99999998245E-14  0.12500000000E+03  0.12500000000E+03 0.  0.
        -11    1    3    3    0    0 -0.36782620258E+02  0.62092625693E+01  0.19626261197E+02  0.42150993150E+02  0.51100000000E-03 0.  1.
         23    2    1    0    0    0 -0.39488799058E+01  0.22408286790E+02 -0.18988976650E+02  0.95363768735E+02  0.90641834622E+02 0.  0.
         11    1    3    3    0    0  0.32833740352E+02  0.16199024221E+02 -0.38615237847E+02  0.53212775585E+02  0.51100000000E-03 0. -1.
         22    1    1    0    0    0  0.39488799058E+01 -0.22408286790E+02  0.18988976650E+02  0.29636231265E+02  0.00000000000E+00 0.  1.
</event>
<event>
 5    1  0.8900327E-005  0.9118800E+02  0.7818608E-02  0.1130116E+00
         25   -1    0    0    0    0  0.00000000000E+00  0.00000000000E+00  0.99999998245E-14  0.12500000000E+03  0.12500000000E+03 0.  0.
        -11    1    3    3    0    0  0.41424970534E+02  0.12032152698E+02  0.26502397088E+02  0.50627837540E+02  0.51100000000E-03 0. -1.
         23    2    1    0    0    0  0.25322037475E+02 -0.19793595692E+02  0.44731778631E+01  0.92550017989E+02  0.86674705060E+02 0.  0.
         11    1    3    3    0    0 -0.16102933059E+02 -0.31825748390E+02 -0.22029219225E+02  0.41922180449E+02  0.51100000000E-03 0.  1.
         22    1    1    0    0    0 -0.25322037475E+02  0.19793595692E+02 -0.44731778631E+01  0.32449982011E+02  0.00000000000E+00 0.  1.
</event>
<event>
 5    1  0.8900327E-005  0.9118800E+02  0.7818608E-02  0.1130116E+00
         25   -1    0    0    0    0  0.00000000000E+00  0.00000000000E+00  0.99999998245E-14  0.12500000000E+03  0.12500000000E+03 0.  0.
        -11    1    3    3    0    0 -0.31469225623E+02 -0.12072511178E+02 -0.29613423011E+02  0.44866607963E+02  0.51100000000E-03 0. -1.
         23    2    1    0    0    0  0.10315653164E+01 -0.28612305292E+02  0.58981761062E+01  0.95767883715E+02  0.91197428301E+02 0.  0.
         11    1    3    3    0    0  0.32500790939E+02 -0.16539794114E+02  0.35511599117E+02  0.50901275752E+02  0.51100000000E-03 0.  1.
         22    1    1    0    0    0 -0.10315653164E+01  0.28612305292E+02 -0.58981761062E+01  0.29232116285E+02  0.00000000000E+00 0. -1.
</event>
<event>
 5    1  0.8900327E-005  0.9118800E+02  0.7818608E-02  0.1130116E+00
         25   -1    0    0    0    0  0.00000000000E+00  0.00000000000E+00  0.99999998245E-14  0.12500000000E+03  0.12500000000E+03 0.  0.
        -11    1    3    3    0    0  0.47874807800E+02 -0.18546303984E+02  0.30988240124E+02  0.59968605450E+02  0.51100000000E-03 0. -1.
         23    2    1    0    0    0  0.18210274007E+02 -0.18493253505E+02  0.70002784611E+01  0.98118437487E+02  0.94364237780E+02 0.  0.
         11    1    3    3    0    0 -0.29664533793E+02  0.53050479790E-01 -0.23987961663E+02  0.38149832038E+02  0.51100000000E-03 0.  1.
         22    1    1    0    0    0 -0.18210274007E+02  0.18493253505E+02 -0.70002784611E+01  0.26881562513E+02  0.00000000000E+00 0. -1.
</event>
<event>
 5    1  0.8900327E-005  0.9118800E+02  0.7818608E-02  0.1130116E+00
         25   -1    0    0    0    0  0.00000000000E+00  0.00000000000E+00  0.99999998245E-14  0.12500000000E+03  0.12500000000E+03 0.  0.
        -11    1    3    3    0    0  0.65925251859E+01 -0.60978968185E+02 -0.66342879363E+01  0.61692055615E+02  0.51100000000E-03 0.  1.
         23    2    1    0    0    0 -0.38908396546E+01 -0.29245481716E+02 -0.41779398332E+01  0.95202483069E+02  0.90419139385E+02 0.  0.
         11    1    3    3    0    0 -0.10483364840E+02  0.31733486469E+02  0.24563481031E+01  0.33510427454E+02  0.51100000000E-03 0. -1.
         22    1    1    0    0    0  0.38908396546E+01  0.29245481716E+02  0.41779398332E+01  0.29797516931E+02  0.00000000000E+00 0.  1.
</event>
<event>
 5    1  0.8900327E-005  0.9118800E+02  0.7818608E-02  0.1130116E+00
         25   -1    0    0    0    0  0.00000000000E+00  0.00000000000E+00  0.99999998245E-14  0.12500000000E+03  0.12500000000E+03 0.  0.
        -11    1    3    3    0    0  0.18012544705E+02 -0.41582212374E+02  0.27446273658E+02  0.52979525202E+02  0.51100000000E-03 0.  1.
         23    2    1    0    0    0  0.13778006984E+01 -0.16846603569E+01  0.28693577790E+02  0.96224006157E+02  0.91820485401E+02 0.  0.
         11    1    3    3    0    0 -0.16634744007E+02  0.39897552017E+02  0.12473041322E+01  0.43244480955E+02  0.51100000000E-03 0. -1.
         22    1    1    0    0    0 -0.13778006984E+01  0.16846603569E+01 -0.28693577790E+02  0.28775993843E+02  0.00000000000E+00 0.  1.
</event>
<event>
 5    1  0.8900327E-005  0.9118800E+02  0.7818608E-02  0.1130116E+00
         25   -1    0    0    0    0  0.00000000000E+00  0.00000000000E+00  0.99999998245E-14  0.12500000000E+03  0.12500000000E+03 0.  0.
        -11    1    3    3    0    0  0.86741399959E+01  0.31261973211E+02  0.70286476478E+01  0.33195685890E+02  0.51100000000E-03 0. -1.
         23    2    1    0    0    0 -0.22688098761E+02 -0.17514699534E+02 -0.11564561775E+02  0.94092822610E+02  0.88871849607E+02 0.  0.
         11    1    3    3    0    0 -0.31362238757E+02 -0.48776672744E+02 -0.18593209423E+02  0.60897136720E+02  0.51100000000E-03 0.  1.
         22    1    1    0    0    0  0.22688098761E+02  0.17514699534E+02  0.11564561775E+02  0.30907177390E+02  0.00000000000E+00 0.  1.
</event>
<event>
 5    1  0.8900327E-005  0.9118800E+02  0.7818608E-02  0.1130116E+00
         25   -1    0    0    0    0  0.00000000000E+00  0.00000000000E+00  0.99999998245E-14  0.12500000000E+03  0.12500000000E+03 0.  0.
        -11    1    3    3    0    0 -0.17671225692E+02  0.18414761453E+02  0.39597749612E+02  0.47110056585E+02  0.51100000000E-03 0.  1.
         23    2    1    0    0    0 -0.18415820783E+02  0.25687509101E+02 -0.56048863635E+01  0.92900072741E+02  0.87178083170E+02 0.  0.
         11    1    3    3    0    0 -0.74459509029E+00  0.72727476473E+01 -0.45202635975E+02  0.45790016156E+02  0.51100000000E-03 0. -1.
         22    1    1    0    0    0  0.18415820783E+02 -0.25687509101E+02  0.56048863635E+01  0.32099927259E+02  0.00000000000E+00 0.  1.
</event>
<event>
 5    1  0.8900327E-005  0.9118800E+02  0.7818608E-02  0.1130116E+00
         25   -1    0    0    0    0  0.00000000000E+00  0.00000000000E+00  0.99999998245E-14  0.12500000000E+03  0.12500000000E+03 0.  0.
        -11    1    3    3    0    0 -0.13658677196E+02 -0.14781844995E+02 -0.35309557165E+02  0.40642677467E+02  0.51100000000E-03 0.  1.
         23    2    1    0    0    0  0.28824213147E+02 -0.32545765547E+01 -0.18519896849E+01  0.95933569227E+02  0.91424243539E+02 0.  0.
         11    1    3    3    0    0  0.42482890344E+02  0.11527268440E+02  0.33457567480E+02  0.55290891760E+02  0.51100000000E-03 0. -1.
         22    1    1    0    0    0 -0.28824213147E+02  0.32545765547E+01  0.18519896849E+01  0.29066430773E+02  0.00000000000E+00 0. -1.
</event>
<event>
 5    1  0.8900327E-005  0.9118800E+02  0.7818608E-02  0.1130116E+00
         25   -1    0    0    0    0  0.00000000000E+00  0.00000000000E+00  0.99999998245E-14  0.12500000000E+03  0.12500000000E+03 0.  0.
        -11    1    3    3    0    0  0.69010473989E+01 -0.54919505814E+01 -0.50396592396E+02  0.51162510706E+02  0.51100000000E-03 0. -1.
         23    2    1    0    0    0 -0.21918686523E+02  0.63012768680E+01 -0.20350291264E+02  0.94434181451E+02  0.89350687533E+02 0.  0.
         11    1    3    3    0    0 -0.28819733922E+02  0.11793227449E+02  0.30046301132E+02  0.43271670744E+02  0.51100000000E-03 0.  1.
         22    1    1    0    0    0  0.21918686523E+02 -0.63012768680E+01  0.20350291264E+02  0.30565818549E+02  0.00000000000E+00 0.  1.
</event>
<event>
 5    1  0.8900327E-005  0.9118800E+02  0.7818608E-02  0.1130116E+00
         25   -1    0    0    0    0  0.00000000000E+00  0.00000000000E+00  0.99999998245E-14  0.12500000000E+03  0.12500000000E+03 0.  0.
        -11    1    3    3    0    0  0.34963952387E+02 -0.40891609824E+02 -0.26503148226E+02  0.59975149743E+02  0.51100000000E-03 0. -1.
         23    2    1    0    0    0  0.26289302184E+02 -0.12349098614E+02 -0.88604831200E+01  0.94633310898E+02  0.89628833110E+02 0.  0.
         11    1    3    3    0    0 -0.86746502030E+01  0.28542511210E+02  0.17642665107E+02  0.34658161155E+02  0.51100000000E-03 0.  1.
         22    1    1    0    0    0 -0.26289302184E+02  0.12349098614E+02  0.88604831200E+01  0.30366689102E+02  0.00000000000E+00 0. -1.
</event>
<event>
 5    1  0.8900327E-005  0.9118800E+02  0.7818608E-02  0.1130116E+00
         25   -1    0    0    0    0  0.00000000000E+00  0.00000000000E+00  0.99999998245E-14  0.12500000000E+03  0.12500000000E+03 0.  0.
        -11    1    3    3    0    0  0.96521715657E+01 -0.16889445202E+02 -0.20405496793E+02  0.28192234299E+02  0.51100000000E-03 0.  1.
         23    2    1    0    0    0 -0.12292955340E+02  0.15046572245E+02  0.28449618578E+02  0.90548630150E+02  0.83738626317E+02 0.  0.
         11    1    3    3    0    0 -0.21945126906E+02  0.31936017447E+02  0.48855115371E+02  0.62356395850E+02  0.51100000000E-03 0. -1.
         22    1    1    0    0    0  0.12292955340E+02 -0.15046572245E+02 -0.28449618578E+02  0.34451369850E+02  0.00000000000E+00 0. -1.
</event>
<event>
 5    1  0.8900327E-005  0.9118800E+02  0.7818608E-02  0.1130116E+00
         25   -1    0    0    0    0  0.00000000000E+00  0.00000000000E+00  0.99999998245E-14  0.12500000000E+03  0.12500000000E+03 0.  0.
        -11    1    3    3    0    0 -0.16220681206E+02 -0.11846066629E+02  0.28459366295E+02  0.34833537339E+02  0.51100000000E-03 0.  1.
         23    2    1    0    0    0  0.62162034582E+01  0.17253039491E+02 -0.21430171015E+02  0.96794312864E+02  0.92593618656E+02 0.  0.
         11    1    3    3    0    0  0.22436884664E+02  0.29099106119E+02 -0.49889537310E+02  0.61960775525E+02  0.51100000000E-03 0. -1.
         22    1    1    0    0    0 -0.62162034582E+01 -0.17253039491E+02  0.21430171015E+02  0.28205687136E+02  0.00000000000E+00 0. -1.
</event>
<event>
 5    1  0.8900327E-005  0.9118800E+02  0.7818608E-02  0.1130116E+00
         25   -1    0    0    0    0  0.00000000000E+00  0.00000000000E+00  0.99999998245E-14  0.12500000000E+03  0.12500000000E+03 0.  0.
        -11    1    3    3    0    0  0.15802900820E+02 -0.27228385300E+02 -0.37738125643E+02  0.49145526426E+02  0.51100000000E-03 0. -1.
         23    2    1    0    0    0  0.12876482762E+02 -0.21906053854E+02  0.10311320978E+02  0.97577338859E+02  0.93644726038E+02 0.  0.
         11    1    3    3    0    0 -0.29264180577E+01  0.53223314464E+01  0.48049446621E+02  0.48431812433E+02  0.51100000000E-03 0.  1.
         22    1    1    0    0    0 -0.12876482762E+02  0.21906053854E+02 -0.10311320978E+02  0.27422661141E+02  0.00000000000E+00 0. -1.
</event>
<event>
 5    1  0.8900327E-005  0.9118800E+02  0.7818608E-02  0.1130116E+00
         25   -1    0    0    0    0  0.00000000000E+00  0.00000000000E+00  0.99999998245E-14  0.12500000000E+03  0.12500000000E+03 0.  0.
        -11    1    3    3    0    0 -0.18706066222E+02 -0.28009477247E+02 -0.36122260222E+02  0.49388919941E+02  0.51100000000E-03 0.  1.
         23    2    1    0    0    0  0.92185814647E+01 -0.26353537429E+02  0.23788132418E+01  0.96979473030E+02  0.92843245621E+02 0.  0.
         11    1    3    3    0    0  0.27924647687E+02  0.16559398176E+01  0.38501073464E+02  0.47590553088E+02  0.51100000000E-03 0. -1.
         22    1    1    0    0    0 -0.92185814647E+01  0.26353537429E+02 -0.23788132418E+01  0.28020526970E+02  0.00000000000E+00 0.  1.
</event>
<event>
 5    1  0.8900327E-005  0.9118800E+02  0.7818608E-02  0.1130116E+00
         25   -1    0    0    0    0  0.00000000000E+00  0.00000000000E+00  0.99999998245E-14  0.12500000000E+03  0.12500000000E+03 0.  0.
        -11    1    3    3    0    0  0.37567317605E+02  0.25626641530E+02 -0.86858980560E+01  0.46297655810E+02  0.51100000000E-03 0. -1.
         23    2    1    0    0    0 -0.18402799092E+01  0.21814513594E+02  0.20125556327E+02  0.95262857384E+02  0.90502565411E+02 0.  0.
         11    1    3    3    0    0 -0.39407597515E+02 -0.38121279362E+01  0.28811454383E+02  0.48965201574E+02  0.51100000000E-03 0.  1.
         22    1    1    0    0    0  0.18402799092E+01 -0.21814513594E+02 -0.20125556327E+02  0.29737142616E+02  0.00000000000E+00 0.  1.
</event>
<event>
 5    1  0.8900327E-005  0.9118800E+02  0.7818608E-02  0.1130116E+00
         25   -1    0    0    0    0  0.00000000000E+00  0.00000000000E+00  0.99999998245E-14  0.12500000000E+03  0.12500000000E+03 0.  0.
        -11    1    3    3    0    0 -0.28339599608E+02 -0.34205908194E+02 -0.33965287477E+02  0.55917956105E+02  0.51100000000E-03 0.  1.
         23    2    1    0    0    0 -0.25142886213E+02 -0.14889996093E+02  0.74506943643E+00  0.95769333924E+02  0.91199416013E+02 0.  0.
         11    1    3    3    0    0  0.31967133952E+01  0.19315912101E+02  0.34710356913E+02  0.39851377819E+02  0.51100000000E-03 0. -1.
         22    1    1    0    0    0  0.25142886213E+02  0.14889996093E+02 -0.74506943643E+00  0.29230666076E+02  0.00000000000E+00 0.  1.
</event>
<event>
 5    1  0.8900327E-005  0.9118800E+02  0.7818608E-02  0.1130116E+00
         25   -1    0    0    0    0  0.00000000000E+00  0.00000000000E+00  0.99999998245E-14  0.12500000000E+03  0.12500000000E+03 0.  0.
        -11    1    3    3    0    0  0.45052761775E+02 -0.26969668984E+02 -0.22004978065E+02  0.56932709830E+02  0.51100000000E-03 0.  1.
         23    2    1    0    0    0  0.22267032959E+02 -0.47047183324E+01 -0.27545762233E+02  0.89268723107E+02  0.81805750267E+02 0.  0.
         11    1    3    3    0    0 -0.22785728816E+02  0.22264950651E+02 -0.55407841685E+01  0.32336013277E+02  0.51100000000E-03 0. -1.
         22    1    1    0    0    0 -0.22267032959E+02  0.47047183324E+01  0.27545762233E+02  0.35731276893E+02  0.00000000000E+00 0.  1.
</event>
<event>
 5    1  0.8900327E-005  0.9118800E+02  0.7818608E-02  0.1130116E+00
         25   -1    0    0    0    0  0.00000000000E+00  0.00000000000E+00  0.99999998245E-14  0.12500000000E+03  0.12500000000E+03 0.  0.
        -11    1    3    3    0    0 -0.20642539449E+02  0.31842653271E+02  0.37813049317E+02  0.53571407496E+02  0.51100000000E-03 0.  1.
         23    2    1    0    0    0  0.99711791772E+01  0.27302726431E+02  0.13382033168E+02  0.93000904756E+02  0.87322541127E+02 0.  0.
         11    1    3    3    0    0  0.30613718626E+02 -0.45399268400E+01 -0.24431016149E+02  0.39429497260E+02  0.51100000000E-03 0. -1.
         22    1    1    0    0    0 -0.99711791772E+01 -0.27302726431E+02 -0.13382033168E+02  0.31999095244E+02  0.00000000000E+00 0.  1.
</event>
<event>
 5    1  0.8900327E-005  0.9118800E+02  0.7818608E-02  0.1130116E+00
         25   -1    0    0    0    0  0.00000000000E+00  0.00000000000E+00  0.99999998245E-14  0.12500000000E+03  0.12500000000E+03 0.  0.
        -11    1    3    3    0    0  0.11847982036E+02 -0.28229354239E+02 -0.66633593304E+01  0.31331636997E+02  0.51100000000E-03 0. -1.
         23    2    1    0    0    0 -0.13975945157E+02  0.19803552192E+02 -0.26244237695E+02  0.89275110432E+02  0.81815509581E+02 0.  0.
         11    1    3    3    0    0 -0.25823927193E+02  0.48032906431E+02 -0.19580878365E+02  0.57943473435E+02  0.51100000000E-03 0.  1.
         22    1    1    0    0    0  0.13975945157E+02 -0.19803552192E+02  0.26244237695E+02  0.35724889568E+02  0.00000000000E+00 0.  1.
</event>
<event>
 5    1  0.8900327E-005  0.9118800E+02  0.7818608E-02  0.1130116E+00
         25   -1    0    0    0    0  0.00000000000E+00  0.00000000000E+00  0.99999998245E-14  0.12500000000E+03  0.12500000000E+03 0.  0.
        -11    1    3    3    0    0  0.23279820927E+02  0.20078884947E+02 -0.41184232431E+02  0.51393119037E+02  0.51100000000E-03 0. -1.
         23    2    1    0    0    0 -0.72240328694E+01 -0.92572118999E+01 -0.26200375362E+02  0.96288638274E+02  0.91908430345E+02 0.  0.
         11    1    3    3    0    0 -0.30503853797E+02 -0.29336096847E+02  0.14983857069E+02  0.44895519237E+02  0.51100000000E-03 0.  1.
         22    1    1    0    0    0  0.72240328694E+01  0.92572118999E+01  0.26200375362E+02  0.28711361726E+02  0.00000000000E+00 0. -1.
</event>
<event>
 5    1  0.8900327E-005  0.9118800E+02  0.7818608E-02  0.1130116E+00
         25   -1    0    0    0    0  0.00000000000E+00  0.00000000000E+00  0.99999998245E-14  0.12500000000E+03  0.12500000000E+03 0.  0.
        -11    1    3    3    0    0 -0.10458672295E+02 -0.16611335504E+02  0.29328989838E+02  0.35291782876E+02  0.51100000000E-03 0.  1.
         23    2    1    0    0    0 -0.60714021736E+01  0.24652902799E+02 -0.14592299753E+02  0.95715827605E+02  0.91126049521E+02 0.  0.
         11    1    3    3    0    0  0.43872701212E+01  0.41264238303E+02 -0.43921289591E+02  0.60424044729E+02  0.51100000000E-03 0. -1.
         22    1    1    0    0    0  0.60714021736E+01 -0.24652902799E+02  0.14592299753E+02  0.29284172395E+02  0.00000000000E+00 0. -1.
</event>
<event>
 5    1  0.8900327E-005  0.9118800E+02  0.7818608E-02  0.1130116E+00
         25   -1    0    0    0    0  0.00000000000E+00  0.00000000000E+00  0.99999998245E-14  0.12500000000E+03  0.12500000000E+03 0.  0.
        -11    1    3    3    0    0 -0.13428362615E+02  0.99512340922E+01  0.53020619947E+02  0.55592572546E+02  0.51100000000E-03 0.  1.
         23    2    1    0    0    0  0.12545258335E+02 -0.23569634012E+01  0.29931480194E+02  0.92460296717E+02  0.86545214652E+02 0.  0.
         11    1    3    3    0    0  0.25973620950E+02 -0.12308197493E+02 -0.23089139753E+02  0.36867724171E+02  0.51100000000E-03 0. -1.
         22    1    1    0    0    0 -0.12545258335E+02  0.23569634012E+01 -0.29931480194E+02  0.32539703283E+02  0.00000000000E+00 0.  1.
</event>
<event>
 5    1  0.8900327E-005  0.9118800E+02  0.7818608E-02  0.1130116E+00
         25   -1    0    0    0    0  0.00000000000E+00  0.00000000000E+00  0.99999998245E-14  0.12500000000E+03  0.12500000000E+03 0.  0.
        -11    1    3    3    0    0  0.25583556315E+01 -0.60518721299E+02 -0.39884463851E+01  0.60703941520E+02  0.51100000000E-03 0.  1.
         23    2    1    0    0    0 -0.90620482802E+01 -0.27163584744E+02  0.83127704237E+00  0.96352625309E+02  0.91995414708E+02 0.  0.
         11    1    3    3    0    0 -0.11620403912E+02  0.33355136556E+02  0.48197234274E+01  0.35648683789E+02  0.51100000000E-03 0. -1.
         22    1    1    0    0    0  0.90620482802E+01  0.27163584744E+02 -0.83127704237E+00  0.28647374691E+02  0.00000000000E+00 0.  1.
</event>
<event>
 5    1  0.8900327E-005  0.9118800E+02  0.7818608E-02  0.1130116E+00
         25   -1    0    0    0    0  0.00000000000E+00  0.00000000000E+00  0.99999998245E-14  0.12500000000E+03  0.12500000000E+03 0.  0.
        -11    1    3    3    0    0 -0.21894794538E+02  0.38130986395E+02  0.68647529884E+01  0.44502572792E+02  0.51100000000E-03 0.  1.
         23    2    1    0    0    0  0.24876635376E+01 -0.94635137037E-01 -0.24972351806E+02  0.99903869214E+02  0.96700399707E+02 0.  0.
         11    1    3    3    0    0  0.24382458075E+02 -0.38225621532E+02 -0.31837104795E+02  0.55401296422E+02  0.51100000000E-03 0. -1.
         22    1    1    0    0    0 -0.24876635376E+01  0.94635137037E-01  0.24972351806E+02  0.25096130786E+02  0.00000000000E+00 0. -1.
</event>
<event>
 5    1  0.8900327E-005  0.9118800E+02  0.7818608E-02  0.1130116E+00
         25   -1    0    0    0    0  0.00000000000E+00  0.00000000000E+00  0.99999998245E-14  0.12500000000E+03  0.12500000000E+03 0.  0.
        -11    1    3    3    0    0  0.45263996058E+02  0.29360555548E+02 -0.14416590103E+02  0.55845408331E+02  0.51100000000E-03 0.  1.
         23    2    1    0    0    0  0.17543857318E+02  0.54617415504E+00 -0.22322726307E+02  0.96603004638E+02  0.92334994231E+02 0.  0.
         11    1    3    3    0    0 -0.27720138740E+02 -0.28814381393E+02 -0.79061362040E+01  0.40757596307E+02  0.51100000000E-03 0. -1.
         22    1    1    0    0    0 -0.17543857318E+02 -0.54617415504E+00  0.22322726307E+02  0.28396995362E+02  0.00000000000E+00 0.  1.
</event>
<event>
 5    1  0.8900327E-005  0.9118800E+02  0.7818608E-02  0.1130116E+00
         25   -1    0    0    0    0  0.00000000000E+00  0.00000000000E+00  0.99999998245E-14  0.12500000000E+03  0.12500000000E+03 0.  0.
        -11    1    3    3    0    0 -0.55869234035E+02 -0.26258510595E+02  0.51814927141E+01  0.61949403204E+02  0.51100000000E-03 0. -1.
         23    2    1    0    0    0 -0.28666909732E+02 -0.73354055225E+01  0.43059249447E+01  0.95097811495E+02  0.90274320123E+02 0.  0.
         11    1    3    3    0    0  0.27202324303E+02  0.18923105072E+02 -0.87556776937E+00  0.33148408291E+02  0.51100000000E-03 0.  1.
         22    1    1    0    0    0  0.28666909732E+02  0.73354055225E+01 -0.43059249447E+01  0.29902188505E+02  0.00000000000E+00 0. -1.
</event>
<event>
 5    1  0.8900327E-005  0.9118800E+02  0.7818608E-02  0.1130116E+00
         25   -1    0    0    0    0  0.00000000000E+00  0.00000000000E+00  0.99999998245E-14  0.12500000000E+03  0.12500000000E+03 0.  0.
        -11    1    3    3    0    0  0.28794188184E+02  0.69904390712E+01  0.24991084644E+02  0.38762427988E+02  0.51100000000E-03 0. -1.
         23    2    1    0    0    0  0.16646271299E+02 -0.77393228538E+01 -0.25978086750E+02  0.93190308747E+02  0.87593248523E+02 0.  0.
         11    1    3    3    0    0 -0.12147916885E+02 -0.14729761925E+02 -0.50969171394E+02  0.54427880759E+02  0.51100000000E-03 0.  1.
         22    1    1    0    0    0 -0.16646271299E+02  0.77393228538E+01  0.25978086750E+02  0.31809691253E+02  0.00000000000E+00 0.  1.
</event>
<event>
 5    1  0.8900327E-005  0.9118800E+02  0.7818608E-02  0.1130116E+00
         25   -1    0    0    0    0  0.00000000000E+00  0.00000000000E+00  0.99999998245E-14  0.12500000000E+03  0.12500000000E+03 0.  0.
        -11    1    3    3    0    0  0.27558021945E+02  0.41379132455E+02  0.37411676208E+02  0.62219857708E+02  0.51100000000E-03 0. -1.
         23    2    1    0    0    0  0.16339379264E+02  0.17334937389E+02  0.16159571929E+02  0.96214463112E+02  0.91807493039E+02 0.  0.
         11    1    3    3    0    0 -0.11218642681E+02 -0.24044195067E+02 -0.21252104279E+02  0.33994605404E+02  0.51100000000E-03 0.  1.
         22    1    1    0    0    0 -0.16339379264E+02 -0.17334937389E+02 -0.16159571929E+02  0.28785536888E+02  0.00000000000E+00 0. -1.
</event>
<event>
 5    1  0.8900327E-005  0.9118800E+02  0.7818608E-02  0.1130116E+00
         25   -1    0    0    0    0  0.00000000000E+00  0.00000000000E+00  0.99999998245E-14  0.12500000000E+03  0.12500000000E+03 0.  0.
        -11    1    3    3    0    0  0.47040020805E+02 -0.26879376126E+01 -0.26414525190E+02  0.54015883842E+02  0.51100000000E-03 0. -1.
         23    2    1    0    0    0  0.12986153316E+02 -0.22780904982E+02 -0.12677020142E+02  0.95874124057E+02  0.91342930839E+02 0.  0.
         11    1    3    3    0    0 -0.34053867489E+02 -0.20092967369E+02  0.13737505048E+02  0.41858240215E+02  0.51100000000E-03 0.  1.
         22    1    1    0    0    0 -0.12986153316E+02  0.22780904982E+02  0.12677020142E+02  0.29125875943E+02  0.00000000000E+00 0. -1.
</event>
<event>
 5    1  0.8900327E-005  0.9118800E+02  0.7818608E-02  0.1130116E+00
         25   -1    0    0    0    0  0.00000000000E+00  0.00000000000E+00  0.99999998245E-14  0.12500000000E+03  0.12500000000E+03 0.  0.
        -11    1    3    3    0    0 -0.41417152704E+02  0.78375059331E+01  0.39282882728E+02  0.57619023881E+02  0.51100000000E-03 0. -1.
         23    2    1    0    0    0 -0.32190423779E+01 -0.29037351581E+01  0.24745205628E+02  0.99877915826E+02  0.96666845177E+02 0.  0.
         11    1    3    3    0    0  0.38198110326E+02 -0.10741241091E+02 -0.14537677100E+02  0.42258891944E+02  0.51100000000E-03 0.  1.
         22    1    1    0    0    0  0.32190423779E+01  0.29037351581E+01 -0.24745205628E+02  0.25122084174E+02  0.00000000000E+00 0. -1.
</event>
<event>
 5    1  0.8900327E-005  0.9118800E+02  0.7818608E-02  0.1130116E+00
         25   -1    0    0    0    0  0.00000000000E+00  0.00000000000E+00  0.99999998245E-14  0.12500000000E+03  0.12500000000E+03 0.  0.
        -11    1    3    3    0    0  0.34750404825E+02 -0.16855458244E+02 -0.48241105428E+01  0.38922604627E+02  0.51100000000E-03 0.  1.
         23    2    1    0    0    0 -0.10924869457E+02 -0.40445789682E+01  0.26692833069E+02  0.95875805094E+02  0.91345231257E+02 0.  0.
         11    1    3    3    0    0 -0.45675274282E+02  0.12810879276E+02  0.31516943612E+02  0.56953200467E+02  0.51100000000E-03 0. -1.
         22    1    1    0    0    0  0.10924869457E+02  0.40445789682E+01 -0.26692833069E+02  0.29124194906E+02  0.00000000000E+00 0. -1.
</event>
<event>
 5    1  0.8900327E-005  0.9118800E+02  0.7818608E-02  0.1130116E+00
         25   -1    0    0    0    0  0.00000000000E+00  0.00000000000E+00  0.99999998245E-14  0.12500000000E+03  0.12500000000E+03 0.  0.
        -11    1    3    3    0    0 -0.13092179892E+02 -0.39959648439E+02  0.47412274076E+01  0.42316166122E+02  0.51100000000E-03 0. -1.
         23    2    1    0    0    0  0.22734661925E+02 -0.75700913879E+00  0.16733530144E+02  0.96760861437E+02  0.92548448713E+02 0.  0.
         11    1    3    3    0    0  0.35826841817E+02  0.39202639300E+02  0.11992302737E+02  0.54444695315E+02  0.51100000000E-03 0.  1.
         22    1    1    0    0    0 -0.22734661925E+02  0.75700913879E+00 -0.16733530144E+02  0.28239138563E+02  0.00000000000E+00 0.  1.
</event>
<event>
 5    1  0.8900327E-005  0.9118800E+02  0.7818608E-02  0.1130116E+00
         25   -1    0    0    0    0  0.00000000000E+00  0.00000000000E+00  0.99999998245E-14  0.12500000000E+03  0.12500000000E+03 0.  0.
        -11    1    3    3    0    0  0.50070338686E+02  0.25882133438E+02  0.20237066870E+02  0.59887081438E+02  0.51100000000E-03 0.  1.
         23    2    1    0    0    0  0.19670631480E+02  0.17916322433E+02 -0.18970327316E+01  0.98325534953E+02  0.94638172733E+02 0.  0.
         11    1    3    3    0    0 -0.30399707206E+02 -0.79658110050E+01 -0.22134099601E+02  0.38438453515E+02  0.51100000000E-03 0. -1.
         22    1    1    0    0    0 -0.19670631480E+02 -0.17916322433E+02  0.18970327316E+01  0.26674465047E+02  0.00000000000E+00 0.  1.
</event>
<event>
 5    1  0.8900327E-005  0.9118800E+02  0.7818608E-02  0.1130116E+00
         25   -1    0    0    0    0  0.00000000000E+00  0.00000000000E+00  0.99999998245E-14  0.12500000000E+03  0.12500000000E+03 0.  0.
        -11    1    3    3    0    0 -0.17606449746E+02 -0.14265277419E+01 -0.99747700512E+00  0.17692286870E+02  0.51100000000E-03 0.  1.
         23    2    1    0    0    0  0.43245248563E+02  0.76922475116E+01  0.93617784339E+01  0.80089365508E+02  0.66312452654E+02 0.  0.
         11    1    3    3    0    0  0.60851698308E+02  0.91187752535E+01  0.10359255439E+02  0.62397078638E+02  0.51100000000E-03 0. -1.
         22    1    1    0    0    0 -0.43245248563E+02 -0.76922475116E+01 -0.93617784339E+01  0.44910634492E+02  0.00000000000E+00 0. -1.
</event>
<event>
 5    1  0.8900327E-005  0.9118800E+02  0.7818608E-02  0.1130116E+00
         25   -1    0    0    0    0  0.00000000000E+00  0.00000000000E+00  0.99999998245E-14  0.12500000000E+03  0.12500000000E+03 0.  0.
        -11    1    3    3    0    0  0.35234753328E+02 -0.21840254400E+02 -0.89234746762E+00  0.41464211539E+02  0.51100000000E-03 0.  1.
         23    2    1    0    0    0 -0.56205072473E+00  0.63391494117E+01  0.28577474947E+02  0.95722486604E+02  0.91135183387E+02 0.  0.
         11    1    3    3    0    0 -0.35796804053E+02  0.28179403811E+02  0.29469822415E+02  0.54258275065E+02  0.51100000000E-03 0. -1.
         22    1    1    0    0    0  0.56205072473E+00 -0.63391494117E+01 -0.28577474947E+02  0.29277513396E+02  0.00000000000E+00 0. -1.
</event>
<event>
 5    1  0.8900327E-005  0.9118800E+02  0.7818608E-02  0.1130116E+00
         25   -1    0    0    0    0  0.00000000000E+00  0.00000000000E+00  0.99999998245E-14  0.12500000000E+03  0.12500000000E+03 0.  0.
        -11    1    3    3    0    0  0.19808483756E+02 -0.10957223265E+02 -0.33550714973E+02  0.40473290525E+02  0.51100000000E-03 0.  1.
         23    2    1    0    0    0 -0.80982015234E+01  0.27702955166E+02 -0.60685205754E+01  0.95506584891E+02  0.90838572329E+02 0.  0.
         11    1    3    3    0    0 -0.27906685280E+02  0.38660178431E+02  0.27482194398E+02  0.55033294366E+02  0.51100000000E-03 0. -1.
         22    1    1    0    0    0  0.80982015234E+01 -0.27702955166E+02  0.60685205754E+01  0.29493415109E+02  0.00000000000E+00 0. -1.
</event>
<event>
 5    1  0.8900327E-005  0.9118800E+02  0.7818608E-02  0.1130116E+00
         25   -1    0    0    0    0  0.00000000000E+00  0.00000000000E+00  0.99999998245E-14  0.12500000000E+03  0.12500000000E+03 0.  0.
        -11    1    3    3    0    0 -0.48255024743E+02 -0.81618431087E+01  0.10366037203E+02  0.50026171385E+02  0.51100000000E-03 0. -1.
         23    2    1    0    0    0 -0.11185164072E+02  0.14271371176E+02  0.23514404831E+02  0.95306445731E+02  0.90562748593E+02 0.  0.
         11    1    3    3    0    0  0.37069860671E+02  0.22433214284E+02  0.13148367629E+02  0.45280274346E+02  0.51100000000E-03 0.  1.
         22    1    1    0    0    0  0.11185164072E+02 -0.14271371176E+02 -0.23514404831E+02  0.29693554269E+02  0.00000000000E+00 0. -1.
</event>
<event>
 5    1  0.8900327E-005  0.9118800E+02  0.7818608E-02  0.1130116E+00
         25   -1    0    0    0    0  0.00000000000E+00  0.00000000000E+00  0.99999998245E-14  0.12500000000E+03  0.12500000000E+03 0.  0.
        -11    1    3    3    0    0 -0.11202790309E+02 -0.13760728490E+02 -0.58118034047E+02  0.60766487812E+02  0.51100000000E-03 0. -1.
         23    2    1    0    0    0 -0.13965701254E+02 -0.10686995205E+02 -0.23405283954E+02  0.95724412987E+02  0.91137825554E+02 0.  0.
         11    1    3    3    0    0 -0.27629109446E+01  0.30737332850E+01  0.34712750093E+02  0.34957925174E+02  0.51100000000E-03 0.  1.
         22    1    1    0    0    0  0.13965701254E+02  0.10686995205E+02  0.23405283954E+02  0.29275587013E+02  0.00000000000E+00 0. -1.
</event>
<event>
 5    1  0.8900327E-005  0.9118800E+02  0.7818608E-02  0.1130116E+00
         25   -1    0    0    0    0  0.00000000000E+00  0.00000000000E+00  0.99999998245E-14  0.12500000000E+03  0.12500000000E+03 0.  0.
        -11    1    3    3    0    0 -0.31710771606E+02 -0.27536732758E+02  0.43828360600E+01  0.42226223357E+02  0.51100000000E-03 0.  1.
         23    2    1    0    0    0  0.14471408331E+02 -0.28230641492E+01  0.22884639078E+02  0.97776883794E+02  0.93910707315E+02 0.  0.
         11    1    3    3    0    0  0.46182179936E+02  0.24713668609E+02  0.18501803018E+02  0.55550660437E+02  0.51100000000E-03 0. -1.
         22    1    1    0    0    0 -0.14471408331E+02  0.28230641492E+01 -0.22884639078E+02  0.27223116206E+02  0.00000000000E+00 0. -1.
</event>
<event>
 5    1  0.8900327E-005  0.9118800E+02  0.7818608E-02  0.1130116E+00
         25   -1    0    0    0    0  0.00000000000E+00  0.00000000000E+00  0.99999998245E-14  0.12500000000E+03  0.12500000000E+03 0.  0.
        -11    1    3    3    0    0 -0.23393904696E+02  0.21543495911E+02 -0.10064077943E+02  0.33356898209E+02  0.51100000000E-03 0. -1.
         23    2    1    0    0    0  0.28363969983E+02 -0.10148828139E+02 -0.66929534592E+01  0.94140493656E+02  0.88938874594E+02 0.  0.
         11    1    3    3    0    0  0.51757874679E+02 -0.31692324050E+02  0.33711244838E+01  0.60783595447E+02  0.51100000000E-03 0.  1.
         22    1    1    0    0    0 -0.28363969983E+02  0.10148828139E+02  0.66929534592E+01  0.30859506344E+02  0.00000000000E+00 0.  1.
</event>
<event>
 5    1  0.8900327E-005  0.9118800E+02  0.7818608E-02  0.1130116E+00
         25   -1    0    0    0    0  0.00000000000E+00  0.00000000000E+00  0.99999998245E-14  0.12500000000E+03  0.12500000000E+03 0.  0.
        -11    1    3    3    0    0  0.39934474834E+02  0.10388905829E+02  0.29371939759E+02  0.50649802468E+02  0.51100000000E-03 0. -1.
         23    2    1    0    0    0  0.26533604520E+02 -0.35903138966E+01 -0.11486315820E+02  0.95864832696E+02  0.91330215011E+02 0.  0.
         11    1    3    3    0    0 -0.13400870314E+02 -0.13979219726E+02 -0.40858255579E+02  0.45215030228E+02  0.51100000000E-03 0.  1.
         22    1    1    0    0    0 -0.26533604520E+02  0.35903138966E+01  0.11486315820E+02  0.29135167304E+02  0.00000000000E+00 0. -1.
</event>
<event>
 5    1  0.8900327E-005  0.9118800E+02  0.7818608E-02  0.1130116E+00
         25   -1    0    0    0    0  0.00000000000E+00  0.00000000000E+00  0.99999998245E-14  0.12500000000E+03  0.12500000000E+03 0.  0.
        -11    1    3    3    0    0  0.24246204742E+02 -0.51607388325E+02 -0.26696038699E+01  0.57081763806E+02  0.51100000000E-03 0. -1.
         23    2    1    0    0    0  0.19046658517E+01 -0.43854388189E+02  0.14199882615E+01  0.81081308283E+02  0.68156636294E+02 0.  0.
         11    1    3    3    0    0 -0.22341538890E+02  0.77530001356E+01  0.40895921314E+01  0.23999544478E+02  0.51100000000E-03 0.  1.
         22    1    1    0    0    0 -0.19046658517E+01  0.43854388189E+02 -0.14199882615E+01  0.43918691717E+02  0.00000000000E+00 0. -1.
</event>
<event>
 5    1  0.8900327E-005  0.9118800E+02  0.7818608E-02  0.1130116E+00
         25   -1    0    0    0    0  0.00000000000E+00  0.00000000000E+00  0.99999998245E-14  0.12500000000E+03  0.12500000000E+03 0.  0.
        -11    1    3    3    0    0  0.37121182956E+02  0.15741244445E+01 -0.73415282351E+00  0.37161795872E+02  0.51100000000E-03 0. -1.
         23    2    1    0    0    0 -0.80894753900E+01 -0.30936873690E+02  0.23752841383E+01  0.92934882808E+02  0.87227981187E+02 0.  0.
         11    1    3    3    0    0 -0.45210658346E+02 -0.32510998135E+02  0.31094369618E+01  0.55773086935E+02  0.51100000000E-03 0.  1.
         22    1    1    0    0    0  0.80894753900E+01  0.30936873690E+02 -0.23752841383E+01  0.32065117192E+02  0.00000000000E+00 0. -1.
</event>
<event>
 5    1  0.8900327E-005  0.9118800E+02  0.7818608E-02  0.1130116E+00
         25   -1    0    0    0    0  0.00000000000E+00  0.00000000000E+00  0.99999998245E-14  0.12500000000E+03  0.12500000000E+03 0.  0.
        -11    1    3    3    0    0 -0.15383863852E+02 -0.21030761892E+02 -0.35323534874E+02  0.43894285836E+02  0.51100000000E-03 0.  1.
         23    2    1    0    0    0 -0.24936954369E+02  0.15828613313E+02 -0.55301435931E+00  0.95458461152E+02  0.90772326664E+02 0.  0.
         11    1    3    3    0    0 -0.95530905169E+01  0.36859375205E+02  0.34770520514E+02  0.51564175316E+02  0.51100000000E-03 0. -1.
         22    1    1    0    0    0  0.24936954369E+02 -0.15828613313E+02  0.55301435931E+00  0.29541538848E+02  0.00000000000E+00 0. -1.
</event>
<event>
 5    1  0.8900327E-005  0.9118800E+02  0.7818608E-02  0.1130116E+00
         25   -1    0    0    0    0  0.00000000000E+00  0.00000000000E+00  0.99999998245E-14  0.12500000000E+03  0.12500000000E+03 0.  0.
        -11    1    3    3    0    0  0.56019581609E+02 -0.24568353155E+01 -0.20311485952E+01  0.56110205206E+02  0.51100000000E-03 0. -1.
         23    2    1    0    0    0  0.21460367502E+02 -0.31712562866E+01 -0.20371449584E+02  0.95240964432E+02  0.90472322331E+02 0.  0.
         11    1    3    3    0    0 -0.34559214106E+02 -0.71442097110E+00 -0.18340300989E+02  0.39130759226E+02  0.51100000000E-03 0.  1.
         22    1    1    0    0    0 -0.21460367502E+02  0.31712562866E+01  0.20371449584E+02  0.29759035568E+02  0.00000000000E+00 0. -1.
</event>
<event>
 5    1  0.8900327E-005  0.9118800E+02  0.7818608E-02  0.1130116E+00
         25   -1    0    0    0    0  0.00000000000E+00  0.00000000000E+00  0.99999998245E-14  0.12500000000E+03  0.12500000000E+03 0.  0.
        -11    1    3    3    0    0  0.65251493471E+01 -0.13670422960E+02  0.41933319298E+02  0.44585438268E+02  0.51100000000E-03 0. -1.
         23    2    1    0    0    0 -0.27460934213E+02  0.53142996460E+01  0.88804908739E+01  0.95653657694E+02  0.91040729475E+02 0.  0.
         11    1    3    3    0    0 -0.33986083561E+02  0.18984722606E+02 -0.33052828424E+02  0.51068219426E+02  0.51100000000E-03 0.  1.
         22    1    1    0    0    0  0.27460934213E+02 -0.53142996460E+01 -0.88804908739E+01  0.29346342306E+02  0.00000000000E+00 0.  1.
</event>
<event>
 5    1  0.8900327E-005  0.9118800E+02  0.7818608E-02  0.1130116E+00
         25   -1    0    0    0    0  0.00000000000E+00  0.00000000000E+00  0.99999998245E-14  0.12500000000E+03  0.12500000000E+03 0.  0.
        -11    1    3    3    0    0 -0.20555181269E+02 -0.23084811751E+02 -0.34718683572E+02  0.46484524305E+02  0.51100000000E-03 0.  1.
         23    2    1    0    0    0  0.17992958899E+02  0.81590954405E+01 -0.40027079472E+01  0.10484214597E+03  0.10288603643E+03 0.  0.
         11    1    3    3    0    0  0.38548140168E+02  0.31243907192E+02  0.30715975625E+02  0.58357621661E+02  0.51100000000E-03 0. -1.
         22    1    1    0    0    0 -0.17992958899E+02 -0.81590954405E+01  0.40027079472E+01  0.20157854034E+02  0.00000000000E+00 0. -1.
</event>
<event>
 4    1  0.8900327E-005  0.9118800E+02  0.7818608E-02  0.1130116E+00
         25   -1    0    0    0    0  0.00000000000E+00  0.00000000000E+00  0.99999998245E-14  0.12500000000E+03  0.12500000000E+03 0.  0.
        -11    1    1    0    0    0  0.25026944549E+02 -0.32782458014E+02 -0.10583496610E+02  0.42579900278E+02  0.51100000000E-03 0. -1.
         11    1    1    0    0    0 -0.25613794905E+02 -0.17386688677E+02 -0.81842945834E+00  0.30968262135E+02  0.51100000000E-03 0.  1.
         22    1    1    0    0    0  0.58685035616E+00  0.50169146691E+02  0.11401926068E+02  0.51451837587E+02  0.00000000000E+00 0. -1.
</event>
<event>
 5    1  0.8900327E-005  0.9118800E+02  0.7818608E-02  0.1130116E+00
         25   -1    0    0    0    0  0.00000000000E+00  0.00000000000E+00  0.99999998245E-14  0.12500000000E+03  0.12500000000E+03 0.  0.
        -11    1    3    3    0    0  0.48919342825E+02 -0.36430227827E+02  0.51682265660E+01  0.61212532769E+02  0.51100000000E-03 0. -1.
         23    2    1    0    0    0  0.26646169170E+02 -0.10162665890E+02  0.67692892840E+01  0.95689227461E+02  0.91089554095E+02 0.  0.
         11    1    3    3    0    0 -0.22273173655E+02  0.26267561937E+02  0.16010627180E+01  0.34476694692E+02  0.51100000000E-03 0.  1.
         22    1    1    0    0    0 -0.26646169170E+02  0.10162665890E+02 -0.67692892840E+01  0.29310772539E+02  0.00000000000E+00 0. -1.
</event>
<event>
 5    1  0.8900327E-005  0.9118800E+02  0.7818608E-02  0.1130116E+00
         25   -1    0    0    0    0  0.00000000000E+00  0.00000000000E+00  0.99999998245E-14  0.12500000000E+03  0.12500000000E+03 0.  0.
        -11    1    3    3    0    0  0.24685875778E+02  0.18590638242E+02 -0.22242768368E+02  0.38075517569E+02  0.51100000000E-03 0. -1.
         23    2    1    0    0    0  0.38783699302E+01  0.17485172213E+02  0.27599825665E+02  0.92098276985E+02  0.86020748928E+02 0.  0.
         11    1    3    3    0    0 -0.20807505848E+02 -0.11054660290E+01  0.49842594033E+02  0.54022759416E+02  0.51100000000E-03 0.  1.
         22    1    1    0    0    0 -0.38783699302E+01 -0.17485172213E+02 -0.27599825665E+02  0.32901723015E+02  0.00000000000E+00 0.  1.
</event>
<event>
 5    1  0.8900327E-005  0.9118800E+02  0.7818608E-02  0.1130116E+00
         25   -1    0    0    0    0  0.00000000000E+00  0.00000000000E+00  0.99999998245E-14  0.12500000000E+03  0.12500000000E+03 0.  0.
        -11    1    3    3    0    0  0.95836438373E+01  0.29586842290E+02  0.36172893889E+02  0.47704357437E+02  0.51100000000E-03 0.  1.
         23    2    1    0    0    0  0.34241765295E+00 -0.14065111270E+02  0.28824910160E+02  0.92924775127E+02  0.87213495411E+02 0.  0.
         11    1    3    3    0    0 -0.92412261843E+01 -0.43651953560E+02 -0.73479837286E+01  0.45220417691E+02  0.51100000000E-03 0. -1.
         22    1    1    0    0    0 -0.34241765295E+00  0.14065111270E+02 -0.28824910160E+02  0.32075224873E+02  0.00000000000E+00 0.  1.
</event>
<event>
 5    1  0.8900327E-005  0.9118800E+02  0.7818608E-02  0.1130116E+00
         25   -1    0    0    0    0  0.00000000000E+00  0.00000000000E+00  0.99999998245E-14  0.12500000000E+03  0.12500000000E+03 0.  0.
        -11    1    3    3    0    0  0.51785980130E+02 -0.18275199944E+02 -0.31869890809E+01  0.55008431814E+02  0.51100000000E-03 0.  1.
         23    2    1    0    0    0  0.12824408105E+02 -0.25696618127E+02  0.58599360585E+01  0.95689242981E+02  0.91089575393E+02 0.  0.
         11    1    3    3    0    0 -0.38961572025E+02 -0.74214181827E+01  0.90469251394E+01  0.40680811167E+02  0.51100000000E-03 0. -1.
         22    1    1    0    0    0 -0.12824408105E+02  0.25696618127E+02 -0.58599360585E+01  0.29310757019E+02  0.00000000000E+00 0.  1.
</event>
<event>
 5    1  0.8900327E-005  0.9118800E+02  0.7818608E-02  0.1130116E+00
         25   -1    0    0    0    0  0.00000000000E+00  0.00000000000E+00  0.99999998245E-14  0.12500000000E+03  0.12500000000E+03 0.  0.
        -11    1    3    3    0    0  0.37953283998E+02 -0.12471050108E+02 -0.14783692629E+02  0.42597375800E+02  0.51100000000E-03 0. -1.
         23    2    1    0    0    0  0.10449328593E+02  0.24304819651E+02  0.12205705841E+02  0.95864249085E+02  0.91329416242E+02 0.  0.
         11    1    3    3    0    0 -0.27503955405E+02  0.36775869759E+02  0.26989398470E+02  0.53266873285E+02  0.51100000000E-03 0.  1.
         22    1    1    0    0    0 -0.10449328593E+02 -0.24304819651E+02 -0.12205705841E+02  0.29135750915E+02  0.00000000000E+00 0.  1.
</event>
<event>
 5    1  0.8900327E-005  0.9118800E+02  0.7818608E-02  0.1130116E+00
         25   -1    0    0    0    0  0.00000000000E+00  0.00000000000E+00  0.99999998245E-14  0.12500000000E+03  0.12500000000E+03 0.  0.
        -11    1    3    3    0    0 -0.32590748450E+02  0.11938309461E+02 -0.33608207615E+02  0.48313473656E+02  0.51100000000E-03 0.  1.
         23    2    1    0    0    0  0.21384570450E+00  0.29997002225E+02 -0.71568355572E+01  0.94160315052E+02  0.88966728405E+02 0.  0.
         11    1    3    3    0    0  0.32804594155E+02  0.18058692764E+02  0.26451372058E+02  0.45846841396E+02  0.51100000000E-03 0. -1.
         22    1    1    0    0    0 -0.21384570450E+00 -0.29997002225E+02  0.71568355572E+01  0.30839684948E+02  0.00000000000E+00 0.  1.
</event>
<event>
 5    1  0.8900327E-005  0.9118800E+02  0.7818608E-02  0.1130116E+00
         25   -1    0    0    0    0  0.00000000000E+00  0.00000000000E+00  0.99999998245E-14  0.12500000000E+03  0.12500000000E+03 0.  0.
        -11    1    3    3    0    0  0.26751104689E+02 -0.25085271881E+02 -0.23438946374E+02  0.43523288879E+02  0.51100000000E-03 0. -1.
         23    2    1    0    0    0 -0.17442412089E+02 -0.24237457325E+02  0.29342918238E+01  0.94994964663E+02  0.90131798860E+02 0.  0.
         11    1    3    3    0    0 -0.44193516778E+02  0.84781455585E+00  0.26373238198E+02  0.51471675784E+02  0.51100000000E-03 0.  1.
         22    1    1    0    0    0  0.17442412089E+02  0.24237457325E+02 -0.29342918238E+01  0.30005035337E+02  0.00000000000E+00 0.  1.
</event>
<event>
 5    1  0.8900327E-005  0.9118800E+02  0.7818608E-02  0.1130116E+00
         25   -1    0    0    0    0  0.00000000000E+00  0.00000000000E+00  0.99999998245E-14  0.12500000000E+03  0.12500000000E+03 0.  0.
        -11    1    3    3    0    0  0.85597739618E+01 -0.24363400375E+02  0.41407956080E+02  0.48800244211E+02  0.51100000000E-03 0. -1.
         23    2    1    0    0    0 -0.23648431658E+02 -0.16292906961E+02  0.97642777476E+01  0.94667702740E+02  0.89676784538E+02 0.  0.
         11    1    3    3    0    0 -0.32208205620E+02  0.80704934145E+01 -0.31643678332E+02  0.45867458529E+02  0.51100000000E-03 0.  1.
         22    1    1    0    0    0  0.23648431658E+02  0.16292906961E+02 -0.97642777476E+01  0.30332297260E+02  0.00000000000E+00 0. -1.
</event>
<event>
 5    1  0.8900327E-005  0.9118800E+02  0.7818608E-02  0.1130116E+00
         25   -1    0    0    0    0  0.00000000000E+00  0.00000000000E+00  0.99999998245E-14  0.12500000000E+03  0.12500000000E+03 0.  0.
        -11    1    3    3    0    0 -0.34256200964E+02 -0.63436371373E+01  0.22544219916E+02  0.41496637075E+02  0.51100000000E-03 0. -1.
         23    2    1    0    0    0 -0.60141328551E+01 -0.13116056723E+02 -0.24373351924E+02  0.96675787355E+02  0.92433472502E+02 0.  0.
         11    1    3    3    0    0  0.28242068109E+02 -0.67724195852E+01 -0.46917571839E+02  0.55179150281E+02  0.51100000000E-03 0.  1.
         22    1    1    0    0    0  0.60141328551E+01  0.13116056723E+02  0.24373351924E+02  0.28324212645E+02  0.00000000000E+00 0.  1.
</event>
<event>
 5    1  0.8900327E-005  0.9118800E+02  0.7818608E-02  0.1130116E+00
         25   -1    0    0    0    0  0.00000000000E+00  0.00000000000E+00  0.99999998245E-14  0.12500000000E+03  0.12500000000E+03 0.  0.
        -11    1    3    3    0    0  0.29827209124E+02 -0.18947352714E+02 -0.30425734383E+01  0.35467193748E+02  0.51100000000E-03 0. -1.
         23    2    1    0    0    0 -0.59113233050E+01  0.27060569832E+02  0.10670284323E+02  0.95317123617E+02  0.90577485637E+02 0.  0.
         11    1    3    3    0    0 -0.35738532429E+02  0.46007922546E+02  0.13712857761E+02  0.59849929869E+02  0.51100000000E-03 0.  1.
         22    1    1    0    0    0  0.59113233050E+01 -0.27060569832E+02 -0.10670284323E+02  0.29682876383E+02  0.00000000000E+00 0.  1.
</event>
<event>
 5    1  0.8900327E-005  0.9118800E+02  0.7818608E-02  0.1130116E+00
         25   -1    0    0    0    0  0.00000000000E+00  0.00000000000E+00  0.99999998245E-14  0.12500000000E+03  0.12500000000E+03 0.  0.
        -11    1    3    3    0    0  0.21768035289E+02 -0.26287511028E+02  0.23818206406E+02  0.41619557339E+02  0.51100000000E-03 0. -1.
         23    2    1    0    0    0 -0.25127553850E+02 -0.30079196669E+01  0.17221112067E+02  0.94389409609E+02  0.89288030566E+02 0.  0.
         11    1    3    3    0    0 -0.46895589140E+02  0.23279591361E+02 -0.65970943390E+01  0.52769852271E+02  0.51100000000E-03 0.  1.
         22    1    1    0    0    0  0.25127553850E+02  0.30079196669E+01 -0.17221112067E+02  0.30610590391E+02  0.00000000000E+00 0.  1.
</event>
<event>
 5    1  0.8900327E-005  0.9118800E+02  0.7818608E-02  0.1130116E+00
         25   -1    0    0    0    0  0.00000000000E+00  0.00000000000E+00  0.99999998245E-14  0.12500000000E+03  0.12500000000E+03 0.  0.
        -11    1    3    3    0    0 -0.36736950314E+02  0.29400106380E+02 -0.31787857193E+00  0.47053913977E+02  0.51100000000E-03 0. -1.
         23    2    1    0    0    0  0.76247105088E+01  0.21425237836E+02  0.18289393001E+02  0.95816461438E+02  0.91263987200E+02 0.  0.
         11    1    3    3    0    0  0.44361660823E+02 -0.79748685439E+01  0.18607271572E+02  0.48762547461E+02  0.51100000000E-03 0.  1.
         22    1    1    0    0    0 -0.76247105088E+01 -0.21425237836E+02 -0.18289393001E+02  0.29183538562E+02  0.00000000000E+00 0.  1.
</event>
<event>
 5    1  0.8900327E-005  0.9118800E+02  0.7818608E-02  0.1130116E+00
         25   -1    0    0    0    0  0.00000000000E+00  0.00000000000E+00  0.99999998245E-14  0.12500000000E+03  0.12500000000E+03 0.  0.
        -11    1    3    3    0    0  0.94190312028E+01  0.27689267326E+02  0.31588076708E+02  0.43049044869E+02  0.51100000000E-03 0.  1.
         23    2    1    0    0    0  0.14036076009E+02 -0.21764200681E+02  0.12277936059E+02  0.96339232829E+02  0.91977215696E+02 0.  0.
         11    1    3    3    0    0  0.46170448058E+01 -0.49453468006E+02 -0.19310140649E+02  0.53290187959E+02  0.51100000000E-03 0. -1.
         22    1    1    0    0    0 -0.14036076009E+02  0.21764200681E+02 -0.12277936059E+02  0.28660767171E+02  0.00000000000E+00 0. -1.
</event>
<event>
 5    1  0.8900327E-005  0.9118800E+02  0.7818608E-02  0.1130116E+00
         25   -1    0    0    0    0  0.00000000000E+00  0.00000000000E+00  0.99999998245E-14  0.12500000000E+03  0.12500000000E+03 0.  0.
        -11    1    3    3    0    0 -0.25810408073E+02  0.80754589936E+01  0.34308320716E+02  0.43685822339E+02  0.51100000000E-03 0. -1.
         23    2    1    0    0    0  0.53620123567E+01 -0.26566380660E+02  0.11761482424E+02  0.95455859689E+02  0.90768744192E+02 0.  0.
         11    1    3    3    0    0  0.31172420429E+02 -0.34641839654E+02 -0.22546838291E+02  0.51770037350E+02  0.51100000000E-03 0.  1.
         22    1    1    0    0    0 -0.53620123567E+01  0.26566380660E+02 -0.11761482424E+02  0.29544140311E+02  0.00000000000E+00 0.  1.
</event>
<event>
 5    1  0.8900327E-005  0.9118800E+02  0.7818608E-02  0.1130116E+00
         25   -1    0    0    0    0  0.00000000000E+00  0.00000000000E+00  0.99999998245E-14  0.12500000000E+03  0.12500000000E+03 0.  0.
        -11    1    3    3    0    0  0.22600522198E+02 -0.24094540030E+02  0.98050107867E+01  0.34459667724E+02  0.51100000000E-03 0.  1.
         23    2    1    0    0    0 -0.16432837923E+02  0.22975089499E+02 -0.17837584096E+01  0.96696737048E+02  0.92461798933E+02 0.  0.
         11    1    3    3    0    0 -0.39033360121E+02  0.47069629528E+02 -0.11588769196E+02  0.62237069324E+02  0.51100000000E-03 0. -1.
         22    1    1    0    0    0  0.16432837923E+02 -0.22975089499E+02  0.17837584096E+01  0.28303262952E+02  0.00000000000E+00 0. -1.
</event>
<event>
 5    1  0.8900327E-005  0.9118800E+02  0.7818608E-02  0.1130116E+00
         25   -1    0    0    0    0  0.00000000000E+00  0.00000000000E+00  0.99999998245E-14  0.12500000000E+03  0.12500000000E+03 0.  0.
        -11    1    3    3    0    0  0.25976488713E+02  0.11064906097E+02 -0.33515296551E+02  0.43823340995E+02  0.51100000000E-03 0.  1.
         23    2    1    0    0    0  0.20900649319E+02  0.85541347232E+01  0.18291170482E+02  0.95938388200E+02  0.91430832054E+02 0.  0.
         11    1    3    3    0    0 -0.50758393946E+01 -0.25107713741E+01  0.51806467033E+02  0.52115047205E+02  0.51100000000E-03 0. -1.
         22    1    1    0    0    0 -0.20900649319E+02 -0.85541347232E+01 -0.18291170482E+02  0.29061611800E+02  0.00000000000E+00 0. -1.
</event>
<event>
 5    1  0.8900327E-005  0.9118800E+02  0.7818608E-02  0.1130116E+00
         25   -1    0    0    0    0  0.00000000000E+00  0.00000000000E+00  0.99999998245E-14  0.12500000000E+03  0.12500000000E+03 0.  0.
        -11    1    3    3    0    0 -0.10901779462E+01 -0.36043185934E+02  0.80953649519E+01  0.36957200573E+02  0.51100000000E-03 0. -1.
         23    2    1    0    0    0 -0.62123120240E+01  0.21748914990E+02  0.18348468267E+02  0.95874849157E+02  0.91343923110E+02 0.  0.
         11    1    3    3    0    0 -0.51221340779E+01  0.57792100924E+02  0.10253103315E+02  0.58917648583E+02  0.51100000000E-03 0.  1.
         22    1    1    0    0    0  0.62123120240E+01 -0.21748914990E+02 -0.18348468267E+02  0.29125150843E+02  0.00000000000E+00 0.  1.
</event>
<event>
 5    1  0.8900327E-005  0.9118800E+02  0.7818608E-02  0.1130116E+00
         25   -1    0    0    0    0  0.00000000000E+00  0.00000000000E+00  0.99999998245E-14  0.12500000000E+03  0.12500000000E+03 0.  0.
        -11    1    3    3    0    0 -0.18048715322E+02  0.24323461620E+02 -0.40352565624E+02  0.50455093525E+02  0.51100000000E-03 0. -1.
         23    2    1    0    0    0 -0.28204086344E+02 -0.12583339538E+01 -0.33529103093E+01  0.96569454835E+02  0.92289564463E+02 0.  0.
         11    1    3    3    0    0 -0.10155371022E+02 -0.25581795574E+02  0.36999655314E+02  0.46114361310E+02  0.51100000000E-03 0.  1.
         22    1    1    0    0    0  0.28204086344E+02  0.12583339538E+01  0.33529103093E+01  0.28430545165E+02  0.00000000000E+00 0. -1.
</event>
<event>
 5    1  0.8900327E-005  0.9118800E+02  0.7818608E-02  0.1130116E+00
         25   -1    0    0    0    0  0.00000000000E+00  0.00000000000E+00  0.99999998245E-14  0.12500000000E+03  0.12500000000E+03 0.  0.
        -11    1    3    3    0    0  0.35006448352E+02  0.17692666469E+01 -0.24064302303E+02  0.42516730546E+02  0.51100000000E-03 0.  1.
         23    2    1    0    0    0 -0.10902251225E+02  0.24302227237E+02 -0.14926465259E+02  0.94467121073E+02  0.89396757594E+02 0.  0.
         11    1    3    3    0    0 -0.45908699577E+02  0.22532960590E+02  0.91378370449E+01  0.51950390527E+02  0.51100000000E-03 0. -1.
         22    1    1    0    0    0  0.10902251225E+02 -0.24302227237E+02  0.14926465259E+02  0.30532878927E+02  0.00000000000E+00 0.  1.
</event>
<event>
 5    1  0.8900327E-005  0.9118800E+02  0.7818608E-02  0.1130116E+00
         25   -1    0    0    0    0  0.00000000000E+00  0.00000000000E+00  0.99999998245E-14  0.12500000000E+03  0.12500000000E+03 0.  0.
        -11    1    3    3    0    0  0.16157667085E+02 -0.81555634942E+00 -0.53184154687E+02  0.55590373697E+02  0.51100000000E-03 0. -1.
         23    2    1    0    0    0 -0.93728239371E+01 -0.12660514331E+02 -0.25215675680E+02  0.95268388007E+02  0.90510203854E+02 0.  0.
         11    1    3    3    0    0 -0.25530491022E+02 -0.11844957981E+02  0.27968479006E+02  0.39678014310E+02  0.51100000000E-03 0.  1.
         22    1    1    0    0    0  0.93728239371E+01  0.12660514331E+02  0.25215675680E+02  0.29731611993E+02  0.00000000000E+00 0.  1.
</event>
<event>
 5    1  0.8900327E-005  0.9118800E+02  0.7818608E-02  0.1130116E+00
         25   -1    0    0    0    0  0.00000000000E+00  0.00000000000E+00  0.99999998245E-14  0.12500000000E+03  0.12500000000E+03 0.  0.
        -11    1    3    3    0    0 -0.70520792928E+01 -0.33368811149E+02  0.18279417855E+02  0.38695561725E+02  0.51100000000E-03 0. -1.
         23    2    1    0    0    0 -0.14490549888E+02  0.19025436572E+02 -0.10439161999E+02  0.98905568103E+02  0.95401216060E+02 0.  0.
         11    1    3    3    0    0 -0.74384705951E+01  0.52394247721E+02 -0.28718579853E+02  0.60210006378E+02  0.51100000000E-03 0.  1.
         22    1    1    0    0    0  0.14490549888E+02 -0.19025436572E+02  0.10439161999E+02  0.26094431897E+02  0.00000000000E+00 0.  1.
</event>
<event>
 5    1  0.8900327E-005  0.9118800E+02  0.7818608E-02  0.1130116E+00
         25   -1    0    0    0    0  0.00000000000E+00  0.00000000000E+00  0.99999998245E-14  0.12500000000E+03  0.12500000000E+03 0.  0.
        -11    1    3    3    0    0 -0.56577314922E+02 -0.24921586528E+02 -0.22020790146E+01  0.61862162839E+02  0.51100000000E-03 0.  1.
         23    2    1    0    0    0 -0.30030925600E+02 -0.19931818213E+02 -0.83273621390E-01  0.88956404117E+02  0.81327123577E+02 0.  0.
         11    1    3    3    0    0  0.26546389322E+02  0.49897683157E+01  0.21188053932E+01  0.27094241278E+02  0.51100000000E-03 0. -1.
         22    1    1    0    0    0  0.30030925600E+02  0.19931818213E+02  0.83273621390E-01  0.36043595883E+02  0.00000000000E+00 0.  1.
</event>
<event>
 5    1  0.8900327E-005  0.9118800E+02  0.7818608E-02  0.1130116E+00
         25   -1    0    0    0    0  0.00000000000E+00  0.00000000000E+00  0.99999998245E-14  0.12500000000E+03  0.12500000000E+03 0.  0.
        -11    1    3    3    0    0  0.43548649415E+02 -0.36090083305E+02  0.21463967756E+02  0.60495296436E+02  0.51100000000E-03 0.  1.
         23    2    1    0    0    0  0.12465370872E+02 -0.24778691741E+02  0.91021846004E+01  0.95807213221E+02  0.91251319472E+02 0.  0.
         11    1    3    3    0    0 -0.31083278542E+02  0.11311391563E+02 -0.12361783155E+02  0.35311916786E+02  0.51100000000E-03 0. -1.
         22    1    1    0    0    0 -0.12465370872E+02  0.24778691741E+02 -0.91021846004E+01  0.29192786779E+02  0.00000000000E+00 0.  1.
</event>
<event>
 5    1  0.8900327E-005  0.9118800E+02  0.7818608E-02  0.1130116E+00
         25   -1    0    0    0    0  0.00000000000E+00  0.00000000000E+00  0.99999998245E-14  0.12500000000E+03  0.12500000000E+03 0.  0.
        -11    1    3    3    0    0  0.20734228283E+02 -0.37219544959E+02  0.48438025209E+01  0.42879659194E+02  0.51100000000E-03 0.  1.
         23    2    1    0    0    0 -0.24080858065E+02 -0.14944117025E+02 -0.97810184739E+01  0.95018627764E+02  0.90164610246E+02 0.  0.
         11    1    3    3    0    0 -0.44815086348E+02  0.22275427935E+02 -0.14624820995E+02  0.52138968569E+02  0.51100000000E-03 0. -1.
         22    1    1    0    0    0  0.24080858065E+02  0.14944117025E+02  0.97810184739E+01  0.29981372236E+02  0.00000000000E+00 0. -1.
</event>
<event>
 5    1  0.8900327E-005  0.9118800E+02  0.7818608E-02  0.1130116E+00
         25   -1    0    0    0    0  0.00000000000E+00  0.00000000000E+00  0.99999998245E-14  0.12500000000E+03  0.12500000000E+03 0.  0.
        -11    1    3    3    0    0 -0.30826660967E+02  0.37937867162E+02 -0.27665079024E+02  0.56168686907E+02  0.51100000000E-03 0.  1.
         23    2    1    0    0    0  0.45449194494E+01  0.10682743020E+02 -0.20565916885E+02  0.10138360255E+03  0.98594627832E+02 0.  0.
         11    1    3    3    0    0  0.35371580417E+02 -0.27255124142E+02  0.70991621393E+01  0.45214915642E+02  0.51100000000E-03 0. -1.
         22    1    1    0    0    0 -0.45449194494E+01 -0.10682743020E+02  0.20565916885E+02  0.23616397451E+02  0.00000000000E+00 0.  1.
</event>
<event>
 5    1  0.8900327E-005  0.9118800E+02  0.7818608E-02  0.1130116E+00
         25   -1    0    0    0    0  0.00000000000E+00  0.00000000000E+00  0.99999998245E-14  0.12500000000E+03  0.12500000000E+03 0.  0.
        -11    1    3    3    0    0 -0.11350172639E+02  0.45538424032E+02 -0.18582044452E+01  0.46968366017E+02  0.51100000000E-03 0.  1.
         23    2    1    0    0    0  0.25337093165E+01  0.16997309603E+02  0.29035277742E+02  0.91260178273E+02  0.84794130506E+02 0.  0.
         11    1    3    3    0    0  0.13883881956E+02 -0.28541114430E+02  0.30893482187E+02  0.44291812256E+02  0.51100000000E-03 0. -1.
         22    1    1    0    0    0 -0.25337093165E+01 -0.16997309603E+02 -0.29035277742E+02  0.33739821727E+02  0.00000000000E+00 0.  1.
</event>
<event>
 5    1  0.8900327E-005  0.9118800E+02  0.7818608E-02  0.1130116E+00
         25   -1    0    0    0    0  0.00000000000E+00  0.00000000000E+00  0.99999998245E-14  0.12500000000E+03  0.12500000000E+03 0.  0.
        -11    1    3    3    0    0 -0.26581681576E+01  0.18417315762E+02  0.57581477929E+02  0.60513552024E+02  0.51100000000E-03 0. -1.
         23    2    1    0    0    0  0.94007559416E+01  0.89976104812E+01  0.33679379664E+02  0.88894158074E+02  0.81231394907E+02 0.  0.
         11    1    3    3    0    0  0.12058924099E+02 -0.94197052807E+01 -0.23902098265E+02  0.28380606050E+02  0.51100000000E-03 0.  1.
         22    1    1    0    0    0 -0.94007559416E+01 -0.89976104812E+01 -0.33679379664E+02  0.36105841926E+02  0.00000000000E+00 0. -1.
</event>
<event>
 5    1  0.8900327E-005  0.9118800E+02  0.7818608E-02  0.1130116E+00
         25   -1    0    0    0    0  0.00000000000E+00  0.00000000000E+00  0.99999998245E-14  0.12500000000E+03  0.12500000000E+03 0.  0.
        -11    1    3    3    0    0 -0.17632827016E+02  0.44420425831E+02  0.26176959063E+02  0.54491503976E+02  0.51100000000E-03 0.  1.
         23    2    1    0    0    0 -0.26069216113E+02  0.70655307401E+01  0.83832585724E+01  0.96719180039E+02  0.92492134853E+02 0.  0.
         11    1    3    3    0    0 -0.84363890965E+01 -0.37354895091E+02 -0.17793700490E+02  0.42227676062E+02  0.51100000000E-03 0. -1.
         22    1    1    0    0    0  0.26069216113E+02 -0.70655307401E+01 -0.83832585724E+01  0.28280819961E+02  0.00000000000E+00 0.  1.
</event>
<event>
 5    1  0.8900327E-005  0.9118800E+02  0.7818608E-02  0.1130116E+00
         25   -1    0    0    0    0  0.00000000000E+00  0.00000000000E+00  0.99999998245E-14  0.12500000000E+03  0.12500000000E+03 0.  0.
        -11    1    3    3    0    0  0.46294245258E+02  0.31655379216E+02 -0.15825190930E+02  0.58272264805E+02  0.51100000000E-03 0.  1.
         23    2    1    0    0    0  0.27014029787E+02  0.52871065276E+00 -0.13058053467E+02  0.94990833057E+02  0.90126068727E+02 0.  0.
         11    1    3    3    0    0 -0.19280215471E+02 -0.31126668563E+02  0.27671374627E+01  0.36718568252E+02  0.51100000000E-03 0. -1.
         22    1    1    0    0    0 -0.27014029787E+02 -0.52871065276E+00  0.13058053467E+02  0.30009166943E+02  0.00000000000E+00 0.  1.
</event>
<event>
 5    1  0.8900327E-005  0.9118800E+02  0.7818608E-02  0.1130116E+00
         25   -1    0    0    0    0  0.00000000000E+00  0.00000000000E+00  0.99999998245E-14  0.12500000000E+03  0.12500000000E+03 0.  0.
        -11    1    3    3    0    0 -0.20668541426E+02  0.37388930486E+02  0.24104430620E+02  0.49052464804E+02  0.51100000000E-03 0. -1.
         23    2    1    0    0    0  0.63443553387E+01  0.27957313902E+02 -0.10959212613E+02  0.94308525836E+02  0.89174724328E+02 0.  0.
         11    1    3    3    0    0  0.27012896765E+02 -0.94316165843E+01 -0.35063643233E+02  0.45256061031E+02  0.51100000000E-03 0.  1.
         22    1    1    0    0    0 -0.63443553387E+01 -0.27957313902E+02  0.10959212613E+02  0.30691474164E+02  0.00000000000E+00 0. -1.
</event>
<event>
 5    1  0.8900327E-005  0.9118800E+02  0.7818608E-02  0.1130116E+00
         25   -1    0    0    0    0  0.00000000000E+00  0.00000000000E+00  0.99999998245E-14  0.12500000000E+03  0.12500000000E+03 0.  0.
        -11    1    3    3    0    0 -0.18978296214E+02  0.26521523783E+02 -0.11944484501E+02  0.34730932340E+02  0.51100000000E-03 0. -1.
         23    2    1    0    0    0  0.95545527299E+01 -0.27099344146E+02 -0.40521257002E+01  0.95981322330E+02  0.91489510778E+02 0.  0.
         11    1    3    3    0    0  0.28532848943E+02 -0.53620867929E+02  0.78923588008E+01  0.61250389990E+02  0.51100000000E-03 0.  1.
         22    1    1    0    0    0 -0.95545527299E+01  0.27099344146E+02  0.40521257002E+01  0.29018677670E+02  0.00000000000E+00 0.  1.
</event>
<event>
 5    1  0.8900327E-005  0.9118800E+02  0.7818608E-02  0.1130116E+00
         25   -1    0    0    0    0  0.00000000000E+00  0.00000000000E+00  0.99999998245E-14  0.12500000000E+03  0.12500000000E+03 0.  0.
        -11    1    3    3    0    0  0.23092861108E+02 -0.38369928303E+02  0.27320756308E+02  0.52459082699E+02  0.51100000000E-03 0.  1.
         23    2    1    0    0    0  0.30297709470E+02 -0.41027496643E+01  0.49073414075E+01  0.94034442462E+02  0.88789698815E+02 0.  0.
         11    1    3    3    0    0  0.72048483620E+01  0.34267178638E+02 -0.22413414900E+02  0.41575359764E+02  0.51100000000E-03 0. -1.
         22    1    1    0    0    0 -0.30297709470E+02  0.41027496643E+01 -0.49073414075E+01  0.30965557538E+02  0.00000000000E+00 0.  1.
</event>
<event>
 5    1  0.8900327E-005  0.9118800E+02  0.7818608E-02  0.1130116E+00
         25   -1    0    0    0    0  0.00000000000E+00  0.00000000000E+00  0.99999998245E-14  0.12500000000E+03  0.12500000000E+03 0.  0.
        -11    1    3    3    0    0  0.30079186858E+02  0.45794142126E+02  0.12463578159E+02  0.56188982157E+02  0.51100000000E-03 0.  1.
         23    2    1    0    0    0  0.26376408594E+02  0.55328489345E+01  0.81201097449E+01  0.96852823766E+02  0.92672573837E+02 0.  0.
         11    1    3    3    0    0 -0.37027782641E+01 -0.40261293191E+02 -0.43434684137E+01  0.40663841609E+02  0.51100000000E-03 0. -1.
         22    1    1    0    0    0 -0.26376408594E+02 -0.55328489345E+01 -0.81201097449E+01  0.28147176234E+02  0.00000000000E+00 0.  1.
</event>
<event>
 5    1  0.8900327E-005  0.9118800E+02  0.7818608E-02  0.1130116E+00
         25   -1    0    0    0    0  0.00000000000E+00  0.00000000000E+00  0.99999998245E-14  0.12500000000E+03  0.12500000000E+03 0.  0.
        -11    1    3    3    0    0  0.47098573872E+02  0.11375781252E+02 -0.18223603661E+02  0.51766628154E+02  0.51100000000E-03 0. -1.
         23    2    1    0    0    0  0.49372982905E+01  0.20614294440E+02 -0.21186909975E+02  0.95029828095E+02  0.90180136526E+02 0.  0.
         11    1    3    3    0    0 -0.42161275581E+02  0.92385131885E+01 -0.29633063148E+01  0.43263199941E+02  0.51100000000E-03 0.  1.
         22    1    1    0    0    0 -0.49372982905E+01 -0.20614294440E+02  0.21186909975E+02  0.29970171905E+02  0.00000000000E+00 0. -1.
</event>
<event>
 5    1  0.8900327E-005  0.9118800E+02  0.7818608E-02  0.1130116E+00
         25   -1    0    0    0    0  0.00000000000E+00  0.00000000000E+00  0.99999998245E-14  0.12500000000E+03  0.12500000000E+03 0.  0.
        -11    1    3    3    0    0 -0.86665810393E+01  0.55454604152E+02  0.12174254493E+02  0.57432875788E+02  0.51100000000E-03 0. -1.
         23    2    1    0    0    0 -0.20441081281E+02  0.19599392699E+02  0.15518496814E+01  0.96638366839E+02  0.92382853982E+02 0.  0.
         11    1    3    3    0    0 -0.11774500242E+02 -0.35855211453E+02 -0.10622404812E+02  0.39205491051E+02  0.51100000000E-03 0.  1.
         22    1    1    0    0    0  0.20441081281E+02 -0.19599392699E+02 -0.15518496814E+01  0.28361633161E+02  0.00000000000E+00 0.  1.
</event>
<event>
 5    1  0.8900327E-005  0.9118800E+02  0.7818608E-02  0.1130116E+00
         25   -1    0    0    0    0  0.00000000000E+00  0.00000000000E+00  0.99999998245E-14  0.12500000000E+03  0.12500000000E+03 0.  0.
        -11    1    3    3    0    0 -0.28725168761E+02  0.31246334034E+02  0.18808487778E+02  0.46424432400E+02  0.51100000000E-03 0.  1.
         23    2    1    0    0    0  0.18345707324E+01  0.21853372868E+02 -0.19032233805E+02  0.95962757034E+02  0.91464141927E+02 0.  0.
         11    1    3    3    0    0  0.30559739493E+02 -0.93929611659E+01 -0.37840721583E+02  0.49538324634E+02  0.51100000000E-03 0. -1.
         22    1    1    0    0    0 -0.18345707324E+01 -0.21853372868E+02  0.19032233805E+02  0.29037242966E+02  0.00000000000E+00 0. -1.
</event>
<event>
 5    1  0.8900327E-005  0.9118800E+02  0.7818608E-02  0.1130116E+00
         25   -1    0    0    0    0  0.00000000000E+00  0.00000000000E+00  0.99999998245E-14  0.12500000000E+03  0.12500000000E+03 0.  0.
        -11    1    3    3    0    0 -0.70328298649E+01 -0.21552756764E+02  0.47516356312E+02  0.52647755294E+02  0.51100000000E-03 0.  1.
         23    2    1    0    0    0 -0.27430031562E+02 -0.50386421947E+01  0.19942952699E+02  0.90714202517E+02  0.83985419147E+02 0.  0.
         11    1    3    3    0    0 -0.20397201697E+02  0.16514114569E+02 -0.27573403613E+02  0.38066447223E+02  0.51100000000E-03 0. -1.
         22    1    1    0    0    0  0.27430031562E+02  0.50386421947E+01 -0.19942952699E+02  0.34285797483E+02  0.00000000000E+00 0. -1.
</event>
<event>
 5    1  0.8900327E-005  0.9118800E+02  0.7818608E-02  0.1130116E+00
         25   -1    0    0    0    0  0.00000000000E+00  0.00000000000E+00  0.99999998245E-14  0.12500000000E+03  0.12500000000E+03 0.  0.
        -11    1    3    3    0    0 -0.11271138592E+02 -0.43920441975E+01  0.39324383875E+02  0.41142870401E+02  0.51100000000E-03 0.  1.
         23    2    1    0    0    0 -0.23989070051E+02 -0.75544449217E+01 -0.14110693008E+02  0.96161539966E+02  0.91735407513E+02 0.  0.
         11    1    3    3    0    0 -0.12717931458E+02 -0.31624007241E+01 -0.53435076883E+02  0.55018669565E+02  0.51100000000E-03 0. -1.
         22    1    1    0    0    0  0.23989070051E+02  0.75544449217E+01  0.14110693008E+02  0.28838460034E+02  0.00000000000E+00 0. -1.
</event>
<event>
 5    1  0.8900327E-005  0.9118800E+02  0.7818608E-02  0.1130116E+00
         25   -1    0    0    0    0  0.00000000000E+00  0.00000000000E+00  0.99999998245E-14  0.12500000000E+03  0.12500000000E+03 0.  0.
        -11    1    3    3    0    0 -0.51736775159E+02 -0.71279916051E+01  0.32861301573E+02  0.61703867865E+02  0.51100000000E-03 0.  1.
         23    2    1    0    0    0 -0.18699287504E+02 -0.80836974383E+01  0.17470384338E+02  0.98163013463E+02  0.94423267079E+02 0.  0.
         11    1    3    3    0    0  0.33037487655E+02 -0.95570583322E+00 -0.15390917235E+02  0.36459145598E+02  0.51100000000E-03 0. -1.
         22    1    1    0    0    0  0.18699287504E+02  0.80836974383E+01 -0.17470384338E+02  0.26836986537E+02  0.00000000000E+00 0.  1.
</event>
<event>
 5    1  0.8900327E-005  0.9118800E+02  0.7818608E-02  0.1130116E+00
         25   -1    0    0    0    0  0.00000000000E+00  0.00000000000E+00  0.99999998245E-14  0.12500000000E+03  0.12500000000E+03 0.  0.
        -11    1    3    3    0    0 -0.29880137018E+01 -0.17928453355E+02  0.28246972470E+02  0.33589419757E+02  0.51100000000E-03 0.  1.
         23    2    1    0    0    0  0.55806608506E+01  0.92759070968E+01 -0.27080528273E+02  0.95835959821E+02  0.91290689313E+02 0.  0.
         11    1    3    3    0    0  0.85686745524E+01  0.27204360452E+02 -0.55327500743E+02  0.62246540064E+02  0.51100000000E-03 0. -1.
         22    1    1    0    0    0 -0.55806608506E+01 -0.92759070968E+01  0.27080528273E+02  0.29164040179E+02  0.00000000000E+00 0. -1.
</event>
<event>
 5    1  0.8900327E-005  0.9118800E+02  0.7818608E-02  0.1130116E+00
         25   -1    0    0    0    0  0.00000000000E+00  0.00000000000E+00  0.99999998245E-14  0.12500000000E+03  0.12500000000E+03 0.  0.
        -11    1    3    3    0    0 -0.36191499252E+01 -0.41173989648E+02 -0.59302630338E+01  0.41756001839E+02  0.51100000000E-03 0.  1.
         23    2    1    0    0    0 -0.57896575039E+01  0.10070747048E+02 -0.25756435652E+02  0.96745194079E+02  0.92527285272E+02 0.  0.
         11    1    3    3    0    0 -0.21705075787E+01  0.51244736696E+02 -0.19826172619E+02  0.54989192240E+02  0.51100000000E-03 0. -1.
         22    1    1    0    0    0  0.57896575039E+01 -0.10070747048E+02  0.25756435652E+02  0.28254805921E+02  0.00000000000E+00 0. -1.
</event>
<event>
 5    1  0.8900327E-005  0.9118800E+02  0.7818608E-02  0.1130116E+00
         25   -1    0    0    0    0  0.00000000000E+00  0.00000000000E+00  0.99999998245E-14  0.12500000000E+03  0.12500000000E+03 0.  0.
        -11    1    3    3    0    0  0.50091466868E+02  0.24672248823E+02 -0.24504791066E+01  0.55891678836E+02  0.51100000000E-03 0.  1.
         23    2    1    0    0    0  0.12433015055E+02  0.19541476797E+02 -0.16661892101E+02  0.96468126120E+02  0.92152219343E+02 0.  0.
         11    1    3    3    0    0 -0.37658451814E+02 -0.51307720266E+01 -0.14211412994E+02  0.40576447283E+02  0.51100000000E-03 0. -1.
         22    1    1    0    0    0 -0.12433015055E+02 -0.19541476797E+02  0.16661892101E+02  0.28531873880E+02  0.00000000000E+00 0.  1.
</event>
<event>
 5    1  0.8900327E-005  0.9118800E+02  0.7818608E-02  0.1130116E+00
         25   -1    0    0    0    0  0.00000000000E+00  0.00000000000E+00  0.99999998245E-14  0.12500000000E+03  0.12500000000E+03 0.  0.
        -11    1    3    3    0    0 -0.11058337876E+02 -0.12429362678E+02 -0.26929120852E+02  0.31653648183E+02  0.51100000000E-03 0. -1.
         23    2    1    0    0    0 -0.12129347948E+01  0.14917821061E+02  0.27689411990E+02  0.93524356522E+02  0.88068661455E+02 0.  0.
         11    1    3    3    0    0  0.98454030810E+01  0.27347183738E+02  0.54618532842E+02  0.61870708339E+02  0.51100000000E-03 0.  1.
         22    1    1    0    0    0  0.12129347948E+01 -0.14917821061E+02 -0.27689411990E+02  0.31475643478E+02  0.00000000000E+00 0.  1.
</event>
<event>
 5    1  0.8900327E-005  0.9118800E+02  0.7818608E-02  0.1130116E+00
         25   -1    0    0    0    0  0.00000000000E+00  0.00000000000E+00  0.99999998245E-14  0.12500000000E+03  0.12500000000E+03 0.  0.
        -11    1    3    3    0    0 -0.35738755662E+02  0.10615452895E+02  0.47598059565E+02  0.60460911100E+02  0.51100000000E-03 0.  1.
         23    2    1    0    0    0 -0.18322479421E+02 -0.61473915470E+01  0.23181092614E+02  0.94819431256E+02  0.89888029314E+02 0.  0.
         11    1    3    3    0    0  0.17416276241E+02 -0.16762844442E+02 -0.24416966952E+02  0.34358520155E+02  0.51100000000E-03 0. -1.
         22    1    1    0    0    0  0.18322479421E+02  0.61473915470E+01 -0.23181092614E+02  0.30180568744E+02  0.00000000000E+00 0.  1.
</event>
<event>
 5    1  0.8900327E-005  0.9118800E+02  0.7818608E-02  0.1130116E+00
         25   -1    0    0    0    0  0.00000000000E+00  0.00000000000E+00  0.99999998245E-14  0.12500000000E+03  0.12500000000E+03 0.  0.
        -11    1    3    3    0    0  0.14180436934E+02  0.39211238480E+02  0.93103838337E+01  0.42723404150E+02  0.51100000000E-03 0.  1.
         23    2    1    0    0    0 -0.27633064108E+02  0.58501712563E+01  0.25707390755E+01  0.96637711039E+02  0.92381966637E+02 0.  0.
         11    1    3    3    0    0 -0.41813501041E+02 -0.33361067224E+02 -0.67396447582E+01  0.53914306889E+02  0.51100000000E-03 0. -1.
         22    1    1    0    0    0  0.27633064108E+02 -0.58501712563E+01 -0.25707390755E+01  0.28362288961E+02  0.00000000000E+00 0. -1.
</event>
<event>
 5    1  0.8900327E-005  0.9118800E+02  0.7818608E-02  0.1130116E+00
         25   -1    0    0    0    0  0.00000000000E+00  0.00000000000E+00  0.99999998245E-14  0.12500000000E+03  0.12500000000E+03 0.  0.
        -11    1    3    3    0    0 -0.31947065467E+01 -0.23057074796E+02  0.17854554425E+02  0.29336324958E+02  0.51100000000E-03 0. -1.
         23    2    1    0    0    0  0.24857279286E+02  0.13704806778E+02 -0.20964492315E+02  0.89712381770E+02  0.82480879253E+02 0.  0.
         11    1    3    3    0    0  0.28051985833E+02  0.36761881574E+02 -0.38819046740E+02  0.60376056812E+02  0.51100000000E-03 0.  1.
         22    1    1    0    0    0 -0.24857279286E+02 -0.13704806778E+02  0.20964492315E+02  0.35287618230E+02  0.00000000000E+00 0.  1.
</event>
<event>
 5    1  0.8900327E-005  0.9118800E+02  0.7818608E-02  0.1130116E+00
         25   -1    0    0    0    0  0.00000000000E+00  0.00000000000E+00  0.99999998245E-14  0.12500000000E+03  0.12500000000E+03 0.  0.
        -11    1    3    3    0    0  0.11272267640E+02 -0.19059377883E+02 -0.24850423090E+02  0.33284642571E+02  0.51100000000E-03 0.  1.
         23    2    1    0    0    0  0.16927010326E+02 -0.18127118293E+02  0.28658607763E+02  0.87099711147E+02  0.78421475291E+02 0.  0.
         11    1    3    3    0    0  0.56547426862E+01  0.93225959065E+00  0.53509030853E+02  0.53815068577E+02  0.51100000000E-03 0. -1.
         22    1    1    0    0    0 -0.16927010326E+02  0.18127118293E+02 -0.28658607763E+02  0.37900288853E+02  0.00000000000E+00 0. -1.
</event>
<event>
 5    1  0.8900327E-005  0.9118800E+02  0.7818608E-02  0.1130116E+00
         25   -1    0    0    0    0  0.00000000000E+00  0.00000000000E+00  0.99999998245E-14  0.12500000000E+03  0.12500000000E+03 0.  0.
        -11    1    3    3    0    0 -0.11502699949E+02  0.41203905082E+02 -0.40870968743E+02  0.59165107845E+02  0.51100000000E-03 0.  1.
         23    2    1    0    0    0  0.55101527976E+01  0.30914274540E+02 -0.28579067528E+02  0.82540404442E+02  0.70782067718E+02 0.  0.
         11    1    3    3    0    0  0.17012852746E+02 -0.10289630542E+02  0.12291901215E+02  0.23375296597E+02  0.51100000000E-03 0. -1.
         22    1    1    0    0    0 -0.55101527976E+01 -0.30914274540E+02  0.28579067528E+02  0.42459595558E+02  0.00000000000E+00 0.  1.
</event>
<event>
 5    1  0.8900327E-005  0.9118800E+02  0.7818608E-02  0.1130116E+00
         25   -1    0    0    0    0  0.00000000000E+00  0.00000000000E+00  0.99999998245E-14  0.12500000000E+03  0.12500000000E+03 0.  0.
        -11    1    3    3    0    0 -0.36032476555E+02 -0.64690730268E+01  0.21910359077E+02  0.42664412660E+02  0.51100000000E-03 0. -1.
         23    2    1    0    0    0 -0.45475599000E+01 -0.13784281197E+02 -0.22882450756E+02  0.97902153928E+02  0.94077300567E+02 0.  0.
         11    1    3    3    0    0  0.31484916655E+02 -0.73152081704E+01 -0.44792809832E+02  0.55237741267E+02  0.51100000000E-03 0.  1.
         22    1    1    0    0    0  0.45475599000E+01  0.13784281197E+02  0.22882450756E+02  0.27097846072E+02  0.00000000000E+00 0.  1.
</event>
<event>
 5    1  0.8900327E-005  0.9118800E+02  0.7818608E-02  0.1130116E+00
         25   -1    0    0    0    0  0.00000000000E+00  0.00000000000E+00  0.99999998245E-14  0.12500000000E+03  0.12500000000E+03 0.  0.
        -11    1    3    3    0    0  0.24697205136E+02 -0.17865357289E+02  0.11586338772E+02  0.32609295898E+02  0.51100000000E-03 0.  1.
         23    2    1    0    0    0 -0.14859391780E+02 -0.15534585163E+00 -0.29271715513E+02  0.92172283273E+02  0.86128223122E+02 0.  0.
         11    1    3    3    0    0 -0.39556596916E+02  0.17710011438E+02 -0.40858054286E+02  0.59562987374E+02  0.51100000000E-03 0. -1.
         22    1    1    0    0    0  0.14859391780E+02  0.15534585163E+00  0.29271715513E+02  0.32827716727E+02  0.00000000000E+00 0. -1.
</event>
<event>
 5    1  0.8900327E-005  0.9118800E+02  0.7818608E-02  0.1130116E+00
         25   -1    0    0    0    0  0.00000000000E+00  0.00000000000E+00  0.99999998245E-14  0.12500000000E+03  0.12500000000E+03 0.  0.
        -11    1    3    3    0    0  0.25605852433E+02 -0.16152082977E+02  0.16865812447E+02  0.34655520384E+02  0.51100000000E-03 0. -1.
         23    2    1    0    0    0 -0.23966916245E+02  0.14571178862E+02 -0.41460929107E+01  0.96646474397E+02  0.92393823382E+02 0.  0.
         11    1    3    3    0    0 -0.49572768678E+02  0.30723261839E+02 -0.21011905357E+02  0.61990954013E+02  0.51100000000E-03 0.  1.
         22    1    1    0    0    0  0.23966916245E+02 -0.14571178862E+02  0.41460929107E+01  0.28353525603E+02  0.00000000000E+00 0.  1.
</event>
<event>
 5    1  0.8900327E-005  0.9118800E+02  0.7818608E-02  0.1130116E+00
         25   -1    0    0    0    0  0.00000000000E+00  0.00000000000E+00  0.99999998245E-14  0.12500000000E+03  0.12500000000E+03 0.  0.
        -11    1    3    3    0    0  0.43270209692E+02 -0.32226724919E+02 -0.31051776503E+02  0.62250186104E+02  0.51100000000E-03 0. -1.
         23    2    1    0    0    0  0.35326385065E+02 -0.22290124135E+02 -0.22830696794E+02  0.77397018667E+02  0.61026671766E+02 0.  0.
         11    1    3    3    0    0 -0.79438246269E+01  0.99366007840E+01  0.82210797097E+01  0.15146832563E+02  0.51100000000E-03 0.  1.
         22    1    1    0    0    0 -0.35326385065E+02  0.22290124135E+02  0.22830696794E+02  0.47602981333E+02  0.00000000000E+00 0. -1.
</event>
<event>
 5    1  0.8900327E-005  0.9118800E+02  0.7818608E-02  0.1130116E+00
         25   -1    0    0    0    0  0.00000000000E+00  0.00000000000E+00  0.99999998245E-14  0.12500000000E+03  0.12500000000E+03 0.  0.
        -11    1    3    3    0    0  0.54850103313E+01  0.38600158980E+02  0.15540513380E+02  0.41971003895E+02  0.51100000000E-03 0.  1.
         23    2    1    0    0    0 -0.31727281384E+02  0.80680853676E+01  0.10248350630E+01  0.92246913544E+02  0.86236467843E+02 0.  0.
         11    1    3    3    0    0 -0.37212291715E+02 -0.30532073612E+02 -0.14515678317E+02  0.50275909649E+02  0.51100000000E-03 0. -1.
         22    1    1    0    0    0  0.31727281384E+02 -0.80680853676E+01 -0.10248350630E+01  0.32753086456E+02  0.00000000000E+00 0. -1.
</event>
<event>
 5    1  0.8900327E-005  0.9118800E+02  0.7818608E-02  0.1130116E+00
         25   -1    0    0    0    0  0.00000000000E+00  0.00000000000E+00  0.99999998245E-14  0.12500000000E+03  0.12500000000E+03 0.  0.
        -11    1    3    3    0    0 -0.40915676194E+00 -0.21988232603E+02 -0.25290012031E+02  0.33514690676E+02  0.51100000000E-03 0. -1.
         23    2    1    0    0    0 -0.37497879157E+01  0.12766987056E+02  0.26134960070E+02  0.95672657711E+02  0.91066812987E+02 0.  0.
         11    1    3    3    0    0 -0.33406311537E+01  0.34755219659E+02  0.51424972101E+02  0.62157967035E+02  0.51100000000E-03 0.  1.
         22    1    1    0    0    0  0.37497879157E+01 -0.12766987056E+02 -0.26134960070E+02  0.29327342289E+02  0.00000000000E+00 0.  1.
</event>
<event>
 5    1  0.8900327E-005  0.9118800E+02  0.7818608E-02  0.1130116E+00
         25   -1    0    0    0    0  0.00000000000E+00  0.00000000000E+00  0.99999998245E-14  0.12500000000E+03  0.12500000000E+03 0.  0.
        -11    1    3    3    0    0  0.12046936926E+01 -0.30060685964E+02  0.37484228997E+02  0.48064160778E+02  0.51100000000E-03 0. -1.
         23    2    1    0    0    0 -0.25483067156E+02 -0.18991497580E+02  0.29628658761E+01  0.93080691326E+02  0.87436678983E+02 0.  0.
         11    1    3    3    0    0 -0.26687760848E+02  0.11069188384E+02 -0.34521363121E+02  0.45016530548E+02  0.51100000000E-03 0.  1.
         22    1    1    0    0    0  0.25483067156E+02  0.18991497580E+02 -0.29628658761E+01  0.31919308674E+02  0.00000000000E+00 0. -1.
</event>
<event>
 5    1  0.8900327E-005  0.9118800E+02  0.7818608E-02  0.1130116E+00
         25   -1    0    0    0    0  0.00000000000E+00  0.00000000000E+00  0.99999998245E-14  0.12500000000E+03  0.12500000000E+03 0.  0.
        -11    1    3    3    0    0 -0.35814686361E+02 -0.17779623868E+02  0.15164904279E+02  0.42764250327E+02  0.51100000000E-03 0. -1.
         23    2    1    0    0    0 -0.35815159660E+00 -0.15098563565E+02 -0.24615906155E+02  0.96120288607E+02  0.91679180580E+02 0.  0.
         11    1    3    3    0    0  0.35456534764E+02  0.26810603029E+01 -0.39780810434E+02  0.53356038280E+02  0.51100000000E-03 0.  1.
         22    1    1    0    0    0  0.35815159660E+00  0.15098563565E+02  0.24615906155E+02  0.28879711393E+02  0.00000000000E+00 0. -1.
</event>
<event>
 5    1  0.8900327E-005  0.9118800E+02  0.7818608E-02  0.1130116E+00
         25   -1    0    0    0    0  0.00000000000E+00  0.00000000000E+00  0.99999998245E-14  0.12500000000E+03  0.12500000000E+03 0.  0.
        -11    1    3    3    0    0  0.57655918424E+02 -0.48574913237E+01  0.12582820540E+02  0.59212562216E+02  0.51100000000E-03 0.  1.
         23    2    1    0    0    0  0.35478424100E+02  0.11086228467E+02  0.55450240621E+01  0.87418484196E+02  0.78927948466E+02 0.  0.
         11    1    3    3    0    0 -0.22177494323E+02  0.15943719790E+02 -0.70377964782E+01  0.28205921980E+02  0.51100000000E-03 0. -1.
         22    1    1    0    0    0 -0.35478424100E+02 -0.11086228467E+02 -0.55450240621E+01  0.37581515804E+02  0.00000000000E+00 0.  1.
</event>
<event>
 5    1  0.8900327E-005  0.9118800E+02  0.7818608E-02  0.1130116E+00
         25   -1    0    0    0    0  0.00000000000E+00  0.00000000000E+00  0.99999998245E-14  0.12500000000E+03  0.12500000000E+03 0.  0.
        -11    1    3    3    0    0  0.21529739309E+02  0.12901850554E+02 -0.36834909117E+02  0.44573511780E+02  0.51100000000E-03 0.  1.
         23    2    1    0    0    0 -0.19303590525E+02  0.15404498895E+02 -0.30150416415E+02  0.86025972708E+02  0.76690893703E+02 0.  0.
         11    1    3    3    0    0 -0.40833329834E+02  0.25026483411E+01  0.66844927021E+01  0.41452460928E+02  0.51100000000E-03 0. -1.
         22    1    1    0    0    0  0.19303590525E+02 -0.15404498895E+02  0.30150416415E+02  0.38974027292E+02  0.00000000000E+00 0.  1.
</event>
<event>
 5    1  0.8900327E-005  0.9118800E+02  0.7818608E-02  0.1130116E+00
         25   -1    0    0    0    0  0.00000000000E+00  0.00000000000E+00  0.99999998245E-14  0.12500000000E+03  0.12500000000E+03 0.  0.
        -11    1    3    3    0    0  0.11304635215E+02 -0.26883445200E+02 -0.28243800354E+02  0.40598357871E+02  0.51100000000E-03 0.  1.
         23    2    1    0    0    0 -0.29007971070E+02 -0.43061169512E+01  0.16462948441E+01  0.95627984143E+02  0.91005472559E+02 0.  0.
         11    1    3    3    0    0 -0.40312606285E+02  0.22577328249E+02  0.29890095198E+02  0.55029626271E+02  0.51100000000E-03 0. -1.
         22    1    1    0    0    0  0.29007971070E+02  0.43061169512E+01 -0.16462948441E+01  0.29372015857E+02  0.00000000000E+00 0. -1.
</event>
<event>
 5    1  0.8900327E-005  0.9118800E+02  0.7818608E-02  0.1130116E+00
         25   -1    0    0    0    0  0.00000000000E+00  0.00000000000E+00  0.99999998245E-14  0.12500000000E+03  0.12500000000E+03 0.  0.
        -11    1    3    3    0    0 -0.91957615650E+00 -0.56255622316E+01 -0.34583264938E+02  0.35049889939E+02  0.51100000000E-03 0.  1.
         23    2    1    0    0    0 -0.62954918102E+01  0.19831877425E+02  0.20388816388E+02  0.95868566581E+02  0.91335325287E+02 0.  0.
         11    1    3    3    0    0 -0.53759156537E+01  0.25457439656E+02  0.54972081326E+02  0.60818676642E+02  0.51100000000E-03 0. -1.
         22    1    1    0    0    0  0.62954918102E+01 -0.19831877425E+02 -0.20388816388E+02  0.29131433419E+02  0.00000000000E+00 0. -1.
</event>
<event>
 5    1  0.8900327E-005  0.9118800E+02  0.7818608E-02  0.1130116E+00
         25   -1    0    0    0    0  0.00000000000E+00  0.00000000000E+00  0.99999998245E-14  0.12500000000E+03  0.12500000000E+03 0.  0.
        -11    1    3    3    0    0  0.33416862597E+02 -0.21566375590E+01 -0.52685713539E+02  0.62426934914E+02  0.51100000000E-03 0. -1.
         23    2    1    0    0    0  0.14844987656E+02 -0.30418799407E+01 -0.24476430585E+02  0.96212461962E+02  0.91804768343E+02 0.  0.
         11    1    3    3    0    0 -0.18571874941E+02 -0.88524238169E+00  0.28209282954E+02  0.33785527048E+02  0.51100000000E-03 0.  1.
         22    1    1    0    0    0 -0.14844987656E+02  0.30418799407E+01  0.24476430585E+02  0.28787538038E+02  0.00000000000E+00 0. -1.
</event>
<event>
 5    1  0.8900327E-005  0.9118800E+02  0.7818608E-02  0.1130116E+00
         25   -1    0    0    0    0  0.00000000000E+00  0.00000000000E+00  0.99999998245E-14  0.12500000000E+03  0.12500000000E+03 0.  0.
        -11    1    3    3    0    0  0.38443575775E+02  0.39126775100E+02  0.23870681138E+02  0.59821588631E+02  0.51100000000E-03 0.  1.
         23    2    1    0    0    0  0.24947390587E+02  0.94774741331E+01  0.39071809477E+01  0.98028517356E+02  0.94245049414E+02 0.  0.
         11    1    3    3    0    0 -0.13496185188E+02 -0.29649300967E+02 -0.19963500191E+02  0.38206928725E+02  0.51100000000E-03 0. -1.
         22    1    1    0    0    0 -0.24947390587E+02 -0.94774741331E+01 -0.39071809477E+01  0.26971482644E+02  0.00000000000E+00 0.  1.
</event>
<event>
 5    1  0.8900327E-005  0.9118800E+02  0.7818608E-02  0.1130116E+00
         25   -1    0    0    0    0  0.00000000000E+00  0.00000000000E+00  0.99999998245E-14  0.12500000000E+03  0.12500000000E+03 0.  0.
        -11    1    3    3    0    0  0.20834213423E+02 -0.47075091147E+00 -0.28487440784E+02  0.35296180219E+02  0.51100000000E-03 0.  1.
         23    2    1    0    0    0 -0.17514778536E+02  0.20274301834E+02  0.12767837594E+02  0.95321178278E+02  0.90583081033E+02 0.  0.
         11    1    3    3    0    0 -0.38348991959E+02  0.20745052745E+02  0.41255278378E+02  0.60024998059E+02  0.51100000000E-03 0. -1.
         22    1    1    0    0    0  0.17514778536E+02 -0.20274301834E+02 -0.12767837594E+02  0.29678821722E+02  0.00000000000E+00 0. -1.
</event>
<event>
 5    1  0.8900327E-005  0.9118800E+02  0.7818608E-02  0.1130116E+00
         25   -1    0    0    0    0  0.00000000000E+00  0.00000000000E+00  0.99999998245E-14  0.12500000000E+03  0.12500000000E+03 0.  0.
        -11    1    3    3    0    0  0.76019584573E+01  0.12802466387E+02 -0.32610673300E+02  0.35848973923E+02  0.51100000000E-03 0.  1.
         23    2    1    0    0    0 -0.15452889998E+02  0.11301998670E+02  0.22411286122E+02  0.95524709860E+02  0.90863510085E+02 0.  0.
         11    1    3    3    0    0 -0.23054848455E+02 -0.15004677173E+01  0.55021959422E+02  0.59675735937E+02  0.51100000000E-03 0. -1.
         22    1    1    0    0    0  0.15452889998E+02 -0.11301998670E+02 -0.22411286122E+02  0.29475290140E+02  0.00000000000E+00 0. -1.
</event>
<event>
 5    1  0.8900327E-005  0.9118800E+02  0.7818608E-02  0.1130116E+00
         25   -1    0    0    0    0  0.00000000000E+00  0.00000000000E+00  0.99999998245E-14  0.12500000000E+03  0.12500000000E+03 0.  0.
        -11    1    3    3    0    0  0.28171897323E+02 -0.21155196987E+02  0.29290913156E+02  0.45816544524E+02  0.51100000000E-03 0.  1.
         23    2    1    0    0    0  0.14877914072E+02  0.22959509725E+02  0.86173780070E+01  0.96316370215E+02  0.91946139417E+02 0.  0.
         11    1    3    3    0    0 -0.13293983251E+02  0.44114706712E+02 -0.20673535149E+02  0.50499825691E+02  0.51100000000E-03 0. -1.
         22    1    1    0    0    0 -0.14877914072E+02 -0.22959509725E+02 -0.86173780070E+01  0.28683629785E+02  0.00000000000E+00 0. -1.
</event>
<event>
 5    1  0.8900327E-005  0.9118800E+02  0.7818608E-02  0.1130116E+00
         25   -1    0    0    0    0  0.00000000000E+00  0.00000000000E+00  0.99999998245E-14  0.12500000000E+03  0.12500000000E+03 0.  0.
        -11    1    3    3    0    0  0.32675796151E+01  0.42008102390E+02 -0.79452188992E+01  0.42877549447E+02  0.51100000000E-03 0.  1.
         23    2    1    0    0    0  0.28055450304E+01  0.53218171445E+01  0.29258739648E+02  0.95129166961E+02  0.90317726612E+02 0.  0.
         11    1    3    3    0    0 -0.46203458470E+00 -0.36686285245E+02  0.37203958547E+02  0.52251617515E+02  0.51100000000E-03 0. -1.
         22    1    1    0    0    0 -0.28055450304E+01 -0.53218171445E+01 -0.29258739648E+02  0.29870833039E+02  0.00000000000E+00 0. -1.
</event>
<event>
 5    1  0.8900327E-005  0.9118800E+02  0.7818608E-02  0.1130116E+00
         25   -1    0    0    0    0  0.00000000000E+00  0.00000000000E+00  0.99999998245E-14  0.12500000000E+03  0.12500000000E+03 0.  0.
        -11    1    3    3    0    0 -0.16547912792E+02  0.10397499085E+02 -0.55147511792E+02  0.58508029040E+02  0.51100000000E-03 0.  1.
         23    2    1    0    0    0  0.46351335672E+01  0.11840748950E+01 -0.36479209113E+02  0.88208435831E+02  0.80169251947E+02 0.  0.
         11    1    3    3    0    0  0.21183046359E+02 -0.92134241904E+01  0.18668302679E+02  0.29700406791E+02  0.51100000000E-03 0. -1.
         22    1    1    0    0    0 -0.46351335672E+01 -0.11840748950E+01  0.36479209113E+02  0.36791564169E+02  0.00000000000E+00 0.  1.
</event>
<event>
 5    1  0.8900327E-005  0.9118800E+02  0.7818608E-02  0.1130116E+00
         25   -1    0    0    0    0  0.00000000000E+00  0.00000000000E+00  0.99999998245E-14  0.12500000000E+03  0.12500000000E+03 0.  0.
        -11    1    3    3    0    0  0.29168729071E+01  0.27329819669E+02  0.20908738956E+02  0.34534078179E+02  0.51100000000E-03 0.  1.
         23    2    1    0    0    0 -0.10830265521E+02 -0.27532982225E+02 -0.15121281288E+01  0.95374904338E+02  0.90657189922E+02 0.  0.
         11    1    3    3    0    0 -0.13747138428E+02 -0.54862801894E+02 -0.22420867085E+02  0.60840826159E+02  0.51100000000E-03 0. -1.
         22    1    1    0    0    0  0.10830265521E+02  0.27532982225E+02  0.15121281288E+01  0.29625095662E+02  0.00000000000E+00 0. -1.
</event>
<event>
 5    1  0.8900327E-005  0.9118800E+02  0.7818608E-02  0.1130116E+00
         25   -1    0    0    0    0  0.00000000000E+00  0.00000000000E+00  0.99999998245E-14  0.12500000000E+03  0.12500000000E+03 0.  0.
        -11    1    3    3    0    0  0.34621091315E+02  0.15873350340E+02  0.69184463729E+01  0.38709793533E+02  0.51100000000E-03 0.  1.
         23    2    1    0    0    0 -0.15568884766E+02 -0.18442049855E+01  0.25483541176E+02  0.95080071261E+02  0.90249752439E+02 0.  0.
         11    1    3    3    0    0 -0.50189976082E+02 -0.17717555326E+02  0.18565094803E+02  0.56370277728E+02  0.51100000000E-03 0. -1.
         22    1    1    0    0    0  0.15568884766E+02  0.18442049855E+01 -0.25483541176E+02  0.29919928739E+02  0.00000000000E+00 0. -1.
</event>
<event>
 5    1  0.8900327E-005  0.9118800E+02  0.7818608E-02  0.1130116E+00
         25   -1    0    0    0    0  0.00000000000E+00  0.00000000000E+00  0.99999998245E-14  0.12500000000E+03  0.12500000000E+03 0.  0.
        -11    1    3    3    0    0  0.26380825130E+02 -0.28264228793E+02  0.38611460701E+02  0.54641188325E+02  0.51100000000E-03 0. -1.
         23    2    1    0    0    0 -0.78918764104E+01 -0.22707641886E+02  0.17332912540E+02  0.95363053963E+02  0.90640848907E+02 0.  0.
         11    1    3    3    0    0 -0.34272701540E+02  0.55565869066E+01 -0.21278548162E+02  0.40721865638E+02  0.51100000000E-03 0.  1.
         22    1    1    0    0    0  0.78918764104E+01  0.22707641886E+02 -0.17332912540E+02  0.29636946037E+02  0.00000000000E+00 0. -1.
</event>
<event>
 5    1  0.8900327E-005  0.9118800E+02  0.7818608E-02  0.1130116E+00
         25   -1    0    0    0    0  0.00000000000E+00  0.00000000000E+00  0.99999998245E-14  0.12500000000E+03  0.12500000000E+03 0.  0.
        -11    1    3    3    0    0 -0.39306091606E+01 -0.18310519122E+02  0.39670726311E+02  0.43869024667E+02  0.51100000000E-03 0.  1.
         23    2    1    0    0    0  0.27899541094E+02 -0.54778132130E+01 -0.31845484748E+00  0.96566001963E+02  0.92284887662E+02 0.  0.
         11    1    3    3    0    0  0.31830150255E+02  0.12832705909E+02 -0.39989181159E+02  0.52696977297E+02  0.51100000000E-03 0. -1.
         22    1    1    0    0    0 -0.27899541094E+02  0.54778132130E+01  0.31845484748E+00  0.28433998037E+02  0.00000000000E+00 0. -1.
</event>
<event>
 5    1  0.8900327E-005  0.9118800E+02  0.7818608E-02  0.1130116E+00
         25   -1    0    0    0    0  0.00000000000E+00  0.00000000000E+00  0.99999998245E-14  0.12500000000E+03  0.12500000000E+03 0.  0.
        -11    1    3    3    0    0 -0.14704711203E+02  0.42670736585E+02 -0.64032070143E+01  0.45585319485E+02  0.51100000000E-03 0.  1.
         23    2    1    0    0    0 -0.25879334346E+02 -0.77033139055E+01 -0.66791767710E+01  0.97184673403E+02  0.93119108409E+02 0.  0.
         11    1    3    3    0    0 -0.11174623143E+02 -0.50374050490E+02 -0.27596975667E+00  0.51599353918E+02  0.51100000000E-03 0. -1.
         22    1    1    0    0    0  0.25879334346E+02  0.77033139055E+01  0.66791767710E+01  0.27815326597E+02  0.00000000000E+00 0. -1.
</event>
<event>
 5    1  0.8900327E-005  0.9118800E+02  0.7818608E-02  0.1130116E+00
         25   -1    0    0    0    0  0.00000000000E+00  0.00000000000E+00  0.99999998245E-14  0.12500000000E+03  0.12500000000E+03 0.  0.
        -11    1    3    3    0    0 -0.17475298458E+02  0.38505741555E+02 -0.43185294660E+02  0.60440448907E+02  0.51100000000E-03 0. -1.
         23    2    1    0    0    0 -0.17345555304E+02  0.11824172478E+02 -0.22715752566E+02  0.94069678983E+02  0.88839291677E+02 0.  0.
         11    1    3    3    0    0  0.12974315412E+00 -0.26681569077E+02  0.20469542095E+02  0.33629230076E+02  0.51100000000E-03 0.  1.
         22    1    1    0    0    0  0.17345555304E+02 -0.11824172478E+02  0.22715752566E+02  0.30930321017E+02  0.00000000000E+00 0. -1.
</event>
<event>
 5    1  0.8900327E-005  0.9118800E+02  0.7818608E-02  0.1130116E+00
         25   -1    0    0    0    0  0.00000000000E+00  0.00000000000E+00  0.99999998245E-14  0.12500000000E+03  0.12500000000E+03 0.  0.
        -11    1    3    3    0    0  0.33534280720E+02  0.98762877699E+01 -0.16398312091E+02  0.38613387357E+02  0.51100000000E-03 0.  1.
         23    2    1    0    0    0 -0.16911763405E+01  0.95280421833E+01  0.28049516751E+02  0.95328143718E+02  0.90592692473E+02 0.  0.
         11    1    3    3    0    0 -0.35225457060E+02 -0.34824558657E+00  0.44447828842E+02  0.56714756361E+02  0.51100000000E-03 0. -1.
         22    1    1    0    0    0  0.16911763405E+01 -0.95280421833E+01 -0.28049516751E+02  0.29671856282E+02  0.00000000000E+00 0. -1.
</event>
<event>
 5    1  0.8900327E-005  0.9118800E+02  0.7818608E-02  0.1130116E+00
         25   -1    0    0    0    0  0.00000000000E+00  0.00000000000E+00  0.99999998245E-14  0.12500000000E+03  0.12500000000E+03 0.  0.
        -11    1    3    3    0    0 -0.45702457986E+02  0.25138156676E+02  0.32728402490E+02  0.61577511454E+02  0.51100000000E-03 0.  1.
         23    2    1    0    0    0 -0.25483831865E+02  0.59213619819E+01  0.12696433727E+02  0.95919290868E+02  0.91404719337E+02 0.  0.
         11    1    3    3    0    0  0.20218626121E+02 -0.19216794695E+02 -0.20031968763E+02  0.34341779414E+02  0.51100000000E-03 0. -1.
         22    1    1    0    0    0  0.25483831865E+02 -0.59213619819E+01 -0.12696433727E+02  0.29080709132E+02  0.00000000000E+00 0.  1.
</event>
<event>
 5    1  0.8900327E-005  0.9118800E+02  0.7818608E-02  0.1130116E+00
         25   -1    0    0    0    0  0.00000000000E+00  0.00000000000E+00  0.99999998245E-14  0.12500000000E+03  0.12500000000E+03 0.  0.
        -11    1    3    3    0    0  0.31358828744E+02 -0.14071936256E+02 -0.48695505133E+02  0.59604091728E+02  0.51100000000E-03 0.  1.
         23    2    1    0    0    0  0.22994480316E+02  0.11208933340E+01 -0.14936824208E+02  0.97557127623E+02  0.93617743541E+02 0.  0.
         11    1    3    3    0    0 -0.83643484282E+01  0.15192829590E+02  0.33758680926E+02  0.37953035895E+02  0.51100000000E-03 0. -1.
         22    1    1    0    0    0 -0.22994480316E+02 -0.11208933340E+01  0.14936824208E+02  0.27442872377E+02  0.00000000000E+00 0.  1.
</event>
<event>
 5    1  0.8900327E-005  0.9118800E+02  0.7818608E-02  0.1130116E+00
         25   -1    0    0    0    0  0.00000000000E+00  0.00000000000E+00  0.99999998245E-14  0.12500000000E+03  0.12500000000E+03 0.  0.
        -11    1    3    3    0    0  0.11394870979E+02 -0.43185622316E+02 -0.19124395116E+01  0.44704568945E+02  0.51100000000E-03 0. -1.
         23    2    1    0    0    0 -0.19152810672E+02 -0.94489201443E+01 -0.21898590856E+02  0.94411431384E+02  0.89318854929E+02 0.  0.
         11    1    3    3    0    0 -0.30547681650E+02  0.33736702172E+02 -0.19986151344E+02  0.49706862438E+02  0.51100000000E-03 0.  1.
         22    1    1    0    0    0  0.19152810672E+02  0.94489201443E+01  0.21898590856E+02  0.30588568616E+02  0.00000000000E+00 0.  1.
</event>
<event>
 5    1  0.8900327E-005  0.9118800E+02  0.7818608E-02  0.1130116E+00
         25   -1    0    0    0    0  0.00000000000E+00  0.00000000000E+00  0.99999998245E-14  0.12500000000E+03  0.12500000000E+03 0.  0.
        -11    1    3    3    0    0  0.11667442804E+02  0.10166791025E+01  0.34235694709E+02  0.36183499699E+02  0.51100000000E-03 0. -1.
         23    2    1    0    0    0  0.67821810421E+01  0.74827693492E+01 -0.26075710466E+02  0.97036944138E+02  0.92920589938E+02 0.  0.
         11    1    3    3    0    0 -0.48852617621E+01  0.64660902468E+01 -0.60311405176E+02  0.60853444439E+02  0.51100000000E-03 0.  1.
         22    1    1    0    0    0 -0.67821810421E+01 -0.74827693492E+01  0.26075710466E+02  0.27963055862E+02  0.00000000000E+00 0.  1.
</event>
<event>
 5    1  0.8900327E-005  0.9118800E+02  0.7818608E-02  0.1130116E+00
         25   -1    0    0    0    0  0.00000000000E+00  0.00000000000E+00  0.99999998245E-14  0.12500000000E+03  0.12500000000E+03 0.  0.
        -11    1    3    3    0    0 -0.44148796246E+02 -0.36684877521E+02  0.12796493559E+02  0.58810260128E+02  0.51100000000E-03 0.  1.
         23    2    1    0    0    0 -0.20614284100E+02 -0.17688801088E+02 -0.93242625914E+01  0.96280942464E+02  0.91897963067E+02 0.  0.
         11    1    3    3    0    0  0.23534512145E+02  0.18996076433E+02 -0.22120756150E+02  0.37470682335E+02  0.51100000000E-03 0. -1.
         22    1    1    0    0    0  0.20614284100E+02  0.17688801088E+02  0.93242625914E+01  0.28719057536E+02  0.00000000000E+00 0.  1.
</event>
<event>
 5    1  0.8900327E-005  0.9118800E+02  0.7818608E-02  0.1130116E+00
         25   -1    0    0    0    0  0.00000000000E+00  0.00000000000E+00  0.99999998245E-14  0.12500000000E+03  0.12500000000E+03 0.  0.
        -11    1    3    3    0    0  0.33573011886E+02  0.56907620426E+01  0.11929840544E+02  0.36081200027E+02  0.51100000000E-03 0.  1.
         23    2    1    0    0    0 -0.14217693285E+02 -0.26658215659E+02  0.13166404240E+01  0.94758690397E+02  0.89803522199E+02 0.  0.
         11    1    3    3    0    0 -0.47790705171E+02 -0.32348977702E+02 -0.10613200120E+02  0.58677490370E+02  0.51100000000E-03 0. -1.
         22    1    1    0    0    0  0.14217693285E+02  0.26658215659E+02 -0.13166404240E+01  0.30241309603E+02  0.00000000000E+00 0. -1.
</event>
<event>
 5    1  0.8900327E-005  0.9118800E+02  0.7818608E-02  0.1130116E+00
         25   -1    0    0    0    0  0.00000000000E+00  0.00000000000E+00  0.99999998245E-14  0.12500000000E+03  0.12500000000E+03 0.  0.
        -11    1    3    3    0    0 -0.29452799435E+02 -0.10569505120E+02  0.23093168444E+02  0.38890567778E+02  0.51100000000E-03 0.  1.
         23    2    1    0    0    0  0.23361511595E+02 -0.16107441462E+02  0.15881344918E+02  0.92481897182E+02  0.86576407269E+02 0.  0.
         11    1    3    3    0    0  0.52814311030E+02 -0.55379363418E+01 -0.72118235264E+01  0.53591329404E+02  0.51100000000E-03 0. -1.
         22    1    1    0    0    0 -0.23361511595E+02  0.16107441462E+02 -0.15881344918E+02  0.32518102818E+02  0.00000000000E+00 0. -1.
</event>
<event>
 5    1  0.8900327E-005  0.9118800E+02  0.7818608E-02  0.1130116E+00
         25   -1    0    0    0    0  0.00000000000E+00  0.00000000000E+00  0.99999998245E-14  0.12500000000E+03  0.12500000000E+03 0.  0.
        -11    1    3    3    0    0 -0.39550878845E+01 -0.20940468848E+02  0.26415568575E+02  0.33940068049E+02  0.51100000000E-03 0. -1.
         23    2    1    0    0    0  0.42215259230E+01  0.27025157218E+02 -0.11200924925E+02  0.95442579224E+02  0.90750453475E+02 0.  0.
         11    1    3    3    0    0  0.81766138075E+01  0.47965626066E+02 -0.37616493501E+02  0.61502511175E+02  0.51100000000E-03 0.  1.
         22    1    1    0    0    0 -0.42215259230E+01 -0.27025157218E+02  0.11200924925E+02  0.29557420776E+02  0.00000000000E+00 0.  1.
</event>
<event>
 5    1  0.8900327E-005  0.9118800E+02  0.7818608E-02  0.1130116E+00
         25   -1    0    0    0    0  0.00000000000E+00  0.00000000000E+00  0.99999998245E-14  0.12500000000E+03  0.12500000000E+03 0.  0.
        -11    1    3    3    0    0  0.51683775010E+02 -0.30552369892E+02 -0.14753429846E+02  0.61824943169E+02  0.51100000000E-03 0.  1.
         23    2    1    0    0    0  0.24853609824E+02 -0.14525239914E+02 -0.41414427994E+00  0.96210140130E+02  0.91801606916E+02 0.  0.
         11    1    3    3    0    0 -0.26830165186E+02  0.16027129978E+02  0.14339285566E+02  0.34385196961E+02  0.51100000000E-03 0. -1.
         22    1    1    0    0    0 -0.24853609824E+02  0.14525239914E+02  0.41414427994E+00  0.28789859870E+02  0.00000000000E+00 0.  1.
</event>
<event>
 5    1  0.8900327E-005  0.9118800E+02  0.7818608E-02  0.1130116E+00
         25   -1    0    0    0    0  0.00000000000E+00  0.00000000000E+00  0.99999998245E-14  0.12500000000E+03  0.12500000000E+03 0.  0.
        -11    1    3    3    0    0 -0.58420111510E+01 -0.48189050462E+02 -0.32442718805E+02  0.58385303651E+02  0.51100000000E-03 0.  1.
         23    2    1    0    0    0 -0.26506170576E+01 -0.16725167895E+02 -0.30554218813E+02  0.90066959777E+02  0.83016504048E+02 0.  0.
         11    1    3    3    0    0  0.31913940934E+01  0.31463882566E+02  0.18884999922E+01  0.31681656126E+02  0.51100000000E-03 0. -1.
         22    1    1    0    0    0  0.26506170576E+01  0.16725167895E+02  0.30554218813E+02  0.34933040223E+02  0.00000000000E+00 0.  1.
</event>
<event>
 5    1  0.8900327E-005  0.9118800E+02  0.7818608E-02  0.1130116E+00
         25   -1    0    0    0    0  0.00000000000E+00  0.00000000000E+00  0.99999998245E-14  0.12500000000E+03  0.12500000000E+03 0.  0.
        -11    1    3    3    0    0 -0.22503337656E+02 -0.24200224078E+02 -0.17873720343E+02  0.37570213337E+02  0.51100000000E-03 0.  1.
         23    2    1    0    0    0  0.27389375957E+02 -0.60679688984E+01  0.68373657474E+01  0.96125309833E+02  0.91686026515E+02 0.  0.
         11    1    3    3    0    0  0.49892713613E+02  0.18132255179E+02  0.24711086091E+02  0.58555096495E+02  0.51100000000E-03 0. -1.
         22    1    1    0    0    0 -0.27389375957E+02  0.60679688984E+01 -0.68373657474E+01  0.28874690167E+02  0.00000000000E+00 0. -1.
</event>
<event>
 5    1  0.8900327E-005  0.9118800E+02  0.7818608E-02  0.1130116E+00
         25   -1    0    0    0    0  0.00000000000E+00  0.00000000000E+00  0.99999998245E-14  0.12500000000E+03  0.12500000000E+03 0.  0.
        -11    1    3    3    0    0 -0.17246254461E+02 -0.32754716527E+02  0.72468010016E+01  0.37720297887E+02  0.51100000000E-03 0.  1.
         23    2    1    0    0    0 -0.15267022705E+02  0.24933792751E+02  0.15677762185E+01  0.95721442564E+02  0.91133751382E+02 0.  0.
         11    1    3    3    0    0  0.19792317558E+01  0.57688509278E+02 -0.56790247831E+01  0.58001144677E+02  0.51100000000E-03 0. -1.
         22    1    1    0    0    0  0.15267022705E+02 -0.24933792751E+02 -0.15677762185E+01  0.29278557436E+02  0.00000000000E+00 0. -1.
</event>
<event>
 5    1  0.8900327E-005  0.9118800E+02  0.7818608E-02  0.1130116E+00
         25   -1    0    0    0    0  0.00000000000E+00  0.00000000000E+00  0.99999998245E-14  0.12500000000E+03  0.12500000000E+03 0.  0.
        -11    1    3    3    0    0 -0.17715836386E+02  0.13842411726E+02 -0.41813951900E+02  0.47474938599E+02  0.51100000000E-03 0. -1.
         23    2    1    0    0    0 -0.13956215331E+02  0.12858203893E+02  0.12724829868E+02  0.10215200996E+03  0.99564062240E+02 0.  0.
         11    1    3    3    0    0  0.37596210547E+01 -0.98420783317E+00  0.54538781768E+02  0.54677071360E+02  0.51100000000E-03 0.  1.
         22    1    1    0    0    0  0.13956215331E+02 -0.12858203893E+02 -0.12724829868E+02  0.22847990041E+02  0.00000000000E+00 0. -1.
</event>
<event>
 5    1  0.8900327E-005  0.9118800E+02  0.7818608E-02  0.1130116E+00
         25   -1    0    0    0    0  0.00000000000E+00  0.00000000000E+00  0.99999998245E-14  0.12500000000E+03  0.12500000000E+03 0.  0.
        -11    1    3    3    0    0  0.29763802188E+01 -0.59002075950E+02  0.54400939038E+01  0.59327046341E+02  0.51100000000E-03 0.  1.
         23    2    1    0    0    0 -0.12589807910E+02 -0.26600207634E+02  0.39720319636E+01  0.95304017994E+02  0.90559397627E+02 0.  0.
         11    1    3    3    0    0 -0.15566188129E+02  0.32401868316E+02 -0.14680619401E+01  0.35976971653E+02  0.51100000000E-03 0. -1.
         22    1    1    0    0    0  0.12589807910E+02  0.26600207634E+02 -0.39720319636E+01  0.29695982006E+02  0.00000000000E+00 0.  1.
</event>
<event>
 5    1  0.8900327E-005  0.9118800E+02  0.7818608E-02  0.1130116E+00
         25   -1    0    0    0    0  0.00000000000E+00  0.00000000000E+00  0.99999998245E-14  0.12500000000E+03  0.12500000000E+03 0.  0.
        -11    1    3    3    0    0  0.23000527295E+02 -0.83158830527E+01 -0.20204254843E+02  0.31723651757E+02  0.51100000000E-03 0.  1.
         23    2    1    0    0    0 -0.26629810588E+02  0.96468509815E+01  0.12741157823E+02  0.93942864774E+02  0.88660680087E+02 0.  0.
         11    1    3    3    0    0 -0.49630337883E+02  0.17962734034E+02  0.32945412666E+02  0.62219213016E+02  0.51100000000E-03 0. -1.
         22    1    1    0    0    0  0.26629810588E+02 -0.96468509815E+01 -0.12741157823E+02  0.31057135226E+02  0.00000000000E+00 0. -1.
</event>
<event>
 5    1  0.8900327E-005  0.9118800E+02  0.7818608E-02  0.1130116E+00
         25   -1    0    0    0    0  0.00000000000E+00  0.00000000000E+00  0.99999998245E-14  0.12500000000E+03  0.12500000000E+03 0.  0.
        -11    1    3    3    0    0 -0.10679755453E+01  0.13807645945E+02 -0.46374932008E+02  0.48398615448E+02  0.51100000000E-03 0. -1.
         23    2    1    0    0    0 -0.26109617564E+02 -0.47804391652E+01 -0.92351203858E+01  0.96895691140E+02  0.92730376819E+02 0.  0.
         11    1    3    3    0    0 -0.25041642019E+02 -0.18588085110E+02  0.37139811622E+02  0.48497075692E+02  0.51100000000E-03 0.  1.
         22    1    1    0    0    0  0.26109617564E+02  0.47804391652E+01  0.92351203858E+01  0.28104308860E+02  0.00000000000E+00 0.  1.
</event>
<event>
 5    1  0.8900327E-005  0.9118800E+02  0.7818608E-02  0.1130116E+00
         25   -1    0    0    0    0  0.00000000000E+00  0.00000000000E+00  0.99999998245E-14  0.12500000000E+03  0.12500000000E+03 0.  0.
        -11    1    3    3    0    0 -0.50143767764E+02  0.26348017014E+02 -0.15332893110E+02  0.58683158211E+02  0.51100000000E-03 0.  1.
         23    2    1    0    0    0 -0.31865201962E+02  0.48149844585E+01  0.34282432887E+01  0.92591235391E+02  0.86734127353E+02 0.  0.
         11    1    3    3    0    0  0.18278565802E+02 -0.21533032556E+02  0.18761136399E+02  0.33908077180E+02  0.51100000000E-03 0. -1.
         22    1    1    0    0    0  0.31865201962E+02 -0.48149844585E+01 -0.34282432887E+01  0.32408764609E+02  0.00000000000E+00 0.  1.
</event>
<event>
 5    1  0.8900327E-005  0.9118800E+02  0.7818608E-02  0.1130116E+00
         25   -1    0    0    0    0  0.00000000000E+00  0.00000000000E+00  0.99999998245E-14  0.12500000000E+03  0.12500000000E+03 0.  0.
        -11    1    3    3    0    0  0.16417649767E+02 -0.30409251034E+01 -0.52242002988E+02  0.54845358288E+02  0.51100000000E-03 0.  1.
         23    2    1    0    0    0  0.24408313370E+02 -0.11279576395E+02 -0.14177156623E+02  0.94602855807E+02  0.89586349137E+02 0.  0.
         11    1    3    3    0    0  0.79906636025E+01 -0.82386512914E+01  0.38064846364E+02  0.39757497518E+02  0.51100000000E-03 0. -1.
         22    1    1    0    0    0 -0.24408313370E+02  0.11279576395E+02  0.14177156623E+02  0.30397144193E+02  0.00000000000E+00 0. -1.
</event>
<event>
 5    1  0.8900327E-005  0.9118800E+02  0.7818608E-02  0.1130116E+00
         25   -1    0    0    0    0  0.00000000000E+00  0.00000000000E+00  0.99999998245E-14  0.12500000000E+03  0.12500000000E+03 0.  0.
        -11    1    3    3    0    0  0.12106908100E+02  0.44297833610E+02 -0.20728649399E+02  0.50384047004E+02  0.51100000000E-03 0.  1.
         23    2    1    0    0    0 -0.16672299471E+02  0.79713722359E+01 -0.21388675510E+02  0.96733698773E+02  0.92511754352E+02 0.  0.
         11    1    3    3    0    0 -0.28779207571E+02 -0.36326461374E+02 -0.66002611058E+00  0.46349651769E+02  0.51100000000E-03 0. -1.
         22    1    1    0    0    0  0.16672299471E+02 -0.79713722359E+01  0.21388675510E+02  0.28266301227E+02  0.00000000000E+00 0. -1.
</event>
<event>
 5    1  0.8900327E-005  0.9118800E+02  0.7818608E-02  0.1130116E+00
         25   -1    0    0    0    0  0.00000000000E+00  0.00000000000E+00  0.99999998245E-14  0.12500000000E+03  0.12500000000E+03 0.  0.
        -11    1    3    3    0    0 -0.76719588185E+00  0.59039505856E+02  0.51159846431E+01  0.59265716399E+02  0.51100000000E-03 0.  1.
         23    2    1    0    0    0  0.13586768266E+02  0.25162910515E+02  0.44147265505E+01  0.96064517491E+02  0.91603107877E+02 0.  0.
         11    1    3    3    0    0  0.14353964148E+02 -0.33876595340E+02 -0.70125809265E+00  0.36798801092E+02  0.51100000000E-03 0. -1.
         22    1    1    0    0    0 -0.13586768266E+02 -0.25162910515E+02 -0.44147265505E+01  0.28935482509E+02  0.00000000000E+00 0.  1.
</event>
<event>
 5    1  0.8900327E-005  0.9118800E+02  0.7818608E-02  0.1130116E+00
         25   -1    0    0    0    0  0.00000000000E+00  0.00000000000E+00  0.99999998245E-14  0.12500000000E+03  0.12500000000E+03 0.  0.
        -11    1    3    3    0    0  0.33931744824E+02 -0.11970685987E+02  0.19712556226E+02  0.41027375045E+02  0.51100000000E-03 0.  1.
         23    2    1    0    0    0 -0.42033391095E+01  0.25826448602E+02  0.14784564459E+02  0.94945768130E+02  0.90063544414E+02 0.  0.
         11    1    3    3    0    0 -0.38135083934E+02  0.37797134589E+02 -0.49279917669E+01  0.53918393085E+02  0.51100000000E-03 0. -1.
         22    1    1    0    0    0  0.42033391095E+01 -0.25826448602E+02 -0.14784564459E+02  0.30054231870E+02  0.00000000000E+00 0. -1.
</event>
<event>
 5    1  0.8900327E-005  0.9118800E+02  0.7818608E-02  0.1130116E+00
         25   -1    0    0    0    0  0.00000000000E+00  0.00000000000E+00  0.99999998245E-14  0.12500000000E+03  0.12500000000E+03 0.  0.
        -11    1    3    3    0    0  0.31524271871E+02 -0.20208078841E+02 -0.14963914907E+02  0.40324495248E+02  0.51100000000E-03 0. -1.
         23    2    1    0    0    0 -0.24512994510E+02 -0.94705327959E+01 -0.42011295746E+01  0.98387458201E+02  0.94719926892E+02 0.  0.
         11    1    3    3    0    0 -0.56037266381E+02  0.10737546045E+02  0.10762785333E+02  0.58062962953E+02  0.51100000000E-03 0.  1.
         22    1    1    0    0    0  0.24512994510E+02  0.94705327959E+01  0.42011295746E+01  0.26612541799E+02  0.00000000000E+00 0.  1.
</event>
<event>
 5    1  0.8900327E-005  0.9118800E+02  0.7818608E-02  0.1130116E+00
         25   -1    0    0    0    0  0.00000000000E+00  0.00000000000E+00  0.99999998245E-14  0.12500000000E+03  0.12500000000E+03 0.  0.
        -11    1    3    3    0    0  0.22120895948E+02  0.26896535024E+02 -0.58807388304E+01  0.35317711184E+02  0.51100000000E-03 0. -1.
         23    2    1    0    0    0 -0.18760653614E+02 -0.16581136100E+02 -0.15184064834E+02  0.95717718270E+02  0.91128642959E+02 0.  0.
         11    1    3    3    0    0 -0.40881549562E+02 -0.43477671124E+02 -0.93033260041E+01  0.60400007086E+02  0.51100000000E-03 0.  1.
         22    1    1    0    0    0  0.18760653614E+02  0.16581136100E+02  0.15184064834E+02  0.29282281730E+02  0.00000000000E+00 0.  1.
</event>
<event>
 5    1  0.8900327E-005  0.9118800E+02  0.7818608E-02  0.1130116E+00
         25   -1    0    0    0    0  0.00000000000E+00  0.00000000000E+00  0.99999998245E-14  0.12500000000E+03  0.12500000000E+03 0.  0.
        -11    1    3    3    0    0 -0.12221865064E+02  0.30820281618E+02  0.31003295105E+02  0.45392378791E+02  0.51100000000E-03 0.  1.
         23    2    1    0    0    0  0.25941079188E+02  0.10293724024E+02  0.31291319803E+01  0.96916342641E+02  0.92758210743E+02 0.  0.
         11    1    3    3    0    0  0.38162944252E+02 -0.20526557594E+02 -0.27874163125E+02  0.51523963850E+02  0.51100000000E-03 0. -1.
         22    1    1    0    0    0 -0.25941079188E+02 -0.10293724024E+02 -0.31291319803E+01  0.28083657359E+02  0.00000000000E+00 0. -1.
</event>
<event>
 5    1  0.8900327E-005  0.9118800E+02  0.7818608E-02  0.1130116E+00
         25   -1    0    0    0    0  0.00000000000E+00  0.00000000000E+00  0.99999998245E-14  0.12500000000E+03  0.12500000000E+03 0.  0.
        -11    1    3    3    0    0 -0.34362099485E+02  0.27305795288E+02  0.11799786937E+02  0.45448820769E+02  0.51100000000E-03 0. -1.
         23    2    1    0    0    0  0.87812067188E+01  0.58777731441E+01  0.27035856975E+02  0.95972506637E+02  0.91477465308E+02 0.  0.
         11    1    3    3    0    0  0.43143306203E+02 -0.21428022144E+02  0.15236070038E+02  0.50523685867E+02  0.51100000000E-03 0.  1.
         22    1    1    0    0    0 -0.87812067188E+01 -0.58777731441E+01 -0.27035856975E+02  0.29027493363E+02  0.00000000000E+00 0. -1.
</event>
<event>
 5    1  0.8900327E-005  0.9118800E+02  0.7818608E-02  0.1130116E+00
         25   -1    0    0    0    0  0.00000000000E+00  0.00000000000E+00  0.99999998245E-14  0.12500000000E+03  0.12500000000E+03 0.  0.
        -11    1    3    3    0    0  0.80218399054E+01  0.23725110368E+02 -0.37445903411E+02  0.45049156041E+02  0.51100000000E-03 0. -1.
         23    2    1    0    0    0 -0.27237717113E+02  0.16254133722E+02 -0.63501148007E+01  0.92651676171E+02  0.86821190055E+02 0.  0.
         11    1    3    3    0    0 -0.35259557018E+02 -0.74709766457E+01  0.31095788610E+02  0.47602520130E+02  0.51100000000E-03 0.  1.
         22    1    1    0    0    0  0.27237717113E+02 -0.16254133722E+02  0.63501148007E+01  0.32348323829E+02  0.00000000000E+00 0.  1.
</event>
<event>
 5    1  0.8900327E-005  0.9118800E+02  0.7818608E-02  0.1130116E+00
         25   -1    0    0    0    0  0.00000000000E+00  0.00000000000E+00  0.99999998245E-14  0.12500000000E+03  0.12500000000E+03 0.  0.
        -11    1    3    3    0    0  0.43463431943E+02 -0.17326818284E+02  0.31328146567E+02  0.56309335955E+02  0.51100000000E-03 0. -1.
         23    2    1    0    0    0  0.14879820700E+02  0.11034718504E+02  0.19100721738E+02  0.98391511741E+02  0.94725276116E+02 0.  0.
         11    1    3    3    0    0 -0.28583611243E+02  0.28361536788E+02 -0.12227424829E+02  0.42082175786E+02  0.51100000000E-03 0.  1.
         22    1    1    0    0    0 -0.14879820700E+02 -0.11034718504E+02 -0.19100721738E+02  0.26608488259E+02  0.00000000000E+00 0.  1.
</event>
<event>
 5    1  0.8900327E-005  0.9118800E+02  0.7818608E-02  0.1130116E+00
         25   -1    0    0    0    0  0.00000000000E+00  0.00000000000E+00  0.99999998245E-14  0.12500000000E+03  0.12500000000E+03 0.  0.
        -11    1    3    3    0    0  0.11242243753E+02  0.39373920828E+02 -0.44308681242E+02  0.60332022340E+02  0.51100000000E-03 0.  1.
         23    2    1    0    0    0  0.15811662894E+02  0.18908884299E+02 -0.15799129002E+02  0.95722584367E+02  0.91135317478E+02 0.  0.
         11    1    3    3    0    0  0.45694191413E+01 -0.20465036529E+02  0.28509552240E+02  0.35390562027E+02  0.51100000000E-03 0. -1.
         22    1    1    0    0    0 -0.15811662894E+02 -0.18908884299E+02  0.15799129002E+02  0.29277415633E+02  0.00000000000E+00 0.  1.
</event>
<event>
 5    1  0.8900327E-005  0.9118800E+02  0.7818608E-02  0.1130116E+00
         25   -1    0    0    0    0  0.00000000000E+00  0.00000000000E+00  0.99999998245E-14  0.12500000000E+03  0.12500000000E+03 0.  0.
        -11    1    3    3    0    0 -0.38289786475E+02  0.36429968796E+02  0.44286868538E+01  0.53036436931E+02  0.51100000000E-03 0.  1.
         23    2    1    0    0    0  0.34061470199E+01  0.26109643421E+02  0.10950400219E+02  0.96482872128E+02  0.92172219416E+02 0.  0.
         11    1    3    3    0    0  0.41695933495E+02 -0.10320325375E+02  0.65217133656E+01  0.43446435197E+02  0.51100000000E-03 0. -1.
         22    1    1    0    0    0 -0.34061470199E+01 -0.26109643421E+02 -0.10950400219E+02  0.28517127872E+02  0.00000000000E+00 0.  1.
</event>
<event>
 5    1  0.8900327E-005  0.9118800E+02  0.7818608E-02  0.1130116E+00
         25   -1    0    0    0    0  0.00000000000E+00  0.00000000000E+00  0.99999998245E-14  0.12500000000E+03  0.12500000000E+03 0.  0.
        -11    1    3    3    0    0  0.17154222101E+02 -0.38394769337E+02 -0.35284605570E+02  0.54894708660E+02  0.51100000000E-03 0.  1.
         23    2    1    0    0    0  0.26406428892E+02 -0.71087855438E+01 -0.11191473556E+02  0.95452015313E+02  0.90763449847E+02 0.  0.
         11    1    3    3    0    0  0.92522067913E+01  0.31285983793E+02  0.24093132014E+02  0.40557306653E+02  0.51100000000E-03 0. -1.
         22    1    1    0    0    0 -0.26406428892E+02  0.71087855438E+01  0.11191473556E+02  0.29547984687E+02  0.00000000000E+00 0.  1.
</event>
<event>
 5    1  0.8900327E-005  0.9118800E+02  0.7818608E-02  0.1130116E+00
         25   -1    0    0    0    0  0.00000000000E+00  0.00000000000E+00  0.99999998245E-14  0.12500000000E+03  0.12500000000E+03 0.  0.
        -11    1    3    3    0    0 -0.12082532526E+02 -0.34711942684E+02  0.44835333805E+00  0.36757415281E+02  0.51100000000E-03 0.  1.
         23    2    1    0    0    0 -0.14866113498E+02  0.22963368729E+02  0.11107652586E+02  0.95475474942E+02  0.90795752849E+02 0.  0.
         11    1    3    3    0    0 -0.27835809719E+01  0.57675311413E+02  0.10659299248E+02  0.58718059661E+02  0.51100000000E-03 0. -1.
         22    1    1    0    0    0  0.14866113498E+02 -0.22963368729E+02 -0.11107652586E+02  0.29524525058E+02  0.00000000000E+00 0. -1.
</event>
<event>
 5    1  0.8900327E-005  0.9118800E+02  0.7818608E-02  0.1130116E+00
         25   -1    0    0    0    0  0.00000000000E+00  0.00000000000E+00  0.99999998245E-14  0.12500000000E+03  0.12500000000E+03 0.  0.
        -11    1    3    3    0    0 -0.27763283662E+02  0.50367368203E+02  0.71355321420E+00  0.57516787618E+02  0.51100000000E-03 0. -1.
         23    2    1    0    0    0 -0.52118435039E+01  0.24242964579E+02  0.16238179368E+02  0.95359434663E+02  0.90635857506E+02 0.  0.
         11    1    3    3    0    0  0.22551440158E+02 -0.26124403624E+02  0.15524626154E+02  0.37842647045E+02  0.51100000000E-03 0.  1.
         22    1    1    0    0    0  0.52118435039E+01 -0.24242964579E+02 -0.16238179368E+02  0.29640565337E+02  0.00000000000E+00 0.  1.
</event>
<event>
 5    1  0.8900327E-005  0.9118800E+02  0.7818608E-02  0.1130116E+00
         25   -1    0    0    0    0  0.00000000000E+00  0.00000000000E+00  0.99999998245E-14  0.12500000000E+03  0.12500000000E+03 0.  0.
        -11    1    3    3    0    0 -0.12251802404E+02  0.22313950789E+02  0.31397698034E+02  0.40420718747E+02  0.51100000000E-03 0.  1.
         23    2    1    0    0    0 -0.28047569265E+02 -0.13838322995E+02 -0.40556263346E+01  0.93462507551E+02  0.87980832502E+02 0.  0.
         11    1    3    3    0    0 -0.15795766862E+02 -0.36152273784E+02 -0.35453324368E+02  0.53041788804E+02  0.51100000000E-03 0. -1.
         22    1    1    0    0    0  0.28047569265E+02  0.13838322995E+02  0.40556263346E+01  0.31537492449E+02  0.00000000000E+00 0. -1.
</event>
<event>
 5    1  0.8900327E-005  0.9118800E+02  0.7818608E-02  0.1130116E+00
         25   -1    0    0    0    0  0.00000000000E+00  0.00000000000E+00  0.99999998245E-14  0.12500000000E+03  0.12500000000E+03 0.  0.
        -11    1    3    3    0    0 -0.43132649228E+02 -0.19863879232E+02 -0.28856186815E+02  0.55566884430E+02  0.51100000000E-03 0.  1.
         23    2    1    0    0    0 -0.14861922272E+02 -0.24208025928E+02  0.54919804786E+00  0.96588613700E+02  0.92315510208E+02 0.  0.
         11    1    3    3    0    0  0.28270726955E+02 -0.43441466961E+01  0.29405384863E+02  0.41021729270E+02  0.51100000000E-03 0. -1.
         22    1    1    0    0    0  0.14861922272E+02  0.24208025928E+02 -0.54919804786E+00  0.28411386300E+02  0.00000000000E+00 0.  1.
</event>
<event>
 5    1  0.8900327E-005  0.9118800E+02  0.7818608E-02  0.1130116E+00
         25   -1    0    0    0    0  0.00000000000E+00  0.00000000000E+00  0.99999998245E-14  0.12500000000E+03  0.12500000000E+03 0.  0.
        -11    1    3    3    0    0  0.15404915380E+02 -0.32495228073E+02 -0.49904527555E+02  0.61511894265E+02  0.51100000000E-03 0. -1.
         23    2    1    0    0    0  0.56446812697E+01 -0.92601217469E+01 -0.28252574334E+02  0.94737477998E+02  0.89773991220E+02 0.  0.
         11    1    3    3    0    0 -0.97602341105E+01  0.23235106326E+02  0.21651953221E+02  0.33225583733E+02  0.51100000000E-03 0.  1.
         22    1    1    0    0    0 -0.56446812697E+01  0.92601217469E+01  0.28252574334E+02  0.30262522002E+02  0.00000000000E+00 0. -1.
</event>
<event>
 5    1  0.8900327E-005  0.9118800E+02  0.7818608E-02  0.1130116E+00
         25   -1    0    0    0    0  0.00000000000E+00  0.00000000000E+00  0.99999998245E-14  0.12500000000E+03  0.12500000000E+03 0.  0.
        -11    1    3    3    0    0  0.29481335002E+02 -0.45028470145E+02  0.93348589710E+01  0.54624644890E+02  0.51100000000E-03 0. -1.
         23    2    1    0    0    0  0.19514269595E+01 -0.24972778885E+02 -0.14369721155E+02  0.96122038880E+02  0.91681566958E+02 0.  0.
         11    1    3    3    0    0 -0.27529908043E+02  0.20055691260E+02 -0.23704580126E+02  0.41497393990E+02  0.51100000000E-03 0.  1.
         22    1    1    0    0    0 -0.19514269595E+01  0.24972778885E+02  0.14369721155E+02  0.28877961120E+02  0.00000000000E+00 0. -1.
</event>
<event>
 5    1  0.8900327E-005  0.9118800E+02  0.7818608E-02  0.1130116E+00
         25   -1    0    0    0    0  0.00000000000E+00  0.00000000000E+00  0.99999998245E-14  0.12500000000E+03  0.12500000000E+03 0.  0.
        -11    1    3    3    0    0 -0.51792034589E+02 -0.20990517243E+02  0.10295868059E+02  0.56824480291E+02  0.51100000000E-03 0. -1.
         23    2    1    0    0    0 -0.36627188926E+02  0.25141602504E+01 -0.36962668160E+01  0.88101024964E+02  0.80001601490E+02 0.  0.
         11    1    3    3    0    0  0.15164845663E+02  0.23504677493E+02 -0.13992134875E+02  0.31276544673E+02  0.51100000000E-03 0.  1.
         22    1    1    0    0    0  0.36627188926E+02 -0.25141602504E+01  0.36962668160E+01  0.36898975036E+02  0.00000000000E+00 0. -1.
</event>
<event>
 5    1  0.8900327E-005  0.9118800E+02  0.7818608E-02  0.1130116E+00
         25   -1    0    0    0    0  0.00000000000E+00  0.00000000000E+00  0.99999998245E-14  0.12500000000E+03  0.12500000000E+03 0.  0.
        -11    1    3    3    0    0 -0.41274559885E+02  0.95252043576E+01 -0.28145313652E+02  0.50857423181E+02  0.51100000000E-03 0.  1.
         23    2    1    0    0    0 -0.10204279639E+02  0.27809530163E+02 -0.21574039400E+01  0.95298961591E+02  0.90552417956E+02 0.  0.
         11    1    3    3    0    0  0.31070280247E+02  0.18284325805E+02  0.25987909712E+02  0.44441538410E+02  0.51100000000E-03 0. -1.
         22    1    1    0    0    0  0.10204279639E+02 -0.27809530163E+02  0.21574039400E+01  0.29701038409E+02  0.00000000000E+00 0. -1.
</event>
<event>
 5    1  0.8900327E-005  0.9118800E+02  0.7818608E-02  0.1130116E+00
         25   -1    0    0    0    0  0.00000000000E+00  0.00000000000E+00  0.99999998245E-14  0.12500000000E+03  0.12500000000E+03 0.  0.
        -11    1    3    3    0    0 -0.54800969898E+02 -0.11788336689E+02  0.47972293070E+01  0.56259440034E+02  0.51100000000E-03 0. -1.
         23    2    1    0    0    0 -0.19350167354E+02 -0.24190399122E+02  0.10310244754E+01  0.94005365016E+02  0.88748753535E+02 0.  0.
         11    1    3    3    0    0  0.35450802544E+02 -0.12402062434E+02 -0.37662048315E+01  0.37745924982E+02  0.51100000000E-03 0.  1.
         22    1    1    0    0    0  0.19350167354E+02  0.24190399122E+02 -0.10310244754E+01  0.30994634984E+02  0.00000000000E+00 0. -1.
</event>
<event>
 5    1  0.8900327E-005  0.9118800E+02  0.7818608E-02  0.1130116E+00
         25   -1    0    0    0    0  0.00000000000E+00  0.00000000000E+00  0.99999998245E-14  0.12500000000E+03  0.12500000000E+03 0.  0.
        -11    1    3    3    0    0 -0.57821838244E+02  0.19921239015E+02 -0.68285277465E+01  0.61537383218E+02  0.51100000000E-03 0. -1.
         23    2    1    0    0    0 -0.21241925658E+02  0.15104540845E+02 -0.48644710840E+01  0.98485293916E+02  0.94848950858E+02 0.  0.
         11    1    3    3    0    0  0.36579912587E+02 -0.48166981698E+01  0.19640566625E+01  0.36947910698E+02  0.51100000000E-03 0.  1.
         22    1    1    0    0    0  0.21241925658E+02 -0.15104540845E+02  0.48644710840E+01  0.26514706084E+02  0.00000000000E+00 0. -1.
</event>
<event>
 5    1  0.8900327E-005  0.9118800E+02  0.7818608E-02  0.1130116E+00
         25   -1    0    0    0    0  0.00000000000E+00  0.00000000000E+00  0.99999998245E-14  0.12500000000E+03  0.12500000000E+03 0.  0.
        -11    1    3    3    0    0 -0.24900285352E+02  0.40813835401E+02  0.22186661078E+02  0.52707127609E+02  0.51100000000E-03 0.  1.
         23    2    1    0    0    0 -0.17820464276E+02  0.21266266867E+02 -0.13604532237E+02  0.94098440964E+02  0.88879751580E+02 0.  0.
         11    1    3    3    0    0  0.70798210760E+01 -0.19547568534E+02 -0.35791193315E+02  0.41391313354E+02  0.51100000000E-03 0. -1.
         22    1    1    0    0    0  0.17820464276E+02 -0.21266266867E+02  0.13604532237E+02  0.30901559036E+02  0.00000000000E+00 0.  1.
</event>
<event>
 5    1  0.8900327E-005  0.9118800E+02  0.7818608E-02  0.1130116E+00
         25   -1    0    0    0    0  0.00000000000E+00  0.00000000000E+00  0.99999998245E-14  0.12500000000E+03  0.12500000000E+03 0.  0.
        -11    1    3    3    0    0  0.41963509005E+02  0.19432716573E+02 -0.37325116747E+01  0.46395023495E+02  0.51100000000E-03 0. -1.
         23    2    1    0    0    0  0.60298921932E+01 -0.57735793987E+01  0.24857586864E+02  0.98777996956E+02  0.95233918532E+02 0.  0.
         11    1    3    3    0    0 -0.35933616812E+02 -0.25206295972E+02  0.28590098539E+02  0.52382973460E+02  0.51100000000E-03 0.  1.
         22    1    1    0    0    0 -0.60298921932E+01  0.57735793987E+01 -0.24857586864E+02  0.26222003044E+02  0.00000000000E+00 0.  1.
</event>
<event>
 5    1  0.8900327E-005  0.9118800E+02  0.7818608E-02  0.1130116E+00
         25   -1    0    0    0    0  0.00000000000E+00  0.00000000000E+00  0.99999998245E-14  0.12500000000E+03  0.12500000000E+03 0.  0.
        -11    1    3    3    0    0  0.15192287910E+02 -0.18338211378E+02 -0.27766149117E+02  0.36579429267E+02  0.51100000000E-03 0. -1.
         23    2    1    0    0    0 -0.10921678347E+02  0.26356501868E+02  0.21890328129E+01  0.96386364906E+02  0.92041247420E+02 0.  0.
         11    1    3    3    0    0 -0.26113966257E+02  0.44694713246E+02  0.29955181930E+02  0.59806935639E+02  0.51100000000E-03 0.  1.
         22    1    1    0    0    0  0.10921678347E+02 -0.26356501868E+02 -0.21890328129E+01  0.28613635094E+02  0.00000000000E+00 0.  1.
</event>
<event>
 5    1  0.8900327E-005  0.9118800E+02  0.7818608E-02  0.1130116E+00
         25   -1    0    0    0    0  0.00000000000E+00  0.00000000000E+00  0.99999998245E-14  0.12500000000E+03  0.12500000000E+03 0.  0.
        -11    1    3    3    0    0  0.20824038503E+02 -0.37853915217E+02  0.86099150211E+01  0.44053264508E+02  0.51100000000E-03 0.  1.
         23    2    1    0    0    0  0.24480046608E+02  0.13930756440E+02  0.69286708114E+01  0.95994049987E+02  0.91506898630E+02 0.  0.
         11    1    3    3    0    0  0.36560081055E+01  0.51784671657E+02 -0.16812442097E+01  0.51940785480E+02  0.51100000000E-03 0. -1.
         22    1    1    0    0    0 -0.24480046608E+02 -0.13930756440E+02 -0.69286708114E+01  0.29005950013E+02  0.00000000000E+00 0. -1.
</event>
<event>
 5    1  0.8900327E-005  0.9118800E+02  0.7818608E-02  0.1130116E+00
         25   -1    0    0    0    0  0.00000000000E+00  0.00000000000E+00  0.99999998245E-14  0.12500000000E+03  0.12500000000E+03 0.  0.
        -11    1    3    3    0    0 -0.29288373410E+02  0.66454566172E+00 -0.51455503165E+02  0.59210803441E+02  0.51100000000E-03 0. -1.
         23    2    1    0    0    0 -0.19790474185E+02 -0.13487364509E+02 -0.30336798366E+02  0.86349085328E+02  0.77215745364E+02 0.  0.
         11    1    3    3    0    0  0.94978992247E+01 -0.14151910171E+02  0.21118704799E+02  0.27138281888E+02  0.51100000000E-03 0.  1.
         22    1    1    0    0    0  0.19790474185E+02  0.13487364509E+02  0.30336798366E+02  0.38650914672E+02  0.00000000000E+00 0. -1.
</event>
<event>
 5    1  0.8900327E-005  0.9118800E+02  0.7818608E-02  0.1130116E+00
         25   -1    0    0    0    0  0.00000000000E+00  0.00000000000E+00  0.99999998245E-14  0.12500000000E+03  0.12500000000E+03 0.  0.
        -11    1    3    3    0    0  0.37781602733E+02 -0.21941337200E+01  0.25639002789E+02  0.45712385544E+02  0.51100000000E-03 0. -1.
         23    2    1    0    0    0  0.32431002891E+01 -0.30307315731E+02  0.11161239087E+02  0.92540419839E+02  0.86660861752E+02 0.  0.
         11    1    3    3    0    0 -0.34538502444E+02 -0.28113182011E+02 -0.14477763702E+02  0.46828034295E+02  0.51100000000E-03 0.  1.
         22    1    1    0    0    0 -0.32431002891E+01  0.30307315731E+02 -0.11161239087E+02  0.32459580161E+02  0.00000000000E+00 0.  1.
</event>
<event>
 5    1  0.8900327E-005  0.9118800E+02  0.7818608E-02  0.1130116E+00
         25   -1    0    0    0    0  0.00000000000E+00  0.00000000000E+00  0.99999998245E-14  0.12500000000E+03  0.12500000000E+03 0.  0.
        -11    1    3    3    0    0 -0.49222513165E+02 -0.98998404888E+01  0.25124155729E+01  0.50271014276E+02  0.51100000000E-03 0. -1.
         23    2    1    0    0    0 -0.79826359601E+01 -0.28135470967E+02 -0.25349259413E+01  0.95644369314E+02  0.91027975527E+02 0.  0.
         11    1    3    3    0    0  0.41239877205E+02 -0.18235630479E+02 -0.50473415141E+01  0.45373355039E+02  0.51100000000E-03 0.  1.
         22    1    1    0    0    0  0.79826359601E+01  0.28135470967E+02  0.25349259413E+01  0.29355630686E+02  0.00000000000E+00 0. -1.
</event>
<event>
 5    1  0.8900327E-005  0.9118800E+02  0.7818608E-02  0.1130116E+00
         25   -1    0    0    0    0  0.00000000000E+00  0.00000000000E+00  0.99999998245E-14  0.12500000000E+03  0.12500000000E+03 0.  0.
        -11    1    3    3    0    0 -0.94603868039E+01  0.13946373526E+02 -0.54760024108E+02  0.57294506661E+02  0.51100000000E-03 0.  1.
         23    2    1    0    0    0 -0.18453813839E+02  0.14457371231E+02 -0.17187791575E+02  0.95931477379E+02  0.91421383411E+02 0.  0.
         11    1    3    3    0    0 -0.89934270348E+01  0.51099770555E+00  0.37572232533E+02  0.38636970718E+02  0.51100000000E-03 0. -1.
         22    1    1    0    0    0  0.18453813839E+02 -0.14457371231E+02  0.17187791575E+02  0.29068522621E+02  0.00000000000E+00 0.  1.
</event>
<event>
 5    1  0.8900327E-005  0.9118800E+02  0.7818608E-02  0.1130116E+00
         25   -1    0    0    0    0  0.00000000000E+00  0.00000000000E+00  0.99999998245E-14  0.12500000000E+03  0.12500000000E+03 0.  0.
        -11    1    3    3    0    0  0.31820476548E+02 -0.17795016945E+02 -0.19548332429E+02  0.41368377498E+02  0.51100000000E-03 0.  1.
         23    2    1    0    0    0 -0.17282864477E+02  0.80835195128E+00 -0.25468647354E+02  0.94210345318E+02  0.89036994163E+02 0.  0.
         11    1    3    3    0    0 -0.49103341024E+02  0.18603368896E+02 -0.59203149244E+01  0.52841967820E+02  0.51100000000E-03 0. -1.
         22    1    1    0    0    0  0.17282864477E+02 -0.80835195128E+00  0.25468647354E+02  0.30789654682E+02  0.00000000000E+00 0. -1.
</event>
<event>
 5    1  0.8900327E-005  0.9118800E+02  0.7818608E-02  0.1130116E+00
         25   -1    0    0    0    0  0.00000000000E+00  0.00000000000E+00  0.99999998245E-14  0.12500000000E+03  0.12500000000E+03 0.  0.
        -11    1    3    3    0    0  0.48195410992E+02 -0.17707924741E+00 -0.28578808902E+02  0.56031931220E+02  0.51100000000E-03 0. -1.
         23    2    1    0    0    0  0.26802474145E+02  0.14132819269E+02  0.27714508494E+00  0.94698415715E+02  0.89719584979E+02 0.  0.
         11    1    3    3    0    0 -0.21392936847E+02  0.14309898516E+02  0.28855953987E+02  0.38666484495E+02  0.51100000000E-03 0.  1.
         22    1    1    0    0    0 -0.26802474145E+02 -0.14132819269E+02 -0.27714508494E+00  0.30301584285E+02  0.00000000000E+00 0. -1.
</event>
<event>
 5    1  0.8900327E-005  0.9118800E+02  0.7818608E-02  0.1130116E+00
         25   -1    0    0    0    0  0.00000000000E+00  0.00000000000E+00  0.99999998245E-14  0.12500000000E+03  0.12500000000E+03 0.  0.
        -11    1    3    3    0    0  0.32950532323E+02 -0.27157193370E+02 -0.33764296535E+02  0.54436003278E+02  0.51100000000E-03 0. -1.
         23    2    1    0    0    0  0.28172099693E+02 -0.42700284551E+01  0.11811180798E+01  0.96481665826E+02  0.92170583466E+02 0.  0.
         11    1    3    3    0    0 -0.47784326300E+01  0.22887164915E+02  0.34945414615E+02  0.42045662548E+02  0.51100000000E-03 0.  1.
         22    1    1    0    0    0 -0.28172099693E+02  0.42700284551E+01 -0.11811180798E+01  0.28518334174E+02  0.00000000000E+00 0. -1.
</event>
<event>
 5    1  0.8900327E-005  0.9118800E+02  0.7818608E-02  0.1130116E+00
         25   -1    0    0    0    0  0.00000000000E+00  0.00000000000E+00  0.99999998245E-14  0.12500000000E+03  0.12500000000E+03 0.  0.
        -11    1    3    3    0    0  0.82193201947E+00  0.11748135523E+02  0.29256828323E+02  0.31538171543E+02  0.51100000000E-03 0. -1.
         23    2    1    0    0    0 -0.13244312968E+02 -0.99391556006E+01 -0.26930176072E+02  0.93386189357E+02  0.87872335461E+02 0.  0.
         11    1    3    3    0    0 -0.14066244988E+02 -0.21687291124E+02 -0.56187004395E+02  0.61848017814E+02  0.51100000000E-03 0.  1.
         22    1    1    0    0    0  0.13244312968E+02  0.99391556006E+01  0.26930176072E+02  0.31613810643E+02  0.00000000000E+00 0.  1.
</event>
<event>
 5    1  0.8900327E-005  0.9118800E+02  0.7818608E-02  0.1130116E+00
         25   -1    0    0    0    0  0.00000000000E+00  0.00000000000E+00  0.99999998245E-14  0.12500000000E+03  0.12500000000E+03 0.  0.
        -11    1    3    3    0    0 -0.16389712970E+01 -0.21082900442E+02 -0.25567533094E+02  0.33179416311E+02  0.51100000000E-03 0.  1.
         23    2    1    0    0    0  0.15345072605E+02  0.79356681401E+01  0.25426010048E+02  0.94260317682E+02  0.89107123287E+02 0.  0.
         11    1    3    3    0    0  0.16984043902E+02  0.29018568582E+02  0.50993543142E+02  0.61080901371E+02  0.51100000000E-03 0. -1.
         22    1    1    0    0    0 -0.15345072605E+02 -0.79356681401E+01 -0.25426010048E+02  0.30739682318E+02  0.00000000000E+00 0. -1.
</event>
<event>
 5    1  0.8900327E-005  0.9118800E+02  0.7818608E-02  0.1130116E+00
         25   -1    0    0    0    0  0.00000000000E+00  0.00000000000E+00  0.99999998245E-14  0.12500000000E+03  0.12500000000E+03 0.  0.
        -11    1    3    3    0    0  0.10109747771E+02  0.14607386449E+02 -0.29004921545E+02  0.34012765441E+02  0.51100000000E-03 0. -1.
         23    2    1    0    0    0  0.52735363112E+01 -0.24744577910E+01  0.29385632674E+02  0.95042554611E+02  0.90197775210E+02 0.  0.
         11    1    3    3    0    0 -0.48362114603E+01 -0.17081844240E+02  0.58390554219E+02  0.61029789170E+02  0.51100000000E-03 0.  1.
         22    1    1    0    0    0 -0.52735363112E+01  0.24744577910E+01 -0.29385632674E+02  0.29957445389E+02  0.00000000000E+00 0. -1.
</event>
<event>
 5    1  0.8900327E-005  0.9118800E+02  0.7818608E-02  0.1130116E+00
         25   -1    0    0    0    0  0.00000000000E+00  0.00000000000E+00  0.99999998245E-14  0.12500000000E+03  0.12500000000E+03 0.  0.
        -11    1    3    3    0    0  0.49007234716E+01  0.31697260172E+02  0.36514781427E+01  0.32281057694E+02  0.51100000000E-03 0.  1.
         23    2    1    0    0    0 -0.75346456784E+01 -0.25810479709E+02 -0.15261422092E+02  0.94082969862E+02  0.88857990442E+02 0.  0.
         11    1    3    3    0    0 -0.12435369150E+02 -0.57507739881E+02 -0.18912900234E+02  0.61801912168E+02  0.51100000000E-03 0. -1.
         22    1    1    0    0    0  0.75346456784E+01  0.25810479709E+02  0.15261422092E+02  0.30917030138E+02  0.00000000000E+00 0. -1.
</event>
<event>
 5    1  0.8900327E-005  0.9118800E+02  0.7818608E-02  0.1130116E+00
         25   -1    0    0    0    0  0.00000000000E+00  0.00000000000E+00  0.99999998245E-14  0.12500000000E+03  0.12500000000E+03 0.  0.
        -11    1    3    3    0    0  0.21849604398E+02  0.82410870803E+01 -0.32845652390E+02  0.40300838822E+02  0.51100000000E-03 0. -1.
         23    2    1    0    0    0 -0.27475678482E+02  0.11377741286E+01 -0.62031178495E+01  0.96809822472E+02  0.92614554029E+02 0.  0.
         11    1    3    3    0    0 -0.49325282880E+02 -0.71033129518E+01  0.26642534540E+02  0.56508983649E+02  0.51100000000E-03 0.  1.
         22    1    1    0    0    0  0.27475678482E+02 -0.11377741286E+01  0.62031178495E+01  0.28190177528E+02  0.00000000000E+00 0.  1.
</event>
<event>
 5    1  0.8900327E-005  0.9118800E+02  0.7818608E-02  0.1130116E+00
         25   -1    0    0    0    0  0.00000000000E+00  0.00000000000E+00  0.99999998245E-14  0.12500000000E+03  0.12500000000E+03 0.  0.
        -11    1    3    3    0    0 -0.11075347372E+02 -0.47421832580E+02 -0.20277487897E+02  0.52751019330E+02  0.51100000000E-03 0.  1.
         23    2    1    0    0    0 -0.28694028812E+02 -0.18403008804E+02 -0.31754734826E+01  0.90764029818E+02  0.84059547075E+02 0.  0.
         11    1    3    3    0    0 -0.17618681440E+02  0.29018823777E+02  0.17102014414E+02  0.38013010488E+02  0.51100000000E-03 0. -1.
         22    1    1    0    0    0  0.28694028812E+02  0.18403008804E+02  0.31754734826E+01  0.34235970182E+02  0.00000000000E+00 0.  1.
</event>
<event>
 5    1  0.8900327E-005  0.9118800E+02  0.7818608E-02  0.1130116E+00
         25   -1    0    0    0    0  0.00000000000E+00  0.00000000000E+00  0.99999998245E-14  0.12500000000E+03  0.12500000000E+03 0.  0.
        -11    1    3    3    0    0  0.26085367804E+02 -0.24950284805E+02 -0.17307731071E+02  0.40031496106E+02  0.51100000000E-03 0. -1.
         23    2    1    0    0    0 -0.17019029340E+02 -0.12751323606E+02  0.18054050979E+02  0.97103900449E+02  0.93010618277E+02 0.  0.
         11    1    3    3    0    0 -0.43104397144E+02  0.12198961199E+02  0.35361782051E+02  0.57072404344E+02  0.51100000000E-03 0.  1.
         22    1    1    0    0    0  0.17019029340E+02  0.12751323606E+02 -0.18054050979E+02  0.27896099551E+02  0.00000000000E+00 0.  1.
</event>
<event>
 5    1  0.8900327E-005  0.9118800E+02  0.7818608E-02  0.1130116E+00
         25   -1    0    0    0    0  0.00000000000E+00  0.00000000000E+00  0.99999998245E-14  0.12500000000E+03  0.12500000000E+03 0.  0.
        -11    1    3    3    0    0 -0.46049883626E+02 -0.27644666021E+02 -0.10444317204E+02  0.54716570648E+02  0.51100000000E-03 0. -1.
         23    2    1    0    0    0 -0.57950923901E+01 -0.28111933269E+02 -0.86820955021E+01  0.95012624819E+02  0.90156287660E+02 0.  0.
         11    1    3    3    0    0  0.40254791236E+02 -0.46726724853E+00  0.17622217020E+01  0.40296054171E+02  0.51100000000E-03 0.  1.
         22    1    1    0    0    0  0.57950923901E+01  0.28111933269E+02  0.86820955021E+01  0.29987375181E+02  0.00000000000E+00 0. -1.
</event>
<event>
 5    1  0.8900327E-005  0.9118800E+02  0.7818608E-02  0.1130116E+00
         25   -1    0    0    0    0  0.00000000000E+00  0.00000000000E+00  0.99999998245E-14  0.12500000000E+03  0.12500000000E+03 0.  0.
        -11    1    3    3    0    0 -0.16486942770E+02 -0.10550369601E+02 -0.19492095181E+02  0.27623746224E+02  0.51100000000E-03 0.  1.
         23    2    1    0    0    0  0.11265321975E+02  0.37891110338E+02 -0.65743069560E+01  0.84926751644E+02  0.74877819887E+02 0.  0.
         11    1    3    3    0    0  0.27752264746E+02  0.48441479939E+02  0.12917788225E+02  0.57303005420E+02  0.51100000000E-03 0. -1.
         22    1    1    0    0    0 -0.11265321975E+02 -0.37891110338E+02  0.65743069560E+01  0.40073248356E+02  0.00000000000E+00 0. -1.
</event>
<event>
 5    1  0.8900327E-005  0.9118800E+02  0.7818608E-02  0.1130116E+00
         25   -1    0    0    0    0  0.00000000000E+00  0.00000000000E+00  0.99999998245E-14  0.12500000000E+03  0.12500000000E+03 0.  0.
        -11    1    3    3    0    0  0.17235211862E+02 -0.16797657911E+02 -0.30800849161E+02  0.39088440088E+02  0.51100000000E-03 0.  1.
         23    2    1    0    0    0  0.15914330397E+02 -0.99410232858E+00  0.24026795743E+02  0.96163546246E+02  0.91738141258E+02 0.  0.
         11    1    3    3    0    0 -0.13208814645E+01  0.15803555582E+02  0.54827644904E+02  0.57075106158E+02  0.51100000000E-03 0. -1.
         22    1    1    0    0    0 -0.15914330397E+02  0.99410232858E+00 -0.24026795743E+02  0.28836453754E+02  0.00000000000E+00 0. -1.
</event>
<event>
 5    1  0.8900327E-005  0.9118800E+02  0.7818608E-02  0.1130116E+00
         25   -1    0    0    0    0  0.00000000000E+00  0.00000000000E+00  0.99999998245E-14  0.12500000000E+03  0.12500000000E+03 0.  0.
        -11    1    3    3    0    0 -0.48465713060E+02  0.50750119018E+01  0.21381680084E+02  0.53215198315E+02  0.51100000000E-03 0. -1.
         23    2    1    0    0    0 -0.13579817147E+02  0.24307172586E+02  0.33032028979E+01  0.96961433305E+02  0.92818954564E+02 0.  0.
         11    1    3    3    0    0  0.34885895912E+02  0.19232160685E+02 -0.18078477186E+02  0.43746234991E+02  0.51100000000E-03 0.  1.
         22    1    1    0    0    0  0.13579817147E+02 -0.24307172586E+02 -0.33032028979E+01  0.28038566695E+02  0.00000000000E+00 0. -1.
</event>
<event>
 5    1  0.8900327E-005  0.9118800E+02  0.7818608E-02  0.1130116E+00
         25   -1    0    0    0    0  0.00000000000E+00  0.00000000000E+00  0.99999998245E-14  0.12500000000E+03  0.12500000000E+03 0.  0.
        -11    1    3    3    0    0  0.32543971694E+02 -0.55693253460E+01  0.42809874742E+02  0.54063045180E+02  0.51100000000E-03 0. -1.
         23    2    1    0    0    0  0.28775422839E+02 -0.57702172799E+00  0.11437347393E+01  0.96196075914E+02  0.91782454633E+02 0.  0.
         11    1    3    3    0    0 -0.37685488555E+01  0.49923036180E+01 -0.41666140002E+02  0.42133030734E+02  0.51100000000E-03 0.  1.
         22    1    1    0    0    0 -0.28775422839E+02  0.57702172799E+00 -0.11437347393E+01  0.28803924086E+02  0.00000000000E+00 0. -1.
</event>
<event>
 5    1  0.8900327E-005  0.9118800E+02  0.7818608E-02  0.1130116E+00
         25   -1    0    0    0    0  0.00000000000E+00  0.00000000000E+00  0.99999998245E-14  0.12500000000E+03  0.12500000000E+03 0.  0.
        -11    1    3    3    0    0 -0.32824584255E+02 -0.22981544795E+02 -0.10181349651E+02  0.41343253545E+02  0.51100000000E-03 0. -1.
         23    2    1    0    0    0 -0.91593416783E+00  0.13423379204E+02 -0.28801905580E+02  0.93210444959E+02  0.87621979205E+02 0.  0.
         11    1    3    3    0    0  0.31908650087E+02  0.36404924000E+02 -0.18620555930E+02  0.51867191414E+02  0.51100000000E-03 0.  1.
         22    1    1    0    0    0  0.91593416783E+00 -0.13423379204E+02  0.28801905580E+02  0.31789555041E+02  0.00000000000E+00 0.  1.
</event>
<event>
 5    1  0.8900327E-005  0.9118800E+02  0.7818608E-02  0.1130116E+00
         25   -1    0    0    0    0  0.00000000000E+00  0.00000000000E+00  0.99999998245E-14  0.12500000000E+03  0.12500000000E+03 0.  0.
        -11    1    3    3    0    0 -0.21245802453E+02 -0.20026628397E+01 -0.35108938382E+02  0.41085670676E+02  0.51100000000E-03 0.  1.
         23    2    1    0    0    0  0.87853808404E+01 -0.15613584685E+02  0.15380822557E+02  0.10138778609E+03  0.98599931655E+02 0.  0.
         11    1    3    3    0    0  0.30031183293E+02 -0.13610921846E+02  0.50489760939E+02  0.60302115414E+02  0.51100000000E-03 0. -1.
         22    1    1    0    0    0 -0.87853808404E+01  0.15613584685E+02 -0.15380822557E+02  0.23612213911E+02  0.00000000000E+00 0. -1.
</event>
<event>
 4    1  0.8900327E-005  0.9118800E+02  0.7818608E-02  0.1130116E+00
         25   -1    0    0    0    0  0.00000000000E+00  0.00000000000E+00  0.99999998245E-14  0.12500000000E+03  0.12500000000E+03 0.  0.
        -11    1    1    0    0    0 -0.71050641662E+01 -0.13354276913E+02  0.41326386572E+01  0.15681114476E+02  0.51100000000E-03 0. -1.
         11    1    1    0    0    0  0.47233545798E+02 -0.23965943610E+02  0.69169011504E+01  0.53415520437E+02  0.51100000000E-03 0.  1.
         22    1    1    0    0    0 -0.40128481632E+02  0.37320220524E+02 -0.11049539808E+02  0.55903365086E+02  0.00000000000E+00 0.  1.
</event>
<event>
 5    1  0.8900327E-005  0.9118800E+02  0.7818608E-02  0.1130116E+00
         25   -1    0    0    0    0  0.00000000000E+00  0.00000000000E+00  0.99999998245E-14  0.12500000000E+03  0.12500000000E+03 0.  0.
        -11    1    3    3    0    0 -0.37939013855E+02 -0.13250272683E+01  0.20948266946E+02  0.43358440446E+02  0.51100000000E-03 0.  1.
         23    2    1    0    0    0  0.68343784704E+01  0.25443197252E+02  0.31943925221E+01  0.98461930005E+02  0.94818154914E+02 0.  0.
         11    1    3    3    0    0  0.44773392326E+02  0.26768224520E+02 -0.17753874424E+02  0.55103489559E+02  0.51100000000E-03 0. -1.
         22    1    1    0    0    0 -0.68343784704E+01 -0.25443197252E+02 -0.31943925221E+01  0.26538069995E+02  0.00000000000E+00 0. -1.
</event>
<event>
 5    1  0.8900327E-005  0.9118800E+02  0.7818608E-02  0.1130116E+00
         25   -1    0    0    0    0  0.00000000000E+00  0.00000000000E+00  0.99999998245E-14  0.12500000000E+03  0.12500000000E+03 0.  0.
        -11    1    3    3    0    0 -0.43849906504E+01  0.42287560589E+02  0.56942812295E+00  0.42518115812E+02  0.51100000000E-03 0. -1.
         23    2    1    0    0    0  0.22046131633E+02  0.14395044480E+01  0.20277773458E+02  0.95011799163E+02  0.90155142896E+02 0.  0.
         11    1    3    3    0    0  0.26431122284E+02 -0.40848056141E+02  0.19708345335E+02  0.52493683351E+02  0.51100000000E-03 0.  1.
         22    1    1    0    0    0 -0.22046131633E+02 -0.14395044480E+01 -0.20277773458E+02  0.29988200837E+02  0.00000000000E+00 0. -1.
</event>
<event>
 5    1  0.8900327E-005  0.9118800E+02  0.7818608E-02  0.1130116E+00
         25   -1    0    0    0    0  0.00000000000E+00  0.00000000000E+00  0.99999998245E-14  0.12500000000E+03  0.12500000000E+03 0.  0.
        -11    1    3    3    0    0 -0.25687761015E+02 -0.25450418845E+02 -0.31341563062E+02  0.47852674542E+02  0.51100000000E-03 0. -1.
         23    2    1    0    0    0 -0.26716475579E+02 -0.43534232230E+01  0.11477813820E+02  0.95598255643E+02  0.90964629999E+02 0.  0.
         11    1    3    3    0    0 -0.10287145635E+01  0.21096995622E+02  0.42819376882E+02  0.47745581102E+02  0.51100000000E-03 0.  1.
         22    1    1    0    0    0  0.26716475579E+02  0.43534232230E+01 -0.11477813820E+02  0.29401744357E+02  0.00000000000E+00 0.  1.
</event>
<event>
 5    1  0.8900327E-005  0.9118800E+02  0.7818608E-02  0.1130116E+00
         25   -1    0    0    0    0  0.00000000000E+00  0.00000000000E+00  0.99999998245E-14  0.12500000000E+03  0.12500000000E+03 0.  0.
        -11    1    3    3    0    0  0.17788791325E+02 -0.24359850133E+02  0.19334891268E+02  0.35828500051E+02  0.51100000000E-03 0.  1.
         23    2    1    0    0    0 -0.83926662088E+01  0.27311657782E+01 -0.27605387838E+02  0.96018047852E+02  0.91539674257E+02 0.  0.
         11    1    3    3    0    0 -0.26181457533E+02  0.27091015911E+02 -0.46940279107E+02  0.60189547801E+02  0.51100000000E-03 0. -1.
         22    1    1    0    0    0  0.83926662088E+01 -0.27311657782E+01  0.27605387838E+02  0.28981952148E+02  0.00000000000E+00 0. -1.
</event>
<event>
 5    1  0.8900327E-005  0.9118800E+02  0.7818608E-02  0.1130116E+00
         25   -1    0    0    0    0  0.00000000000E+00  0.00000000000E+00  0.99999998245E-14  0.12500000000E+03  0.12500000000E+03 0.  0.
        -11    1    3    3    0    0 -0.89460818979E+00 -0.10793517627E+02  0.41689767508E+02  0.43073623736E+02  0.51100000000E-03 0.  1.
         23    2    1    0    0    0 -0.12418328665E+02 -0.18990528815E+02 -0.12511070564E+02  0.99088960689E+02  0.95641205410E+02 0.  0.
         11    1    3    3    0    0 -0.11523720476E+02 -0.81970111887E+01 -0.54200838072E+02  0.56015336953E+02  0.51100000000E-03 0. -1.
         22    1    1    0    0    0  0.12418328665E+02  0.18990528815E+02  0.12511070564E+02  0.25911039311E+02  0.00000000000E+00 0. -1.
</event>
<event>
 5    1  0.8900327E-005  0.9118800E+02  0.7818608E-02  0.1130116E+00
         25   -1    0    0    0    0  0.00000000000E+00  0.00000000000E+00  0.99999998245E-14  0.12500000000E+03  0.12500000000E+03 0.  0.
        -11    1    3    3    0    0  0.26389504456E+02 -0.51717353163E+02 -0.15108745766E+02  0.59994706121E+02  0.51100000000E-03 0.  1.
         23    2    1    0    0    0  0.20951050876E+02 -0.18080337152E+02  0.14181808130E+00  0.97325729699E+02  0.93308265575E+02 0.  0.
         11    1    3    3    0    0 -0.54384535805E+01  0.33637016011E+02  0.15250563847E+02  0.37331023578E+02  0.51100000000E-03 0. -1.
         22    1    1    0    0    0 -0.20951050876E+02  0.18080337152E+02 -0.14181808130E+00  0.27674270301E+02  0.00000000000E+00 0.  1.
</event>
<event>
 5    1  0.8900327E-005  0.9118800E+02  0.7818608E-02  0.1130116E+00
         25   -1    0    0    0    0  0.00000000000E+00  0.00000000000E+00  0.99999998245E-14  0.12500000000E+03  0.12500000000E+03 0.  0.
        -11    1    3    3    0    0 -0.37161450679E+02  0.37897016002E+02 -0.18889690590E+02  0.56338065722E+02  0.51100000000E-03 0.  1.
         23    2    1    0    0    0 -0.13427560356E+02  0.23033380543E+02  0.99550182776E+01  0.96540583540E+02  0.92250451950E+02 0.  0.
         11    1    3    3    0    0  0.23733890323E+02 -0.14863635459E+02  0.28844708868E+02  0.40202517818E+02  0.51100000000E-03 0. -1.
         22    1    1    0    0    0  0.13427560356E+02 -0.23033380543E+02 -0.99550182776E+01  0.28459416460E+02  0.00000000000E+00 0.  1.
</event>
<event>
 5    1  0.8900327E-005  0.9118800E+02  0.7818608E-02  0.1130116E+00
         25   -1    0    0    0    0  0.00000000000E+00  0.00000000000E+00  0.99999998245E-14  0.12500000000E+03  0.12500000000E+03 0.  0.
        -11    1    3    3    0    0 -0.43901698020E+02 -0.15304367317E+02  0.34884033064E+02  0.58124680740E+02  0.51100000000E-03 0. -1.
         23    2    1    0    0    0 -0.19783526425E+02 -0.20823731227E+02  0.69350425108E+01  0.95451556477E+02  0.90762817933E+02 0.  0.
         11    1    3    3    0    0  0.24118171596E+02 -0.55193639099E+01 -0.27948990553E+02  0.37326875737E+02  0.51100000000E-03 0.  1.
         22    1    1    0    0    0  0.19783526425E+02  0.20823731227E+02 -0.69350425108E+01  0.29548443523E+02  0.00000000000E+00 0. -1.
</event>
<event>
 5    1  0.8900327E-005  0.9118800E+02  0.7818608E-02  0.1130116E+00
         25   -1    0    0    0    0  0.00000000000E+00  0.00000000000E+00  0.99999998245E-14  0.12500000000E+03  0.12500000000E+03 0.  0.
        -11    1    3    3    0    0 -0.22510810369E+02  0.10432090915E+02 -0.26612383069E+02  0.36383843079E+02  0.51100000000E-03 0. -1.
         23    2    1    0    0    0 -0.73227253677E+01 -0.11467104269E+02  0.26165330003E+02  0.95508623611E+02  0.90841377702E+02 0.  0.
         11    1    3    3    0    0  0.15188085001E+02 -0.21899195184E+02  0.52777713072E+02  0.59124780533E+02  0.51100000000E-03 0.  1.
         22    1    1    0    0    0  0.73227253677E+01  0.11467104269E+02 -0.26165330003E+02  0.29491376389E+02  0.00000000000E+00 0.  1.
</event>
<event>
 5    1  0.8900327E-005  0.9118800E+02  0.7818608E-02  0.1130116E+00
         25   -1    0    0    0    0  0.00000000000E+00  0.00000000000E+00  0.99999998245E-14  0.12500000000E+03  0.12500000000E+03 0.  0.
        -11    1    3    3    0    0 -0.24589562325E+02  0.47390878287E+02  0.22686297268E+02  0.58010430132E+02  0.51100000000E-03 0. -1.
         23    2    1    0    0    0  0.39858153525E+01  0.20975787447E+02  0.17745962845E+02  0.97236902544E+02  0.93189192700E+02 0.  0.
         11    1    3    3    0    0  0.28575377677E+02 -0.26415090840E+02 -0.49403344237E+01  0.39226472412E+02  0.51100000000E-03 0.  1.
         22    1    1    0    0    0 -0.39858153525E+01 -0.20975787447E+02 -0.17745962845E+02  0.27763097456E+02  0.00000000000E+00 0. -1.
</event>
<event>
 5    1  0.8900327E-005  0.9118800E+02  0.7818608E-02  0.1130116E+00
         25   -1    0    0    0    0  0.00000000000E+00  0.00000000000E+00  0.99999998245E-14  0.12500000000E+03  0.12500000000E+03 0.  0.
        -11    1    3    3    0    0 -0.25445491778E+02 -0.34921391373E+02 -0.37303515986E+02  0.57083525929E+02  0.51100000000E-03 0.  1.
         23    2    1    0    0    0 -0.24534924449E+02 -0.12987278685E+02 -0.40268328662E+01  0.96949201290E+02  0.92802480152E+02 0.  0.
         11    1    3    3    0    0  0.91056732930E+00  0.21934112688E+02  0.33276683120E+02  0.39865675361E+02  0.51100000000E-03 0. -1.
         22    1    1    0    0    0  0.24534924449E+02  0.12987278685E+02  0.40268328662E+01  0.28050798710E+02  0.00000000000E+00 0.  1.
</event>
<event>
 5    1  0.8900327E-005  0.9118800E+02  0.7818608E-02  0.1130116E+00
         25   -1    0    0    0    0  0.00000000000E+00  0.00000000000E+00  0.99999998245E-14  0.12500000000E+03  0.12500000000E+03 0.  0.
        -11    1    3    3    0    0  0.42758389873E+02  0.10705493834E+02  0.36552490645E+02  0.57262309378E+02  0.51100000000E-03 0. -1.
         23    2    1    0    0    0  0.16598188951E+02  0.21873866222E+02  0.11270144635E+02  0.95318658048E+02  0.90579603179E+02 0.  0.
         11    1    3    3    0    0 -0.26160200922E+02  0.11168372388E+02 -0.25282346010E+02  0.38056348670E+02  0.51100000000E-03 0.  1.
         22    1    1    0    0    0 -0.16598188951E+02 -0.21873866222E+02 -0.11270144635E+02  0.29681341952E+02  0.00000000000E+00 0. -1.
</event>
<event>
 5    1  0.8900327E-005  0.9118800E+02  0.7818608E-02  0.1130116E+00
         25   -1    0    0    0    0  0.00000000000E+00  0.00000000000E+00  0.99999998245E-14  0.12500000000E+03  0.12500000000E+03 0.  0.
        -11    1    3    3    0    0  0.10184844090E+02  0.58590612215E+02 -0.12658881430E+02  0.60801629651E+02  0.51100000000E-03 0.  1.
         23    2    1    0    0    0  0.13764139374E+02  0.20650022349E+02 -0.56070050339E+01  0.99557644347E+02  0.96251810824E+02 0.  0.
         11    1    3    3    0    0  0.35792952839E+01 -0.37940589867E+02  0.70518763963E+01  0.38756014696E+02  0.51100000000E-03 0. -1.
         22    1    1    0    0    0 -0.13764139374E+02 -0.20650022349E+02  0.56070050339E+01  0.25442355653E+02  0.00000000000E+00 0.  1.
</event>
<event>
 5    1  0.8900327E-005  0.9118800E+02  0.7818608E-02  0.1130116E+00
         25   -1    0    0    0    0  0.00000000000E+00  0.00000000000E+00  0.99999998245E-14  0.12500000000E+03  0.12500000000E+03 0.  0.
        -11    1    3    3    0    0 -0.26561461388E+02  0.39347818491E+02  0.22793757173E+02  0.52662295975E+02  0.51100000000E-03 0. -1.
         23    2    1    0    0    0 -0.19918635014E+01  0.26292417930E+02 -0.10994707991E+02  0.96431794515E+02  0.92102924105E+02 0.  0.
         11    1    3    3    0    0  0.24569597886E+02 -0.13055400561E+02 -0.33788465163E+02  0.43769498540E+02  0.51100000000E-03 0.  1.
         22    1    1    0    0    0  0.19918635014E+01 -0.26292417930E+02  0.10994707991E+02  0.28568205485E+02  0.00000000000E+00 0. -1.
</event>
<event>
 5    1  0.8900327E-005  0.9118800E+02  0.7818608E-02  0.1130116E+00
         25   -1    0    0    0    0  0.00000000000E+00  0.00000000000E+00  0.99999998245E-14  0.12500000000E+03  0.12500000000E+03 0.  0.
        -11    1    3    3    0    0  0.80996480012E+01  0.33282403631E+02  0.44347142342E+02  0.56035629053E+02  0.51100000000E-03 0. -1.
         23    2    1    0    0    0  0.90663159345E+01  0.28650819572E+02  0.64020769272E+01  0.94274536037E+02  0.89127066648E+02 0.  0.
         11    1    3    3    0    0  0.96666793333E+00 -0.46315840589E+01 -0.37945065414E+02  0.38238906984E+02  0.51100000000E-03 0.  1.
         22    1    1    0    0    0 -0.90663159345E+01 -0.28650819572E+02 -0.64020769272E+01  0.30725463963E+02  0.00000000000E+00 0. -1.
</event>
<event>
 5    1  0.8900327E-005  0.9118800E+02  0.7818608E-02  0.1130116E+00
         25   -1    0    0    0    0  0.00000000000E+00  0.00000000000E+00  0.99999998245E-14  0.12500000000E+03  0.12500000000E+03 0.  0.
        -11    1    3    3    0    0 -0.82131011723E+01 -0.32330794192E+02  0.19246496567E+02  0.38511854205E+02  0.51100000000E-03 0.  1.
         23    2    1    0    0    0 -0.12398609931E+02  0.12600483679E+02 -0.19993308718E+02  0.98312360339E+02  0.94620769838E+02 0.  0.
         11    1    3    3    0    0 -0.41855087586E+01  0.44931277871E+02 -0.39239805285E+02  0.59800506134E+02  0.51100000000E-03 0. -1.
         22    1    1    0    0    0  0.12398609931E+02 -0.12600483679E+02  0.19993308718E+02  0.26687639661E+02  0.00000000000E+00 0. -1.
</event>
<event>
 5    1  0.8900327E-005  0.9118800E+02  0.7818608E-02  0.1130116E+00
         25   -1    0    0    0    0  0.00000000000E+00  0.00000000000E+00  0.99999998245E-14  0.12500000000E+03  0.12500000000E+03 0.  0.
        -11    1    3    3    0    0 -0.33261842419E+02 -0.30724934967E+02  0.40807126189E+02  0.60955666988E+02  0.51100000000E-03 0. -1.
         23    2    1    0    0    0 -0.22823571820E+02 -0.13038532714E+02  0.12590156129E+02  0.95855003906E+02  0.91316761750E+02 0.  0.
         11    1    3    3    0    0  0.10438270600E+02  0.17686402253E+02 -0.28216970060E+02  0.34899336919E+02  0.51100000000E-03 0.  1.
         22    1    1    0    0    0  0.22823571820E+02  0.13038532714E+02 -0.12590156129E+02  0.29144996094E+02  0.00000000000E+00 0. -1.
</event>
<event>
 4    1  0.8900327E-005  0.9118800E+02  0.7818608E-02  0.1130116E+00
         25   -1    0    0    0    0  0.00000000000E+00  0.00000000000E+00  0.99999998245E-14  0.12500000000E+03  0.12500000000E+03 0.  0.
        -11    1    1    0    0    0 -0.13964626667E+02 -0.47875038452E+02 -0.31698140839E+02  0.59091473476E+02  0.51100000000E-03 0. -1.
         11    1    1    0    0    0  0.92374369924E+01  0.52944233868E+01 -0.26791168229E+01  0.10979017643E+02  0.51100000000E-03 0.  1.
         22    1    1    0    0    0  0.47271896744E+01  0.42580615065E+02  0.34377257662E+02  0.54929508881E+02  0.00000000000E+00 0. -1.
</event>
<event>
 5    1  0.8900327E-005  0.9118800E+02  0.7818608E-02  0.1130116E+00
         25   -1    0    0    0    0  0.00000000000E+00  0.00000000000E+00  0.99999998245E-14  0.12500000000E+03  0.12500000000E+03 0.  0.
        -11    1    3    3    0    0  0.16871839576E+02 -0.19016910334E+02  0.51589441409E+02  0.57513235994E+02  0.51100000000E-03 0. -1.
         23    2    1    0    0    0 -0.31286618095E+01  0.37158531031E+01  0.29774137333E+02  0.94832213490E+02  0.89905802775E+02 0.  0.
         11    1    3    3    0    0 -0.20000501386E+02  0.22732763438E+02 -0.21815304076E+02  0.37318977497E+02  0.51100000000E-03 0.  1.
         22    1    1    0    0    0  0.31286618095E+01 -0.37158531031E+01 -0.29774137333E+02  0.30167786510E+02  0.00000000000E+00 0. -1.
</event>
<event>
 5    1  0.8900327E-005  0.9118800E+02  0.7818608E-02  0.1130116E+00
         25   -1    0    0    0    0  0.00000000000E+00  0.00000000000E+00  0.99999998245E-14  0.12500000000E+03  0.12500000000E+03 0.  0.
        -11    1    3    3    0    0  0.10113617690E+02 -0.33354818949E+02 -0.15369921616E+02  0.38092830042E+02  0.51100000000E-03 0.  1.
         23    2    1    0    0    0 -0.21080893968E+02  0.25274466992E+01  0.18797751311E+02  0.96642504842E+02  0.92388452798E+02 0.  0.
         11    1    3    3    0    0 -0.31194511658E+02  0.35882265648E+02  0.34167672927E+02  0.58549674799E+02  0.51100000000E-03 0. -1.
         22    1    1    0    0    0  0.21080893968E+02 -0.25274466992E+01 -0.18797751311E+02  0.28357495158E+02  0.00000000000E+00 0. -1.
</event>
<event>
 5    1  0.8900327E-005  0.9118800E+02  0.7818608E-02  0.1130116E+00
         25   -1    0    0    0    0  0.00000000000E+00  0.00000000000E+00  0.99999998245E-14  0.12500000000E+03  0.12500000000E+03 0.  0.
        -11    1    3    3    0    0  0.30173138787E+02  0.92790403197E+01 -0.17862144082E+02  0.36270857240E+02  0.51100000000E-03 0.  1.
         23    2    1    0    0    0 -0.24817960805E+02  0.10912216232E+02 -0.19972150418E+02  0.91326650985E+02  0.84892065272E+02 0.  0.
         11    1    3    3    0    0 -0.54991099591E+02  0.16331759121E+01 -0.21100063362E+01  0.55055793744E+02  0.51100000000E-03 0. -1.
         22    1    1    0    0    0  0.24817960805E+02 -0.10912216232E+02  0.19972150418E+02  0.33673349015E+02  0.00000000000E+00 0. -1.
</event>
<event>
 5    1  0.8900327E-005  0.9118800E+02  0.7818608E-02  0.1130116E+00
         25   -1    0    0    0    0  0.00000000000E+00  0.00000000000E+00  0.99999998245E-14  0.12500000000E+03  0.12500000000E+03 0.  0.
        -11    1    3    3    0    0 -0.58895962391E+01  0.43928126311E+01 -0.46054066136E+02  0.46636478797E+02  0.51100000000E-03 0.  1.
         23    2    1    0    0    0  0.14099670152E+02  0.26871053713E+02 -0.34982395538E+02  0.78689933885E+02  0.63619835517E+02 0.  0.
         11    1    3    3    0    0  0.19989266391E+02  0.22478241082E+02  0.11071670598E+02  0.32053455088E+02  0.51100000000E-03 0. -1.
         22    1    1    0    0    0 -0.14099670152E+02 -0.26871053713E+02  0.34982395538E+02  0.46310066115E+02  0.00000000000E+00 0. -1.
</event>
<event>
 5    1  0.8900327E-005  0.9118800E+02  0.7818608E-02  0.1130116E+00
         25   -1    0    0    0    0  0.00000000000E+00  0.00000000000E+00  0.99999998245E-14  0.12500000000E+03  0.12500000000E+03 0.  0.
        -11    1    3    3    0    0 -0.28711921297E+02 -0.85385590705E+01 -0.29325997657E+02  0.41920109189E+02  0.51100000000E-03 0.  1.
         23    2    1    0    0    0  0.13491589670E+02 -0.26943321657E+02 -0.36235363915E+01  0.94650443336E+02  0.89652723517E+02 0.  0.
         11    1    3    3    0    0  0.42203510967E+02 -0.18404762586E+02  0.25702461266E+02  0.52730334147E+02  0.51100000000E-03 0. -1.
         22    1    1    0    0    0 -0.13491589670E+02  0.26943321657E+02  0.36235363915E+01  0.30349556664E+02  0.00000000000E+00 0.  1.
</event>
<event>
 5    1  0.8900327E-005  0.9118800E+02  0.7818608E-02  0.1130116E+00
         25   -1    0    0    0    0  0.00000000000E+00  0.00000000000E+00  0.99999998245E-14  0.12500000000E+03  0.12500000000E+03 0.  0.
        -11    1    3    3    0    0 -0.30327083119E+02  0.19855468367E+02  0.50861027830E+01  0.36603825434E+02  0.51100000000E-03 0.  1.
         23    2    1    0    0    0  0.20032344962E+02 -0.14149054854E+02  0.11882657345E+02  0.97747694712E+02  0.93871847100E+02 0.  0.
         11    1    3    3    0    0  0.50359428081E+02 -0.34004523221E+02  0.67965545616E+01  0.61143869278E+02  0.51100000000E-03 0. -1.
         22    1    1    0    0    0 -0.20032344962E+02  0.14149054854E+02 -0.11882657345E+02  0.27252305288E+02  0.00000000000E+00 0. -1.
</event>
<event>
 5    1  0.8900327E-005  0.9118800E+02  0.7818608E-02  0.1130116E+00
         25   -1    0    0    0    0  0.00000000000E+00  0.00000000000E+00  0.99999998245E-14  0.12500000000E+03  0.12500000000E+03 0.  0.
        -11    1    3    3    0    0 -0.33154321133E+01  0.30438301329E+02 -0.12035638088E+02  0.32898918863E+02  0.51100000000E-03 0.  1.
         23    2    1    0    0    0  0.86444222222E+01 -0.11541993696E+02  0.28875180061E+02  0.92724317550E+02  0.86925711890E+02 0.  0.
         11    1    3    3    0    0  0.11959854335E+02 -0.41980295026E+02  0.40910818149E+02  0.59825398687E+02  0.51100000000E-03 0. -1.
         22    1    1    0    0    0 -0.86444222222E+01  0.11541993696E+02 -0.28875180061E+02  0.32275682450E+02  0.00000000000E+00 0. -1.
</event>
<event>
 5    1  0.8900327E-005  0.9118800E+02  0.7818608E-02  0.1130116E+00
         25   -1    0    0    0    0  0.00000000000E+00  0.00000000000E+00  0.99999998245E-14  0.12500000000E+03  0.12500000000E+03 0.  0.
        -11    1    3    3    0    0 -0.20439205261E+02 -0.24493501114E+02 -0.44921140198E+02  0.55096293392E+02  0.51100000000E-03 0. -1.
         23    2    1    0    0    0 -0.63363840057E+01  0.11312052192E+02 -0.20723780983E+02  0.10055439947E+03  0.97537684345E+02 0.  0.
         11    1    3    3    0    0  0.14102821255E+02  0.35805553306E+02  0.24197359215E+02  0.45458106078E+02  0.51100000000E-03 0.  1.
         22    1    1    0    0    0  0.63363840057E+01 -0.11312052192E+02  0.20723780983E+02  0.24445600531E+02  0.00000000000E+00 0. -1.
</event>
<event>
 5    1  0.8900327E-005  0.9118800E+02  0.7818608E-02  0.1130116E+00
         25   -1    0    0    0    0  0.00000000000E+00  0.00000000000E+00  0.99999998245E-14  0.12500000000E+03  0.12500000000E+03 0.  0.
        -11    1    3    3    0    0 -0.36312840130E+02  0.45620536464E+02 -0.11988092512E+02  0.59527893192E+02  0.51100000000E-03 0.  1.
         23    2    1    0    0    0 -0.91507397302E+01  0.27126857497E+02  0.40381107146E+01  0.96087913023E+02  0.91635027449E+02 0.  0.
         11    1    3    3    0    0  0.27162100400E+02 -0.18493678967E+02  0.16026203226E+02  0.36560019830E+02  0.51100000000E-03 0. -1.
         22    1    1    0    0    0  0.91507397302E+01 -0.27126857497E+02 -0.40381107146E+01  0.28912086977E+02  0.00000000000E+00 0.  1.
</event>
<event>
 5    1  0.8900327E-005  0.9118800E+02  0.7818608E-02  0.1130116E+00
         25   -1    0    0    0    0  0.00000000000E+00  0.00000000000E+00  0.99999998245E-14  0.12500000000E+03  0.12500000000E+03 0.  0.
        -11    1    3    3    0    0 -0.20508613541E+02  0.50137159231E+02 -0.34437971356E+01  0.54278888199E+02  0.51100000000E-03 0.  1.
         23    2    1    0    0    0 -0.27389827988E+02  0.88634342007E+01 -0.18393201418E+01  0.96153054899E+02  0.91723844908E+02 0.  0.
         11    1    3    3    0    0 -0.68812144472E+01 -0.41273725030E+02  0.16044769938E+01  0.41874166700E+02  0.51100000000E-03 0. -1.
         22    1    1    0    0    0  0.27389827988E+02 -0.88634342007E+01  0.18393201418E+01  0.28846945101E+02  0.00000000000E+00 0.  1.
</event>
<event>
 5    1  0.8900327E-005  0.9118800E+02  0.7818608E-02  0.1130116E+00
         25   -1    0    0    0    0  0.00000000000E+00  0.00000000000E+00  0.99999998245E-14  0.12500000000E+03  0.12500000000E+03 0.  0.
        -11    1    3    3    0    0  0.90288785397E+01  0.37773086362E+02 -0.34509399378E+02  0.51954069587E+02  0.51100000000E-03 0.  1.
         23    2    1    0    0    0  0.17906417532E+02 -0.35339231954E+01 -0.22795176196E+02  0.95798142871E+02  0.91238893668E+02 0.  0.
         11    1    3    3    0    0  0.88775389920E+01 -0.41307009557E+02  0.11714223182E+02  0.43844073284E+02  0.51100000000E-03 0. -1.
         22    1    1    0    0    0 -0.17906417532E+02  0.35339231954E+01  0.22795176196E+02  0.29201857129E+02  0.00000000000E+00 0.  1.
</event>
<event>
 5    1  0.8900327E-005  0.9118800E+02  0.7818608E-02  0.1130116E+00
         25   -1    0    0    0    0  0.00000000000E+00  0.00000000000E+00  0.99999998245E-14  0.12500000000E+03  0.12500000000E+03 0.  0.
        -11    1    3    3    0    0  0.15814047618E+02 -0.37417303511E+02  0.32833292321E+01  0.40754373449E+02  0.51100000000E-03 0.  1.
         23    2    1    0    0    0  0.34988405544E+01  0.12564341132E+02  0.25139521601E+02  0.96678628217E+02  0.92437314188E+02 0.  0.
         11    1    3    3    0    0 -0.12315207064E+02  0.49981644643E+02  0.21856192369E+02  0.55924254768E+02  0.51100000000E-03 0. -1.
         22    1    1    0    0    0 -0.34988405544E+01 -0.12564341132E+02 -0.25139521601E+02  0.28321371783E+02  0.00000000000E+00 0. -1.
</event>
<event>
 5    1  0.8900327E-005  0.9118800E+02  0.7818608E-02  0.1130116E+00
         25   -1    0    0    0    0  0.00000000000E+00  0.00000000000E+00  0.99999998245E-14  0.12500000000E+03  0.12500000000E+03 0.  0.
        -11    1    3    3    0    0  0.12835763253E+02 -0.13726967065E+02 -0.35708407155E+02  0.40351911788E+02  0.51100000000E-03 0. -1.
         23    2    1    0    0    0  0.13031526342E+02  0.20481893375E+02  0.11081887404E+02  0.98314107407E+02  0.94623077797E+02 0.  0.
         11    1    3    3    0    0  0.19576308925E+00  0.34208860440E+02  0.46790294560E+02  0.57962195620E+02  0.51100000000E-03 0.  1.
         22    1    1    0    0    0 -0.13031526342E+02 -0.20481893375E+02 -0.11081887404E+02  0.26685892593E+02  0.00000000000E+00 0.  1.
</event>
<event>
 5    1  0.8900327E-005  0.9118800E+02  0.7818608E-02  0.1130116E+00
         25   -1    0    0    0    0  0.00000000000E+00  0.00000000000E+00  0.99999998245E-14  0.12500000000E+03  0.12500000000E+03 0.  0.
        -11    1    3    3    0    0 -0.15815049964E+02 -0.30385359639E+02 -0.11720098117E+02  0.36204234364E+02  0.51100000000E-03 0.  1.
         23    2    1    0    0    0 -0.18587112789E+01  0.20219322630E+02  0.19139222428E+02  0.97096852321E+02  0.93001145586E+02 0.  0.
         11    1    3    3    0    0  0.13956338685E+02  0.50604682268E+02  0.30859320545E+02  0.60892617958E+02  0.51100000000E-03 0. -1.
         22    1    1    0    0    0  0.18587112789E+01 -0.20219322630E+02 -0.19139222428E+02  0.27903147679E+02  0.00000000000E+00 0. -1.
</event>
<event>
 5    1  0.8900327E-005  0.9118800E+02  0.7818608E-02  0.1130116E+00
         25   -1    0    0    0    0  0.00000000000E+00  0.00000000000E+00  0.99999998245E-14  0.12500000000E+03  0.12500000000E+03 0.  0.
        -11    1    3    3    0    0  0.10818256558E+02 -0.17672243782E+02  0.37195042594E+02  0.42577154309E+02  0.51100000000E-03 0. -1.
         23    2    1    0    0    0 -0.21746707597E+02 -0.19478598558E+02 -0.44438993883E+01  0.95468942876E+02  0.90786759601E+02 0.  0.
         11    1    3    3    0    0 -0.32564964155E+02 -0.18063547764E+01 -0.41638941983E+02  0.52891788566E+02  0.51100000000E-03 0.  1.
         22    1    1    0    0    0  0.21746707597E+02  0.19478598558E+02  0.44438993883E+01  0.29531057124E+02  0.00000000000E+00 0.  1.
</event>
<event>
 5    1  0.8900327E-005  0.9118800E+02  0.7818608E-02  0.1130116E+00
         25   -1    0    0    0    0  0.00000000000E+00  0.00000000000E+00  0.99999998245E-14  0.12500000000E+03  0.12500000000E+03 0.  0.
        -11    1    3    3    0    0 -0.24399106867E+02 -0.62803563278E+01  0.25099211677E+02  0.35563038658E+02  0.51100000000E-03 0.  1.
         23    2    1    0    0    0  0.12478069409E+02 -0.17036830310E+02 -0.20761160890E+02  0.95386124794E+02  0.90672659598E+02 0.  0.
         11    1    3    3    0    0  0.36877176276E+02 -0.10756473982E+02 -0.45860372567E+02  0.59823086137E+02  0.51100000000E-03 0. -1.
         22    1    1    0    0    0 -0.12478069409E+02  0.17036830310E+02  0.20761160890E+02  0.29613875206E+02  0.00000000000E+00 0. -1.
</event>
<event>
 5    1  0.8900327E-005  0.9118800E+02  0.7818608E-02  0.1130116E+00
         25   -1    0    0    0    0  0.00000000000E+00  0.00000000000E+00  0.99999998245E-14  0.12500000000E+03  0.12500000000E+03 0.  0.
        -11    1    3    3    0    0 -0.49966702793E+02 -0.18280018375E+02  0.10525891926E+01  0.53215960050E+02  0.51100000000E-03 0.  1.
         23    2    1    0    0    0 -0.18436792379E+02  0.91758101477E+00 -0.21646683429E+02  0.96551165725E+02  0.92264789770E+02 0.  0.
         11    1    3    3    0    0  0.31529910414E+02  0.19197599390E+02 -0.22699272622E+02  0.43335205675E+02  0.51100000000E-03 0. -1.
         22    1    1    0    0    0  0.18436792379E+02 -0.91758101477E+00  0.21646683429E+02  0.28448834275E+02  0.00000000000E+00 0. -1.
</event>
<event>
 5    1  0.8900327E-005  0.9118800E+02  0.7818608E-02  0.1130116E+00
         25   -1    0    0    0    0  0.00000000000E+00  0.00000000000E+00  0.99999998245E-14  0.12500000000E+03  0.12500000000E+03 0.  0.
        -11    1    3    3    0    0  0.33605342590E+01  0.12751447064E+01  0.37378671035E+02  0.37551088308E+02  0.51100000000E-03 0.  1.
         23    2    1    0    0    0 -0.15947452034E+02  0.18004601809E+02 -0.15575263985E+02  0.96345580431E+02  0.91985841887E+02 0.  0.
         11    1    3    3    0    0 -0.19307986293E+02  0.16729457102E+02 -0.52953935020E+02  0.58794492123E+02  0.51100000000E-03 0. -1.
         22    1    1    0    0    0  0.15947452034E+02 -0.18004601809E+02  0.15575263985E+02  0.28654419569E+02  0.00000000000E+00 0. -1.
</event>
<event>
 5    1  0.8900327E-005  0.9118800E+02  0.7818608E-02  0.1130116E+00
         25   -1    0    0    0    0  0.00000000000E+00  0.00000000000E+00  0.99999998245E-14  0.12500000000E+03  0.12500000000E+03 0.  0.
        -11    1    3    3    0    0  0.44779534741E+01  0.27272960908E+02  0.15556369933E+02  0.31715408081E+02  0.51100000000E-03 0.  1.
         23    2    1    0    0    0 -0.66829286935E+01 -0.29215354533E+02 -0.80826302957E+01  0.93959262430E+02  0.88683795631E+02 0.  0.
         11    1    3    3    0    0 -0.11160882168E+02 -0.56488315441E+02 -0.23639000229E+02  0.62243854349E+02  0.51100000000E-03 0. -1.
         22    1    1    0    0    0  0.66829286935E+01  0.29215354533E+02  0.80826302957E+01  0.31040737570E+02  0.00000000000E+00 0. -1.
</event>
<event>
 5    1  0.8900327E-005  0.9118800E+02  0.7818608E-02  0.1130116E+00
         25   -1    0    0    0    0  0.00000000000E+00  0.00000000000E+00  0.99999998245E-14  0.12500000000E+03  0.12500000000E+03 0.  0.
        -11    1    3    3    0    0  0.55533578863E+02 -0.10771665533E+02 -0.67376581425E+01  0.56968440361E+02  0.51100000000E-03 0. -1.
         23    2    1    0    0    0  0.29693231723E+02 -0.14344964552E+01  0.14717383331E+02  0.91828518840E+02  0.85627855924E+02 0.  0.
         11    1    3    3    0    0 -0.25840347140E+02  0.93371690779E+01  0.21455041473E+02  0.34860078479E+02  0.51100000000E-03 0.  1.
         22    1    1    0    0    0 -0.29693231723E+02  0.14344964552E+01 -0.14717383331E+02  0.33171481160E+02  0.00000000000E+00 0. -1.
</event>
<event>
 5    1  0.8900327E-005  0.9118800E+02  0.7818608E-02  0.1130116E+00
         25   -1    0    0    0    0  0.00000000000E+00  0.00000000000E+00  0.99999998245E-14  0.12500000000E+03  0.12500000000E+03 0.  0.
        -11    1    3    3    0    0  0.27406325226E+02  0.26644532287E+02 -0.23022808444E+02  0.44621603199E+02  0.51100000000E-03 0.  1.
         23    2    1    0    0    0  0.11347949802E+02  0.29166940645E+02  0.18103925278E+02  0.88844246630E+02  0.81154554140E+02 0.  0.
         11    1    3    3    0    0 -0.16058375424E+02  0.25224083579E+01  0.41126733722E+02  0.44222643431E+02  0.51100000000E-03 0. -1.
         22    1    1    0    0    0 -0.11347949802E+02 -0.29166940645E+02 -0.18103925278E+02  0.36155753370E+02  0.00000000000E+00 0.  1.
</event>
<event>
 5    1  0.8900327E-005  0.9118800E+02  0.7818608E-02  0.1130116E+00
         25   -1    0    0    0    0  0.00000000000E+00  0.00000000000E+00  0.99999998245E-14  0.12500000000E+03  0.12500000000E+03 0.  0.
        -11    1    3    3    0    0 -0.26736426170E+02  0.27937652166E+02  0.12262719615E+02  0.40567513919E+02  0.51100000000E-03 0. -1.
         23    2    1    0    0    0 -0.44377318966E+01 -0.50111042944E+01 -0.27428963106E+02  0.96766108173E+02  0.92555534914E+02 0.  0.
         11    1    3    3    0    0  0.22298694273E+02 -0.32948756461E+02 -0.39691682721E+02  0.56198594254E+02  0.51100000000E-03 0.  1.
         22    1    1    0    0    0  0.44377318966E+01  0.50111042944E+01  0.27428963106E+02  0.28233891827E+02  0.00000000000E+00 0.  1.
</event>
<event>
 5    1  0.8900327E-005  0.9118800E+02  0.7818608E-02  0.1130116E+00
         25   -1    0    0    0    0  0.00000000000E+00  0.00000000000E+00  0.99999998245E-14  0.12500000000E+03  0.12500000000E+03 0.  0.
        -11    1    3    3    0    0  0.20792595876E+02  0.49631169667E+02 -0.68965054264E+01  0.54250777258E+02  0.51100000000E-03 0.  1.
         23    2    1    0    0    0 -0.89336440134E+01  0.24639580762E+02  0.10449651357E+02  0.96784505162E+02  0.92580377459E+02 0.  0.
         11    1    3    3    0    0 -0.29726239889E+02 -0.24991588905E+02  0.17346156783E+02  0.42533727903E+02  0.51100000000E-03 0. -1.
         22    1    1    0    0    0  0.89336440134E+01 -0.24639580762E+02 -0.10449651357E+02  0.28215494838E+02  0.00000000000E+00 0. -1.
</event>
<event>
 5    1  0.8900327E-005  0.9118800E+02  0.7818608E-02  0.1130116E+00
         25   -1    0    0    0    0  0.00000000000E+00  0.00000000000E+00  0.99999998245E-14  0.12500000000E+03  0.12500000000E+03 0.  0.
        -11    1    3    3    0    0  0.42085199313E+02 -0.24784843622E+02  0.28167545157E+02  0.56381407175E+02  0.51100000000E-03 0.  1.
         23    2    1    0    0    0  0.12328958293E+02 -0.88388563206E+00  0.27828899569E+02  0.94549513672E+02  0.89511889814E+02 0.  0.
         11    1    3    3    0    0 -0.29756241020E+02  0.23900957990E+02 -0.33864558840E+00  0.38168106497E+02  0.51100000000E-03 0. -1.
         22    1    1    0    0    0 -0.12328958293E+02  0.88388563206E+00 -0.27828899569E+02  0.30450486328E+02  0.00000000000E+00 0.  1.
</event>
<event>
 5    1  0.8900327E-005  0.9118800E+02  0.7818608E-02  0.1130116E+00
         25   -1    0    0    0    0  0.00000000000E+00  0.00000000000E+00  0.99999998245E-14  0.12500000000E+03  0.12500000000E+03 0.  0.
        -11    1    3    3    0    0 -0.33707798915E+02 -0.50054903454E+02  0.16178170819E+02  0.62477534192E+02  0.51100000000E-03 0.  1.
         23    2    1    0    0    0 -0.15507288387E+02 -0.23033537877E+02  0.62222206873E+01  0.96544141367E+02  0.92255272704E+02 0.  0.
         11    1    3    3    0    0  0.18200510527E+02  0.27021365577E+02 -0.99559501313E+01  0.34066607174E+02  0.51100000000E-03 0. -1.
         22    1    1    0    0    0  0.15507288387E+02  0.23033537877E+02 -0.62222206873E+01  0.28455858633E+02  0.00000000000E+00 0.  1.
</event>
<event>
 5    1  0.8900327E-005  0.9118800E+02  0.7818608E-02  0.1130116E+00
         25   -1    0    0    0    0  0.00000000000E+00  0.00000000000E+00  0.99999998245E-14  0.12500000000E+03  0.12500000000E+03 0.  0.
        -11    1    3    3    0    0 -0.26660104174E+02  0.47182454558E+02  0.82266494959E+01  0.54814440933E+02  0.51100000000E-03 0.  1.
         23    2    1    0    0    0  0.76683603478E+01  0.27402498351E+02  0.10911002744E+02  0.94524589467E+02  0.89477077326E+02 0.  0.
         11    1    3    3    0    0  0.34328464521E+02 -0.19779956207E+02  0.26843532481E+01  0.39710148534E+02  0.51100000000E-03 0. -1.
         22    1    1    0    0    0 -0.76683603478E+01 -0.27402498351E+02 -0.10911002744E+02  0.30475410533E+02  0.00000000000E+00 0.  1.
</event>
<event>
 5    1  0.8900327E-005  0.9118800E+02  0.7818608E-02  0.1130116E+00
         25   -1    0    0    0    0  0.00000000000E+00  0.00000000000E+00  0.99999998245E-14  0.12500000000E+03  0.12500000000E+03 0.  0.
        -11    1    3    3    0    0 -0.17563310450E+02  0.11638433606E+02 -0.34341860545E+02  0.40290028502E+02  0.51100000000E-03 0. -1.
         23    2    1    0    0    0  0.50930656020E+01  0.37756875491E+02 -0.32955800026E+01  0.86758898922E+02  0.77876342560E+02 0.  0.
         11    1    3    3    0    0  0.22656376052E+02  0.26118441886E+02  0.31046280542E+02  0.46468870420E+02  0.51100000000E-03 0.  1.
         22    1    1    0    0    0 -0.50930656020E+01 -0.37756875491E+02  0.32955800026E+01  0.38241101078E+02  0.00000000000E+00 0.  1.
</event>
<event>
 5    1  0.8900327E-005  0.9118800E+02  0.7818608E-02  0.1130116E+00
         25   -1    0    0    0    0  0.00000000000E+00  0.00000000000E+00  0.99999998245E-14  0.12500000000E+03  0.12500000000E+03 0.  0.
        -11    1    3    3    0    0  0.24007604635E+02 -0.43350616514E+02 -0.25482890918E+02  0.55722695217E+02  0.51100000000E-03 0.  1.
         23    2    1    0    0    0  0.31180794374E+02 -0.34952220264E+02 -0.64626533893E+01  0.77717175126E+02  0.61678957365E+02 0.  0.
         11    1    3    3    0    0  0.71731897391E+01  0.83983962496E+01  0.19020237529E+02  0.21994479910E+02  0.51100000000E-03 0. -1.
         22    1    1    0    0    0 -0.31180794374E+02  0.34952220264E+02  0.64626533893E+01  0.47282824874E+02  0.00000000000E+00 0.  1.
</event>
<event>
 5    1  0.8900327E-005  0.9118800E+02  0.7818608E-02  0.1130116E+00
         25   -1    0    0    0    0  0.00000000000E+00  0.00000000000E+00  0.99999998245E-14  0.12500000000E+03  0.12500000000E+03 0.  0.
        -11    1    3    3    0    0 -0.49347787146E+01  0.59512425110E+02 -0.12056462122E+02  0.60921581255E+02  0.51100000000E-03 0. -1.
         23    2    1    0    0    0  0.72418446797E+01  0.28241063609E+02 -0.82825163078E+01  0.94691551269E+02  0.89710020718E+02 0.  0.
         11    1    3    3    0    0  0.12176623394E+02 -0.31271361502E+02  0.37739458142E+01  0.33769970014E+02  0.51100000000E-03 0.  1.
         22    1    1    0    0    0 -0.72418446797E+01 -0.28241063609E+02  0.82825163078E+01  0.30308448731E+02  0.00000000000E+00 0. -1.
</event>
<event>
 5    1  0.8900327E-005  0.9118800E+02  0.7818608E-02  0.1130116E+00
         25   -1    0    0    0    0  0.00000000000E+00  0.00000000000E+00  0.99999998245E-14  0.12500000000E+03  0.12500000000E+03 0.  0.
        -11    1    3    3    0    0 -0.84433236761E+01  0.42364600991E+01  0.32335963699E+02  0.33687562356E+02  0.51100000000E-03 0.  1.
         23    2    1    0    0    0  0.10045997223E+01  0.19879167706E+02 -0.24525668748E+02  0.93413627040E+02  0.87911357400E+02 0.  0.
         11    1    3    3    0    0  0.94479233985E+01  0.15642707606E+02 -0.56861632447E+02  0.59726064684E+02  0.51100000000E-03 0. -1.
         22    1    1    0    0    0 -0.10045997223E+01 -0.19879167706E+02  0.24525668748E+02  0.31586372960E+02  0.00000000000E+00 0. -1.
</event>
<event>
 5    1  0.8900327E-005  0.9118800E+02  0.7818608E-02  0.1130116E+00
         25   -1    0    0    0    0  0.00000000000E+00  0.00000000000E+00  0.99999998245E-14  0.12500000000E+03  0.12500000000E+03 0.  0.
        -11    1    3    3    0    0  0.16870945152E+02 -0.23648264729E+02  0.28807863752E+02  0.40911639288E+02  0.51100000000E-03 0. -1.
         23    2    1    0    0    0 -0.27571575241E+02 -0.64782755818E+01 -0.17204388346E+00  0.96677051444E+02  0.92435181944E+02 0.  0.
         11    1    3    3    0    0 -0.44442520393E+02  0.17169989147E+02 -0.28979907635E+02  0.55765412157E+02  0.51100000000E-03 0.  1.
         22    1    1    0    0    0  0.27571575241E+02  0.64782755818E+01  0.17204388346E+00  0.28322948556E+02  0.00000000000E+00 0.  1.
</event>
<event>
 5    1  0.8900327E-005  0.9118800E+02  0.7818608E-02  0.1130116E+00
         25   -1    0    0    0    0  0.00000000000E+00  0.00000000000E+00  0.99999998245E-14  0.12500000000E+03  0.12500000000E+03 0.  0.
        -11    1    3    3    0    0  0.17638390088E+02  0.46180049968E+02  0.12573497381E+01  0.49449881178E+02  0.51100000000E-03 0.  1.
         23    2    1    0    0    0 -0.15859095590E+02  0.27982311381E+02  0.14381600028E+02  0.89767187417E+02  0.82563895585E+02 0.  0.
         11    1    3    3    0    0 -0.33497485678E+02 -0.18197738586E+02  0.13124250290E+02  0.40317306238E+02  0.51100000000E-03 0. -1.
         22    1    1    0    0    0  0.15859095590E+02 -0.27982311381E+02 -0.14381600028E+02  0.35232812583E+02  0.00000000000E+00 0.  1.
</event>
<event>
 5    1  0.8900327E-005  0.9118800E+02  0.7818608E-02  0.1130116E+00
         25   -1    0    0    0    0  0.00000000000E+00  0.00000000000E+00  0.99999998245E-14  0.12500000000E+03  0.12500000000E+03 0.  0.
        -11    1    3    3    0    0  0.23865828531E+02  0.12248470370E+02 -0.25364009314E+02  0.36917959946E+02  0.51100000000E-03 0. -1.
         23    2    1    0    0    0 -0.24918588169E+02  0.96642146402E+01  0.91692241726E+01  0.96743889991E+02  0.92525523493E+02 0.  0.
         11    1    3    3    0    0 -0.48784416699E+02 -0.25842557298E+01  0.34533233486E+02  0.59825930044E+02  0.51100000000E-03 0.  1.
         22    1    1    0    0    0  0.24918588169E+02 -0.96642146402E+01 -0.91692241726E+01  0.28256110009E+02  0.00000000000E+00 0.  1.
</event>
<event>
 5    1  0.8900327E-005  0.9118800E+02  0.7818608E-02  0.1130116E+00
         25   -1    0    0    0    0  0.00000000000E+00  0.00000000000E+00  0.99999998245E-14  0.12500000000E+03  0.12500000000E+03 0.  0.
        -11    1    3    3    0    0 -0.87672354861E+01  0.40655818143E+02 -0.34582978570E+02  0.54090131946E+02  0.51100000000E-03 0.  1.
         23    2    1    0    0    0 -0.19896167288E+02  0.20441592712E+02  0.95021438810E+00  0.96458467232E+02  0.92139116601E+02 0.  0.
         11    1    3    3    0    0 -0.11128931802E+02 -0.20214225431E+02  0.35533192958E+02  0.42368335286E+02  0.51100000000E-03 0. -1.
         22    1    1    0    0    0  0.19896167288E+02 -0.20441592712E+02 -0.95021438810E+00  0.28541532768E+02  0.00000000000E+00 0. -1.
</event>
<event>
 5    1  0.8900327E-005  0.9118800E+02  0.7818608E-02  0.1130116E+00
         25   -1    0    0    0    0  0.00000000000E+00  0.00000000000E+00  0.99999998245E-14  0.12500000000E+03  0.12500000000E+03 0.  0.
        -11    1    3    3    0    0 -0.36007331431E+02  0.18991051628E+02  0.31192088228E+01  0.40827900052E+02  0.51100000000E-03 0.  1.
         23    2    1    0    0    0  0.31896357688E+01  0.11843174849E+02 -0.29968505868E+02  0.92618741364E+02  0.86773759519E+02 0.  0.
         11    1    3    3    0    0  0.39196967200E+02 -0.71478767795E+01 -0.33087714691E+02  0.51790841312E+02  0.51100000000E-03 0. -1.
         22    1    1    0    0    0 -0.31896357688E+01 -0.11843174849E+02  0.29968505868E+02  0.32381258636E+02  0.00000000000E+00 0. -1.
</event>
<event>
 5    1  0.8900327E-005  0.9118800E+02  0.7818608E-02  0.1130116E+00
         25   -1    0    0    0    0  0.00000000000E+00  0.00000000000E+00  0.99999998245E-14  0.12500000000E+03  0.12500000000E+03 0.  0.
        -11    1    3    3    0    0 -0.25289968529E+02  0.15123646064E+02  0.27643022189E+02  0.40403512897E+02  0.51100000000E-03 0.  1.
         23    2    1    0    0    0  0.16577481598E+02 -0.19308224609E+02  0.12266626521E+02  0.96749503369E+02  0.92533106736E+02 0.  0.
         11    1    3    3    0    0  0.41867450127E+02 -0.34431870674E+02 -0.15376395668E+02  0.56345990472E+02  0.51100000000E-03 0. -1.
         22    1    1    0    0    0 -0.16577481598E+02  0.19308224609E+02 -0.12266626521E+02  0.28250496631E+02  0.00000000000E+00 0. -1.
</event>
<event>
 5    1  0.8900327E-005  0.9118800E+02  0.7818608E-02  0.1130116E+00
         25   -1    0    0    0    0  0.00000000000E+00  0.00000000000E+00  0.99999998245E-14  0.12500000000E+03  0.12500000000E+03 0.  0.
        -11    1    3    3    0    0  0.12537244719E+02 -0.11343670170E+02  0.55877526726E+02  0.58379442883E+02  0.51100000000E-03 0.  1.
         23    2    1    0    0    0  0.19020917869E+02  0.31042831989E+01  0.22153129750E+02  0.95636876043E+02  0.91017685154E+02 0.  0.
         11    1    3    3    0    0  0.64836731501E+01  0.14447953369E+02 -0.33724396976E+02  0.37257433160E+02  0.51100000000E-03 0. -1.
         22    1    1    0    0    0 -0.19020917869E+02 -0.31042831989E+01 -0.22153129750E+02  0.29363123957E+02  0.00000000000E+00 0.  1.
</event>
<event>
 5    1  0.8900327E-005  0.9118800E+02  0.7818608E-02  0.1130116E+00
         25   -1    0    0    0    0  0.00000000000E+00  0.00000000000E+00  0.99999998245E-14  0.12500000000E+03  0.12500000000E+03 0.  0.
        -11    1    3    3    0    0  0.38804635172E+02  0.70676151851E+01 -0.87572304947E+00  0.39452728504E+02  0.51100000000E-03 0.  1.
         23    2    1    0    0    0  0.85479107527E+00 -0.74128012753E+01  0.32269705174E+02  0.91878795877E+02  0.85701219182E+02 0.  0.
         11    1    3    3    0    0 -0.37949844097E+02 -0.14480416460E+02  0.33145428224E+02  0.52426067373E+02  0.51100000000E-03 0. -1.
         22    1    1    0    0    0 -0.85479107527E+00  0.74128012753E+01 -0.32269705174E+02  0.33121204123E+02  0.00000000000E+00 0. -1.
</event>
<event>
 5    1  0.8900327E-005  0.9118800E+02  0.7818608E-02  0.1130116E+00
         25   -1    0    0    0    0  0.00000000000E+00  0.00000000000E+00  0.99999998245E-14  0.12500000000E+03  0.12500000000E+03 0.  0.
        -11    1    3    3    0    0 -0.12326533666E+02  0.10667314216E+02 -0.31444894953E+02  0.35419153627E+02  0.51100000000E-03 0. -1.
         23    2    1    0    0    0  0.15352685002E+02  0.11786971169E+02  0.22049259444E+02  0.95660479415E+02  0.91050095297E+02 0.  0.
         11    1    3    3    0    0  0.27679218668E+02  0.11196569539E+01  0.53494154397E+02  0.60241325788E+02  0.51100000000E-03 0.  1.
         22    1    1    0    0    0 -0.15352685002E+02 -0.11786971169E+02 -0.22049259444E+02  0.29339520585E+02  0.00000000000E+00 0.  1.
</event>
<event>
 5    1  0.8900327E-005  0.9118800E+02  0.7818608E-02  0.1130116E+00
         25   -1    0    0    0    0  0.00000000000E+00  0.00000000000E+00  0.99999998245E-14  0.12500000000E+03  0.12500000000E+03 0.  0.
        -11    1    3    3    0    0  0.29441414755E+02  0.17918195586E+02  0.96880263975E+01  0.35801068302E+02  0.51100000000E-03 0.  1.
         23    2    1    0    0    0 -0.77999058269E+01 -0.14020045648E+02 -0.24581869697E+02  0.95645809010E+02  0.91029952502E+02 0.  0.
         11    1    3    3    0    0 -0.37241320582E+02 -0.31938241233E+02 -0.34269896095E+02  0.59844740708E+02  0.51100000000E-03 0. -1.
         22    1    1    0    0    0  0.77999058269E+01  0.14020045648E+02  0.24581869697E+02  0.29354190990E+02  0.00000000000E+00 0. -1.
</event>
<event>
 5    1  0.8900327E-005  0.9118800E+02  0.7818608E-02  0.1130116E+00
         25   -1    0    0    0    0  0.00000000000E+00  0.00000000000E+00  0.99999998245E-14  0.12500000000E+03  0.12500000000E+03 0.  0.
        -11    1    3    3    0    0 -0.35632253570E+02 -0.90967723128E+01  0.37341289857E+02  0.52409738498E+02  0.51100000000E-03 0. -1.
         23    2    1    0    0    0 -0.22872842414E+02 -0.19021578081E+02 -0.22423924717E+01  0.95166869478E+02  0.90369891941E+02 0.  0.
         11    1    3    3    0    0  0.12759411156E+02 -0.99248057682E+01 -0.39583682329E+02  0.42757130979E+02  0.51100000000E-03 0.  1.
         22    1    1    0    0    0  0.22872842414E+02  0.19021578081E+02  0.22423924717E+01  0.29833130522E+02  0.00000000000E+00 0. -1.
</event>
<event>
 5    1  0.8900327E-005  0.9118800E+02  0.7818608E-02  0.1130116E+00
         25   -1    0    0    0    0  0.00000000000E+00  0.00000000000E+00  0.99999998245E-14  0.12500000000E+03  0.12500000000E+03 0.  0.
        -11    1    3    3    0    0  0.30063576482E+02 -0.97211185516E+01 -0.19760811566E+02  0.37266720419E+02  0.51100000000E-03 0. -1.
         23    2    1    0    0    0 -0.15250347053E+02  0.18402114965E+02  0.10842915662E+02  0.98755386448E+02  0.95204236314E+02 0.  0.
         11    1    3    3    0    0 -0.45313923535E+02  0.28123233517E+02  0.30603727228E+02  0.61488666029E+02  0.51100000000E-03 0.  1.
         22    1    1    0    0    0  0.15250347053E+02 -0.18402114965E+02 -0.10842915662E+02  0.26244613552E+02  0.00000000000E+00 0.  1.
</event>
<event>
 5    1  0.8900327E-005  0.9118800E+02  0.7818608E-02  0.1130116E+00
         25   -1    0    0    0    0  0.00000000000E+00  0.00000000000E+00  0.99999998245E-14  0.12500000000E+03  0.12500000000E+03 0.  0.
        -11    1    3    3    0    0  0.57537424629E+02 -0.64246751518E+01 -0.28225019764E+01  0.57963766280E+02  0.51100000000E-03 0.  1.
         23    2    1    0    0    0  0.26557041298E+02  0.13740974609E+02 -0.31728511254E+01  0.94930783017E+02  0.90042744040E+02 0.  0.
         11    1    3    3    0    0 -0.30980383331E+02  0.20165649761E+02 -0.35034914906E+00  0.36967016736E+02  0.51100000000E-03 0. -1.
         22    1    1    0    0    0 -0.26557041298E+02 -0.13740974609E+02  0.31728511254E+01  0.30069216983E+02  0.00000000000E+00 0.  1.
</event>
<event>
 5    1  0.8900327E-005  0.9118800E+02  0.7818608E-02  0.1130116E+00
         25   -1    0    0    0    0  0.00000000000E+00  0.00000000000E+00  0.99999998245E-14  0.12500000000E+03  0.12500000000E+03 0.  0.
        -11    1    3    3    0    0 -0.99737893805E+01 -0.64510916517E+01  0.56094185404E+02  0.57338038809E+02  0.51100000000E-03 0.  1.
         23    2    1    0    0    0 -0.18576388757E+02 -0.12099775680E+02  0.19098628264E+02  0.95738346043E+02  0.91156933421E+02 0.  0.
         11    1    3    3    0    0 -0.86025993762E+01 -0.56486840283E+01 -0.36995557140E+02  0.38400307234E+02  0.51100000000E-03 0. -1.
         22    1    1    0    0    0  0.18576388757E+02  0.12099775680E+02 -0.19098628264E+02  0.29261653957E+02  0.00000000000E+00 0.  1.
</event>
<event>
 5    1  0.8900327E-005  0.9118800E+02  0.7818608E-02  0.1130116E+00
         25   -1    0    0    0    0  0.00000000000E+00  0.00000000000E+00  0.99999998245E-14  0.12500000000E+03  0.12500000000E+03 0.  0.
        -11    1    3    3    0    0  0.32127315516E+02 -0.45981343780E+02 -0.19838070528E+02  0.59497877446E+02  0.51100000000E-03 0.  1.
         23    2    1    0    0    0  0.13486458444E+02 -0.13901361539E+02 -0.20754630680E+02  0.96611849150E+02  0.92346966857E+02 0.  0.
         11    1    3    3    0    0 -0.18640857072E+02  0.32079982240E+02 -0.91656015155E+00  0.37113971704E+02  0.51100000000E-03 0. -1.
         22    1    1    0    0    0 -0.13486458444E+02  0.13901361539E+02  0.20754630680E+02  0.28388150850E+02  0.00000000000E+00 0.  1.
</event>
<event>
 5    1  0.8900327E-005  0.9118800E+02  0.7818608E-02  0.1130116E+00
         25   -1    0    0    0    0  0.00000000000E+00  0.00000000000E+00  0.99999998245E-14  0.12500000000E+03  0.12500000000E+03 0.  0.
        -11    1    3    3    0    0 -0.44757407328E+02  0.22476004710E+02  0.37096729590E+02  0.62326267697E+02  0.51100000000E-03 0.  1.
         23    2    1    0    0    0 -0.27127690500E+02  0.10002976822E+02  0.21734419494E+02  0.88828794216E+02  0.81130749743E+02 0.  0.
         11    1    3    3    0    0  0.17629716828E+02 -0.12473027889E+02 -0.15362310096E+02  0.26502526519E+02  0.51100000000E-03 0. -1.
         22    1    1    0    0    0  0.27127690500E+02 -0.10002976822E+02 -0.21734419494E+02  0.36171205784E+02  0.00000000000E+00 0.  1.
</event>
<event>
 5    1  0.8900327E-005  0.9118800E+02  0.7818608E-02  0.1130116E+00
         25   -1    0    0    0    0  0.00000000000E+00  0.00000000000E+00  0.99999998245E-14  0.12500000000E+03  0.12500000000E+03 0.  0.
        -11    1    3    3    0    0  0.30637221893E+02  0.16119478219E+02  0.25246228140E+02  0.42846808270E+02  0.51100000000E-03 0.  1.
         23    2    1    0    0    0  0.34858017952E+01  0.27359269411E+02 -0.15713446513E+02  0.93257397111E+02  0.87688934751E+02 0.  0.
         11    1    3    3    0    0 -0.27151420097E+02  0.11239791192E+02 -0.40959674653E+02  0.50410588841E+02  0.51100000000E-03 0. -1.
         22    1    1    0    0    0 -0.34858017952E+01 -0.27359269411E+02  0.15713446513E+02  0.31742602889E+02  0.00000000000E+00 0. -1.
</event>
<event>
 5    1  0.8900327E-005  0.9118800E+02  0.7818608E-02  0.1130116E+00
         25   -1    0    0    0    0  0.00000000000E+00  0.00000000000E+00  0.99999998245E-14  0.12500000000E+03  0.12500000000E+03 0.  0.
        -11    1    3    3    0    0 -0.42672945572E+01  0.29320972328E+02  0.53491897392E+02  0.61149916663E+02  0.51100000000E-03 0. -1.
         23    2    1    0    0    0  0.27498395291E+01  0.64543513703E+01  0.28115834237E+02  0.96022070400E+02  0.91545166994E+02 0.  0.
         11    1    3    3    0    0  0.70171340863E+01 -0.22866620957E+02 -0.25376063154E+02  0.34872153737E+02  0.51100000000E-03 0.  1.
         22    1    1    0    0    0 -0.27498395291E+01 -0.64543513703E+01 -0.28115834237E+02  0.28977929600E+02  0.00000000000E+00 0. -1.
</event>
<event>
 5    1  0.8900327E-005  0.9118800E+02  0.7818608E-02  0.1130116E+00
         25   -1    0    0    0    0  0.00000000000E+00  0.00000000000E+00  0.99999998245E-14  0.12500000000E+03  0.12500000000E+03 0.  0.
        -11    1    3    3    0    0 -0.42901617622E+02  0.30410977548E+02 -0.30709363537E+02  0.60896973317E+02  0.51100000000E-03 0.  1.
         23    2    1    0    0    0 -0.11665049469E+02  0.16208693196E+02 -0.19737695050E+02  0.96922042095E+02  0.92765890950E+02 0.  0.
         11    1    3    3    0    0  0.31236568153E+02 -0.14202284353E+02  0.10971668487E+02  0.36025068778E+02  0.51100000000E-03 0. -1.
         22    1    1    0    0    0  0.11665049469E+02 -0.16208693196E+02  0.19737695050E+02  0.28077957905E+02  0.00000000000E+00 0.  1.
</event>
<event>
 5    1  0.8900327E-005  0.9118800E+02  0.7818608E-02  0.1130116E+00
         25   -1    0    0    0    0  0.00000000000E+00  0.00000000000E+00  0.99999998245E-14  0.12500000000E+03  0.12500000000E+03 0.  0.
        -11    1    3    3    0    0  0.37997626880E+01  0.18601784774E+02  0.30243121014E+02  0.35708695890E+02  0.51100000000E-03 0. -1.
         23    2    1    0    0    0  0.13224695663E+02 -0.30877064222E+02  0.10518483013E+02  0.89801645561E+02  0.82616048019E+02 0.  0.
         11    1    3    3    0    0  0.94249329751E+01 -0.49478848996E+02 -0.19724638001E+02  0.54092949671E+02  0.51100000000E-03 0.  1.
         22    1    1    0    0    0 -0.13224695663E+02  0.30877064222E+02 -0.10518483013E+02  0.35198354439E+02  0.00000000000E+00 0. -1.
</event>
<event>
 5    1  0.8900327E-005  0.9118800E+02  0.7818608E-02  0.1130116E+00
         25   -1    0    0    0    0  0.00000000000E+00  0.00000000000E+00  0.99999998245E-14  0.12500000000E+03  0.12500000000E+03 0.  0.
        -11    1    3    3    0    0 -0.30859445607E+02 -0.17901137255E+01  0.34337343228E+02  0.46201331480E+02  0.51100000000E-03 0. -1.
         23    2    1    0    0    0  0.16558071108E+02  0.95663634489E+01  0.20673848538E+02  0.96838092362E+02  0.92652701474E+02 0.  0.
         11    1    3    3    0    0  0.47417516714E+02  0.11356477174E+02 -0.13663494690E+02  0.50636760882E+02  0.51100000000E-03 0.  1.
         22    1    1    0    0    0 -0.16558071108E+02 -0.95663634489E+01 -0.20673848538E+02  0.28161907638E+02  0.00000000000E+00 0. -1.
</event>
<event>
 5    1  0.8900327E-005  0.9118800E+02  0.7818608E-02  0.1130116E+00
         25   -1    0    0    0    0  0.00000000000E+00  0.00000000000E+00  0.99999998245E-14  0.12500000000E+03  0.12500000000E+03 0.  0.
        -11    1    3    3    0    0 -0.27472657776E+01  0.19302302131E+02  0.30051995537E+02  0.35822461847E+02  0.51100000000E-03 0. -1.
         23    2    1    0    0    0  0.21420891432E+02 -0.50963093927E+01 -0.19146148356E+02  0.95821207084E+02  0.91270486856E+02 0.  0.
         11    1    3    3    0    0  0.24168157210E+02 -0.24398611524E+02 -0.49198143892E+02  0.59998745236E+02  0.51100000000E-03 0.  1.
         22    1    1    0    0    0 -0.21420891432E+02  0.50963093927E+01  0.19146148356E+02  0.29178792916E+02  0.00000000000E+00 0.  1.
</event>
<event>
 5    1  0.8900327E-005  0.9118800E+02  0.7818608E-02  0.1130116E+00
         25   -1    0    0    0    0  0.00000000000E+00  0.00000000000E+00  0.99999998245E-14  0.12500000000E+03  0.12500000000E+03 0.  0.
        -11    1    3    3    0    0 -0.29640322636E+02  0.61243136889E+01 -0.15226919316E+02  0.33880894561E+02  0.51100000000E-03 0. -1.
         23    2    1    0    0    0  0.21569166580E+02  0.37839067267E+01  0.19400958496E+02  0.95743477862E+02  0.91163970215E+02 0.  0.
         11    1    3    3    0    0  0.51209489217E+02 -0.23404069622E+01  0.34627877812E+02  0.61862583300E+02  0.51100000000E-03 0.  1.
         22    1    1    0    0    0 -0.21569166580E+02 -0.37839067267E+01 -0.19400958496E+02  0.29256522138E+02  0.00000000000E+00 0.  1.
</event>
<event>
 5    1  0.8900327E-005  0.9118800E+02  0.7818608E-02  0.1130116E+00
         25   -1    0    0    0    0  0.00000000000E+00  0.00000000000E+00  0.99999998245E-14  0.12500000000E+03  0.12500000000E+03 0.  0.
        -11    1    3    3    0    0 -0.18946008779E+02 -0.15806325849E+02 -0.45767712824E+02  0.51994949013E+02  0.51100000000E-03 0. -1.
         23    2    1    0    0    0 -0.26370739537E+02  0.45159104829E+01 -0.55313342802E+01  0.97679586201E+02  0.93781109773E+02 0.  0.
         11    1    3    3    0    0 -0.74247307586E+01  0.20322236332E+02  0.40236378544E+02  0.45684637188E+02  0.51100000000E-03 0.  1.
         22    1    1    0    0    0  0.26370739537E+02 -0.45159104829E+01  0.55313342802E+01  0.27320413799E+02  0.00000000000E+00 0. -1.
</event>
<event>
 5    1  0.8900327E-005  0.9118800E+02  0.7818608E-02  0.1130116E+00
         25   -1    0    0    0    0  0.00000000000E+00  0.00000000000E+00  0.99999998245E-14  0.12500000000E+03  0.12500000000E+03 0.  0.
        -11    1    3    3    0    0 -0.27455574309E+02  0.21391677545E+02 -0.31424344301E+02  0.46892449753E+02  0.51100000000E-03 0. -1.
         23    2    1    0    0    0  0.13985883618E+02  0.24265926682E+02 -0.39065335930E+01  0.96721012341E+02  0.92494611115E+02 0.  0.
         11    1    3    3    0    0  0.41441457927E+02  0.28742491367E+01  0.27517810708E+02  0.49828562588E+02  0.51100000000E-03 0.  1.
         22    1    1    0    0    0 -0.13985883618E+02 -0.24265926682E+02  0.39065335930E+01  0.28278987659E+02  0.00000000000E+00 0. -1.
</event>
<event>
 5    1  0.8900327E-005  0.9118800E+02  0.7818608E-02  0.1130116E+00
         25   -1    0    0    0    0  0.00000000000E+00  0.00000000000E+00  0.99999998245E-14  0.12500000000E+03  0.12500000000E+03 0.  0.
        -11    1    3    3    0    0 -0.64273950464E+01  0.17312663350E+01  0.32100354303E+02  0.32783249333E+02  0.51100000000E-03 0. -1.
         23    2    1    0    0    0  0.15147364592E+02  0.34227192187E+01 -0.25962282672E+02  0.94747764009E+02  0.89788312169E+02 0.  0.
         11    1    3    3    0    0  0.21574759638E+02  0.16914528837E+01 -0.58062636975E+02  0.61964514676E+02  0.51100000000E-03 0.  1.
         22    1    1    0    0    0 -0.15147364592E+02 -0.34227192187E+01  0.25962282672E+02  0.30252235991E+02  0.00000000000E+00 0.  1.
</event>
<event>
 5    1  0.8900327E-005  0.9118800E+02  0.7818608E-02  0.1130116E+00
         25   -1    0    0    0    0  0.00000000000E+00  0.00000000000E+00  0.99999998245E-14  0.12500000000E+03  0.12500000000E+03 0.  0.
        -11    1    3    3    0    0 -0.37129108441E+01  0.27306395646E+01  0.58080075016E+02  0.58262657110E+02  0.51100000000E-03 0.  1.
         23    2    1    0    0    0  0.13924430087E+02  0.54570552916E+01  0.24327148670E+02  0.96443400621E+02  0.92118674302E+02 0.  0.
         11    1    3    3    0    0  0.17637340931E+02  0.27264157270E+01 -0.33752926346E+02  0.38180743511E+02  0.51100000000E-03 0. -1.
         22    1    1    0    0    0 -0.13924430087E+02 -0.54570552916E+01 -0.24327148670E+02  0.28556599379E+02  0.00000000000E+00 0.  1.
</event>
<event>
 5    1  0.8900327E-005  0.9118800E+02  0.7818608E-02  0.1130116E+00
         25   -1    0    0    0    0  0.00000000000E+00  0.00000000000E+00  0.99999998245E-14  0.12500000000E+03  0.12500000000E+03 0.  0.
        -11    1    3    3    0    0 -0.21479186498E+02  0.13406015086E+02 -0.24419879897E+02  0.35176799564E+02  0.51100000000E-03 0.  1.
         23    2    1    0    0    0  0.22914663613E+02 -0.15585658762E+02  0.64719736677E+01  0.96541591564E+02  0.92251817819E+02 0.  0.
         11    1    3    3    0    0  0.44393850112E+02 -0.28991673848E+02  0.30891853565E+02  0.61364792000E+02  0.51100000000E-03 0. -1.
         22    1    1    0    0    0 -0.22914663613E+02  0.15585658762E+02 -0.64719736677E+01  0.28458408436E+02  0.00000000000E+00 0. -1.
</event>
<event>
 5    1  0.8900327E-005  0.9118800E+02  0.7818608E-02  0.1130116E+00
         25   -1    0    0    0    0  0.00000000000E+00  0.00000000000E+00  0.99999998245E-14  0.12500000000E+03  0.12500000000E+03 0.  0.
        -11    1    3    3    0    0 -0.16035279072E+02 -0.78239334447E+01 -0.50812157735E+02  0.53853685886E+02  0.51100000000E-03 0. -1.
         23    2    1    0    0    0  0.12315293262E+02 -0.16095161785E+02 -0.20742623615E+02  0.96000394564E+02  0.91515565021E+02 0.  0.
         11    1    3    3    0    0  0.28350572335E+02 -0.82712283399E+01  0.30069534121E+02  0.42146708679E+02  0.51100000000E-03 0.  1.
         22    1    1    0    0    0 -0.12315293262E+02  0.16095161785E+02  0.20742623615E+02  0.28999605436E+02  0.00000000000E+00 0. -1.
</event>
<event>
 5    1  0.8900327E-005  0.9118800E+02  0.7818608E-02  0.1130116E+00
         25   -1    0    0    0    0  0.00000000000E+00  0.00000000000E+00  0.99999998245E-14  0.12500000000E+03  0.12500000000E+03 0.  0.
        -11    1    3    3    0    0  0.24859831969E+02  0.28251781369E+02 -0.46082800161E+02  0.59496208845E+02  0.51100000000E-03 0.  1.
         23    2    1    0    0    0  0.22621861587E+02  0.15250002757E+02 -0.13683329254E+02  0.94478782704E+02  0.89413062111E+02 0.  0.
         11    1    3    3    0    0 -0.22379703817E+01 -0.13001778612E+02  0.32399470907E+02  0.34982573859E+02  0.51100000000E-03 0. -1.
         22    1    1    0    0    0 -0.22621861587E+02 -0.15250002757E+02  0.13683329254E+02  0.30521217296E+02  0.00000000000E+00 0.  1.
</event>
<event>
 5    1  0.8900327E-005  0.9118800E+02  0.7818608E-02  0.1130116E+00
         25   -1    0    0    0    0  0.00000000000E+00  0.00000000000E+00  0.99999998245E-14  0.12500000000E+03  0.12500000000E+03 0.  0.
        -11    1    3    3    0    0  0.19093299417E+02  0.40434087221E+02 -0.37796138579E+00  0.44717025249E+02  0.51100000000E-03 0. -1.
         23    2    1    0    0    0 -0.13288483918E+02  0.59644432807E+00  0.20847713159E+02  0.10027012546E+03  0.97172688373E+02 0.  0.
         11    1    3    3    0    0 -0.32381783335E+02 -0.39837642893E+02  0.21225674545E+02  0.55553100214E+02  0.51100000000E-03 0.  1.
         22    1    1    0    0    0  0.13288483918E+02 -0.59644432807E+00 -0.20847713159E+02  0.24729874537E+02  0.00000000000E+00 0.  1.
</event>
<event>
 5    1  0.8900327E-005  0.9118800E+02  0.7818608E-02  0.1130116E+00
         25   -1    0    0    0    0  0.00000000000E+00  0.00000000000E+00  0.99999998245E-14  0.12500000000E+03  0.12500000000E+03 0.  0.
        -11    1    3    3    0    0 -0.26024829182E+02 -0.40120729079E+02  0.38734839061E+01  0.47978834017E+02  0.51100000000E-03 0. -1.
         23    2    1    0    0    0  0.98396785082E+01 -0.25239832425E+02 -0.17932879302E+02  0.92512208847E+02  0.86620160538E+02 0.  0.
         11    1    3    3    0    0  0.35864507690E+02  0.14880896655E+02 -0.21806363208E+02  0.44533374830E+02  0.51100000000E-03 0.  1.
         22    1    1    0    0    0 -0.98396785082E+01  0.25239832425E+02  0.17932879302E+02  0.32487791153E+02  0.00000000000E+00 0. -1.
</event>
<event>
 5    1  0.8900327E-005  0.9118800E+02  0.7818608E-02  0.1130116E+00
         25   -1    0    0    0    0  0.00000000000E+00  0.00000000000E+00  0.99999998245E-14  0.12500000000E+03  0.12500000000E+03 0.  0.
        -11    1    3    3    0    0 -0.17066043297E+02 -0.13132198297E+02 -0.27468023142E+02  0.34902675564E+02  0.51100000000E-03 0.  1.
         23    2    1    0    0    0  0.20359587317E+02  0.20017399928E+02  0.69678615185E+01  0.95610202625E+02  0.90981045588E+02 0.  0.
         11    1    3    3    0    0  0.37425630614E+02  0.33149598225E+02  0.34435884660E+02  0.60707527061E+02  0.51100000000E-03 0. -1.
         22    1    1    0    0    0 -0.20359587317E+02 -0.20017399928E+02 -0.69678615185E+01  0.29389797375E+02  0.00000000000E+00 0. -1.
</event>
<event>
 5    1  0.8900327E-005  0.9118800E+02  0.7818608E-02  0.1130116E+00
         25   -1    0    0    0    0  0.00000000000E+00  0.00000000000E+00  0.99999998245E-14  0.12500000000E+03  0.12500000000E+03 0.  0.
        -11    1    3    3    0    0 -0.11154994200E+02  0.17989762451E+02  0.32896758435E+02  0.39118565470E+02  0.51100000000E-03 0.  1.
         23    2    1    0    0    0  0.27406336040E+02 -0.54042856461E+01 -0.31943881931E+01  0.96883853849E+02  0.92714418847E+02 0.  0.
         11    1    3    3    0    0  0.38561330240E+02 -0.23394048097E+02 -0.36091146628E+02  0.57765288379E+02  0.51100000000E-03 0. -1.
         22    1    1    0    0    0 -0.27406336040E+02  0.54042856461E+01  0.31943881931E+01  0.28116146151E+02  0.00000000000E+00 0. -1.
</event>
<event>
 5    1  0.8900327E-005  0.9118800E+02  0.7818608E-02  0.1130116E+00
         25   -1    0    0    0    0  0.00000000000E+00  0.00000000000E+00  0.99999998245E-14  0.12500000000E+03  0.12500000000E+03 0.  0.
        -11    1    3    3    0    0 -0.73409627130E-01 -0.44136986986E+02  0.10388279895E+01  0.44149271489E+02  0.51100000000E-03 0.  1.
         23    2    1    0    0    0 -0.22912202230E+02 -0.19346408998E+02  0.25369677312E+02  0.85720576900E+02  0.76191497064E+02 0.  0.
         11    1    3    3    0    0 -0.22838792603E+02  0.24790577987E+02  0.24330849323E+02  0.41571305411E+02  0.51100000000E-03 0. -1.
         22    1    1    0    0    0  0.22912202230E+02  0.19346408998E+02 -0.25369677312E+02  0.39279423100E+02  0.00000000000E+00 0.  1.
</event>
<event>
 5    1  0.8900327E-005  0.9118800E+02  0.7818608E-02  0.1130116E+00
         25   -1    0    0    0    0  0.00000000000E+00  0.00000000000E+00  0.99999998245E-14  0.12500000000E+03  0.12500000000E+03 0.  0.
        -11    1    3    3    0    0 -0.59728410126E+01  0.28417901124E+02 -0.52544555724E+02  0.60034842138E+02  0.51100000000E-03 0.  1.
         23    2    1    0    0    0  0.53133588986E+01  0.46612764820E+01 -0.28385220883E+02  0.95747990739E+02  0.91170157864E+02 0.  0.
         11    1    3    3    0    0  0.11286199911E+02 -0.23756624642E+02  0.24159334841E+02  0.35713148602E+02  0.51100000000E-03 0. -1.
         22    1    1    0    0    0 -0.53133588986E+01 -0.46612764820E+01  0.28385220883E+02  0.29252009261E+02  0.00000000000E+00 0.  1.
</event>
<event>
 5    1  0.8900327E-005  0.9118800E+02  0.7818608E-02  0.1130116E+00
         25   -1    0    0    0    0  0.00000000000E+00  0.00000000000E+00  0.99999998245E-14  0.12500000000E+03  0.12500000000E+03 0.  0.
        -11    1    3    3    0    0 -0.29282509963E+02 -0.14007341424E+02  0.43042642823E+02  0.53910482330E+02  0.51100000000E-03 0. -1.
         23    2    1    0    0    0 -0.57362943355E+01 -0.26239617343E+02  0.98814530605E+01  0.96380676011E+02  0.92033521082E+02 0.  0.
         11    1    3    3    0    0  0.23546215628E+02 -0.12232275919E+02 -0.33161189763E+02  0.42470193681E+02  0.51100000000E-03 0.  1.
         22    1    1    0    0    0  0.57362943355E+01  0.26239617343E+02 -0.98814530605E+01  0.28619323989E+02  0.00000000000E+00 0. -1.
</event>
<event>
 5    1  0.8900327E-005  0.9118800E+02  0.7818608E-02  0.1130116E+00
         25   -1    0    0    0    0  0.00000000000E+00  0.00000000000E+00  0.99999998245E-14  0.12500000000E+03  0.12500000000E+03 0.  0.
        -11    1    3    3    0    0 -0.20175956676E+02  0.39968197484E+02  0.43597590137E+02  0.62492206745E+02  0.51100000000E-03 0. -1.
         23    2    1    0    0    0 -0.84513846723E+01  0.17968267019E+02  0.19915238266E+02  0.96877033625E+02  0.92705223188E+02 0.  0.
         11    1    3    3    0    0  0.11724572004E+02 -0.21999930465E+02 -0.23682351871E+02  0.34384826880E+02  0.51100000000E-03 0.  1.
         22    1    1    0    0    0  0.84513846723E+01 -0.17968267019E+02 -0.19915238266E+02  0.28122966375E+02  0.00000000000E+00 0. -1.
</event>
<event>
 5    1  0.8900327E-005  0.9118800E+02  0.7818608E-02  0.1130116E+00
         25   -1    0    0    0    0  0.00000000000E+00  0.00000000000E+00  0.99999998245E-14  0.12500000000E+03  0.12500000000E+03 0.  0.
        -11    1    3    3    0    0  0.30690071305E+02  0.29418513510E+02  0.18401462039E+02  0.46324326431E+02  0.51100000000E-03 0. -1.
         23    2    1    0    0    0 -0.17134550009E+02  0.21759677885E+02  0.10404218791E+02  0.95414122384E+02  0.90711248453E+02 0.  0.
         11    1    3    3    0    0 -0.47824621313E+02 -0.76588356250E+01 -0.79972432477E+01  0.49089795953E+02  0.51100000000E-03 0.  1.
         22    1    1    0    0    0  0.17134550009E+02 -0.21759677885E+02 -0.10404218791E+02  0.29585877616E+02  0.00000000000E+00 0.  1.
</event>
<event>
 5    1  0.8900327E-005  0.9118800E+02  0.7818608E-02  0.1130116E+00
         25   -1    0    0    0    0  0.00000000000E+00  0.00000000000E+00  0.99999998245E-14  0.12500000000E+03  0.12500000000E+03 0.  0.
        -11    1    3    3    0    0 -0.17060079344E+02  0.25093368827E+02  0.13805472678E+02  0.33336384663E+02  0.51100000000E-03 0.  1.
         23    2    1    0    0    0  0.55891481657E+01 -0.22703188009E+02 -0.18387581484E+02  0.95254807517E+02  0.90491446443E+02 0.  0.
         11    1    3    3    0    0  0.22649227510E+02 -0.47796556836E+02 -0.32193054162E+02  0.61918422854E+02  0.51100000000E-03 0. -1.
         22    1    1    0    0    0 -0.55891481657E+01  0.22703188009E+02  0.18387581484E+02  0.29745192483E+02  0.00000000000E+00 0. -1.
</event>
<event>
 5    1  0.8900327E-005  0.9118800E+02  0.7818608E-02  0.1130116E+00
         25   -1    0    0    0    0  0.00000000000E+00  0.00000000000E+00  0.99999998245E-14  0.12500000000E+03  0.12500000000E+03 0.  0.
        -11    1    3    3    0    0 -0.26329999642E+02  0.24370447616E+02  0.41665876979E+02  0.54983933134E+02  0.51100000000E-03 0.  1.
         23    2    1    0    0    0  0.23475413436E+01 -0.52048773012E+00  0.30276273545E+02  0.94628391587E+02  0.89621972176E+02 0.  0.
         11    1    3    3    0    0  0.28677540986E+02 -0.24890935346E+02 -0.11389603434E+02  0.39644458453E+02  0.51100000000E-03 0. -1.
         22    1    1    0    0    0 -0.23475413436E+01  0.52048773012E+00 -0.30276273545E+02  0.30371608413E+02  0.00000000000E+00 0.  1.
</event>
<event>
 5    1  0.8900327E-005  0.9118800E+02  0.7818608E-02  0.1130116E+00
         25   -1    0    0    0    0  0.00000000000E+00  0.00000000000E+00  0.99999998245E-14  0.12500000000E+03  0.12500000000E+03 0.  0.
        -11    1    3    3    0    0  0.26614906693E+02 -0.17949620479E+02 -0.14982342054E+02  0.35426158518E+02  0.51100000000E-03 0.  1.
         23    2    1    0    0    0 -0.89998530575E+01  0.25155269055E+02  0.97410845290E+01  0.96562812304E+02  0.92280567163E+02 0.  0.
         11    1    3    3    0    0 -0.35614759751E+02  0.43104889534E+02  0.24723426583E+02  0.61136653786E+02  0.51100000000E-03 0. -1.
         22    1    1    0    0    0  0.89998530575E+01 -0.25155269055E+02 -0.97410845290E+01  0.28437187696E+02  0.00000000000E+00 0. -1.
</event>
<event>
 5    1  0.8900327E-005  0.9118800E+02  0.7818608E-02  0.1130116E+00
         25   -1    0    0    0    0  0.00000000000E+00  0.00000000000E+00  0.99999998245E-14  0.12500000000E+03  0.12500000000E+03 0.  0.
        -11    1    3    3    0    0  0.24166671496E+02  0.14780880944E+02 -0.40970887093E+02  0.49810802464E+02  0.51100000000E-03 0.  1.
         23    2    1    0    0    0  0.25450191533E+02 -0.10850803289E+02 -0.99531649285E+00  0.97315295992E+02  0.93294287060E+02 0.  0.
         11    1    3    3    0    0  0.12835200373E+01 -0.25631684233E+02  0.39975570600E+02  0.47504493528E+02  0.51100000000E-03 0. -1.
         22    1    1    0    0    0 -0.25450191533E+02  0.10850803289E+02  0.99531649285E+00  0.27684704008E+02  0.00000000000E+00 0. -1.
</event>
<event>
 5    1  0.8900327E-005  0.9118800E+02  0.7818608E-02  0.1130116E+00
         25   -1    0    0    0    0  0.00000000000E+00  0.00000000000E+00  0.99999998245E-14  0.12500000000E+03  0.12500000000E+03 0.  0.
        -11    1    3    3    0    0 -0.30051286063E+02 -0.60335965712E+01  0.34590662303E+02  0.46216858401E+02  0.51100000000E-03 0. -1.
         23    2    1    0    0    0  0.14026280830E+02 -0.19960002415E+02  0.14511410800E+02  0.96614805026E+02  0.92350967815E+02 0.  0.
         11    1    3    3    0    0  0.44077566892E+02 -0.13926405844E+02 -0.20079251502E+02  0.50397946625E+02  0.51100000000E-03 0.  1.
         22    1    1    0    0    0 -0.14026280830E+02  0.19960002415E+02 -0.14511410800E+02  0.28385194974E+02  0.00000000000E+00 0. -1.
</event>
<event>
 5    1  0.8900327E-005  0.9118800E+02  0.7818608E-02  0.1130116E+00
         25   -1    0    0    0    0  0.00000000000E+00  0.00000000000E+00  0.99999998245E-14  0.12500000000E+03  0.12500000000E+03 0.  0.
        -11    1    3    3    0    0  0.54337057845E+01 -0.26480706461E+02  0.28361408158E+02  0.39180638665E+02  0.51100000000E-03 0. -1.
         23    2    1    0    0    0  0.14098231792E+02  0.25044099977E+02  0.94333474554E+01  0.94751774803E+02  0.89793895676E+02 0.  0.
         11    1    3    3    0    0  0.86645260080E+01  0.51524806439E+02 -0.18928060702E+02  0.55571136138E+02  0.51100000000E-03 0.  1.
         22    1    1    0    0    0 -0.14098231792E+02 -0.25044099977E+02 -0.94333474554E+01  0.30248225197E+02  0.00000000000E+00 0.  1.
</event>
<event>
 5    1  0.8900327E-005  0.9118800E+02  0.7818608E-02  0.1130116E+00
         25   -1    0    0    0    0  0.00000000000E+00  0.00000000000E+00  0.99999998245E-14  0.12500000000E+03  0.12500000000E+03 0.  0.
        -11    1    3    3    0    0  0.42069795208E+02  0.69842671380E+01  0.90441402141E+01  0.43594083644E+02  0.51100000000E-03 0.  1.
         23    2    1    0    0    0 -0.55452091170E+01 -0.98178577021E+01  0.25840102777E+02  0.96806905358E+02  0.92610616775E+02 0.  0.
         11    1    3    3    0    0 -0.47615004325E+02 -0.16802124840E+02  0.16795962563E+02  0.53212821713E+02  0.51100000000E-03 0. -1.
         22    1    1    0    0    0  0.55452091170E+01  0.98178577021E+01 -0.25840102777E+02  0.28193094642E+02  0.00000000000E+00 0. -1.
</event>
<event>
 5    1  0.8900327E-005  0.9118800E+02  0.7818608E-02  0.1130116E+00
         25   -1    0    0    0    0  0.00000000000E+00  0.00000000000E+00  0.99999998245E-14  0.12500000000E+03  0.12500000000E+03 0.  0.
        -11    1    3    3    0    0  0.47528545883E+02 -0.21884593816E+02  0.28282616520E+02  0.59479446179E+02  0.51100000000E-03 0. -1.
         23    2    1    0    0    0  0.12388769647E+02 -0.17707243534E+02  0.19386829157E+02  0.95967651977E+02  0.91470831385E+02 0.  0.
         11    1    3    3    0    0 -0.35139776236E+02  0.41773502821E+01 -0.88957873629E+01  0.36488205798E+02  0.51100000000E-03 0.  1.
         22    1    1    0    0    0 -0.12388769647E+02  0.17707243534E+02 -0.19386829157E+02  0.29032348023E+02  0.00000000000E+00 0. -1.
</event>
<event>
 5    1  0.8900327E-005  0.9118800E+02  0.7818608E-02  0.1130116E+00
         25   -1    0    0    0    0  0.00000000000E+00  0.00000000000E+00  0.99999998245E-14  0.12500000000E+03  0.12500000000E+03 0.  0.
        -11    1    3    3    0    0  0.21738948590E+02  0.37787341703E+02  0.38099977989E+02  0.57897093206E+02  0.51100000000E-03 0.  1.
         23    2    1    0    0    0  0.24308547653E+02  0.98288691426E+01  0.12258270292E+02  0.96055616293E+02  0.91590960653E+02 0.  0.
         11    1    3    3    0    0  0.25695990627E+01 -0.27958472560E+02 -0.25841707696E+02  0.38158523087E+02  0.51100000000E-03 0. -1.
         22    1    1    0    0    0 -0.24308547653E+02 -0.98288691426E+01 -0.12258270292E+02  0.28944383707E+02  0.00000000000E+00 0.  1.
</event>
<event>
 5    1  0.8900327E-005  0.9118800E+02  0.7818608E-02  0.1130116E+00
         25   -1    0    0    0    0  0.00000000000E+00  0.00000000000E+00  0.99999998245E-14  0.12500000000E+03  0.12500000000E+03 0.  0.
        -11    1    3    3    0    0 -0.22658137807E+02 -0.36494418496E+02  0.25274821268E+02  0.49840248601E+02  0.51100000000E-03 0. -1.
         23    2    1    0    0    0  0.18030607644E+02 -0.19326455960E+02  0.12136373039E+02  0.95915532281E+02  0.91399579158E+02 0.  0.
         11    1    3    3    0    0  0.40688745451E+02  0.17167962536E+02 -0.13138448229E+02  0.46075283680E+02  0.51100000000E-03 0.  1.
         22    1    1    0    0    0 -0.18030607644E+02  0.19326455960E+02 -0.12136373039E+02  0.29084467719E+02  0.00000000000E+00 0.  1.
</event>
<event>
 5    1  0.8900327E-005  0.9118800E+02  0.7818608E-02  0.1130116E+00
         25   -1    0    0    0    0  0.00000000000E+00  0.00000000000E+00  0.99999998245E-14  0.12500000000E+03  0.12500000000E+03 0.  0.
        -11    1    3    3    0    0 -0.19065626723E+02  0.18742078660E+02  0.26609504782E+02  0.37720410653E+02  0.51100000000E-03 0. -1.
         23    2    1    0    0    0 -0.47062174234E+01  0.34526051518E+01 -0.28093308603E+02  0.96306743771E+02  0.91933051416E+02 0.  0.
         11    1    3    3    0    0  0.14359409300E+02 -0.15289473508E+02 -0.54702813386E+02  0.58586333117E+02  0.51100000000E-03 0.  1.
         22    1    1    0    0    0  0.47062174234E+01 -0.34526051518E+01  0.28093308603E+02  0.28693256229E+02  0.00000000000E+00 0.  1.
</event>
<event>
 5    1  0.8900327E-005  0.9118800E+02  0.7818608E-02  0.1130116E+00
         25   -1    0    0    0    0  0.00000000000E+00  0.00000000000E+00  0.99999998245E-14  0.12500000000E+03  0.12500000000E+03 0.  0.
        -11    1    3    3    0    0 -0.80008944310E+00  0.34976279402E+02  0.21110848295E+02  0.40861328661E+02  0.51100000000E-03 0.  1.
         23    2    1    0    0    0 -0.28341026805E+02 -0.66691646742E+01 -0.18704674491E+01  0.95824835797E+02  0.91275456445E+02 0.  0.
         11    1    3    3    0    0 -0.27540937362E+02 -0.41645444076E+02 -0.22981315744E+02  0.54963507136E+02  0.51100000000E-03 0. -1.
         22    1    1    0    0    0  0.28341026805E+02  0.66691646742E+01  0.18704674491E+01  0.29175164203E+02  0.00000000000E+00 0. -1.
</event>
<event>
 5    1  0.8900327E-005  0.9118800E+02  0.7818608E-02  0.1130116E+00
         25   -1    0    0    0    0  0.00000000000E+00  0.00000000000E+00  0.99999998245E-14  0.12500000000E+03  0.12500000000E+03 0.  0.
        -11    1    3    3    0    0  0.55585085386E+01 -0.33059610508E+02 -0.38790359821E+01  0.33747322627E+02  0.51100000000E-03 0.  1.
         23    2    1    0    0    0 -0.73357288744E+01  0.27809367416E+02  0.15083346800E+01  0.96199845353E+02  0.91787588149E+02 0.  0.
         11    1    3    3    0    0 -0.12894237413E+02  0.60868977923E+02  0.53873706621E+01  0.62452522726E+02  0.51100000000E-03 0. -1.
         22    1    1    0    0    0  0.73357288744E+01 -0.27809367416E+02 -0.15083346800E+01  0.28800154647E+02  0.00000000000E+00 0. -1.
</event>
<event>
 5    1  0.8900327E-005  0.9118800E+02  0.7818608E-02  0.1130116E+00
         25   -1    0    0    0    0  0.00000000000E+00  0.00000000000E+00  0.99999998245E-14  0.12500000000E+03  0.12500000000E+03 0.  0.
        -11    1    3    3    0    0  0.35526465047E+02  0.76653941922E+01 -0.15056748335E+02  0.39339466920E+02  0.51100000000E-03 0. -1.
         23    2    1    0    0    0 -0.21677100638E+01  0.10662880840E+02  0.26996557843E+02  0.95893125725E+02  0.91368930338E+02 0.  0.
         11    1    3    3    0    0 -0.37694175111E+02  0.29974866478E+01  0.42053306177E+02  0.56553658805E+02  0.51100000000E-03 0.  1.
         22    1    1    0    0    0  0.21677100638E+01 -0.10662880840E+02 -0.26996557843E+02  0.29106874275E+02  0.00000000000E+00 0.  1.
</event>
<event>
 5    1  0.8900327E-005  0.9118800E+02  0.7818608E-02  0.1130116E+00
         25   -1    0    0    0    0  0.00000000000E+00  0.00000000000E+00  0.99999998245E-14  0.12500000000E+03  0.12500000000E+03 0.  0.
        -11    1    3    3    0    0  0.34434846047E+02 -0.31922671498E+02  0.80299744175E+01  0.47637129083E+02  0.51100000000E-03 0.  1.
         23    2    1    0    0    0 -0.13862064409E+02 -0.16486134064E+02  0.14906981695E+02  0.98805199956E+02  0.95269617345E+02 0.  0.
         11    1    3    3    0    0 -0.48296910456E+02  0.15436537433E+02  0.68770072776E+01  0.51168070874E+02  0.51100000000E-03 0. -1.
         22    1    1    0    0    0  0.13862064409E+02  0.16486134064E+02 -0.14906981695E+02  0.26194800044E+02  0.00000000000E+00 0. -1.
</event>
<event>
 5    1  0.8900327E-005  0.9118800E+02  0.7818608E-02  0.1130116E+00
         25   -1    0    0    0    0  0.00000000000E+00  0.00000000000E+00  0.99999998245E-14  0.12500000000E+03  0.12500000000E+03 0.  0.
        -11    1    3    3    0    0 -0.20488859451E+02 -0.10536985085E+02 -0.27956061260E+02  0.36226547968E+02  0.51100000000E-03 0.  1.
         23    2    1    0    0    0 -0.23475967795E+01  0.23912198572E+02  0.16901328790E+02  0.95623829962E+02  0.90999766432E+02 0.  0.
         11    1    3    3    0    0  0.18141262671E+02  0.34449183657E+02  0.44857390050E+02  0.59397281994E+02  0.51100000000E-03 0. -1.
         22    1    1    0    0    0  0.23475967795E+01 -0.23912198572E+02 -0.16901328790E+02  0.29376170038E+02  0.00000000000E+00 0. -1.
</event>
<event>
 5    1  0.8900327E-005  0.9118800E+02  0.7818608E-02  0.1130116E+00
         25   -1    0    0    0    0  0.00000000000E+00  0.00000000000E+00  0.99999998245E-14  0.12500000000E+03  0.12500000000E+03 0.  0.
        -11    1    3    3    0    0 -0.12324627245E+02  0.17925124662E+02 -0.26080382110E+02  0.33961638096E+02  0.51100000000E-03 0.  1.
         23    2    1    0    0    0  0.20391967228E+02 -0.23963816195E+01  0.21562970539E+02  0.95225234329E+02  0.90450586411E+02 0.  0.
         11    1    3    3    0    0  0.32716594474E+02 -0.20321506282E+02  0.47643352649E+02  0.61263596233E+02  0.51100000000E-03 0. -1.
         22    1    1    0    0    0 -0.20391967228E+02  0.23963816195E+01 -0.21562970539E+02  0.29774765671E+02  0.00000000000E+00 0. -1.
</event>
<event>
 5    1  0.8900327E-005  0.9118800E+02  0.7818608E-02  0.1130116E+00
         25   -1    0    0    0    0  0.00000000000E+00  0.00000000000E+00  0.99999998245E-14  0.12500000000E+03  0.12500000000E+03 0.  0.
        -11    1    3    3    0    0 -0.28223200194E+02  0.39087288890E+00 -0.34184736284E+02  0.44331681739E+02  0.51100000000E-03 0.  1.
         23    2    1    0    0    0  0.17179635057E+02  0.16487898951E+02 -0.18002705963E+02  0.95148901285E+02  0.90345034845E+02 0.  0.
         11    1    3    3    0    0  0.45402835250E+02  0.16097026062E+02  0.16182030320E+02  0.50817219546E+02  0.51100000000E-03 0. -1.
         22    1    1    0    0    0 -0.17179635057E+02 -0.16487898951E+02  0.18002705963E+02  0.29851098715E+02  0.00000000000E+00 0. -1.
</event>
<event>
 5    1  0.8900327E-005  0.9118800E+02  0.7818608E-02  0.1130116E+00
         25   -1    0    0    0    0  0.00000000000E+00  0.00000000000E+00  0.99999998245E-14  0.12500000000E+03  0.12500000000E+03 0.  0.
        -11    1    3    3    0    0 -0.45611346600E+00 -0.27006889520E+02  0.42302611990E+02  0.50190547940E+02  0.51100000000E-03 0. -1.
         23    2    1    0    0    0  0.24459579496E+02 -0.12639789753E+02  0.54577864133E+01  0.96931819677E+02  0.92779065091E+02 0.  0.
         11    1    3    3    0    0  0.24915692962E+02  0.14367099768E+02 -0.36844825577E+02  0.46741271737E+02  0.51100000000E-03 0.  1.
         22    1    1    0    0    0 -0.24459579496E+02  0.12639789753E+02 -0.54577864133E+01  0.28068180323E+02  0.00000000000E+00 0. -1.
</event>
<event>
 5    1  0.8900327E-005  0.9118800E+02  0.7818608E-02  0.1130116E+00
         25   -1    0    0    0    0  0.00000000000E+00  0.00000000000E+00  0.99999998245E-14  0.12500000000E+03  0.12500000000E+03 0.  0.
        -11    1    3    3    0    0 -0.34564831427E+02 -0.22940315549E+01  0.18955917694E+02  0.39488187705E+02  0.51100000000E-03 0.  1.
         23    2    1    0    0    0  0.17351288893E+02 -0.21676752397E+02  0.91485222302E+01  0.95765700286E+02  0.91194435530E+02 0.  0.
         11    1    3    3    0    0  0.51916120320E+02 -0.19382720843E+02 -0.98073954635E+01  0.56277512582E+02  0.51100000000E-03 0. -1.
         22    1    1    0    0    0 -0.17351288893E+02  0.21676752397E+02 -0.91485222302E+01  0.29234299714E+02  0.00000000000E+00 0. -1.
</event>
<event>
 5    1  0.8900327E-005  0.9118800E+02  0.7818608E-02  0.1130116E+00
         25   -1    0    0    0    0  0.00000000000E+00  0.00000000000E+00  0.99999998245E-14  0.12500000000E+03  0.12500000000E+03 0.  0.
        -11    1    3    3    0    0  0.13708521510E+01  0.32833915436E+02  0.14886960723E+02  0.36077234350E+02  0.51100000000E-03 0. -1.
         23    2    1    0    0    0  0.10330791568E+02 -0.25631399396E+02  0.10674797485E+02  0.95374922941E+02  0.90657215571E+02 0.  0.
         11    1    3    3    0    0  0.89599394168E+01 -0.58465314833E+02 -0.42121632375E+01  0.59297688591E+02  0.51100000000E-03 0.  1.
         22    1    1    0    0    0 -0.10330791568E+02  0.25631399396E+02 -0.10674797485E+02  0.29625077059E+02  0.00000000000E+00 0.  1.
</event>
<event>
 5    1  0.8900327E-005  0.9118800E+02  0.7818608E-02  0.1130116E+00
         25   -1    0    0    0    0  0.00000000000E+00  0.00000000000E+00  0.99999998245E-14  0.12500000000E+03  0.12500000000E+03 0.  0.
        -11    1    3    3    0    0  0.54707629193E+02 -0.28966501539E+02  0.60667144627E+01  0.62199581414E+02  0.51100000000E-03 0.  1.
         23    2    1    0    0    0  0.26652105803E+02 -0.12821223460E+02 -0.12964974304E+01  0.95395956014E+02  0.90686211761E+02 0.  0.
         11    1    3    3    0    0 -0.28055523391E+02  0.16145278079E+02 -0.73632118931E+01  0.33196374601E+02  0.51100000000E-03 0. -1.
         22    1    1    0    0    0 -0.26652105803E+02  0.12821223460E+02  0.12964974304E+01  0.29604043986E+02  0.00000000000E+00 0.  1.
</event>
<event>
 5    1  0.8900327E-005  0.9118800E+02  0.7818608E-02  0.1130116E+00
         25   -1    0    0    0    0  0.00000000000E+00  0.00000000000E+00  0.99999998245E-14  0.12500000000E+03  0.12500000000E+03 0.  0.
        -11    1    3    3    0    0  0.33530335938E+02  0.15641358133E+02  0.69051572482E+01  0.37637968984E+02  0.51100000000E-03 0.  1.
         23    2    1    0    0    0 -0.10619664108E+02  0.51197417829E+01 -0.27820164741E+02  0.94784927802E+02  0.89840035344E+02 0.  0.
         11    1    3    3    0    0 -0.44150000046E+02 -0.10521616350E+02 -0.34725321989E+02  0.57146958819E+02  0.51100000000E-03 0. -1.
         22    1    1    0    0    0  0.10619664108E+02 -0.51197417829E+01  0.27820164741E+02  0.30215072198E+02  0.00000000000E+00 0. -1.
</event>
<event>
 5    1  0.8900327E-005  0.9118800E+02  0.7818608E-02  0.1130116E+00
         25   -1    0    0    0    0  0.00000000000E+00  0.00000000000E+00  0.99999998245E-14  0.12500000000E+03  0.12500000000E+03 0.  0.
        -11    1    3    3    0    0  0.48335480882E+01 -0.22024272612E+02 -0.25004955967E+01  0.22686653559E+02  0.51100000000E-03 0. -1.
         23    2    1    0    0    0 -0.13576196828E+02  0.35968274567E+02 -0.12971326391E+02  0.84425559721E+02  0.74036409490E+02 0.  0.
         11    1    3    3    0    0 -0.18409744916E+02  0.57992547180E+02 -0.10470830794E+02  0.61738906162E+02  0.51100000000E-03 0.  1.
         22    1    1    0    0    0  0.13576196828E+02 -0.35968274567E+02  0.12971326391E+02  0.40574440279E+02  0.00000000000E+00 0.  1.
</event>
<event>
 5    1  0.8900327E-005  0.9118800E+02  0.7818608E-02  0.1130116E+00
         25   -1    0    0    0    0  0.00000000000E+00  0.00000000000E+00  0.99999998245E-14  0.12500000000E+03  0.12500000000E+03 0.  0.
        -11    1    3    3    0    0  0.56461664565E+00  0.14857231440E+02 -0.45255764753E+02  0.47635494767E+02  0.51100000000E-03 0.  1.
         23    2    1    0    0    0  0.26219866803E+02  0.12918255112E+02 -0.50964600329E+01  0.95329532609E+02  0.90594608848E+02 0.  0.
         11    1    3    3    0    0  0.25655250158E+02 -0.19389763277E+01  0.40159304720E+02  0.47694037842E+02  0.51100000000E-03 0. -1.
         22    1    1    0    0    0 -0.26219866803E+02 -0.12918255112E+02  0.50964600329E+01  0.29670467391E+02  0.00000000000E+00 0. -1.
</event>
<event>
 5    1  0.8900327E-005  0.9118800E+02  0.7818608E-02  0.1130116E+00
         25   -1    0    0    0    0  0.00000000000E+00  0.00000000000E+00  0.99999998245E-14  0.12500000000E+03  0.12500000000E+03 0.  0.
        -11    1    3    3    0    0 -0.61148050836E+02  0.88981434981E+01  0.71652650172E+01  0.62206125919E+02  0.51100000000E-03 0.  1.
         23    2    1    0    0    0 -0.36949267538E+02  0.68166381292E+01  0.37599719892E+00  0.87425323676E+02  0.78938779563E+02 0.  0.
         11    1    3    3    0    0  0.24198783299E+02 -0.20815053689E+01 -0.67892678183E+01  0.25219197757E+02  0.51100000000E-03 0. -1.
         22    1    1    0    0    0  0.36949267538E+02 -0.68166381292E+01 -0.37599719892E+00  0.37574676324E+02  0.00000000000E+00 0.  1.
</event>
<event>
 5    1  0.8900327E-005  0.9118800E+02  0.7818608E-02  0.1130116E+00
         25   -1    0    0    0    0  0.00000000000E+00  0.00000000000E+00  0.99999998245E-14  0.12500000000E+03  0.12500000000E+03 0.  0.
        -11    1    3    3    0    0 -0.28783147923E+02 -0.23438961558E+02  0.18883705019E+02  0.41646714622E+02  0.51100000000E-03 0.  1.
         23    2    1    0    0    0  0.14149401748E+02  0.93201045903E+01  0.23702349234E+02  0.95864604368E+02  0.91329902508E+02 0.  0.
         11    1    3    3    0    0  0.42932549672E+02  0.32759066148E+02  0.48186442149E+01  0.54217889746E+02  0.51100000000E-03 0. -1.
         22    1    1    0    0    0 -0.14149401748E+02 -0.93201045903E+01 -0.23702349234E+02  0.29135395632E+02  0.00000000000E+00 0.  1.
</event>
<event>
 5    1  0.8900327E-005  0.9118800E+02  0.7818608E-02  0.1130116E+00
         25   -1    0    0    0    0  0.00000000000E+00  0.00000000000E+00  0.99999998245E-14  0.12500000000E+03  0.12500000000E+03 0.  0.
        -11    1    3    3    0    0  0.17467513532E+02  0.36287281009E+02 -0.20213214312E+01  0.40323275321E+02  0.51100000000E-03 0. -1.
         23    2    1    0    0    0  0.56577215301E+01 -0.95775708661E+01  0.26951338915E+02  0.95843279576E+02  0.91300711355E+02 0.  0.
         11    1    3    3    0    0 -0.11809792001E+02 -0.45864851875E+02  0.28972660346E+02  0.55520004255E+02  0.51100000000E-03 0.  1.
         22    1    1    0    0    0 -0.56577215301E+01  0.95775708661E+01 -0.26951338915E+02  0.29156720424E+02  0.00000000000E+00 0.  1.
</event>
<event>
 5    1  0.8900327E-005  0.9118800E+02  0.7818608E-02  0.1130116E+00
         25   -1    0    0    0    0  0.00000000000E+00  0.00000000000E+00  0.99999998245E-14  0.12500000000E+03  0.12500000000E+03 0.  0.
        -11    1    3    3    0    0  0.34477316380E+02 -0.34425506486E+02 -0.15266077986E+02  0.51057359694E+02  0.51100000000E-03 0. -1.
         23    2    1    0    0    0  0.83656899416E+01 -0.96827295172E+00 -0.28315373288E+02  0.95458796823E+02  0.90772788906E+02 0.  0.
         11    1    3    3    0    0 -0.26111626438E+02  0.33457233534E+02 -0.13049295302E+02  0.44401437129E+02  0.51100000000E-03 0.  1.
         22    1    1    0    0    0 -0.83656899416E+01  0.96827295172E+00  0.28315373288E+02  0.29541203177E+02  0.00000000000E+00 0. -1.
</event>
<event>
 5    1  0.8900327E-005  0.9118800E+02  0.7818608E-02  0.1130116E+00
         25   -1    0    0    0    0  0.00000000000E+00  0.00000000000E+00  0.99999998245E-14  0.12500000000E+03  0.12500000000E+03 0.  0.
        -11    1    3    3    0    0  0.25389228286E+02  0.21249185852E+01 -0.45732428712E+02  0.52350580017E+02  0.51100000000E-03 0. -1.
         23    2    1    0    0    0  0.27966803883E+02  0.10625800860E+02 -0.42395003268E+01  0.94783727457E+02  0.89838365214E+02 0.  0.
         11    1    3    3    0    0  0.25775755967E+01  0.85008822749E+01  0.41492928385E+02  0.42433147440E+02  0.51100000000E-03 0.  1.
         22    1    1    0    0    0 -0.27966803883E+02 -0.10625800860E+02  0.42395003268E+01  0.30216272543E+02  0.00000000000E+00 0. -1.
</event>
<event>
 5    1  0.8900327E-005  0.9118800E+02  0.7818608E-02  0.1130116E+00
         25   -1    0    0    0    0  0.00000000000E+00  0.00000000000E+00  0.99999998245E-14  0.12500000000E+03  0.12500000000E+03 0.  0.
        -11    1    3    3    0    0 -0.14803506507E+02 -0.47647910207E+02  0.54568474601E+00  0.49897544269E+02  0.51100000000E-03 0. -1.
         23    2    1    0    0    0 -0.74242483938E+00 -0.13390787628E+02 -0.26193312523E+02  0.95572903492E+02  0.90929785401E+02 0.  0.
         11    1    3    3    0    0  0.14061081667E+02  0.34257122578E+02 -0.26738997269E+02  0.45675359224E+02  0.51100000000E-03 0.  1.
         22    1    1    0    0    0  0.74242483938E+00  0.13390787628E+02  0.26193312523E+02  0.29427096508E+02  0.00000000000E+00 0.  1.
</event>
<event>
 5    1  0.8900327E-005  0.9118800E+02  0.7818608E-02  0.1130116E+00
         25   -1    0    0    0    0  0.00000000000E+00  0.00000000000E+00  0.99999998245E-14  0.12500000000E+03  0.12500000000E+03 0.  0.
        -11    1    3    3    0    0 -0.44672653350E+02  0.23200215145E+02  0.86645602668E+01  0.51078082824E+02  0.51100000000E-03 0. -1.
         23    2    1    0    0    0 -0.60543554314E+01  0.24692939382E+02 -0.14096065042E+02  0.95929473265E+02  0.91418643154E+02 0.  0.
         11    1    3    3    0    0  0.38618297918E+02  0.14927242368E+01 -0.22760625309E+02  0.44851390441E+02  0.51100000000E-03 0.  1.
         22    1    1    0    0    0  0.60543554314E+01 -0.24692939382E+02  0.14096065042E+02  0.29070526735E+02  0.00000000000E+00 0. -1.
</event>
<event>
 5    1  0.8900327E-005  0.9118800E+02  0.7818608E-02  0.1130116E+00
         25   -1    0    0    0    0  0.00000000000E+00  0.00000000000E+00  0.99999998245E-14  0.12500000000E+03  0.12500000000E+03 0.  0.
        -11    1    3    3    0    0  0.41508837993E+02 -0.48563637024E+00  0.41918504298E+02  0.58994749572E+02  0.51100000000E-03 0. -1.
         23    2    1    0    0    0  0.75034592611E+01  0.43945219872E+01  0.27333999989E+02  0.96316184359E+02  0.91945886747E+02 0.  0.
         11    1    3    3    0    0 -0.34005378732E+02  0.48801583574E+01 -0.14584504309E+02  0.37321434786E+02  0.51100000000E-03 0.  1.
         22    1    1    0    0    0 -0.75034592611E+01 -0.43945219872E+01 -0.27333999989E+02  0.28683815641E+02  0.00000000000E+00 0. -1.
</event>
<event>
 5    1  0.8900327E-005  0.9118800E+02  0.7818608E-02  0.1130116E+00
         25   -1    0    0    0    0  0.00000000000E+00  0.00000000000E+00  0.99999998245E-14  0.12500000000E+03  0.12500000000E+03 0.  0.
        -11    1    3    3    0    0 -0.17888034161E+02 -0.20119836973E+02 -0.23709530623E+02  0.35873826790E+02  0.51100000000E-03 0.  1.
         23    2    1    0    0    0  0.15618153931E+02  0.25059496050E+02 -0.57686013803E+01  0.94913760016E+02  0.90019109104E+02 0.  0.
         11    1    3    3    0    0  0.33506188092E+02  0.45179333023E+02  0.17940929243E+02  0.59039933225E+02  0.51100000000E-03 0. -1.
         22    1    1    0    0    0 -0.15618153931E+02 -0.25059496050E+02  0.57686013803E+01  0.30086239984E+02  0.00000000000E+00 0. -1.
</event>
<event>
 5    1  0.8900327E-005  0.9118800E+02  0.7818608E-02  0.1130116E+00
         25   -1    0    0    0    0  0.00000000000E+00  0.00000000000E+00  0.99999998245E-14  0.12500000000E+03  0.12500000000E+03 0.  0.
        -11    1    3    3    0    0 -0.20219693350E+02  0.35896458288E+02 -0.33164163926E+02  0.52889067736E+02  0.51100000000E-03 0.  1.
         23    2    1    0    0    0 -0.19380502106E+02 -0.55674226090E+01 -0.20483496137E+02  0.96256763049E+02  0.91865068238E+02 0.  0.
         11    1    3    3    0    0  0.83919124418E+00 -0.41463880897E+02  0.12680667789E+02  0.43367695314E+02  0.51100000000E-03 0. -1.
         22    1    1    0    0    0  0.19380502106E+02  0.55674226090E+01  0.20483496137E+02  0.28743236951E+02  0.00000000000E+00 0.  1.
</event>
<event>
 5    1  0.8900327E-005  0.9118800E+02  0.7818608E-02  0.1130116E+00
         25   -1    0    0    0    0  0.00000000000E+00  0.00000000000E+00  0.99999998245E-14  0.12500000000E+03  0.12500000000E+03 0.  0.
        -11    1    3    3    0    0 -0.32959106275E+02  0.10118011540E+02  0.52188016767E+01  0.34869940281E+02  0.51100000000E-03 0.  1.
         23    2    1    0    0    0  0.21146595233E+02 -0.40415191743E+01 -0.19440081621E+02  0.95992601967E+02  0.91504920588E+02 0.  0.
         11    1    3    3    0    0  0.54105701509E+02 -0.14159530715E+02 -0.24658883298E+02  0.61122661686E+02  0.51100000000E-03 0. -1.
         22    1    1    0    0    0 -0.21146595233E+02  0.40415191743E+01  0.19440081621E+02  0.29007398033E+02  0.00000000000E+00 0. -1.
</event>
<event>
 5    1  0.8900327E-005  0.9118800E+02  0.7818608E-02  0.1130116E+00
         25   -1    0    0    0    0  0.00000000000E+00  0.00000000000E+00  0.99999998245E-14  0.12500000000E+03  0.12500000000E+03 0.  0.
        -11    1    3    3    0    0 -0.21314958061E+02 -0.53167493799E+02 -0.18214901963E+02  0.60107341380E+02  0.51100000000E-03 0. -1.
         23    2    1    0    0    0 -0.32092064677E+01 -0.21917965055E+02 -0.18368245327E+02  0.96223470767E+02  0.91819756544E+02 0.  0.
         11    1    3    3    0    0  0.18105751593E+02  0.31249528744E+02 -0.15334336423E+00  0.36116129387E+02  0.51100000000E-03 0.  1.
         22    1    1    0    0    0  0.32092064677E+01  0.21917965055E+02  0.18368245327E+02  0.28776529233E+02  0.00000000000E+00 0. -1.
</event>
<event>
 5    1  0.8900327E-005  0.9118800E+02  0.7818608E-02  0.1130116E+00
         25   -1    0    0    0    0  0.00000000000E+00  0.00000000000E+00  0.99999998245E-14  0.12500000000E+03  0.12500000000E+03 0.  0.
        -11    1    3    3    0    0 -0.58212508270E+01  0.28622353236E+02 -0.30326556517E+02  0.42104941472E+02  0.51100000000E-03 0.  1.
         23    2    1    0    0    0 -0.25417398096E+02  0.32651648011E+01  0.13213854476E+02  0.96167529116E+02  0.91743568053E+02 0.  0.
         11    1    3    3    0    0 -0.19596147269E+02 -0.25357188435E+02  0.43540410992E+02  0.54062587644E+02  0.51100000000E-03 0. -1.
         22    1    1    0    0    0  0.25417398096E+02 -0.32651648011E+01 -0.13213854476E+02  0.28832470884E+02  0.00000000000E+00 0. -1.
</event>
<event>
 5    1  0.8900327E-005  0.9118800E+02  0.7818608E-02  0.1130116E+00
         25   -1    0    0    0    0  0.00000000000E+00  0.00000000000E+00  0.99999998245E-14  0.12500000000E+03  0.12500000000E+03 0.  0.
        -11    1    3    3    0    0  0.45134026722E+01 -0.54055114387E+02 -0.92654238028E+00  0.54251126036E+02  0.51100000000E-03 0.  1.
         23    2    1    0    0    0  0.83222233500E+01 -0.21821460509E+02 -0.21971651803E+02  0.92934613316E+02  0.87227594998E+02 0.  0.
         11    1    3    3    0    0  0.38088206778E+01  0.32233653878E+02 -0.21045109422E+02  0.38683487280E+02  0.51100000000E-03 0. -1.
         22    1    1    0    0    0 -0.83222233500E+01  0.21821460509E+02  0.21971651803E+02  0.32065386684E+02  0.00000000000E+00 0. -1.
</event>
<event>
 5    1  0.8900327E-005  0.9118800E+02  0.7818608E-02  0.1130116E+00
         25   -1    0    0    0    0  0.00000000000E+00  0.00000000000E+00  0.99999998245E-14  0.12500000000E+03  0.12500000000E+03 0.  0.
        -11    1    3    3    0    0 -0.21414993048E+02  0.16683495289E+02  0.50899702155E+02  0.57686398935E+02  0.51100000000E-03 0.  1.
         23    2    1    0    0    0 -0.12562617810E+02  0.23436664941E+02  0.16827759020E+02  0.93531442622E+02  0.88078718517E+02 0.  0.
         11    1    3    3    0    0  0.88523752381E+01  0.67531696512E+01 -0.34071943135E+02  0.35845043687E+02  0.51100000000E-03 0. -1.
         22    1    1    0    0    0  0.12562617810E+02 -0.23436664941E+02 -0.16827759020E+02  0.31468557378E+02  0.00000000000E+00 0.  1.
</event>
<event>
 5    1  0.8900327E-005  0.9118800E+02  0.7818608E-02  0.1130116E+00
         25   -1    0    0    0    0  0.00000000000E+00  0.00000000000E+00  0.99999998245E-14  0.12500000000E+03  0.12500000000E+03 0.  0.
        -11    1    3    3    0    0  0.19907095699E+02  0.38095265391E+02  0.20368956343E+02  0.47565072135E+02  0.51100000000E-03 0.  1.
         23    2    1    0    0    0  0.13772207134E+02 -0.99560316278E+01  0.23375919817E+02  0.96099656016E+02  0.91651044751E+02 0.  0.
         11    1    3    3    0    0 -0.61348885652E+01 -0.48051297019E+02  0.30069634741E+01  0.48534583881E+02  0.51100000000E-03 0. -1.
         22    1    1    0    0    0 -0.13772207134E+02  0.99560316278E+01 -0.23375919817E+02  0.28900343984E+02  0.00000000000E+00 0. -1.
</event>
<event>
 5    1  0.8900327E-005  0.9118800E+02  0.7818608E-02  0.1130116E+00
         25   -1    0    0    0    0  0.00000000000E+00  0.00000000000E+00  0.99999998245E-14  0.12500000000E+03  0.12500000000E+03 0.  0.
        -11    1    3    3    0    0 -0.15782317394E+00  0.63146858458E+01 -0.33591769780E+02  0.34180508520E+02  0.51100000000E-03 0.  1.
         23    2    1    0    0    0 -0.58704291792E+01 -0.24872105918E+02  0.17299127226E+02  0.94139938523E+02  0.88938094373E+02 0.  0.
         11    1    3    3    0    0 -0.57126060053E+01 -0.31186791764E+02  0.50890897006E+02  0.59959430003E+02  0.51100000000E-03 0. -1.
         22    1    1    0    0    0  0.58704291792E+01  0.24872105918E+02 -0.17299127226E+02  0.30860061477E+02  0.00000000000E+00 0. -1.
</event>
<event>
 5    1  0.8900327E-005  0.9118800E+02  0.7818608E-02  0.1130116E+00
         25   -1    0    0    0    0  0.00000000000E+00  0.00000000000E+00  0.99999998245E-14  0.12500000000E+03  0.12500000000E+03 0.  0.
        -11    1    3    3    0    0  0.67455909940E+01  0.21103324381E+02 -0.15234542392E+02  0.26887628753E+02  0.51100000000E-03 0.  1.
         23    2    1    0    0    0  0.43911541225E+02  0.86881977690E+01  0.16481451429E+02  0.77299408028E+02  0.60826408796E+02 0.  0.
         11    1    3    3    0    0  0.37165950231E+02 -0.12415126612E+02  0.31715993822E+02  0.50411779276E+02  0.51100000000E-03 0. -1.
         22    1    1    0    0    0 -0.43911541225E+02 -0.86881977690E+01 -0.16481451429E+02  0.47700591972E+02  0.00000000000E+00 0.  1.
</event>
<event>
 5    1  0.8900327E-005  0.9118800E+02  0.7818608E-02  0.1130116E+00
         25   -1    0    0    0    0  0.00000000000E+00  0.00000000000E+00  0.99999998245E-14  0.12500000000E+03  0.12500000000E+03 0.  0.
        -11    1    3    3    0    0 -0.21427531086E+02 -0.20386050461E+02  0.34998876304E+02  0.45821954178E+02  0.51100000000E-03 0.  1.
         23    2    1    0    0    0  0.20417423085E+02  0.49879710694E+01  0.17012392822E+02  0.97959797886E+02  0.94153860630E+02 0.  0.
         11    1    3    3    0    0  0.41844954172E+02  0.25374021530E+02 -0.17986483482E+02  0.52137843708E+02  0.51100000000E-03 0. -1.
         22    1    1    0    0    0 -0.20417423085E+02 -0.49879710694E+01 -0.17012392822E+02  0.27040202114E+02  0.00000000000E+00 0. -1.
</event>
<event>
 5    1  0.8900327E-005  0.9118800E+02  0.7818608E-02  0.1130116E+00
         25   -1    0    0    0    0  0.00000000000E+00  0.00000000000E+00  0.99999998245E-14  0.12500000000E+03  0.12500000000E+03 0.  0.
        -11    1    3    3    0    0 -0.36686150264E+02  0.18947749435E+02  0.16138586457E+02  0.44332209543E+02  0.51100000000E-03 0. -1.
         23    2    1    0    0    0  0.18562434101E+01 -0.46137739202E+01  0.32307204736E+02  0.92312264881E+02  0.86331142818E+02 0.  0.
         11    1    3    3    0    0  0.38542393674E+02 -0.23561523355E+02  0.16168618278E+02  0.47980055338E+02  0.51100000000E-03 0.  1.
         22    1    1    0    0    0 -0.18562434101E+01  0.46137739202E+01 -0.32307204736E+02  0.32687735119E+02  0.00000000000E+00 0.  1.
</event>
<event>
 5    1  0.8900327E-005  0.9118800E+02  0.7818608E-02  0.1130116E+00
         25   -1    0    0    0    0  0.00000000000E+00  0.00000000000E+00  0.99999998245E-14  0.12500000000E+03  0.12500000000E+03 0.  0.
        -11    1    3    3    0    0 -0.17811735048E+02  0.27758484170E+02 -0.38882395468E+01  0.33210085153E+02  0.51100000000E-03 0. -1.
         23    2    1    0    0    0 -0.13026514587E+02 -0.26315796809E+02  0.16642349733E+02  0.91248273398E+02  0.84776579015E+02 0.  0.
         11    1    3    3    0    0  0.47852204602E+01 -0.54074280980E+02  0.20530589279E+02  0.58038188245E+02  0.51100000000E-03 0.  1.
         22    1    1    0    0    0  0.13026514587E+02  0.26315796809E+02 -0.16642349733E+02  0.33751726602E+02  0.00000000000E+00 0.  1.
</event>
<event>
 5    1  0.8900327E-005  0.9118800E+02  0.7818608E-02  0.1130116E+00
         25   -1    0    0    0    0  0.00000000000E+00  0.00000000000E+00  0.99999998245E-14  0.12500000000E+03  0.12500000000E+03 0.  0.
        -11    1    3    3    0    0  0.34390571607E+02  0.18197821485E+02  0.98959135606E+01  0.40147244336E+02  0.51100000000E-03 0.  1.
         23    2    1    0    0    0 -0.11203148214E+02 -0.95048090041E+01  0.25358551310E+02  0.95692866932E+02  0.91094548317E+02 0.  0.
         11    1    3    3    0    0 -0.45593719821E+02 -0.27702630489E+02  0.15462637750E+02  0.55545622596E+02  0.51100000000E-03 0. -1.
         22    1    1    0    0    0  0.11203148214E+02  0.95048090041E+01 -0.25358551310E+02  0.29307133068E+02  0.00000000000E+00 0. -1.
</event>
<event>
 5    1  0.8900327E-005  0.9118800E+02  0.7818608E-02  0.1130116E+00
         25   -1    0    0    0    0  0.00000000000E+00  0.00000000000E+00  0.99999998245E-14  0.12500000000E+03  0.12500000000E+03 0.  0.
        -11    1    3    3    0    0  0.30243841339E+02 -0.47879560293E+02  0.63526187285E+01  0.56986823018E+02  0.51100000000E-03 0.  1.
         23    2    1    0    0    0 -0.19928061045E+01 -0.28283111241E+02  0.10107971265E+02  0.94898891371E+02  0.89998460224E+02 0.  0.
         11    1    3    3    0    0 -0.32236647443E+02  0.19596449052E+02  0.37553525363E+01  0.37912068353E+02  0.51100000000E-03 0. -1.
         22    1    1    0    0    0  0.19928061045E+01  0.28283111241E+02 -0.10107971265E+02  0.30101108629E+02  0.00000000000E+00 0.  1.
</event>
<event>
 5    1  0.8900327E-005  0.9118800E+02  0.7818608E-02  0.1130116E+00
         25   -1    0    0    0    0  0.00000000000E+00  0.00000000000E+00  0.99999998245E-14  0.12500000000E+03  0.12500000000E+03 0.  0.
        -11    1    3    3    0    0 -0.59502581644E+02  0.79329745664E+01 -0.14870883079E+02  0.61843613021E+02  0.51100000000E-03 0.  1.
         23    2    1    0    0    0 -0.28321567884E+02 -0.26326388764E+01 -0.75787281999E+01  0.95563982675E+02  0.90917521242E+02 0.  0.
         11    1    3    3    0    0  0.31181013760E+02 -0.10565613443E+02  0.72921548796E+01  0.33720369654E+02  0.51100000000E-03 0. -1.
         22    1    1    0    0    0  0.28321567884E+02  0.26326388764E+01  0.75787281999E+01  0.29436017325E+02  0.00000000000E+00 0.  1.
</event>
<event>
 5    1  0.8900327E-005  0.9118800E+02  0.7818608E-02  0.1130116E+00
         25   -1    0    0    0    0  0.00000000000E+00  0.00000000000E+00  0.99999998245E-14  0.12500000000E+03  0.12500000000E+03 0.  0.
        -11    1    3    3    0    0 -0.29739476681E+02  0.55106176847E+01  0.17714437025E+02  0.35051457315E+02  0.51100000000E-03 0.  1.
         23    2    1    0    0    0  0.98564065361E+01 -0.94911974219E+01 -0.25818053488E+02  0.95780084459E+02  0.91214149750E+02 0.  0.
         11    1    3    3    0    0  0.39595883217E+02 -0.15001815107E+02 -0.43532490513E+02  0.60728627144E+02  0.51100000000E-03 0. -1.
         22    1    1    0    0    0 -0.98564065361E+01  0.94911974219E+01  0.25818053488E+02  0.29219915541E+02  0.00000000000E+00 0. -1.
</event>
<event>
 5    1  0.8900327E-005  0.9118800E+02  0.7818608E-02  0.1130116E+00
         25   -1    0    0    0    0  0.00000000000E+00  0.00000000000E+00  0.99999998245E-14  0.12500000000E+03  0.12500000000E+03 0.  0.
        -11    1    3    3    0    0  0.16393122394E+02  0.19608420707E+02 -0.23091596422E+02  0.34444831979E+02  0.51100000000E-03 0.  1.
         23    2    1    0    0    0 -0.24590720013E+02 -0.14899021796E+02  0.63172148982E+01  0.95562072673E+02  0.90914895195E+02 0.  0.
         11    1    3    3    0    0 -0.40983842407E+02 -0.34507442503E+02  0.29408811320E+02  0.61117240694E+02  0.51100000000E-03 0. -1.
         22    1    1    0    0    0  0.24590720013E+02  0.14899021796E+02 -0.63172148982E+01  0.29437927327E+02  0.00000000000E+00 0. -1.
</event>
<event>
 5    1  0.8900327E-005  0.9118800E+02  0.7818608E-02  0.1130116E+00
         25   -1    0    0    0    0  0.00000000000E+00  0.00000000000E+00  0.99999998245E-14  0.12500000000E+03  0.12500000000E+03 0.  0.
        -11    1    3    3    0    0  0.86981306934E+01  0.55923428497E+02 -0.17511462498E+02  0.59243047284E+02  0.51100000000E-03 0. -1.
         23    2    1    0    0    0  0.34615562843E+01  0.27022981356E+02  0.62808153353E+01  0.97041592775E+02  0.92926843235E+02 0.  0.
         11    1    3    3    0    0 -0.52365744092E+01 -0.28900447141E+02  0.23792277833E+02  0.37798545491E+02  0.51100000000E-03 0.  1.
         22    1    1    0    0    0 -0.34615562843E+01 -0.27022981356E+02 -0.62808153353E+01  0.27958407225E+02  0.00000000000E+00 0. -1.
</event>
<event>
 5    1  0.8900327E-005  0.9118800E+02  0.7818608E-02  0.1130116E+00
         25   -1    0    0    0    0  0.00000000000E+00  0.00000000000E+00  0.99999998245E-14  0.12500000000E+03  0.12500000000E+03 0.  0.
        -11    1    3    3    0    0 -0.44986979486E+02 -0.10075885112E+02 -0.28490839218E+02  0.54194830968E+02  0.51100000000E-03 0. -1.
         23    2    1    0    0    0 -0.49780588693E+01 -0.18478254347E+02 -0.22417302955E+02  0.95525223909E+02  0.90864217255E+02 0.  0.
         11    1    3    3    0    0  0.40008920617E+02 -0.84023692351E+01  0.60735362629E+01  0.41330392941E+02  0.51100000000E-03 0.  1.
         22    1    1    0    0    0  0.49780588693E+01  0.18478254347E+02  0.22417302955E+02  0.29474776091E+02  0.00000000000E+00 0. -1.
</event>
<event>
 5    1  0.8900327E-005  0.9118800E+02  0.7818608E-02  0.1130116E+00
         25   -1    0    0    0    0  0.00000000000E+00  0.00000000000E+00  0.99999998245E-14  0.12500000000E+03  0.12500000000E+03 0.  0.
        -11    1    3    3    0    0  0.22804281810E+02  0.43638311062E+02 -0.93956917952E+01  0.50126006082E+02  0.51100000000E-03 0.  1.
         23    2    1    0    0    0  0.28718259166E+02 -0.14963083672E+01 -0.32363250733E+01  0.96061251786E+02  0.91598651444E+02 0.  0.
         11    1    3    3    0    0  0.59139773558E+01 -0.45134619429E+02  0.61593667219E+01  0.45935245703E+02  0.51100000000E-03 0. -1.
         22    1    1    0    0    0 -0.28718259166E+02  0.14963083672E+01  0.32363250733E+01  0.28938748214E+02  0.00000000000E+00 0.  1.
</event>
<event>
 5    1  0.8900327E-005  0.9118800E+02  0.7818608E-02  0.1130116E+00
         25   -1    0    0    0    0  0.00000000000E+00  0.00000000000E+00  0.99999998245E-14  0.12500000000E+03  0.12500000000E+03 0.  0.
        -11    1    3    3    0    0 -0.20568869045E+02 -0.23957837431E+02 -0.28907389018E+02  0.42809969496E+02  0.51100000000E-03 0.  1.
         23    2    1    0    0    0  0.24739430517E+02 -0.16988376804E+02 -0.47863238790E+01  0.94609980832E+02  0.89596290146E+02 0.  0.
         11    1    3    3    0    0  0.45308299562E+02  0.69694606267E+01  0.24121065139E+02  0.51800011336E+02  0.51100000000E-03 0. -1.
         22    1    1    0    0    0 -0.24739430517E+02  0.16988376804E+02  0.47863238790E+01  0.30390019168E+02  0.00000000000E+00 0. -1.
</event>
<event>
 5    1  0.8900327E-005  0.9118800E+02  0.7818608E-02  0.1130116E+00
         25   -1    0    0    0    0  0.00000000000E+00  0.00000000000E+00  0.99999998245E-14  0.12500000000E+03  0.12500000000E+03 0.  0.
        -11    1    3    3    0    0 -0.24420061074E+02  0.23128187105E+02 -0.48881195952E+02  0.59334844229E+02  0.51100000000E-03 0.  1.
         23    2    1    0    0    0 -0.16160282459E+02  0.24680066728E+02 -0.20137642579E+02  0.89281866350E+02  0.81825830808E+02 0.  0.
         11    1    3    3    0    0  0.82597786156E+01  0.15518796221E+01  0.28743553373E+02  0.29947022121E+02  0.51100000000E-03 0. -1.
         22    1    1    0    0    0  0.16160282459E+02 -0.24680066728E+02  0.20137642579E+02  0.35718133650E+02  0.00000000000E+00 0.  1.
</event>
<event>
 5    1  0.8900327E-005  0.9118800E+02  0.7818608E-02  0.1130116E+00
         25   -1    0    0    0    0  0.00000000000E+00  0.00000000000E+00  0.99999998245E-14  0.12500000000E+03  0.12500000000E+03 0.  0.
        -11    1    3    3    0    0  0.23354312404E+02  0.62301759931E+01  0.28403431370E+02  0.37296030816E+02  0.51100000000E-03 0. -1.
         23    2    1    0    0    0 -0.57730444157E+00 -0.26424447008E+02 -0.13294057886E+02  0.95414249119E+02  0.90711423094E+02 0.  0.
         11    1    3    3    0    0 -0.23931616846E+02 -0.32654623001E+02 -0.41697489256E+02  0.58118218303E+02  0.51100000000E-03 0.  1.
         22    1    1    0    0    0  0.57730444157E+00  0.26424447008E+02  0.13294057886E+02  0.29585750881E+02  0.00000000000E+00 0.  1.
</event>
<event>
 5    1  0.8900327E-005  0.9118800E+02  0.7818608E-02  0.1130116E+00
         25   -1    0    0    0    0  0.00000000000E+00  0.00000000000E+00  0.99999998245E-14  0.12500000000E+03  0.12500000000E+03 0.  0.
        -11    1    3    3    0    0 -0.38496135120E+02  0.16580330654E+02 -0.28085559856E+02  0.50454518692E+02  0.51100000000E-03 0.  1.
         23    2    1    0    0    0  0.43728142531E+01  0.22344075236E+02 -0.20487182588E+02  0.94371518924E+02  0.89262980742E+02 0.  0.
         11    1    3    3    0    0  0.42868949373E+02  0.57637445828E+01  0.75983772681E+01  0.43917000232E+02  0.51100000000E-03 0. -1.
         22    1    1    0    0    0 -0.43728142531E+01 -0.22344075236E+02  0.20487182588E+02  0.30628481076E+02  0.00000000000E+00 0.  1.
</event>
<event>
 5    1  0.8900327E-005  0.9118800E+02  0.7818608E-02  0.1130116E+00
         25   -1    0    0    0    0  0.00000000000E+00  0.00000000000E+00  0.99999998245E-14  0.12500000000E+03  0.12500000000E+03 0.  0.
        -11    1    3    3    0    0 -0.12618143779E+02  0.45054808740E+01  0.30237665675E+02  0.33073151287E+02  0.51100000000E-03 0. -1.
         23    2    1    0    0    0  0.17713483817E+02  0.56340767143E+01 -0.23649104899E+02  0.94920264432E+02  0.90028140644E+02 0.  0.
         11    1    3    3    0    0  0.30331627596E+02  0.11285958403E+01 -0.53886770573E+02  0.61847113144E+02  0.51100000000E-03 0.  1.
         22    1    1    0    0    0 -0.17713483817E+02 -0.56340767143E+01  0.23649104899E+02  0.30079735568E+02  0.00000000000E+00 0.  1.
</event>
<event>
 5    1  0.8900327E-005  0.9118800E+02  0.7818608E-02  0.1130116E+00
         25   -1    0    0    0    0  0.00000000000E+00  0.00000000000E+00  0.99999998245E-14  0.12500000000E+03  0.12500000000E+03 0.  0.
        -11    1    3    3    0    0  0.12231747831E+02  0.56373699677E+02  0.13823869849E+02  0.59318707404E+02  0.51100000000E-03 0.  1.
         23    2    1    0    0    0 -0.39011109580E+01  0.37349380800E+02  0.15622834090E+02  0.84327308205E+02  0.73870339455E+02 0.  0.
         11    1    3    3    0    0 -0.16132858789E+02 -0.19024318876E+02  0.17989642408E+01  0.25008600801E+02  0.51100000000E-03 0. -1.
         22    1    1    0    0    0  0.39011109580E+01 -0.37349380800E+02 -0.15622834090E+02  0.40672691795E+02  0.00000000000E+00 0.  1.
</event>
<event>
 5    1  0.8900327E-005  0.9118800E+02  0.7818608E-02  0.1130116E+00
         25   -1    0    0    0    0  0.00000000000E+00  0.00000000000E+00  0.99999998245E-14  0.12500000000E+03  0.12500000000E+03 0.  0.
        -11    1    3    3    0    0  0.29004813469E+02  0.49891397307E+02  0.99591933463E+01  0.58562925661E+02  0.51100000000E-03 0. -1.
         23    2    1    0    0    0  0.15733748829E+01  0.28842656024E+02 -0.39763733535E+01  0.95842053226E+02  0.91299032341E+02 0.  0.
         11    1    3    3    0    0 -0.27431438586E+02 -0.21048741283E+02 -0.13935566700E+02  0.37279127565E+02  0.51100000000E-03 0.  1.
         22    1    1    0    0    0 -0.15733748829E+01 -0.28842656024E+02  0.39763733535E+01  0.29157946774E+02  0.00000000000E+00 0. -1.
</event>
<event>
 5    1  0.8900327E-005  0.9118800E+02  0.7818608E-02  0.1130116E+00
         25   -1    0    0    0    0  0.00000000000E+00  0.00000000000E+00  0.99999998245E-14  0.12500000000E+03  0.12500000000E+03 0.  0.
        -11    1    3    3    0    0  0.41178987171E+02 -0.35735908668E+02 -0.85599571948E+00  0.54529779769E+02  0.51100000000E-03 0. -1.
         23    2    1    0    0    0  0.29519347796E+02  0.29449715177E+01 -0.40645658370E+01  0.95056963297E+02  0.90217741183E+02 0.  0.
         11    1    3    3    0    0 -0.11659639374E+02  0.38680880185E+02 -0.32085701175E+01  0.40527183528E+02  0.51100000000E-03 0.  1.
         22    1    1    0    0    0 -0.29519347796E+02 -0.29449715177E+01  0.40645658370E+01  0.29943036703E+02  0.00000000000E+00 0. -1.
</event>
<event>
 5    1  0.8900327E-005  0.9118800E+02  0.7818608E-02  0.1130116E+00
         25   -1    0    0    0    0  0.00000000000E+00  0.00000000000E+00  0.99999998245E-14  0.12500000000E+03  0.12500000000E+03 0.  0.
        -11    1    3    3    0    0  0.16139404359E+02  0.20585134356E+01  0.41193298911E+02  0.44290018357E+02  0.51100000000E-03 0. -1.
         23    2    1    0    0    0 -0.98013824387E+01 -0.24790433670E+02  0.22348807665E+01  0.98248787106E+02  0.94536748286E+02 0.  0.
         11    1    3    3    0    0 -0.25940786798E+02 -0.26848947105E+02 -0.38958418144E+02  0.53958768749E+02  0.51100000000E-03 0.  1.
         22    1    1    0    0    0  0.98013824387E+01  0.24790433670E+02 -0.22348807665E+01  0.26751212894E+02  0.00000000000E+00 0.  1.
</event>
<event>
 5    1  0.8900327E-005  0.9118800E+02  0.7818608E-02  0.1130116E+00
         25   -1    0    0    0    0  0.00000000000E+00  0.00000000000E+00  0.99999998245E-14  0.12500000000E+03  0.12500000000E+03 0.  0.
        -11    1    3    3    0    0  0.38191864997E+01 -0.42693090990E+02  0.33811133897E+01  0.42996722338E+02  0.51100000000E-03 0. -1.
         23    2    1    0    0    0 -0.24704483124E+02 -0.19446396027E+01 -0.15010188305E+02  0.96027618970E+02  0.91552742954E+02 0.  0.
         11    1    3    3    0    0 -0.28523669624E+02  0.40748451387E+02 -0.18391301695E+02  0.53030896632E+02  0.51100000000E-03 0.  1.
         22    1    1    0    0    0  0.24704483124E+02  0.19446396027E+01  0.15010188305E+02  0.28972381030E+02  0.00000000000E+00 0.  1.
</event>
<event>
 5    1  0.8900327E-005  0.9118800E+02  0.7818608E-02  0.1130116E+00
         25   -1    0    0    0    0  0.00000000000E+00  0.00000000000E+00  0.99999998245E-14  0.12500000000E+03  0.12500000000E+03 0.  0.
        -11    1    3    3    0    0  0.36629611661E+02 -0.24837398308E+02 -0.13221311432E+02  0.46189045036E+02  0.51100000000E-03 0. -1.
         23    2    1    0    0    0  0.27911591701E+02 -0.31278681164E+01 -0.36334586968E+02  0.79075684868E+02  0.64373295837E+02 0.  0.
         11    1    3    3    0    0 -0.87180199594E+01  0.21709530192E+02 -0.23113275536E+02  0.32886639832E+02  0.51100000000E-03 0.  1.
         22    1    1    0    0    0 -0.27911591701E+02  0.31278681164E+01  0.36334586968E+02  0.45924315132E+02  0.00000000000E+00 0. -1.
</event>
<event>
 5    1  0.8900327E-005  0.9118800E+02  0.7818608E-02  0.1130116E+00
         25   -1    0    0    0    0  0.00000000000E+00  0.00000000000E+00  0.99999998245E-14  0.12500000000E+03  0.12500000000E+03 0.  0.
        -11    1    3    3    0    0 -0.33474293982E+02  0.43661106851E+02 -0.87860340410E+01  0.55713687757E+02  0.51100000000E-03 0. -1.
         23    2    1    0    0    0 -0.20908362940E+02  0.12663879411E+02  0.14601300799E+02  0.96526653382E+02  0.92231574558E+02 0.  0.
         11    1    3    3    0    0  0.12565931042E+02 -0.30997227440E+02  0.23387334840E+02  0.40812965625E+02  0.51100000000E-03 0.  1.
         22    1    1    0    0    0  0.20908362940E+02 -0.12663879411E+02 -0.14601300799E+02  0.28473346618E+02  0.00000000000E+00 0. -1.
</event>
<event>
 5    1  0.8900327E-005  0.9118800E+02  0.7818608E-02  0.1130116E+00
         25   -1    0    0    0    0  0.00000000000E+00  0.00000000000E+00  0.99999998245E-14  0.12500000000E+03  0.12500000000E+03 0.  0.
        -11    1    3    3    0    0  0.28998352154E+02 -0.25998919994E+02  0.16125687526E+02  0.42153126420E+02  0.51100000000E-03 0. -1.
         23    2    1    0    0    0  0.13855690904E+02  0.17227099275E+02 -0.15663607187E+02  0.97905688605E+02  0.94081996956E+02 0.  0.
         11    1    3    3    0    0 -0.15142661250E+02  0.43226019269E+02 -0.31789294714E+02  0.55752562185E+02  0.51100000000E-03 0.  1.
         22    1    1    0    0    0 -0.13855690904E+02 -0.17227099275E+02  0.15663607187E+02  0.27094311395E+02  0.00000000000E+00 0.  1.
</event>
<event>
 4    1  0.8900327E-005  0.9118800E+02  0.7818608E-02  0.1130116E+00
         25   -1    0    0    0    0  0.00000000000E+00  0.00000000000E+00  0.99999998245E-14  0.12500000000E+03  0.12500000000E+03 0.  0.
        -11    1    1    0    0    0  0.14774037075E+02  0.12901378441E+02 -0.21897276123E+02  0.29397422319E+02  0.51100000000E-03 0. -1.
         11    1    1    0    0    0  0.33148858815E+02 -0.25694953463E+02  0.14913178290E+01  0.41967862745E+02  0.51100000000E-03 0.  1.
         22    1    1    0    0    0 -0.47922895890E+02  0.12793575023E+02  0.20405958294E+02  0.53634714936E+02  0.00000000000E+00 0.  1.
</event>
<event>
 5    1  0.8900327E-005  0.9118800E+02  0.7818608E-02  0.1130116E+00
         25   -1    0    0    0    0  0.00000000000E+00  0.00000000000E+00  0.99999998245E-14  0.12500000000E+03  0.12500000000E+03 0.  0.
        -11    1    3    3    0    0  0.44199438754E+02 -0.27659762390E+02 -0.10888227904E+02  0.53265432964E+02  0.51100000000E-03 0.  1.
         23    2    1    0    0    0  0.14689270099E+02 -0.16395073104E+02  0.18375962753E+02  0.96325114033E+02  0.91958025796E+02 0.  0.
         11    1    3    3    0    0 -0.29510168655E+02  0.11264689286E+02  0.29264190657E+02  0.43059681070E+02  0.51100000000E-03 0. -1.
         22    1    1    0    0    0 -0.14689270099E+02  0.16395073104E+02 -0.18375962753E+02  0.28674885967E+02  0.00000000000E+00 0.  1.
</event>
<event>
 5    1  0.8900327E-005  0.9118800E+02  0.7818608E-02  0.1130116E+00
         25   -1    0    0    0    0  0.00000000000E+00  0.00000000000E+00  0.99999998245E-14  0.12500000000E+03  0.12500000000E+03 0.  0.
        -11    1    3    3    0    0  0.30276720512E+02  0.39244198645E+02  0.36409418034E+02  0.61501484975E+02  0.51100000000E-03 0.  1.
         23    2    1    0    0    0  0.75037309320E+01  0.22538937259E+02  0.17613160044E+02  0.95427494571E+02  0.90729673441E+02 0.  0.
         11    1    3    3    0    0 -0.22772989580E+02 -0.16705261386E+02 -0.18796257990E+02  0.33926009596E+02  0.51100000000E-03 0. -1.
         22    1    1    0    0    0 -0.75037309320E+01 -0.22538937259E+02 -0.17613160044E+02  0.29572505429E+02  0.00000000000E+00 0.  1.
</event>
<event>
 5    1  0.8900327E-005  0.9118800E+02  0.7818608E-02  0.1130116E+00
         25   -1    0    0    0    0  0.00000000000E+00  0.00000000000E+00  0.99999998245E-14  0.12500000000E+03  0.12500000000E+03 0.  0.
        -11    1    3    3    0    0  0.35958472951E+02 -0.31890303379E+02 -0.38455677318E+02  0.61553572965E+02  0.51100000000E-03 0. -1.
         23    2    1    0    0    0  0.11887512638E+02 -0.20533307713E+02 -0.15927131144E+02  0.96423730320E+02  0.92091978913E+02 0.  0.
         11    1    3    3    0    0 -0.24070960313E+02  0.11356995666E+02  0.22528546175E+02  0.34870157355E+02  0.51100000000E-03 0.  1.
         22    1    1    0    0    0 -0.11887512638E+02  0.20533307713E+02  0.15927131144E+02  0.28576269680E+02  0.00000000000E+00 0. -1.
</event>
<event>
 5    1  0.8900327E-005  0.9118800E+02  0.7818608E-02  0.1130116E+00
         25   -1    0    0    0    0  0.00000000000E+00  0.00000000000E+00  0.99999998245E-14  0.12500000000E+03  0.12500000000E+03 0.  0.
        -11    1    3    3    0    0 -0.35624783622E+02  0.23372244466E+02  0.36665675170E+02  0.56211731476E+02  0.51100000000E-03 0.  1.
         23    2    1    0    0    0 -0.22730945460E+02  0.87613339918E+01 -0.30484221470E+01  0.10044903806E+03  0.97402564205E+02 0.  0.
         11    1    3    3    0    0  0.12893838162E+02 -0.14610910474E+02 -0.39714097317E+02  0.44237306580E+02  0.51100000000E-03 0. -1.
         22    1    1    0    0    0  0.22730945460E+02 -0.87613339918E+01  0.30484221470E+01  0.24550961945E+02  0.00000000000E+00 0.  1.
</event>
<event>
 5    1  0.8900327E-005  0.9118800E+02  0.7818608E-02  0.1130116E+00
         25   -1    0    0    0    0  0.00000000000E+00  0.00000000000E+00  0.99999998245E-14  0.12500000000E+03  0.12500000000E+03 0.  0.
        -11    1    3    3    0    0  0.66750253772E+01  0.29259542267E+02  0.15701435436E+02  0.33870515976E+02  0.51100000000E-03 0.  1.
         23    2    1    0    0    0 -0.14366485671E+02 -0.25675720935E+02 -0.25606538436E+01  0.95467043762E+02  0.90784144764E+02 0.  0.
         11    1    3    3    0    0 -0.21041511048E+02 -0.54935263202E+02 -0.18262089279E+02  0.61596527786E+02  0.51100000000E-03 0. -1.
         22    1    1    0    0    0  0.14366485671E+02  0.25675720935E+02  0.25606538436E+01  0.29532956238E+02  0.00000000000E+00 0. -1.
</event>
<event>
 5    1  0.8900327E-005  0.9118800E+02  0.7818608E-02  0.1130116E+00
         25   -1    0    0    0    0  0.00000000000E+00  0.00000000000E+00  0.99999998245E-14  0.12500000000E+03  0.12500000000E+03 0.  0.
        -11    1    3    3    0    0  0.50665681165E+02 -0.31819549685E+02 -0.10041534820E+02  0.60665702105E+02  0.51100000000E-03 0. -1.
         23    2    1    0    0    0  0.24853615459E+02 -0.88245752129E+01 -0.13435640073E+02  0.95401152840E+02  0.90693374675E+02 0.  0.
         11    1    3    3    0    0 -0.25812065706E+02  0.22994974472E+02 -0.33941052526E+01  0.34735450735E+02  0.51100000000E-03 0.  1.
         22    1    1    0    0    0 -0.24853615459E+02  0.88245752129E+01  0.13435640073E+02  0.29598847160E+02  0.00000000000E+00 0. -1.
</event>
<event>
 5    1  0.8900327E-005  0.9118800E+02  0.7818608E-02  0.1130116E+00
         25   -1    0    0    0    0  0.00000000000E+00  0.00000000000E+00  0.99999998245E-14  0.12500000000E+03  0.12500000000E+03 0.  0.
        -11    1    3    3    0    0 -0.29380510020E+02  0.18997642832E+02  0.33402866945E+02  0.48372268115E+02  0.51100000000E-03 0.  1.
         23    2    1    0    0    0  0.96396736851E+00 -0.16921638909E+02  0.22828028539E+02  0.96567800236E+02  0.92287323393E+02 0.  0.
         11    1    3    3    0    0  0.30344477388E+02 -0.35919281742E+02 -0.10574838407E+02  0.48195532121E+02  0.51100000000E-03 0. -1.
         22    1    1    0    0    0 -0.96396736851E+00  0.16921638909E+02 -0.22828028539E+02  0.28432199764E+02  0.00000000000E+00 0. -1.
</event>
<event>
 5    1  0.8900327E-005  0.9118800E+02  0.7818608E-02  0.1130116E+00
         25   -1    0    0    0    0  0.00000000000E+00  0.00000000000E+00  0.99999998245E-14  0.12500000000E+03  0.12500000000E+03 0.  0.
        -11    1    3    3    0    0  0.89731006377E+01 -0.75760657630E+01 -0.29854576249E+02  0.32081287861E+02  0.51100000000E-03 0. -1.
         23    2    1    0    0    0 -0.28563523926E+02  0.12622790128E+02  0.11739006588E+02  0.91638135464E+02  0.85349480760E+02 0.  0.
         11    1    3    3    0    0 -0.37536624563E+02  0.20198855891E+02  0.41593582838E+02  0.59556847603E+02  0.51100000000E-03 0.  1.
         22    1    1    0    0    0  0.28563523926E+02 -0.12622790128E+02 -0.11739006588E+02  0.33361864536E+02  0.00000000000E+00 0.  1.
</event>
<event>
 5    1  0.8900327E-005  0.9118800E+02  0.7818608E-02  0.1130116E+00
         25   -1    0    0    0    0  0.00000000000E+00  0.00000000000E+00  0.99999998245E-14  0.12500000000E+03  0.12500000000E+03 0.  0.
        -11    1    3    3    0    0 -0.56339927980E+01 -0.92814788711E+01 -0.42990024693E+02  0.44339936268E+02  0.51100000000E-03 0.  1.
         23    2    1    0    0    0  0.17862101084E+02  0.20617845577E+02 -0.66868642308E+01  0.96913270667E+02  0.92754070891E+02 0.  0.
         11    1    3    3    0    0  0.23496093882E+02  0.29899324448E+02  0.36303160462E+02  0.52573334400E+02  0.51100000000E-03 0. -1.
         22    1    1    0    0    0 -0.17862101084E+02 -0.20617845577E+02  0.66868642308E+01  0.28086729333E+02  0.00000000000E+00 0.  1.
</event>
<event>
 5    1  0.8900327E-005  0.9118800E+02  0.7818608E-02  0.1130116E+00
         25   -1    0    0    0    0  0.00000000000E+00  0.00000000000E+00  0.99999998245E-14  0.12500000000E+03  0.12500000000E+03 0.  0.
        -11    1    3    3    0    0 -0.12405566234E+02  0.31838315129E+02  0.26252335881E+02  0.43090155758E+02  0.51100000000E-03 0.  1.
         23    2    1    0    0    0 -0.72556059652E+01 -0.19682845210E+02  0.21300025434E+02  0.95104359900E+02  0.90283387038E+02 0.  0.
         11    1    3    3    0    0  0.51499602689E+01 -0.51521160339E+02 -0.49523104466E+01  0.52014204142E+02  0.51100000000E-03 0. -1.
         22    1    1    0    0    0  0.72556059652E+01  0.19682845210E+02 -0.21300025434E+02  0.29895640100E+02  0.00000000000E+00 0.  1.
</event>
<event>
 5    1  0.8900327E-005  0.9118800E+02  0.7818608E-02  0.1130116E+00
         25   -1    0    0    0    0  0.00000000000E+00  0.00000000000E+00  0.99999998245E-14  0.12500000000E+03  0.12500000000E+03 0.  0.
        -11    1    3    3    0    0 -0.27931761144E+02  0.21345903016E+02  0.24506825269E+02  0.42853416914E+02  0.51100000000E-03 0.  1.
         23    2    1    0    0    0  0.19832721755E+02  0.17666038877E+02 -0.32857759167E+01  0.98237673771E+02  0.94522052680E+02 0.  0.
         11    1    3    3    0    0  0.47764482899E+02 -0.36798641388E+01 -0.27792601186E+02  0.55384256857E+02  0.51100000000E-03 0. -1.
         22    1    1    0    0    0 -0.19832721755E+02 -0.17666038877E+02  0.32857759167E+01  0.26762326229E+02  0.00000000000E+00 0. -1.
</event>
<event>
 5    1  0.8900327E-005  0.9118800E+02  0.7818608E-02  0.1130116E+00
         25   -1    0    0    0    0  0.00000000000E+00  0.00000000000E+00  0.99999998245E-14  0.12500000000E+03  0.12500000000E+03 0.  0.
        -11    1    3    3    0    0  0.30283639427E+02 -0.66077123511E+01  0.29934617750E+02  0.43091089793E+02  0.51100000000E-03 0.  1.
         23    2    1    0    0    0 -0.14000829700E+02  0.18889080186E+02  0.17521982316E+02  0.95676963887E+02  0.91072723534E+02 0.  0.
         11    1    3    3    0    0 -0.44284469127E+02  0.25496792537E+02 -0.12412635434E+02  0.52585874094E+02  0.51100000000E-03 0. -1.
         22    1    1    0    0    0  0.14000829700E+02 -0.18889080186E+02 -0.17521982316E+02  0.29323036113E+02  0.00000000000E+00 0. -1.
</event>
<event>
 5    1  0.8900327E-005  0.9118800E+02  0.7818608E-02  0.1130116E+00
         25   -1    0    0    0    0  0.00000000000E+00  0.00000000000E+00  0.99999998245E-14  0.12500000000E+03  0.12500000000E+03 0.  0.
        -11    1    3    3    0    0  0.47848394673E+02  0.14405401607E+02 -0.18744995273E+02  0.53370022637E+02  0.51100000000E-03 0.  1.
         23    2    1    0    0    0  0.75626916324E+01  0.69831086116E+01 -0.27828456744E+02  0.95328783049E+02  0.90593574619E+02 0.  0.
         11    1    3    3    0    0 -0.40285703040E+02 -0.74222929951E+01 -0.90834614706E+01  0.41958760412E+02  0.51100000000E-03 0. -1.
         22    1    1    0    0    0 -0.75626916324E+01 -0.69831086116E+01  0.27828456744E+02  0.29671216951E+02  0.00000000000E+00 0.  1.
</event>
<event>
 5    1  0.8900327E-005  0.9118800E+02  0.7818608E-02  0.1130116E+00
         25   -1    0    0    0    0  0.00000000000E+00  0.00000000000E+00  0.99999998245E-14  0.12500000000E+03  0.12500000000E+03 0.  0.
        -11    1    3    3    0    0  0.40997407122E+02 -0.94509728303E+01  0.42809632591E+01  0.42289891521E+02  0.51100000000E-03 0.  1.
         23    2    1    0    0    0  0.25177819349E+01  0.28071982710E+02 -0.35091672589E+01  0.96597716747E+02  0.92327835384E+02 0.  0.
         11    1    3    3    0    0 -0.38479625187E+02  0.37522955541E+02 -0.77901305180E+01  0.54307825226E+02  0.51100000000E-03 0. -1.
         22    1    1    0    0    0 -0.25177819349E+01 -0.28071982710E+02  0.35091672589E+01  0.28402283253E+02  0.00000000000E+00 0. -1.
</event>
<event>
 5    1  0.8900327E-005  0.9118800E+02  0.7818608E-02  0.1130116E+00
         25   -1    0    0    0    0  0.00000000000E+00  0.00000000000E+00  0.99999998245E-14  0.12500000000E+03  0.12500000000E+03 0.  0.
        -11    1    3    3    0    0 -0.10556120607E+02 -0.99086339398E+01 -0.57534247724E+02  0.59327922349E+02  0.51100000000E-03 0. -1.
         23    2    1    0    0    0  0.85034312438E+01 -0.19720173643E+01 -0.30080542236E+02  0.93678502325E+02  0.88287176766E+02 0.  0.
         11    1    3    3    0    0  0.19059551850E+02  0.79366165754E+01  0.27453705488E+02  0.34350579976E+02  0.51100000000E-03 0.  1.
         22    1    1    0    0    0 -0.85034312438E+01  0.19720173643E+01  0.30080542236E+02  0.31321497675E+02  0.00000000000E+00 0. -1.
</event>
<event>
 5    1  0.8900327E-005  0.9118800E+02  0.7818608E-02  0.1130116E+00
         25   -1    0    0    0    0  0.00000000000E+00  0.00000000000E+00  0.99999998245E-14  0.12500000000E+03  0.12500000000E+03 0.  0.
        -11    1    3    3    0    0 -0.25880329015E+01 -0.35317876400E+02  0.35176167101E+01  0.35586850595E+02  0.51100000000E-03 0. -1.
         23    2    1    0    0    0 -0.36434126087E+01  0.21816091931E+02  0.20126446254E+02  0.95095315394E+02  0.90270863785E+02 0.  0.
         11    1    3    3    0    0 -0.10553797072E+01  0.57133968331E+02  0.16608829544E+02  0.59508464799E+02  0.51100000000E-03 0.  1.
         22    1    1    0    0    0  0.36434126087E+01 -0.21816091931E+02 -0.20126446254E+02  0.29904684606E+02  0.00000000000E+00 0.  1.
</event>
<event>
 5    1  0.8900327E-005  0.9118800E+02  0.7818608E-02  0.1130116E+00
         25   -1    0    0    0    0  0.00000000000E+00  0.00000000000E+00  0.99999998245E-14  0.12500000000E+03  0.12500000000E+03 0.  0.
        -11    1    3    3    0    0  0.17946679683E+02  0.48763280455E+02  0.29636176253E+01  0.52045401930E+02  0.51100000000E-03 0. -1.
         23    2    1    0    0    0 -0.10511460297E+01  0.18578034441E+02  0.24898354585E+02  0.93916622887E+02  0.88623674725E+02 0.  0.
         11    1    3    3    0    0 -0.18997825713E+02 -0.30185246013E+02  0.21934736960E+02  0.41871220957E+02  0.51100000000E-03 0.  1.
         22    1    1    0    0    0  0.10511460297E+01 -0.18578034441E+02 -0.24898354585E+02  0.31083377113E+02  0.00000000000E+00 0.  1.
</event>
<event>
 5    1  0.8900327E-005  0.9118800E+02  0.7818608E-02  0.1130116E+00
         25   -1    0    0    0    0  0.00000000000E+00  0.00000000000E+00  0.99999998245E-14  0.12500000000E+03  0.12500000000E+03 0.  0.
        -11    1    3    3    0    0 -0.16310733501E+02  0.11219973443E+02  0.48367045180E+02  0.52261830155E+02  0.51100000000E-03 0.  1.
         23    2    1    0    0    0 -0.22316897552E+02 -0.13685344962E+02  0.13453752360E+02  0.95566413137E+02  0.90920862755E+02 0.  0.
         11    1    3    3    0    0 -0.60061640505E+01 -0.24905318405E+02 -0.34913292820E+02  0.43304582982E+02  0.51100000000E-03 0. -1.
         22    1    1    0    0    0  0.22316897552E+02  0.13685344962E+02 -0.13453752360E+02  0.29433586863E+02  0.00000000000E+00 0.  1.
</event>
<event>
 5    1  0.8900327E-005  0.9118800E+02  0.7818608E-02  0.1130116E+00
         25   -1    0    0    0    0  0.00000000000E+00  0.00000000000E+00  0.99999998245E-14  0.12500000000E+03  0.12500000000E+03 0.  0.
        -11    1    3    3    0    0 -0.37494870348E+02  0.35994016905E+02 -0.25696371939E+02  0.57980497467E+02  0.51100000000E-03 0.  1.
         23    2    1    0    0    0 -0.94949504168E+01  0.10360569234E+02 -0.25432728347E+02  0.95942829638E+02  0.91436903980E+02 0.  0.
         11    1    3    3    0    0  0.27999919931E+02 -0.25633447671E+02  0.26364359222E+00  0.37962332171E+02  0.51100000000E-03 0. -1.
         22    1    1    0    0    0  0.94949504168E+01 -0.10360569234E+02  0.25432728347E+02  0.29057170362E+02  0.00000000000E+00 0.  1.
</event>
<event>
 5    1  0.8900327E-005  0.9118800E+02  0.7818608E-02  0.1130116E+00
         25   -1    0    0    0    0  0.00000000000E+00  0.00000000000E+00  0.99999998245E-14  0.12500000000E+03  0.12500000000E+03 0.  0.
        -11    1    3    3    0    0 -0.15542260639E+02  0.25067405461E+02 -0.24202136339E+02  0.38153375813E+02  0.51100000000E-03 0. -1.
         23    2    1    0    0    0  0.14311323991E+02 -0.22590815843E+02 -0.11949771424E+02  0.95709114184E+02  0.91116840079E+02 0.  0.
         11    1    3    3    0    0  0.29853584630E+02 -0.47658221304E+02  0.12252364914E+02  0.57555738370E+02  0.51100000000E-03 0.  1.
         22    1    1    0    0    0 -0.14311323991E+02  0.22590815843E+02  0.11949771424E+02  0.29290885816E+02  0.00000000000E+00 0.  1.
</event>
<event>
 5    1  0.8900327E-005  0.9118800E+02  0.7818608E-02  0.1130116E+00
         25   -1    0    0    0    0  0.00000000000E+00  0.00000000000E+00  0.99999998245E-14  0.12500000000E+03  0.12500000000E+03 0.  0.
        -11    1    3    3    0    0 -0.15996244087E+01 -0.33429974302E+02 -0.51082968569E+02  0.61070382823E+02  0.51100000000E-03 0.  1.
         23    2    1    0    0    0  0.65174632373E+01 -0.20538234956E+02 -0.20398427870E+02  0.95328594881E+02  0.90593314987E+02 0.  0.
         11    1    3    3    0    0  0.81170876459E+01  0.12891739346E+02  0.30684540699E+02  0.34258212058E+02  0.51100000000E-03 0. -1.
         22    1    1    0    0    0 -0.65174632373E+01  0.20538234956E+02  0.20398427870E+02  0.29671405119E+02  0.00000000000E+00 0.  1.
</event>
<event>
 5    1  0.8900327E-005  0.9118800E+02  0.7818608E-02  0.1130116E+00
         25   -1    0    0    0    0  0.00000000000E+00  0.00000000000E+00  0.99999998245E-14  0.12500000000E+03  0.12500000000E+03 0.  0.
        -11    1    3    3    0    0  0.13477606970E+02  0.21750556415E+02  0.33802945029E+02  0.42395420588E+02  0.51100000000E-03 0.  1.
         23    2    1    0    0    0 -0.26954290671E+02  0.57575216365E+01  0.51993877108E-01  0.97437606339E+02  0.93458020440E+02 0.  0.
         11    1    3    3    0    0 -0.40431897641E+02 -0.15993034778E+02 -0.33750951152E+02  0.55042185750E+02  0.51100000000E-03 0. -1.
         22    1    1    0    0    0  0.26954290671E+02 -0.57575216365E+01 -0.51993877108E-01  0.27562393661E+02  0.00000000000E+00 0. -1.
</event>
<event>
 5    1  0.8900327E-005  0.9118800E+02  0.7818608E-02  0.1130116E+00
         25   -1    0    0    0    0  0.00000000000E+00  0.00000000000E+00  0.99999998245E-14  0.12500000000E+03  0.12500000000E+03 0.  0.
        -11    1    3    3    0    0 -0.34208904839E+02 -0.10799743705E+02 -0.10031460262E+02  0.37249346701E+02  0.51100000000E-03 0.  1.
         23    2    1    0    0    0  0.91810530068E-02  0.19108466958E+02  0.24214344848E+02  0.94154123611E+02  0.88958028883E+02 0.  0.
         11    1    3    3    0    0  0.34218085892E+02  0.29908210664E+02  0.34245805110E+02  0.56904776910E+02  0.51100000000E-03 0. -1.
         22    1    1    0    0    0 -0.91810530068E-02 -0.19108466958E+02 -0.24214344848E+02  0.30845876389E+02  0.00000000000E+00 0. -1.
</event>
<event>
 5    1  0.8900327E-005  0.9118800E+02  0.7818608E-02  0.1130116E+00
         25   -1    0    0    0    0  0.00000000000E+00  0.00000000000E+00  0.99999998245E-14  0.12500000000E+03  0.12500000000E+03 0.  0.
        -11    1    3    3    0    0  0.23759995100E+02  0.70633937991E+01 -0.53530334911E+02  0.58990894679E+02  0.51100000000E-03 0. -1.
         23    2    1    0    0    0  0.10601494148E+01 -0.73601152568E+01 -0.27840708446E+02  0.96183333640E+02  0.91765099084E+02 0.  0.
         11    1    3    3    0    0 -0.22699845686E+02 -0.14423509056E+02  0.25689626465E+02  0.37192438960E+02  0.51100000000E-03 0.  1.
         22    1    1    0    0    0 -0.10601494148E+01  0.73601152568E+01  0.27840708446E+02  0.28816666360E+02  0.00000000000E+00 0. -1.
</event>
<event>
 5    1  0.8900327E-005  0.9118800E+02  0.7818608E-02  0.1130116E+00
         25   -1    0    0    0    0  0.00000000000E+00  0.00000000000E+00  0.99999998245E-14  0.12500000000E+03  0.12500000000E+03 0.  0.
        -11    1    3    3    0    0  0.35653390496E+02  0.33801299859E+02 -0.10491999432E+02  0.50237179244E+02  0.51100000000E-03 0.  1.
         23    2    1    0    0    0  0.46411620263E-01  0.27037657631E+02  0.14555100189E+02  0.94293518181E+02  0.89153684979E+02 0.  0.
         11    1    3    3    0    0 -0.35606978876E+02 -0.67636422289E+01  0.25047099621E+02  0.44056338937E+02  0.51100000000E-03 0. -1.
         22    1    1    0    0    0 -0.46411620263E-01 -0.27037657631E+02 -0.14555100189E+02  0.30706481819E+02  0.00000000000E+00 0. -1.
</event>
<event>
 5    1  0.8900327E-005  0.9118800E+02  0.7818608E-02  0.1130116E+00
         25   -1    0    0    0    0  0.00000000000E+00  0.00000000000E+00  0.99999998245E-14  0.12500000000E+03  0.12500000000E+03 0.  0.
        -11    1    3    3    0    0 -0.19658910710E+02 -0.33498599977E+02 -0.25507853543E+01  0.38924741193E+02  0.51100000000E-03 0. -1.
         23    2    1    0    0    0 -0.16859232521E+02  0.23428149574E+02 -0.34757668613E+01  0.95927799036E+02  0.91416353892E+02 0.  0.
         11    1    3    3    0    0  0.27996781892E+01  0.56926749551E+02 -0.92498150701E+00  0.57003057843E+02  0.51100000000E-03 0.  1.
         22    1    1    0    0    0  0.16859232521E+02 -0.23428149574E+02  0.34757668613E+01  0.29072200964E+02  0.00000000000E+00 0.  1.
</event>
<event>
 5    1  0.8900327E-005  0.9118800E+02  0.7818608E-02  0.1130116E+00
         25   -1    0    0    0    0  0.00000000000E+00  0.00000000000E+00  0.99999998245E-14  0.12500000000E+03  0.12500000000E+03 0.  0.
        -11    1    3    3    0    0  0.27974460843E+02 -0.13790905436E+02  0.12433741593E+02  0.33576144247E+02  0.51100000000E-03 0.  1.
         23    2    1    0    0    0 -0.17541632566E+02  0.85101050368E+01 -0.22570593469E+02  0.95174466470E+02  0.90380399520E+02 0.  0.
         11    1    3    3    0    0 -0.45516093409E+02  0.22301010473E+02 -0.35004335062E+02  0.61598322223E+02  0.51100000000E-03 0. -1.
         22    1    1    0    0    0  0.17541632566E+02 -0.85101050368E+01  0.22570593469E+02  0.29825533530E+02  0.00000000000E+00 0. -1.
</event>
<event>
 5    1  0.8900327E-005  0.9118800E+02  0.7818608E-02  0.1130116E+00
         25   -1    0    0    0    0  0.00000000000E+00  0.00000000000E+00  0.99999998245E-14  0.12500000000E+03  0.12500000000E+03 0.  0.
        -11    1    3    3    0    0 -0.15892759550E+02  0.20795151794E+02  0.47305876407E+02  0.54063519004E+02  0.51100000000E-03 0.  1.
         23    2    1    0    0    0  0.15493108271E+02  0.72537124315E+01  0.24359355897E+02  0.95233727683E+02  0.90462323211E+02 0.  0.
         11    1    3    3    0    0  0.31385867821E+02 -0.13541439362E+02 -0.22946520510E+02  0.41170208679E+02  0.51100000000E-03 0. -1.
         22    1    1    0    0    0 -0.15493108271E+02 -0.72537124315E+01 -0.24359355897E+02  0.29766272317E+02  0.00000000000E+00 0.  1.
</event>
<event>
 5    1  0.8900327E-005  0.9118800E+02  0.7818608E-02  0.1130116E+00
         25   -1    0    0    0    0  0.00000000000E+00  0.00000000000E+00  0.99999998245E-14  0.12500000000E+03  0.12500000000E+03 0.  0.
        -11    1    3    3    0    0  0.29910199698E+02  0.49475618248E+02 -0.63946993688E+01  0.58166562794E+02  0.51100000000E-03 0. -1.
         23    2    1    0    0    0 -0.50893754655E+00  0.30600857037E+02 -0.92698036633E+00  0.94380875887E+02  0.89276082865E+02 0.  0.
         11    1    3    3    0    0 -0.30419137244E+02 -0.18874761211E+02  0.54677190025E+01  0.36214313093E+02  0.51100000000E-03 0.  1.
         22    1    1    0    0    0  0.50893754655E+00 -0.30600857037E+02  0.92698036633E+00  0.30619124113E+02  0.00000000000E+00 0. -1.
</event>
<event>
 5    1  0.8900327E-005  0.9118800E+02  0.7818608E-02  0.1130116E+00
         25   -1    0    0    0    0  0.00000000000E+00  0.00000000000E+00  0.99999998245E-14  0.12500000000E+03  0.12500000000E+03 0.  0.
        -11    1    3    3    0    0 -0.73895771456E+01 -0.28076449780E+02 -0.17801185155E+02  0.34055470571E+02  0.51100000000E-03 0. -1.
         23    2    1    0    0    0 -0.21760726582E+01  0.17595689652E+02  0.23301444092E+02  0.95720299125E+02  0.91132183016E+02 0.  0.
         11    1    3    3    0    0  0.52135044874E+01  0.45672139432E+02  0.41102629247E+02  0.61664828554E+02  0.51100000000E-03 0.  1.
         22    1    1    0    0    0  0.21760726582E+01 -0.17595689652E+02 -0.23301444092E+02  0.29279700875E+02  0.00000000000E+00 0.  1.
</event>
<event>
 5    1  0.8900327E-005  0.9118800E+02  0.7818608E-02  0.1130116E+00
         25   -1    0    0    0    0  0.00000000000E+00  0.00000000000E+00  0.99999998245E-14  0.12500000000E+03  0.12500000000E+03 0.  0.
        -11    1    3    3    0    0 -0.23099259580E+02  0.23081195236E+01  0.49119961003E+02  0.54329308647E+02  0.51100000000E-03 0. -1.
         23    2    1    0    0    0 -0.14498353107E+02  0.21329979643E+02  0.12833011554E+02  0.96192770700E+02  0.91777953099E+02 0.  0.
         11    1    3    3    0    0  0.86009064734E+01  0.19021860120E+02 -0.36286949448E+02  0.41863462053E+02  0.51100000000E-03 0.  1.
         22    1    1    0    0    0  0.14498353107E+02 -0.21329979643E+02 -0.12833011554E+02  0.28807229300E+02  0.00000000000E+00 0. -1.
</event>
<event>
 5    1  0.8900327E-005  0.9118800E+02  0.7818608E-02  0.1130116E+00
         25   -1    0    0    0    0  0.00000000000E+00  0.00000000000E+00  0.99999998245E-14  0.12500000000E+03  0.12500000000E+03 0.  0.
        -11    1    3    3    0    0  0.35207061473E+02  0.10533626207E+02  0.18581201474E+02  0.41179552051E+02  0.51100000000E-03 0.  1.
         23    2    1    0    0    0  0.25217765085E+01  0.14803252191E+02 -0.25008457109E+02  0.95829491620E+02  0.91281832283E+02 0.  0.
         11    1    3    3    0    0 -0.32685284965E+02  0.42696259842E+01 -0.43589658583E+02  0.54649939569E+02  0.51100000000E-03 0. -1.
         22    1    1    0    0    0 -0.25217765085E+01 -0.14803252191E+02  0.25008457109E+02  0.29170508380E+02  0.00000000000E+00 0. -1.
</event>
<event>
 5    1  0.8900327E-005  0.9118800E+02  0.7818608E-02  0.1130116E+00
         25   -1    0    0    0    0  0.00000000000E+00  0.00000000000E+00  0.99999998245E-14  0.12500000000E+03  0.12500000000E+03 0.  0.
        -11    1    3    3    0    0  0.54464080593E+01  0.47864868830E+02  0.24180994419E+02  0.53902036327E+02  0.51100000000E-03 0.  1.
         23    2    1    0    0    0  0.64457336030E-01  0.27054032139E+02 -0.11536450586E+02  0.95588871123E+02  0.90951733247E+02 0.  0.
         11    1    3    3    0    0 -0.53819507232E+01 -0.20810836691E+02 -0.35717445005E+02  0.41686834796E+02  0.51100000000E-03 0. -1.
         22    1    1    0    0    0 -0.64457336030E-01 -0.27054032139E+02  0.11536450586E+02  0.29411128877E+02  0.00000000000E+00 0.  1.
</event>
<event>
 5    1  0.8900327E-005  0.9118800E+02  0.7818608E-02  0.1130116E+00
         25   -1    0    0    0    0  0.00000000000E+00  0.00000000000E+00  0.99999998245E-14  0.12500000000E+03  0.12500000000E+03 0.  0.
        -11    1    3    3    0    0 -0.15167336227E+02  0.54070773006E+02 -0.17230760979E+02  0.58741771388E+02  0.51100000000E-03 0.  1.
         23    2    1    0    0    0  0.80309981636E+01  0.27761463429E+02 -0.74893455271E+01  0.95145585257E+02  0.90340446724E+02 0.  0.
         11    1    3    3    0    0  0.23198334391E+02 -0.26309309577E+02  0.97414154524E+01  0.36403813869E+02  0.51100000000E-03 0. -1.
         22    1    1    0    0    0 -0.80309981636E+01 -0.27761463429E+02  0.74893455271E+01  0.29854414743E+02  0.00000000000E+00 0.  1.
</event>
<event>
 5    1  0.8900327E-005  0.9118800E+02  0.7818608E-02  0.1130116E+00
         25   -1    0    0    0    0  0.00000000000E+00  0.00000000000E+00  0.99999998245E-14  0.12500000000E+03  0.12500000000E+03 0.  0.
        -11    1    3    3    0    0  0.16514426953E+02  0.56432724677E+02  0.61328613329E+01  0.59118446363E+02  0.51100000000E-03 0. -1.
         23    2    1    0    0    0  0.15995868492E+02  0.19695138352E+02  0.12992193470E+02  0.96494502729E+02  0.92187990987E+02 0.  0.
         11    1    3    3    0    0 -0.51855846091E+00 -0.36737586324E+02  0.68593321369E+01  0.37376056366E+02  0.51100000000E-03 0.  1.
         22    1    1    0    0    0 -0.15995868492E+02 -0.19695138352E+02 -0.12992193470E+02  0.28505497271E+02  0.00000000000E+00 0. -1.
</event>
<event>
 5    1  0.8900327E-005  0.9118800E+02  0.7818608E-02  0.1130116E+00
         25   -1    0    0    0    0  0.00000000000E+00  0.00000000000E+00  0.99999998245E-14  0.12500000000E+03  0.12500000000E+03 0.  0.
        -11    1    3    3    0    0  0.18569067325E+02 -0.10593622164E+02  0.26497066215E+02  0.34045992571E+02  0.51100000000E-03 0.  1.
         23    2    1    0    0    0 -0.27109711513E+01  0.13696074177E+02 -0.25889313268E+02  0.95585915722E+02  0.90947671385E+02 0.  0.
         11    1    3    3    0    0 -0.21280038476E+02  0.24289696342E+02 -0.52386379482E+02  0.61539923151E+02  0.51100000000E-03 0. -1.
         22    1    1    0    0    0  0.27109711513E+01 -0.13696074177E+02  0.25889313268E+02  0.29414084278E+02  0.00000000000E+00 0. -1.
</event>
<event>
 5    1  0.8900327E-005  0.9118800E+02  0.7818608E-02  0.1130116E+00
         25   -1    0    0    0    0  0.00000000000E+00  0.00000000000E+00  0.99999998245E-14  0.12500000000E+03  0.12500000000E+03 0.  0.
        -11    1    3    3    0    0  0.89743745102E+01  0.39084197730E+02  0.19855294079E+02  0.44747587793E+02  0.51100000000E-03 0. -1.
         23    2    1    0    0    0 -0.26429224709E+02  0.90019193952E+01 -0.36993419537E+01  0.96835774422E+02  0.92649574233E+02 0.  0.
         11    1    3    3    0    0 -0.35403599219E+02 -0.30082278335E+02 -0.23554636033E+02  0.52088186630E+02  0.51100000000E-03 0.  1.
         22    1    1    0    0    0  0.26429224709E+02 -0.90019193952E+01  0.36993419537E+01  0.28164225578E+02  0.00000000000E+00 0.  1.
</event>
<event>
 5    1  0.8900327E-005  0.9118800E+02  0.7818608E-02  0.1130116E+00
         25   -1    0    0    0    0  0.00000000000E+00  0.00000000000E+00  0.99999998245E-14  0.12500000000E+03  0.12500000000E+03 0.  0.
        -11    1    3    3    0    0 -0.92945254807E+01 -0.26419243128E+02  0.33365387100E+02  0.43561607730E+02  0.51100000000E-03 0. -1.
         23    2    1    0    0    0  0.19975885928E+02  0.10194644268E+02  0.25411507171E+02  0.91107353496E+02  0.84568542461E+02 0.  0.
         11    1    3    3    0    0  0.29270411408E+02  0.36613887396E+02 -0.79538799293E+01  0.47545745766E+02  0.51100000000E-03 0.  1.
         22    1    1    0    0    0 -0.19975885928E+02 -0.10194644268E+02 -0.25411507171E+02  0.33892646504E+02  0.00000000000E+00 0.  1.
</event>
<event>
 5    1  0.8900327E-005  0.9118800E+02  0.7818608E-02  0.1130116E+00
         25   -1    0    0    0    0  0.00000000000E+00  0.00000000000E+00  0.99999998245E-14  0.12500000000E+03  0.12500000000E+03 0.  0.
        -11    1    3    3    0    0  0.14683376955E+02 -0.10473377193E+02  0.34118300145E+02  0.38592118284E+02  0.51100000000E-03 0.  1.
         23    2    1    0    0    0 -0.26592708206E+02 -0.40703479793E+01 -0.69970139516E+01  0.97202552875E+02  0.93143106126E+02 0.  0.
         11    1    3    3    0    0 -0.41276085162E+02  0.64030292136E+01 -0.41115314096E+02  0.58610434591E+02  0.51100000000E-03 0. -1.
         22    1    1    0    0    0  0.26592708206E+02  0.40703479793E+01  0.69970139516E+01  0.27797447125E+02  0.00000000000E+00 0. -1.
</event>
<event>
 5    1  0.8900327E-005  0.9118800E+02  0.7818608E-02  0.1130116E+00
         25   -1    0    0    0    0  0.00000000000E+00  0.00000000000E+00  0.99999998245E-14  0.12500000000E+03  0.12500000000E+03 0.  0.
        -11    1    3    3    0    0 -0.38286062974E+02  0.10084992427E+02  0.26318206055E+02  0.47541325818E+02  0.51100000000E-03 0.  1.
         23    2    1    0    0    0  0.70292183893E+01  0.23074347861E+02  0.16724711980E+02  0.95647803640E+02  0.91032691435E+02 0.  0.
         11    1    3    3    0    0  0.45315281363E+02  0.12989355433E+02 -0.95934940751E+01  0.48106477822E+02  0.51100000000E-03 0. -1.
         22    1    1    0    0    0 -0.70292183893E+01 -0.23074347861E+02 -0.16724711980E+02  0.29352196360E+02  0.00000000000E+00 0. -1.
</event>
<event>
 5    1  0.8900327E-005  0.9118800E+02  0.7818608E-02  0.1130116E+00
         25   -1    0    0    0    0  0.00000000000E+00  0.00000000000E+00  0.99999998245E-14  0.12500000000E+03  0.12500000000E+03 0.  0.
        -11    1    3    3    0    0  0.27294161402E+02 -0.80939422494E+01 -0.55585562411E+02  0.62451884651E+02  0.51100000000E-03 0.  1.
         23    2    1    0    0    0  0.14134291020E+02 -0.40914332678E+01 -0.24941660668E+02  0.96041332114E+02  0.91571464051E+02 0.  0.
         11    1    3    3    0    0 -0.13159870381E+02  0.40025089817E+01  0.30643901742E+02  0.33589447463E+02  0.51100000000E-03 0. -1.
         22    1    1    0    0    0 -0.14134291020E+02  0.40914332678E+01  0.24941660668E+02  0.28958667886E+02  0.00000000000E+00 0.  1.
</event>
<event>
 5    1  0.8900327E-005  0.9118800E+02  0.7818608E-02  0.1130116E+00
         25   -1    0    0    0    0  0.00000000000E+00  0.00000000000E+00  0.99999998245E-14  0.12500000000E+03  0.12500000000E+03 0.  0.
        -11    1    3    3    0    0  0.25343078834E+02  0.47603634343E+02 -0.16259024024E+02  0.56327022910E+02  0.51100000000E-03 0.  1.
         23    2    1    0    0    0  0.13886912308E+02  0.11593303569E+02 -0.24045397265E+02  0.94909600356E+02  0.90013332841E+02 0.  0.
         11    1    3    3    0    0 -0.11456166526E+02 -0.36010330774E+02 -0.77863732409E+01  0.38582577446E+02  0.51100000000E-03 0. -1.
         22    1    1    0    0    0 -0.13886912308E+02 -0.11593303569E+02  0.24045397265E+02  0.30090399644E+02  0.00000000000E+00 0.  1.
</event>
<event>
 5    1  0.8900327E-005  0.9118800E+02  0.7818608E-02  0.1130116E+00
         25   -1    0    0    0    0  0.00000000000E+00  0.00000000000E+00  0.99999998245E-14  0.12500000000E+03  0.12500000000E+03 0.  0.
        -11    1    3    3    0    0  0.41795700202E+02  0.20590071001E+02  0.18495446283E+02  0.50128964807E+02  0.51100000000E-03 0.  1.
         23    2    1    0    0    0 -0.33687471406E+01  0.26289699018E+02  0.11172224125E+02  0.96236910394E+02  0.91838050930E+02 0.  0.
         11    1    3    3    0    0 -0.45164447342E+02  0.56996280176E+01 -0.73232221578E+01  0.46107945588E+02  0.51100000000E-03 0. -1.
         22    1    1    0    0    0  0.33687471406E+01 -0.26289699018E+02 -0.11172224125E+02  0.28763089606E+02  0.00000000000E+00 0.  1.
</event>
<event>
 5    1  0.8900327E-005  0.9118800E+02  0.7818608E-02  0.1130116E+00
         25   -1    0    0    0    0  0.00000000000E+00  0.00000000000E+00  0.99999998245E-14  0.12500000000E+03  0.12500000000E+03 0.  0.
        -11    1    3    3    0    0  0.36097699400E+01  0.21271845230E+02 -0.26776277317E+02  0.34387364914E+02  0.51100000000E-03 0. -1.
         23    2    1    0    0    0 -0.19337714329E+02 -0.96398680816E+01  0.20403883191E+02  0.95281441802E+02  0.90528230130E+02 0.  0.
         11    1    3    3    0    0 -0.22947484269E+02 -0.30911713312E+02  0.47180160508E+02  0.60894076888E+02  0.51100000000E-03 0.  1.
         22    1    1    0    0    0  0.19337714329E+02  0.96398680816E+01 -0.20403883191E+02  0.29718558198E+02  0.00000000000E+00 0.  1.
</event>
<event>
 5    1  0.8900327E-005  0.9118800E+02  0.7818608E-02  0.1130116E+00
         25   -1    0    0    0    0  0.00000000000E+00  0.00000000000E+00  0.99999998245E-14  0.12500000000E+03  0.12500000000E+03 0.  0.
        -11    1    3    3    0    0 -0.26331857980E+02  0.17202934135E+02  0.15213883954E+02  0.34939518496E+02  0.51100000000E-03 0.  1.
         23    2    1    0    0    0  0.26786329842E+02 -0.10857560631E+01 -0.98285595949E+01  0.96446770474E+02  0.92123246895E+02 0.  0.
         11    1    3    3    0    0  0.53118187822E+02 -0.18288690198E+02 -0.25042443549E+02  0.61507251978E+02  0.51100000000E-03 0. -1.
         22    1    1    0    0    0 -0.26786329842E+02  0.10857560631E+01  0.98285595949E+01  0.28553229526E+02  0.00000000000E+00 0. -1.
</event>
<event>
 5    1  0.8900327E-005  0.9118800E+02  0.7818608E-02  0.1130116E+00
         25   -1    0    0    0    0  0.00000000000E+00  0.00000000000E+00  0.99999998245E-14  0.12500000000E+03  0.12500000000E+03 0.  0.
        -11    1    3    3    0    0  0.28645676539E+02  0.46505580983E+02  0.17574222164E+02  0.57377671021E+02  0.51100000000E-03 0.  1.
         23    2    1    0    0    0  0.19365784209E+02  0.77400390244E+01  0.18313384775E+02  0.97245327168E+02  0.93200492444E+02 0.  0.
         11    1    3    3    0    0 -0.92798923300E+01 -0.38765541958E+02  0.73916261107E+00  0.39867656146E+02  0.51100000000E-03 0. -1.
         22    1    1    0    0    0 -0.19365784209E+02 -0.77400390244E+01 -0.18313384775E+02  0.27754672832E+02  0.00000000000E+00 0.  1.
</event>
<event>
 5    1  0.8900327E-005  0.9118800E+02  0.7818608E-02  0.1130116E+00
         25   -1    0    0    0    0  0.00000000000E+00  0.00000000000E+00  0.99999998245E-14  0.12500000000E+03  0.12500000000E+03 0.  0.
        -11    1    3    3    0    0  0.56739314608E+02 -0.48054477652E+01 -0.25631315150E+02  0.62445227736E+02  0.51100000000E-03 0. -1.
         23    2    1    0    0    0  0.26713730343E+02 -0.25784041226E+01 -0.14078039347E+02  0.94693849658E+02  0.89713223187E+02 0.  0.
         11    1    3    3    0    0 -0.30025584265E+02  0.22270436425E+01  0.11553275802E+02  0.32248621922E+02  0.51100000000E-03 0.  1.
         22    1    1    0    0    0 -0.26713730343E+02  0.25784041226E+01  0.14078039347E+02  0.30306150342E+02  0.00000000000E+00 0. -1.
</event>
<event>
 5    1  0.8900327E-005  0.9118800E+02  0.7818608E-02  0.1130116E+00
         25   -1    0    0    0    0  0.00000000000E+00  0.00000000000E+00  0.99999998245E-14  0.12500000000E+03  0.12500000000E+03 0.  0.
        -11    1    3    3    0    0  0.38734570378E+02 -0.42885012881E+02 -0.22251203928E+02  0.61924206484E+02  0.51100000000E-03 0. -1.
         23    2    1    0    0    0  0.14759348521E+02 -0.23304249053E+02 -0.14505827894E+02  0.93833584813E+02  0.88506475488E+02 0.  0.
         11    1    3    3    0    0 -0.23975221857E+02  0.19580763828E+02  0.77453760340E+01  0.31909378329E+02  0.51100000000E-03 0.  1.
         22    1    1    0    0    0 -0.14759348521E+02  0.23304249053E+02  0.14505827894E+02  0.31166415187E+02  0.00000000000E+00 0. -1.
</event>
<event>
 5    1  0.8900327E-005  0.9118800E+02  0.7818608E-02  0.1130116E+00
         25   -1    0    0    0    0  0.00000000000E+00  0.00000000000E+00  0.99999998245E-14  0.12500000000E+03  0.12500000000E+03 0.  0.
        -11    1    3    3    0    0 -0.10766984993E+02 -0.19232818787E+02 -0.59256230082E+01  0.22824160283E+02  0.51100000000E-03 0. -1.
         23    2    1    0    0    0  0.35671712497E+02 -0.22021238364E+02  0.22579096801E+02  0.77384649283E+02  0.61001330484E+02 0.  0.
         11    1    3    3    0    0  0.46438697490E+02 -0.27884195765E+01  0.28504719809E+02  0.54560489000E+02  0.51100000000E-03 0.  1.
         22    1    1    0    0    0 -0.35671712497E+02  0.22021238364E+02 -0.22579096801E+02  0.47615350717E+02  0.00000000000E+00 0.  1.
</event>
<event>
 5    1  0.8900327E-005  0.9118800E+02  0.7818608E-02  0.1130116E+00
         25   -1    0    0    0    0  0.00000000000E+00  0.00000000000E+00  0.99999998245E-14  0.12500000000E+03  0.12500000000E+03 0.  0.
        -11    1    3    3    0    0  0.17677741625E+02  0.47446121364E+02  0.25218693024E+02  0.56565178861E+02  0.51100000000E-03 0.  1.
         23    2    1    0    0    0  0.17715647280E+02  0.30260740629E+02 -0.32139636226E+01  0.89787982959E+02  0.82595373597E+02 0.  0.
         11    1    3    3    0    0  0.37905654118E-01 -0.17185380735E+02 -0.28432656647E+02  0.33222804098E+02  0.51100000000E-03 0. -1.
         22    1    1    0    0    0 -0.17715647280E+02 -0.30260740629E+02  0.32139636226E+01  0.35212017041E+02  0.00000000000E+00 0.  1.
</event>
<event>
 5    1  0.8900327E-005  0.9118800E+02  0.7818608E-02  0.1130116E+00
         25   -1    0    0    0    0  0.00000000000E+00  0.00000000000E+00  0.99999998245E-14  0.12500000000E+03  0.12500000000E+03 0.  0.
        -11    1    3    3    0    0 -0.11738645517E+01 -0.14480614342E+02  0.57812841319E+02  0.59610324368E+02  0.51100000000E-03 0.  1.
         23    2    1    0    0    0  0.10494817230E+02  0.82142485109E+00  0.27917945982E+02  0.95163317286E+02  0.90364978402E+02 0.  0.
         11    1    3    3    0    0  0.11668681782E+02  0.15302039193E+02 -0.29894895336E+02  0.35552992918E+02  0.51100000000E-03 0. -1.
         22    1    1    0    0    0 -0.10494817230E+02 -0.82142485109E+00 -0.27917945982E+02  0.29836682714E+02  0.00000000000E+00 0.  1.
</event>
<event>
 5    1  0.8900327E-005  0.9118800E+02  0.7818608E-02  0.1130116E+00
         25   -1    0    0    0    0  0.00000000000E+00  0.00000000000E+00  0.99999998245E-14  0.12500000000E+03  0.12500000000E+03 0.  0.
        -11    1    3    3    0    0  0.10146416078E+02  0.37905957762E+02  0.55625673194E+01  0.39632733296E+02  0.51100000000E-03 0. -1.
         23    2    1    0    0    0  0.15242739766E+02 -0.11249276698E+02 -0.21798206766E+02  0.96120090720E+02  0.91678910770E+02 0.  0.
         11    1    3    3    0    0  0.50963236878E+01 -0.49155234459E+02 -0.27360774086E+02  0.56487357424E+02  0.51100000000E-03 0.  1.
         22    1    1    0    0    0 -0.15242739766E+02  0.11249276698E+02  0.21798206766E+02  0.28879909280E+02  0.00000000000E+00 0.  1.
</event>
<event>
 5    1  0.8900327E-005  0.9118800E+02  0.7818608E-02  0.1130116E+00
         25   -1    0    0    0    0  0.00000000000E+00  0.00000000000E+00  0.99999998245E-14  0.12500000000E+03  0.12500000000E+03 0.  0.
        -11    1    3    3    0    0  0.34898105148E+02  0.38918626949E+02 -0.79325900331E+01  0.52872140598E+02  0.51100000000E-03 0.  1.
         23    2    1    0    0    0 -0.20749790520E+01  0.25962354776E+02  0.11411006614E+02  0.96564802172E+02  0.92283262529E+02 0.  0.
         11    1    3    3    0    0 -0.36973084200E+02 -0.12956272174E+02  0.19343596647E+02  0.43692661574E+02  0.51100000000E-03 0. -1.
         22    1    1    0    0    0  0.20749790520E+01 -0.25962354776E+02 -0.11411006614E+02  0.28435197828E+02  0.00000000000E+00 0. -1.
</event>
<event>
 5    1  0.8900327E-005  0.9118800E+02  0.7818608E-02  0.1130116E+00
         25   -1    0    0    0    0  0.00000000000E+00  0.00000000000E+00  0.99999998245E-14  0.12500000000E+03  0.12500000000E+03 0.  0.
        -11    1    3    3    0    0  0.55028951264E+01  0.29634085151E+02 -0.32428187214E+02  0.44272431419E+02  0.51100000000E-03 0.  1.
         23    2    1    0    0    0 -0.28937113981E+02  0.27652008965E+01 -0.60254672108E+01  0.95313148422E+02  0.90571999566E+02 0.  0.
         11    1    3    3    0    0 -0.34440009107E+02 -0.26868884254E+02  0.26402720003E+02  0.51040717003E+02  0.51100000000E-03 0. -1.
         22    1    1    0    0    0  0.28937113981E+02 -0.27652008965E+01  0.60254672108E+01  0.29686851578E+02  0.00000000000E+00 0. -1.
</event>
<event>
 5    1  0.8900327E-005  0.9118800E+02  0.7818608E-02  0.1130116E+00
         25   -1    0    0    0    0  0.00000000000E+00  0.00000000000E+00  0.99999998245E-14  0.12500000000E+03  0.12500000000E+03 0.  0.
        -11    1    3    3    0    0  0.51700051970E+02 -0.19391831814E+02 -0.77779752812E+01  0.55762311776E+02  0.51100000000E-03 0.  1.
         23    2    1    0    0    0  0.13142532289E+02 -0.26497563665E+02 -0.40558249668E+01  0.95145406529E+02  0.90340199425E+02 0.  0.
         11    1    3    3    0    0 -0.38557519681E+02 -0.71057318509E+01  0.37221503144E+01  0.39383094753E+02  0.51100000000E-03 0. -1.
         22    1    1    0    0    0 -0.13142532289E+02  0.26497563665E+02  0.40558249668E+01  0.29854593471E+02  0.00000000000E+00 0.  1.
</event>
<event>
 5    1  0.8900327E-005  0.9118800E+02  0.7818608E-02  0.1130116E+00
         25   -1    0    0    0    0  0.00000000000E+00  0.00000000000E+00  0.99999998245E-14  0.12500000000E+03  0.12500000000E+03 0.  0.
        -11    1    3    3    0    0  0.57501742180E+02  0.67936220754E+01 -0.21138293219E+02  0.61639525429E+02  0.51100000000E-03 0. -1.
         23    2    1    0    0    0  0.24484500256E+02  0.17037834649E+01 -0.16637711001E+02  0.95348574094E+02  0.90620877967E+02 0.  0.
         11    1    3    3    0    0 -0.33017241924E+02 -0.50898386105E+01  0.45005822185E+01  0.33709048665E+02  0.51100000000E-03 0.  1.
         22    1    1    0    0    0 -0.24484500256E+02 -0.17037834649E+01  0.16637711001E+02  0.29651425906E+02  0.00000000000E+00 0. -1.
</event>
<event>
 5    1  0.8900327E-005  0.9118800E+02  0.7818608E-02  0.1130116E+00
         25   -1    0    0    0    0  0.00000000000E+00  0.00000000000E+00  0.99999998245E-14  0.12500000000E+03  0.12500000000E+03 0.  0.
        -11    1    3    3    0    0  0.17628434979E+02 -0.54865208965E+02 -0.48886363209E+01  0.57834692356E+02  0.51100000000E-03 0.  1.
         23    2    1    0    0    0  0.22622161870E+02 -0.17712976033E+02 -0.71593094552E+01  0.95389740976E+02  0.90677644676E+02 0.  0.
         11    1    3    3    0    0  0.49937268912E+01  0.37152232932E+02 -0.22706731343E+01  0.37555048620E+02  0.51100000000E-03 0. -1.
         22    1    1    0    0    0 -0.22622161870E+02  0.17712976033E+02  0.71593094552E+01  0.29610259024E+02  0.00000000000E+00 0.  1.
</event>
<event>
 5    1  0.8900327E-005  0.9118800E+02  0.7818608E-02  0.1130116E+00
         25   -1    0    0    0    0  0.00000000000E+00  0.00000000000E+00  0.99999998245E-14  0.12500000000E+03  0.12500000000E+03 0.  0.
        -11    1    3    3    0    0 -0.51716481935E+02 -0.47551933642E+01  0.33616310573E+02  0.61864874561E+02  0.51100000000E-03 0.  1.
         23    2    1    0    0    0 -0.20159113464E+02 -0.64106499267E+01  0.18512049664E+02  0.96889819088E+02  0.92722460990E+02 0.  0.
         11    1    3    3    0    0  0.31557368471E+02 -0.16554565625E+01 -0.15104260909E+02  0.35024944527E+02  0.51100000000E-03 0. -1.
         22    1    1    0    0    0  0.20159113464E+02  0.64106499267E+01 -0.18512049664E+02  0.28110180912E+02  0.00000000000E+00 0.  1.
</event>
<event>
 5    1  0.8900327E-005  0.9118800E+02  0.7818608E-02  0.1130116E+00
         25   -1    0    0    0    0  0.00000000000E+00  0.00000000000E+00  0.99999998245E-14  0.12500000000E+03  0.12500000000E+03 0.  0.
        -11    1    3    3    0    0  0.20570497963E+02  0.41732891667E+01  0.58641862567E+02  0.62285068632E+02  0.51100000000E-03 0.  1.
         23    2    1    0    0    0  0.94392047254E+01  0.10608530616E-01  0.35050950752E+02  0.88700305139E+02  0.80932541569E+02 0.  0.
         11    1    3    3    0    0 -0.11131293237E+02 -0.41626806361E+01 -0.23590911815E+02  0.26415236507E+02  0.51100000000E-03 0. -1.
         22    1    1    0    0    0 -0.94392047254E+01 -0.10608530616E-01 -0.35050950752E+02  0.36299694861E+02  0.00000000000E+00 0.  1.
</event>
<event>
 5    1  0.8900327E-005  0.9118800E+02  0.7818608E-02  0.1130116E+00
         25   -1    0    0    0    0  0.00000000000E+00  0.00000000000E+00  0.99999998245E-14  0.12500000000E+03  0.12500000000E+03 0.  0.
        -11    1    3    3    0    0  0.16553134381E+02 -0.32888658987E+02  0.12936060366E+02  0.39025783860E+02  0.51100000000E-03 0. -1.
         23    2    1    0    0    0  0.20858931731E+02  0.15209412912E+02 -0.15325701968E+02  0.94978367551E+02  0.90108778084E+02 0.  0.
         11    1    3    3    0    0  0.43057973507E+01  0.48098071899E+02 -0.28261762334E+02  0.55952583691E+02  0.51100000000E-03 0.  1.
         22    1    1    0    0    0 -0.20858931731E+02 -0.15209412912E+02  0.15325701968E+02  0.30021632449E+02  0.00000000000E+00 0.  1.
</event>
<event>
 5    1  0.8900327E-005  0.9118800E+02  0.7818608E-02  0.1130116E+00
         25   -1    0    0    0    0  0.00000000000E+00  0.00000000000E+00  0.99999998245E-14  0.12500000000E+03  0.12500000000E+03 0.  0.
        -11    1    3    3    0    0  0.11942870128E+02  0.22132265645E+02  0.48287903912E+02  0.54444384411E+02  0.51100000000E-03 0.  1.
         23    2    1    0    0    0 -0.10178222888E+01  0.26965303970E+02  0.82835556628E+01  0.96772692746E+02  0.92564427220E+02 0.  0.
         11    1    3    3    0    0 -0.12960692416E+02  0.48330383249E+01 -0.40004348249E+02  0.42328308335E+02  0.51100000000E-03 0. -1.
         22    1    1    0    0    0  0.10178222888E+01 -0.26965303970E+02 -0.82835556628E+01  0.28227307254E+02  0.00000000000E+00 0.  1.
</event>
<event>
 5    1  0.8900327E-005  0.9118800E+02  0.7818608E-02  0.1130116E+00
         25   -1    0    0    0    0  0.00000000000E+00  0.00000000000E+00  0.99999998245E-14  0.12500000000E+03  0.12500000000E+03 0.  0.
        -11    1    3    3    0    0  0.25891894307E+02 -0.31276593759E+02  0.25153480174E+02  0.47763093211E+02  0.51100000000E-03 0.  1.
         23    2    1    0    0    0 -0.18645133589E+02 -0.14019862971E+02  0.16801716422E+02  0.96251169781E+02  0.91857457210E+02 0.  0.
         11    1    3    3    0    0 -0.44537027896E+02  0.17256730788E+02 -0.83517637523E+01  0.48488076569E+02  0.51100000000E-03 0. -1.
         22    1    1    0    0    0  0.18645133589E+02  0.14019862971E+02 -0.16801716422E+02  0.28748830219E+02  0.00000000000E+00 0. -1.
</event>
<event>
 5    1  0.8900327E-005  0.9118800E+02  0.7818608E-02  0.1130116E+00
         25   -1    0    0    0    0  0.00000000000E+00  0.00000000000E+00  0.99999998245E-14  0.12500000000E+03  0.12500000000E+03 0.  0.
        -11    1    3    3    0    0 -0.28031137463E+02  0.28059828994E+02  0.27236469860E+02  0.48113656704E+02  0.51100000000E-03 0. -1.
         23    2    1    0    0    0 -0.23463955042E+02  0.10225102603E+02 -0.15798871076E+02  0.94921532008E+02  0.90029900600E+02 0.  0.
         11    1    3    3    0    0  0.45671824215E+01 -0.17834726391E+02 -0.43035340937E+02  0.46807875304E+02  0.51100000000E-03 0.  1.
         22    1    1    0    0    0  0.23463955042E+02 -0.10225102603E+02  0.15798871076E+02  0.30078467992E+02  0.00000000000E+00 0.  1.
</event>
<event>
 5    1  0.8900327E-005  0.9118800E+02  0.7818608E-02  0.1130116E+00
         25   -1    0    0    0    0  0.00000000000E+00  0.00000000000E+00  0.99999998245E-14  0.12500000000E+03  0.12500000000E+03 0.  0.
        -11    1    3    3    0    0 -0.24412155556E+02 -0.24631745488E+02 -0.22603902352E+02  0.41395804455E+02  0.51100000000E-03 0. -1.
         23    2    1    0    0    0 -0.52314027635E+01  0.25676564055E+02 -0.11568775976E+02  0.96355801737E+02  0.91999730620E+02 0.  0.
         11    1    3    3    0    0  0.19180752793E+02  0.50308309544E+02  0.11035126376E+02  0.54959997282E+02  0.51100000000E-03 0.  1.
         22    1    1    0    0    0  0.52314027635E+01 -0.25676564055E+02  0.11568775976E+02  0.28644198263E+02  0.00000000000E+00 0.  1.
</event>
<event>
 5    1  0.8900327E-005  0.9118800E+02  0.7818608E-02  0.1130116E+00
         25   -1    0    0    0    0  0.00000000000E+00  0.00000000000E+00  0.99999998245E-14  0.12500000000E+03  0.12500000000E+03 0.  0.
        -11    1    3    3    0    0  0.13998466173E+02  0.52446499242E+02 -0.18482598979E+02  0.57342818235E+02  0.51100000000E-03 0. -1.
         23    2    1    0    0    0  0.41355606707E+01  0.41811755581E+02 -0.27834585237E+02  0.74600695420E+02  0.55001580477E+02 0.  0.
         11    1    3    3    0    0 -0.98629055025E+01 -0.10634743660E+02 -0.93519862587E+01  0.17257877185E+02  0.51100000000E-03 0.  1.
         22    1    1    0    0    0 -0.41355606707E+01 -0.41811755581E+02  0.27834585237E+02  0.50399304580E+02  0.00000000000E+00 0. -1.
</event>
<event>
 5    1  0.8900327E-005  0.9118800E+02  0.7818608E-02  0.1130116E+00
         25   -1    0    0    0    0  0.00000000000E+00  0.00000000000E+00  0.99999998245E-14  0.12500000000E+03  0.12500000000E+03 0.  0.
        -11    1    3    3    0    0 -0.10154109546E+02  0.39207251268E+02  0.33649994733E+02  0.52655831951E+02  0.51100000000E-03 0. -1.
         23    2    1    0    0    0  0.19559221110E+02  0.10761350662E+02  0.16583381304E+02  0.97190319420E+02  0.93126687125E+02 0.  0.
         11    1    3    3    0    0  0.29713330656E+02 -0.28445900605E+02 -0.17066613429E+02  0.44534487469E+02  0.51100000000E-03 0.  1.
         22    1    1    0    0    0 -0.19559221110E+02 -0.10761350662E+02 -0.16583381304E+02  0.27809680580E+02  0.00000000000E+00 0. -1.
</event>
<event>
 5    1  0.8900327E-005  0.9118800E+02  0.7818608E-02  0.1130116E+00
         25   -1    0    0    0    0  0.00000000000E+00  0.00000000000E+00  0.99999998245E-14  0.12500000000E+03  0.12500000000E+03 0.  0.
        -11    1    3    3    0    0  0.21481248496E+02  0.49903057569E+02  0.55629423079E+01  0.54614151271E+02  0.51100000000E-03 0.  1.
         23    2    1    0    0    0  0.28114350074E+02  0.10470889214E+02 -0.96963016272E-01  0.94998906640E+02  0.90137265656E+02 0.  0.
         11    1    3    3    0    0  0.66331015781E+01 -0.39432168354E+02 -0.56599053242E+01  0.40384755369E+02  0.51100000000E-03 0. -1.
         22    1    1    0    0    0 -0.28114350074E+02 -0.10470889214E+02  0.96963016272E-01  0.30001093360E+02  0.00000000000E+00 0. -1.
</event>
<event>
 5    1  0.8900327E-005  0.9118800E+02  0.7818608E-02  0.1130116E+00
         25   -1    0    0    0    0  0.00000000000E+00  0.00000000000E+00  0.99999998245E-14  0.12500000000E+03  0.12500000000E+03 0.  0.
        -11    1    3    3    0    0 -0.36633349542E+02 -0.14744903334E+02  0.25492165629E+02  0.47002818870E+02  0.51100000000E-03 0. -1.
         23    2    1    0    0    0  0.11047389561E+02 -0.20210992180E+02  0.18405527258E+02  0.95516234049E+02  0.90851849250E+02 0.  0.
         11    1    3    3    0    0  0.47680739103E+02 -0.54660888459E+01 -0.70866383710E+01  0.48513415179E+02  0.51100000000E-03 0.  1.
         22    1    1    0    0    0 -0.11047389561E+02  0.20210992180E+02 -0.18405527258E+02  0.29483765951E+02  0.00000000000E+00 0.  1.
</event>
<event>
 5    1  0.8900327E-005  0.9118800E+02  0.7818608E-02  0.1130116E+00
         25   -1    0    0    0    0  0.00000000000E+00  0.00000000000E+00  0.99999998245E-14  0.12500000000E+03  0.12500000000E+03 0.  0.
        -11    1    3    3    0    0  0.69089725628E+01  0.29832615920E+02  0.39836932463E+02  0.50246393530E+02  0.51100000000E-03 0. -1.
         23    2    1    0    0    0 -0.13283751240E+02  0.22329288470E+02 -0.36371203700E+01  0.98764836285E+02  0.95216642827E+02 0.  0.
         11    1    3    3    0    0 -0.20192723803E+02 -0.75033274502E+01 -0.43474052833E+02  0.48518442755E+02  0.51100000000E-03 0.  1.
         22    1    1    0    0    0  0.13283751240E+02 -0.22329288470E+02  0.36371203700E+01  0.26235163715E+02  0.00000000000E+00 0. -1.
</event>
<event>
 5    1  0.8900327E-005  0.9118800E+02  0.7818608E-02  0.1130116E+00
         25   -1    0    0    0    0  0.00000000000E+00  0.00000000000E+00  0.99999998245E-14  0.12500000000E+03  0.12500000000E+03 0.  0.
        -11    1    3    3    0    0 -0.42020768290E+02 -0.19186416266E+01  0.34471682424E+01  0.42205557957E+02  0.51100000000E-03 0.  1.
         23    2    1    0    0    0  0.16030024763E+01  0.28219162781E+02 -0.61114996945E+01  0.96082164785E+02  0.91627185902E+02 0.  0.
         11    1    3    3    0    0  0.43623770766E+02  0.30137804407E+02 -0.95586679370E+01  0.53876606828E+02  0.51100000000E-03 0. -1.
         22    1    1    0    0    0 -0.16030024763E+01 -0.28219162781E+02  0.61114996945E+01  0.28917835215E+02  0.00000000000E+00 0. -1.
</event>
<event>
 5    1  0.8900327E-005  0.9118800E+02  0.7818608E-02  0.1130116E+00
         25   -1    0    0    0    0  0.00000000000E+00  0.00000000000E+00  0.99999998245E-14  0.12500000000E+03  0.12500000000E+03 0.  0.
        -11    1    3    3    0    0  0.35415153443E+02  0.21259715341E+02 -0.22717275247E+02  0.47141098680E+02  0.51100000000E-03 0.  1.
         23    2    1    0    0    0 -0.12696107096E+02  0.18362304739E+02 -0.19350017657E+02  0.95457004992E+02  0.90770321405E+02 0.  0.
         11    1    3    3    0    0 -0.48111260539E+02 -0.28974106022E+01  0.33672575901E+01  0.48315906312E+02  0.51100000000E-03 0. -1.
         22    1    1    0    0    0  0.12696107096E+02 -0.18362304739E+02  0.19350017657E+02  0.29542995008E+02  0.00000000000E+00 0. -1.
</event>
<event>
 5    1  0.8900327E-005  0.9118800E+02  0.7818608E-02  0.1130116E+00
         25   -1    0    0    0    0  0.00000000000E+00  0.00000000000E+00  0.99999998245E-14  0.12500000000E+03  0.12500000000E+03 0.  0.
        -11    1    3    3    0    0  0.11903701722E+02  0.29220902970E+02 -0.49717455300E+02  0.58884502603E+02  0.51100000000E-03 0. -1.
         23    2    1    0    0    0 -0.79097005324E+01  0.19817708522E+02 -0.20567447445E+02  0.95363454520E+02  0.90641401302E+02 0.  0.
         11    1    3    3    0    0 -0.19813402254E+02 -0.94031944477E+01  0.29150007856E+02  0.36478951917E+02  0.51100000000E-03 0.  1.
         22    1    1    0    0    0  0.79097005324E+01 -0.19817708522E+02  0.20567447445E+02  0.29636545480E+02  0.00000000000E+00 0. -1.
</event>
<event>
 5    1  0.8900327E-005  0.9118800E+02  0.7818608E-02  0.1130116E+00
         25   -1    0    0    0    0  0.00000000000E+00  0.00000000000E+00  0.99999998245E-14  0.12500000000E+03  0.12500000000E+03 0.  0.
        -11    1    3    3    0    0  0.10559002778E+02  0.27557378489E+02 -0.27495242485E+02  0.40334724598E+02  0.51100000000E-03 0.  1.
         23    2    1    0    0    0 -0.29915325192E+02  0.70852786344E+01  0.15893745644E+01  0.94216011204E+02  0.89044948206E+02 0.  0.
         11    1    3    3    0    0 -0.40474327971E+02 -0.20472099854E+02  0.29084617049E+02  0.53881286606E+02  0.51100000000E-03 0. -1.
         22    1    1    0    0    0  0.29915325192E+02 -0.70852786344E+01 -0.15893745644E+01  0.30783988796E+02  0.00000000000E+00 0. -1.
</event>
<event>
 5    1  0.8900327E-005  0.9118800E+02  0.7818608E-02  0.1130116E+00
         25   -1    0    0    0    0  0.00000000000E+00  0.00000000000E+00  0.99999998245E-14  0.12500000000E+03  0.12500000000E+03 0.  0.
        -11    1    3    3    0    0  0.42715404147E+02  0.24406877231E+02  0.20387909623E+02  0.53253809880E+02  0.51100000000E-03 0.  1.
         23    2    1    0    0    0  0.26202740258E+02  0.21317624098E+02 -0.11517290361E+02  0.89311449014E+02  0.81871009848E+02 0.  0.
         11    1    3    3    0    0 -0.16512663889E+02 -0.30892531330E+01 -0.31905199984E+02  0.36057639134E+02  0.51100000000E-03 0. -1.
         22    1    1    0    0    0 -0.26202740258E+02 -0.21317624098E+02  0.11517290361E+02  0.35688550986E+02  0.00000000000E+00 0.  1.
</event>
<event>
 5    1  0.8900327E-005  0.9118800E+02  0.7818608E-02  0.1130116E+00
         25   -1    0    0    0    0  0.00000000000E+00  0.00000000000E+00  0.99999998245E-14  0.12500000000E+03  0.12500000000E+03 0.  0.
        -11    1    3    3    0    0 -0.51228366005E+02 -0.11396486540E+02  0.40988978741E+01  0.52640539065E+02  0.51100000000E-03 0. -1.
         23    2    1    0    0    0 -0.13454684811E+02 -0.91283009159E+01  0.24472923252E+02  0.95618400427E+02  0.90992307954E+02 0.  0.
         11    1    3    3    0    0  0.37773681194E+02  0.22681856238E+01  0.20374025378E+02  0.42977861363E+02  0.51100000000E-03 0.  1.
         22    1    1    0    0    0  0.13454684811E+02  0.91283009159E+01 -0.24472923252E+02  0.29381599573E+02  0.00000000000E+00 0. -1.
</event>
<event>
 5    1  0.8900327E-005  0.9118800E+02  0.7818608E-02  0.1130116E+00
         25   -1    0    0    0    0  0.00000000000E+00  0.00000000000E+00  0.99999998245E-14  0.12500000000E+03  0.12500000000E+03 0.  0.
        -11    1    3    3    0    0 -0.37984274760E+02  0.41644245117E+02 -0.18188245552E+02  0.59227194404E+02  0.51100000000E-03 0. -1.
         23    2    1    0    0    0 -0.89305401755E+01  0.30661360708E+02 -0.11911912075E+02  0.90915293201E+02  0.84284181792E+02 0.  0.
         11    1    3    3    0    0  0.29053734584E+02 -0.10982884410E+02  0.62763334764E+01  0.31688098798E+02  0.51100000000E-03 0.  1.
         22    1    1    0    0    0  0.89305401755E+01 -0.30661360708E+02  0.11911912075E+02  0.34084706799E+02  0.00000000000E+00 0. -1.
</event>
<event>
 5    1  0.8900327E-005  0.9118800E+02  0.7818608E-02  0.1130116E+00
         25   -1    0    0    0    0  0.00000000000E+00  0.00000000000E+00  0.99999998245E-14  0.12500000000E+03  0.12500000000E+03 0.  0.
        -11    1    3    3    0    0 -0.53665105470E+01  0.37872897273E+02  0.46014363718E+02  0.59837090938E+02  0.51100000000E-03 0.  1.
         23    2    1    0    0    0  0.67099246525E+00  0.68373683474E+01  0.27880340935E+02  0.96285661291E+02  0.91904381413E+02 0.  0.
         11    1    3    3    0    0  0.60375030123E+01 -0.31035528925E+02 -0.18134022782E+02  0.36448570354E+02  0.51100000000E-03 0. -1.
         22    1    1    0    0    0 -0.67099246525E+00 -0.68373683474E+01 -0.27880340935E+02  0.28714338709E+02  0.00000000000E+00 0.  1.
</event>
<event>
 5    1  0.8900327E-005  0.9118800E+02  0.7818608E-02  0.1130116E+00
         25   -1    0    0    0    0  0.00000000000E+00  0.00000000000E+00  0.99999998245E-14  0.12500000000E+03  0.12500000000E+03 0.  0.
        -11    1    3    3    0    0 -0.34509797407E+02 -0.69448179243E+01 -0.53210897953E+01  0.35601553476E+02  0.51100000000E-03 0. -1.
         23    2    1    0    0    0  0.19334788976E+02  0.20774325016E+02  0.17092371107E+01  0.96568887884E+02  0.92288796563E+02 0.  0.
         11    1    3    3    0    0  0.53844586383E+02  0.27719142941E+02  0.70303269060E+01  0.60967334408E+02  0.51100000000E-03 0.  1.
         22    1    1    0    0    0 -0.19334788976E+02 -0.20774325016E+02 -0.17092371107E+01  0.28431112116E+02  0.00000000000E+00 0.  1.
</event>
<event>
 5    1  0.8900327E-005  0.9118800E+02  0.7818608E-02  0.1130116E+00
         25   -1    0    0    0    0  0.00000000000E+00  0.00000000000E+00  0.99999998245E-14  0.12500000000E+03  0.12500000000E+03 0.  0.
        -11    1    3    3    0    0  0.20629960911E+01 -0.50718448855E+02 -0.60305254122E+01  0.51117357562E+02  0.51100000000E-03 0. -1.
         23    2    1    0    0    0 -0.44768043327E+01 -0.11479170169E+02 -0.26441535115E+02  0.95828645831E+02  0.91280674066E+02 0.  0.
         11    1    3    3    0    0 -0.65398004238E+01  0.39239278686E+02 -0.20411009702E+02  0.44711288269E+02  0.51100000000E-03 0.  1.
         22    1    1    0    0    0  0.44768043327E+01  0.11479170169E+02  0.26441535115E+02  0.29171354169E+02  0.00000000000E+00 0. -1.
</event>
<event>
 5    1  0.8900327E-005  0.9118800E+02  0.7818608E-02  0.1130116E+00
         25   -1    0    0    0    0  0.00000000000E+00  0.00000000000E+00  0.99999998245E-14  0.12500000000E+03  0.12500000000E+03 0.  0.
        -11    1    3    3    0    0 -0.22091300749E+02 -0.72582169168E+01  0.13290287421E+02  0.26783185427E+02  0.51100000000E-03 0.  1.
         23    2    1    0    0    0 -0.17500712900E+02  0.42964297329E+02  0.14543955088E+01  0.78585335687E+02  0.63413988376E+02 0.  0.
         11    1    3    3    0    0  0.45905878492E+01  0.50222514246E+02 -0.11835891912E+02  0.51802150260E+02  0.51100000000E-03 0. -1.
         22    1    1    0    0    0  0.17500712900E+02 -0.42964297329E+02 -0.14543955088E+01  0.46414664313E+02  0.00000000000E+00 0. -1.
</event>
<event>
 5    1  0.8900327E-005  0.9118800E+02  0.7818608E-02  0.1130116E+00
         25   -1    0    0    0    0  0.00000000000E+00  0.00000000000E+00  0.99999998245E-14  0.12500000000E+03  0.12500000000E+03 0.  0.
        -11    1    3    3    0    0 -0.23705960061E+02 -0.36528846830E+00 -0.55060500801E+02  0.59948016871E+02  0.51100000000E-03 0.  1.
         23    2    1    0    0    0 -0.10684650596E+02  0.12424777473E+02 -0.26493798728E+02  0.93847821510E+02  0.88526580063E+02 0.  0.
         11    1    3    3    0    0  0.13021309465E+02  0.12790065941E+02  0.28566702073E+02  0.33899804639E+02  0.51100000000E-03 0. -1.
         22    1    1    0    0    0  0.10684650596E+02 -0.12424777473E+02  0.26493798728E+02  0.31152178490E+02  0.00000000000E+00 0.  1.
</event>
<event>
 5    1  0.8900327E-005  0.9118800E+02  0.7818608E-02  0.1130116E+00
         25   -1    0    0    0    0  0.00000000000E+00  0.00000000000E+00  0.99999998245E-14  0.12500000000E+03  0.12500000000E+03 0.  0.
        -11    1    3    3    0    0  0.17606939114E+02  0.46896476299E+02 -0.35869177416E+02  0.61610727012E+02  0.51100000000E-03 0.  1.
         23    2    1    0    0    0  0.14925830168E+02  0.20997489266E+02 -0.13620464846E+02  0.95859100489E+02  0.91322369233E+02 0.  0.
         11    1    3    3    0    0 -0.26811089459E+01 -0.25898987033E+02  0.22248712570E+02  0.34248373477E+02  0.51100000000E-03 0. -1.
         22    1    1    0    0    0 -0.14925830168E+02 -0.20997489266E+02  0.13620464846E+02  0.29140899511E+02  0.00000000000E+00 0.  1.
</event>
<event>
 5    1  0.8900327E-005  0.9118800E+02  0.7818608E-02  0.1130116E+00
         25   -1    0    0    0    0  0.00000000000E+00  0.00000000000E+00  0.99999998245E-14  0.12500000000E+03  0.12500000000E+03 0.  0.
        -11    1    3    3    0    0  0.28965606403E+02 -0.45197088203E+02 -0.16228499545E+02  0.56081613155E+02  0.51100000000E-03 0.  1.
         23    2    1    0    0    0  0.40711439035E+01 -0.27020520018E+02  0.93320935432E+01  0.96124912388E+02  0.91685484658E+02 0.  0.
         11    1    3    3    0    0 -0.24894462500E+02  0.18176568185E+02  0.25560593089E+02  0.40043299233E+02  0.51100000000E-03 0. -1.
         22    1    1    0    0    0 -0.40711439035E+01  0.27020520018E+02 -0.93320935432E+01  0.28875087612E+02  0.00000000000E+00 0.  1.
</event>
<event>
 5    1  0.8900327E-005  0.9118800E+02  0.7818608E-02  0.1130116E+00
         25   -1    0    0    0    0  0.00000000000E+00  0.00000000000E+00  0.99999998245E-14  0.12500000000E+03  0.12500000000E+03 0.  0.
        -11    1    3    3    0    0  0.28466602870E+02  0.18484416549E+02  0.27893905984E+01  0.34055863435E+02  0.51100000000E-03 0. -1.
         23    2    1    0    0    0 -0.14648260575E+02 -0.24965215208E+02  0.63359120594E+01  0.95369318437E+02  0.90649487640E+02 0.  0.
         11    1    3    3    0    0 -0.43114863445E+02 -0.43449631757E+02  0.35465214610E+01  0.61313455003E+02  0.51100000000E-03 0.  1.
         22    1    1    0    0    0  0.14648260575E+02  0.24965215208E+02 -0.63359120594E+01  0.29630681563E+02  0.00000000000E+00 0.  1.
</event>
<event>
 5    1  0.8900327E-005  0.9118800E+02  0.7818608E-02  0.1130116E+00
         25   -1    0    0    0    0  0.00000000000E+00  0.00000000000E+00  0.99999998245E-14  0.12500000000E+03  0.12500000000E+03 0.  0.
        -11    1    3    3    0    0  0.28009390619E+02 -0.41812175252E+02 -0.82638453106E+01  0.51000736286E+02  0.51100000000E-03 0.  1.
         23    2    1    0    0    0 -0.13032143175E+02 -0.22159001278E+02 -0.11943728513E+02  0.96653734917E+02  0.92403645649E+02 0.  0.
         11    1    3    3    0    0 -0.41041533793E+02  0.19653173973E+02 -0.36798832024E+01  0.45652998631E+02  0.51100000000E-03 0. -1.
         22    1    1    0    0    0  0.13032143175E+02  0.22159001278E+02  0.11943728513E+02  0.28346265083E+02  0.00000000000E+00 0.  1.
</event>
<event>
 5    1  0.8900327E-005  0.9118800E+02  0.7818608E-02  0.1130116E+00
         25   -1    0    0    0    0  0.00000000000E+00  0.00000000000E+00  0.99999998245E-14  0.12500000000E+03  0.12500000000E+03 0.  0.
        -11    1    3    3    0    0  0.47464266311E+02 -0.20364744088E+02 -0.26212379197E+00  0.51649279640E+02  0.51100000000E-03 0. -1.
         23    2    1    0    0    0  0.21884151685E+02  0.14513107870E+02 -0.11492093054E+02  0.96336179638E+02  0.91973066217E+02 0.  0.
         11    1    3    3    0    0 -0.25580114626E+02  0.34877851958E+02 -0.11229969262E+02  0.44686899997E+02  0.51100000000E-03 0.  1.
         22    1    1    0    0    0 -0.21884151685E+02 -0.14513107870E+02  0.11492093054E+02  0.28663820362E+02  0.00000000000E+00 0. -1.
</event>
<event>
 5    1  0.8900327E-005  0.9118800E+02  0.7818608E-02  0.1130116E+00
         25   -1    0    0    0    0  0.00000000000E+00  0.00000000000E+00  0.99999998245E-14  0.12500000000E+03  0.12500000000E+03 0.  0.
        -11    1    3    3    0    0 -0.10558159779E+02  0.48612063784E+02 -0.26219967223E+02  0.56232500964E+02  0.51100000000E-03 0.  1.
         23    2    1    0    0    0 -0.18822553934E+01  0.97893646376E+01 -0.27206139204E+02  0.96025035707E+02  0.91549215873E+02 0.  0.
         11    1    3    3    0    0  0.86759043852E+01 -0.38822699146E+02 -0.98617198118E+00  0.39792534744E+02  0.51100000000E-03 0. -1.
         22    1    1    0    0    0  0.18822553934E+01 -0.97893646376E+01  0.27206139204E+02  0.28974964293E+02  0.00000000000E+00 0.  1.
</event>
<event>
 5    1  0.8900327E-005  0.9118800E+02  0.7818608E-02  0.1130116E+00
         25   -1    0    0    0    0  0.00000000000E+00  0.00000000000E+00  0.99999998245E-14  0.12500000000E+03  0.12500000000E+03 0.  0.
        -11    1    3    3    0    0 -0.20160783245E+02  0.54829407729E+02 -0.90975604199E+00  0.58425583346E+02  0.51100000000E-03 0.  1.
         23    2    1    0    0    0 -0.27987781364E+02  0.32547222374E+02  0.29232212318E+00  0.82073049932E+02  0.69951858323E+02 0.  0.
         11    1    3    3    0    0 -0.78269981195E+01 -0.22282185355E+02  0.12020781652E+01  0.23647466586E+02  0.51100000000E-03 0. -1.
         22    1    1    0    0    0  0.27987781364E+02 -0.32547222374E+02 -0.29232212318E+00  0.42926950068E+02  0.00000000000E+00 0.  1.
</event>
<event>
 5    1  0.8900327E-005  0.9118800E+02  0.7818608E-02  0.1130116E+00
         25   -1    0    0    0    0  0.00000000000E+00  0.00000000000E+00  0.99999998245E-14  0.12500000000E+03  0.12500000000E+03 0.  0.
        -11    1    3    3    0    0  0.23794744503E+02 -0.27176483080E+02  0.17559016367E+02  0.40163044638E+02  0.51100000000E-03 0.  1.
         23    2    1    0    0    0 -0.17807780477E+02  0.82574029110E+01  0.22627529677E+02  0.95044919502E+02  0.90201052519E+02 0.  0.
         11    1    3    3    0    0 -0.41602524980E+02  0.35433885991E+02  0.50685133096E+01  0.54881874864E+02  0.51100000000E-03 0. -1.
         22    1    1    0    0    0  0.17807780477E+02 -0.82574029110E+01 -0.22627529677E+02  0.29955080498E+02  0.00000000000E+00 0. -1.
</event>
<event>
 5    1  0.8900327E-005  0.9118800E+02  0.7818608E-02  0.1130116E+00
         25   -1    0    0    0    0  0.00000000000E+00  0.00000000000E+00  0.99999998245E-14  0.12500000000E+03  0.12500000000E+03 0.  0.
        -11    1    3    3    0    0  0.30972808754E+01  0.26798256884E+02 -0.33099427506E+02  0.42700255530E+02  0.51100000000E-03 0.  1.
         23    2    1    0    0    0  0.11390213009E+02 -0.22477405345E+02 -0.13830169426E+02  0.96255534623E+02  0.91863396714E+02 0.  0.
         11    1    3    3    0    0  0.82929321332E+01 -0.49275662230E+02  0.19269258079E+02  0.53555279093E+02  0.51100000000E-03 0. -1.
         22    1    1    0    0    0 -0.11390213009E+02  0.22477405345E+02  0.13830169426E+02  0.28744465377E+02  0.00000000000E+00 0. -1.
</event>
<event>
 5    1  0.8900327E-005  0.9118800E+02  0.7818608E-02  0.1130116E+00
         25   -1    0    0    0    0  0.00000000000E+00  0.00000000000E+00  0.99999998245E-14  0.12500000000E+03  0.12500000000E+03 0.  0.
        -11    1    3    3    0    0  0.54362871796E+01 -0.23096880073E+01  0.32311521491E+02  0.32846952648E+02  0.51100000000E-03 0. -1.
         23    2    1    0    0    0  0.12353335476E+01  0.33026465947E+01 -0.29618421365E+02  0.95172422028E+02  0.90377571925E+02 0.  0.
         11    1    3    3    0    0 -0.42009536320E+01  0.56123346019E+01 -0.61929942855E+02  0.62325469380E+02  0.51100000000E-03 0.  1.
         22    1    1    0    0    0 -0.12353335476E+01 -0.33026465947E+01  0.29618421365E+02  0.29827577972E+02  0.00000000000E+00 0.  1.
</event>
<event>
 5    1  0.8900327E-005  0.9118800E+02  0.7818608E-02  0.1130116E+00
         25   -1    0    0    0    0  0.00000000000E+00  0.00000000000E+00  0.99999998245E-14  0.12500000000E+03  0.12500000000E+03 0.  0.
        -11    1    3    3    0    0 -0.18261140418E+02  0.24806622660E+02  0.97870723634E+00  0.30818754766E+02  0.51100000000E-03 0.  1.
         23    2    1    0    0    0 -0.36387707048E+02 -0.50084502257E+01  0.31066966035E+02  0.76892763782E+02  0.59984922651E+02 0.  0.
         11    1    3    3    0    0 -0.18126566630E+02 -0.29815072886E+02  0.30088258799E+02  0.46074009016E+02  0.51100000000E-03 0. -1.
         22    1    1    0    0    0  0.36387707048E+02  0.50084502257E+01 -0.31066966035E+02  0.48107236218E+02  0.00000000000E+00 0. -1.
</event>
<event>
 5    1  0.8900327E-005  0.9118800E+02  0.7818608E-02  0.1130116E+00
         25   -1    0    0    0    0  0.00000000000E+00  0.00000000000E+00  0.99999998245E-14  0.12500000000E+03  0.12500000000E+03 0.  0.
        -11    1    3    3    0    0 -0.26501715615E+02 -0.27601199974E+02 -0.29838954083E+02  0.48523503084E+02  0.51100000000E-03 0. -1.
         23    2    1    0    0    0 -0.17989592761E+02 -0.17463845998E+02  0.15343799147E+02  0.95605382516E+02  0.90974422939E+02 0.  0.
         11    1    3    3    0    0  0.85121228542E+01  0.10137353975E+02  0.45182753230E+02  0.47081879432E+02  0.51100000000E-03 0.  1.
         22    1    1    0    0    0  0.17989592761E+02  0.17463845998E+02 -0.15343799147E+02  0.29394617484E+02  0.00000000000E+00 0.  1.
</event>
<event>
 5    1  0.8900327E-005  0.9118800E+02  0.7818608E-02  0.1130116E+00
         25   -1    0    0    0    0  0.00000000000E+00  0.00000000000E+00  0.99999998245E-14  0.12500000000E+03  0.12500000000E+03 0.  0.
        -11    1    3    3    0    0 -0.47379748246E+01 -0.45523227665E+02  0.87320015615E+01  0.46594640400E+02  0.51100000000E-03 0.  1.
         23    2    1    0    0    0 -0.22386130109E+02  0.51661702614E+00  0.17380916755E+02  0.96653889480E+02  0.92403854735E+02 0.  0.
         11    1    3    3    0    0 -0.17648155284E+02  0.46039844691E+02  0.86489151932E+01  0.50059249080E+02  0.51100000000E-03 0. -1.
         22    1    1    0    0    0  0.22386130109E+02 -0.51661702614E+00 -0.17380916755E+02  0.28346110520E+02  0.00000000000E+00 0. -1.
</event>
<event>
 5    1  0.8900327E-005  0.9118800E+02  0.7818608E-02  0.1130116E+00
         25   -1    0    0    0    0  0.00000000000E+00  0.00000000000E+00  0.99999998245E-14  0.12500000000E+03  0.12500000000E+03 0.  0.
        -11    1    3    3    0    0  0.19915541713E+02 -0.43521214505E+02  0.37685040326E+02  0.60917051622E+02  0.51100000000E-03 0. -1.
         23    2    1    0    0    0  0.12343993364E+02 -0.24523559528E+02  0.90766799763E+01  0.96083477673E+02  0.91628976957E+02 0.  0.
         11    1    3    3    0    0 -0.75715483491E+01  0.18997654977E+02 -0.28608360349E+02  0.35166426051E+02  0.51100000000E-03 0.  1.
         22    1    1    0    0    0 -0.12343993364E+02  0.24523559528E+02 -0.90766799763E+01  0.28916522327E+02  0.00000000000E+00 0. -1.
</event>
<event>
 5    1  0.8900327E-005  0.9118800E+02  0.7818608E-02  0.1130116E+00
         25   -1    0    0    0    0  0.00000000000E+00  0.00000000000E+00  0.99999998245E-14  0.12500000000E+03  0.12500000000E+03 0.  0.
        -11    1    3    3    0    0 -0.96578608471E+01  0.10966853664E+02  0.56885007332E+02  0.58732020353E+02  0.51100000000E-03 0.  1.
         23    2    1    0    0    0 -0.61861167071E+01  0.17591956352E+02  0.15605124053E+02  0.10068406150E+03  0.97703712192E+02 0.  0.
         11    1    3    3    0    0  0.34717441400E+01  0.66251026882E+01 -0.41279883278E+02  0.41952041151E+02  0.51100000000E-03 0. -1.
         22    1    1    0    0    0  0.61861167071E+01 -0.17591956352E+02 -0.15605124053E+02  0.24315938496E+02  0.00000000000E+00 0.  1.
</event>
<event>
 5    1  0.8900327E-005  0.9118800E+02  0.7818608E-02  0.1130116E+00
         25   -1    0    0    0    0  0.00000000000E+00  0.00000000000E+00  0.99999998245E-14  0.12500000000E+03  0.12500000000E+03 0.  0.
        -11    1    3    3    0    0 -0.15541866440E+02  0.32542800394E+02  0.20794277975E+02  0.41629142036E+02  0.51100000000E-03 0. -1.
         23    2    1    0    0    0 -0.16859128884E+02  0.36505061113E+01 -0.24299051127E+02  0.95200665993E+02  0.90416627332E+02 0.  0.
         11    1    3    3    0    0 -0.13172624442E+01 -0.28892294282E+02 -0.45093329103E+02  0.53571523957E+02  0.51100000000E-03 0.  1.
         22    1    1    0    0    0  0.16859128884E+02 -0.36505061113E+01  0.24299051127E+02  0.29799334007E+02  0.00000000000E+00 0.  1.
</event>
<event>
 5    1  0.8900327E-005  0.9118800E+02  0.7818608E-02  0.1130116E+00
         25   -1    0    0    0    0  0.00000000000E+00  0.00000000000E+00  0.99999998245E-14  0.12500000000E+03  0.12500000000E+03 0.  0.
        -11    1    3    3    0    0 -0.39370726578E+02 -0.12394451822E+01  0.67669373459E+01  0.39967258812E+02  0.51100000000E-03 0.  1.
         23    2    1    0    0    0  0.14147274989E+02  0.22160087796E+02  0.36094326910E+01  0.98462425034E+02  0.94818807514E+02 0.  0.
         11    1    3    3    0    0  0.53518001568E+02  0.23399532978E+02 -0.31575046549E+01  0.58495166221E+02  0.51100000000E-03 0. -1.
         22    1    1    0    0    0 -0.14147274989E+02 -0.22160087796E+02 -0.36094326910E+01  0.26537574966E+02  0.00000000000E+00 0. -1.
</event>
<event>
 5    1  0.8900327E-005  0.9118800E+02  0.7818608E-02  0.1130116E+00
         25   -1    0    0    0    0  0.00000000000E+00  0.00000000000E+00  0.99999998245E-14  0.12500000000E+03  0.12500000000E+03 0.  0.
        -11    1    3    3    0    0  0.35317026461E+02  0.19480711320E+02  0.13029041483E+02  0.42385686190E+02  0.51100000000E-03 0.  1.
         23    2    1    0    0    0  0.15082856554E+02 -0.14961642421E+02 -0.21196974551E+02  0.94989084721E+02  0.90123643847E+02 0.  0.
         11    1    3    3    0    0 -0.20234169907E+02 -0.34442353742E+02 -0.34226016034E+02  0.52603398530E+02  0.51100000000E-03 0. -1.
         22    1    1    0    0    0 -0.15082856554E+02  0.14961642421E+02  0.21196974551E+02  0.30010915279E+02  0.00000000000E+00 0.  1.
</event>
<event>
 5    1  0.8900327E-005  0.9118800E+02  0.7818608E-02  0.1130116E+00
         25   -1    0    0    0    0  0.00000000000E+00  0.00000000000E+00  0.99999998245E-14  0.12500000000E+03  0.12500000000E+03 0.  0.
        -11    1    3    3    0    0 -0.95631024261E+01 -0.55214400852E+01 -0.51873730087E+02  0.53036054736E+02  0.51100000000E-03 0.  1.
         23    2    1    0    0    0  0.17769081119E+02  0.77742195818E+01 -0.22327117500E+02  0.95425028998E+02  0.90726276511E+02 0.  0.
         11    1    3    3    0    0  0.27332183545E+02  0.13295659667E+02  0.29546612587E+02  0.42388974262E+02  0.51100000000E-03 0. -1.
         22    1    1    0    0    0 -0.17769081119E+02 -0.77742195818E+01  0.22327117500E+02  0.29574971002E+02  0.00000000000E+00 0.  1.
</event>
<event>
 5    1  0.8900327E-005  0.9118800E+02  0.7818608E-02  0.1130116E+00
         25   -1    0    0    0    0  0.00000000000E+00  0.00000000000E+00  0.99999998245E-14  0.12500000000E+03  0.12500000000E+03 0.  0.
        -11    1    3    3    0    0 -0.33909857464E+02  0.23299705609E+02  0.30667299131E+02  0.51315085024E+02  0.51100000000E-03 0.  1.
         23    2    1    0    0    0  0.77167684395E+01 -0.62192380549E+01  0.18860580531E+02  0.10369392258E+03  0.10148143005E+03 0.  0.
         11    1    3    3    0    0  0.41626625904E+02 -0.29518943664E+02 -0.11806718600E+02  0.52378837554E+02  0.51100000000E-03 0. -1.
         22    1    1    0    0    0 -0.77167684395E+01  0.62192380549E+01 -0.18860580531E+02  0.21306077422E+02  0.00000000000E+00 0. -1.
</event>
<event>
 5    1  0.8900327E-005  0.9118800E+02  0.7818608E-02  0.1130116E+00
         25   -1    0    0    0    0  0.00000000000E+00  0.00000000000E+00  0.99999998245E-14  0.12500000000E+03  0.12500000000E+03 0.  0.
        -11    1    3    3    0    0  0.83540511702E+01 -0.48096466477E+02 -0.24178715044E+02  0.54476329905E+02  0.51100000000E-03 0.  1.
         23    2    1    0    0    0 -0.14894637321E+02 -0.24341101270E+02  0.14170094038E+01  0.96428207133E+02  0.92098055264E+02 0.  0.
         11    1    3    3    0    0 -0.23248688492E+02  0.23755365207E+02  0.25595724447E+02  0.41951877228E+02  0.51100000000E-03 0. -1.
         22    1    1    0    0    0  0.14894637321E+02  0.24341101270E+02 -0.14170094038E+01  0.28571792867E+02  0.00000000000E+00 0.  1.
</event>
<event>
 5    1  0.8900327E-005  0.9118800E+02  0.7818608E-02  0.1130116E+00
         25   -1    0    0    0    0  0.00000000000E+00  0.00000000000E+00  0.99999998245E-14  0.12500000000E+03  0.12500000000E+03 0.  0.
        -11    1    3    3    0    0  0.83409136525E+01  0.95635058972E+01 -0.33385352194E+02  0.35715728006E+02  0.51100000000E-03 0.  1.
         23    2    1    0    0    0 -0.27984560361E+02  0.51259969520E+01  0.12090222536E+02  0.94087462992E+02  0.88864310878E+02 0.  0.
         11    1    3    3    0    0 -0.36325474013E+02 -0.44375089452E+01  0.45475574730E+02  0.58371734986E+02  0.51100000000E-03 0. -1.
         22    1    1    0    0    0  0.27984560361E+02 -0.51259969520E+01 -0.12090222536E+02  0.30912537008E+02  0.00000000000E+00 0. -1.
</event>
<event>
 5    1  0.8900327E-005  0.9118800E+02  0.7818608E-02  0.1130116E+00
         25   -1    0    0    0    0  0.00000000000E+00  0.00000000000E+00  0.99999998245E-14  0.12500000000E+03  0.12500000000E+03 0.  0.
        -11    1    3    3    0    0  0.21802783116E+02  0.58618931503E+01 -0.27628250819E+02  0.35679733554E+02  0.51100000000E-03 0. -1.
         23    2    1    0    0    0 -0.16941942332E+02  0.16961463347E+02  0.16846516377E+02  0.95699389718E+02  0.91103498448E+02 0.  0.
         11    1    3    3    0    0 -0.38744725448E+02  0.11099570196E+02  0.44474767197E+02  0.60019656164E+02  0.51100000000E-03 0.  1.
         22    1    1    0    0    0  0.16941942332E+02 -0.16961463347E+02 -0.16846516377E+02  0.29300610282E+02  0.00000000000E+00 0.  1.
</event>
<event>
 5    1  0.8900327E-005  0.9118800E+02  0.7818608E-02  0.1130116E+00
         25   -1    0    0    0    0  0.00000000000E+00  0.00000000000E+00  0.99999998245E-14  0.12500000000E+03  0.12500000000E+03 0.  0.
        -11    1    3    3    0    0  0.29673185233E+02 -0.29264626485E+02  0.75771109872E+01  0.42359519548E+02  0.51100000000E-03 0.  1.
         23    2    1    0    0    0 -0.13654295543E+02 -0.20137996296E+02 -0.19113073283E+02  0.94059924824E+02  0.88825566173E+02 0.  0.
         11    1    3    3    0    0 -0.43327480776E+02  0.91266301892E+01 -0.26690184270E+02  0.51700405276E+02  0.51100000000E-03 0. -1.
         22    1    1    0    0    0  0.13654295543E+02  0.20137996296E+02  0.19113073283E+02  0.30940075176E+02  0.00000000000E+00 0. -1.
</event>
<event>
 5    1  0.8900327E-005  0.9118800E+02  0.7818608E-02  0.1130116E+00
         25   -1    0    0    0    0  0.00000000000E+00  0.00000000000E+00  0.99999998245E-14  0.12500000000E+03  0.12500000000E+03 0.  0.
        -11    1    3    3    0    0  0.65045626795E+01 -0.28878743485E+02  0.52913017922E+02  0.60630673976E+02  0.51100000000E-03 0. -1.
         23    2    1    0    0    0  0.75378457448E+01 -0.42143790704E+01  0.27982128367E+02  0.95715539661E+02  0.91125654540E+02 0.  0.
         11    1    3    3    0    0  0.10332830653E+01  0.24664364415E+02 -0.24930889555E+02  0.35084865685E+02  0.51100000000E-03 0.  1.
         22    1    1    0    0    0 -0.75378457448E+01  0.42143790704E+01 -0.27982128367E+02  0.29284460339E+02  0.00000000000E+00 0. -1.
</event>
<event>
 5    1  0.8900327E-005  0.9118800E+02  0.7818608E-02  0.1130116E+00
         25   -1    0    0    0    0  0.00000000000E+00  0.00000000000E+00  0.99999998245E-14  0.12500000000E+03  0.12500000000E+03 0.  0.
        -11    1    3    3    0    0  0.86279431812E+01  0.79712310531E+01  0.28865444591E+02  0.31164014821E+02  0.51100000000E-03 0.  1.
         23    2    1    0    0    0 -0.27663055817E+02  0.35742363143E+01 -0.18895399506E+02  0.91309408660E+02  0.84866672876E+02 0.  0.
         11    1    3    3    0    0 -0.36290998998E+02 -0.43969947388E+01 -0.47760844097E+02  0.60145393839E+02  0.51100000000E-03 0. -1.
         22    1    1    0    0    0  0.27663055817E+02 -0.35742363143E+01  0.18895399506E+02  0.33690591340E+02  0.00000000000E+00 0. -1.
</event>
<event>
 5    1  0.8900327E-005  0.9118800E+02  0.7818608E-02  0.1130116E+00
         25   -1    0    0    0    0  0.00000000000E+00  0.00000000000E+00  0.99999998245E-14  0.12500000000E+03  0.12500000000E+03 0.  0.
        -11    1    3    3    0    0  0.56077482306E+02  0.14996821774E+02 -0.14816168165E+02  0.59909160606E+02  0.51100000000E-03 0. -1.
         23    2    1    0    0    0  0.26461245731E+02  0.11904801080E+02 -0.19483072760E+02  0.90049864971E+02  0.82990759984E+02 0.  0.
         11    1    3    3    0    0 -0.29616236576E+02 -0.30920206935E+01 -0.46669045946E+01  0.30140704365E+02  0.51100000000E-03 0.  1.
         22    1    1    0    0    0 -0.26461245731E+02 -0.11904801080E+02  0.19483072760E+02  0.34950135029E+02  0.00000000000E+00 0. -1.
</event>
<event>
 5    1  0.8900327E-005  0.9118800E+02  0.7818608E-02  0.1130116E+00
         25   -1    0    0    0    0  0.00000000000E+00  0.00000000000E+00  0.99999998245E-14  0.12500000000E+03  0.12500000000E+03 0.  0.
        -11    1    3    3    0    0 -0.38154125105E+02 -0.28529519507E+02  0.38345079337E+02  0.61155669038E+02  0.51100000000E-03 0.  1.
         23    2    1    0    0    0 -0.23340495354E+02 -0.16607888383E+02  0.11323582574E+02  0.94197009849E+02  0.89018270385E+02 0.  0.
         11    1    3    3    0    0  0.14813629751E+02  0.11921631123E+02 -0.27021496763E+02  0.33041340812E+02  0.51100000000E-03 0. -1.
         22    1    1    0    0    0  0.23340495354E+02  0.16607888383E+02 -0.11323582574E+02  0.30802990151E+02  0.00000000000E+00 0.  1.
</event>
<event>
 5    1  0.8900327E-005  0.9118800E+02  0.7818608E-02  0.1130116E+00
         25   -1    0    0    0    0  0.00000000000E+00  0.00000000000E+00  0.99999998245E-14  0.12500000000E+03  0.12500000000E+03 0.  0.
        -11    1    3    3    0    0  0.24210597365E+02  0.93853256106E+01 -0.40926326445E+02  0.48468562575E+02  0.51100000000E-03 0.  1.
         23    2    1    0    0    0 -0.10542811320E+02  0.24212502673E+02 -0.12324758717E+02  0.95857319381E+02  0.91319931259E+02 0.  0.
         11    1    3    3    0    0 -0.34753408685E+02  0.14827177063E+02  0.28601567727E+02  0.47388756806E+02  0.51100000000E-03 0. -1.
         22    1    1    0    0    0  0.10542811320E+02 -0.24212502673E+02  0.12324758717E+02  0.29142680619E+02  0.00000000000E+00 0.  1.
</event>
<event>
 5    1  0.8900327E-005  0.9118800E+02  0.7818608E-02  0.1130116E+00
         25   -1    0    0    0    0  0.00000000000E+00  0.00000000000E+00  0.99999998245E-14  0.12500000000E+03  0.12500000000E+03 0.  0.
        -11    1    3    3    0    0  0.22573855713E+02  0.20239183246E+02 -0.19845621414E+02  0.36236062007E+02  0.51100000000E-03 0.  1.
         23    2    1    0    0    0 -0.25321895862E+02 -0.11234382256E+02 -0.14326511656E+02  0.93812523491E+02  0.88476725035E+02 0.  0.
         11    1    3    3    0    0 -0.47895751575E+02 -0.31473565501E+02  0.55191097571E+01  0.57576461485E+02  0.51100000000E-03 0. -1.
         22    1    1    0    0    0  0.25321895862E+02  0.11234382256E+02  0.14326511656E+02  0.31187476509E+02  0.00000000000E+00 0. -1.
</event>
<event>
 5    1  0.8900327E-005  0.9118800E+02  0.7818608E-02  0.1130116E+00
         25   -1    0    0    0    0  0.00000000000E+00  0.00000000000E+00  0.99999998245E-14  0.12500000000E+03  0.12500000000E+03 0.  0.
        -11    1    3    3    0    0 -0.14333111062E+02 -0.26699841501E+02  0.45055482530E+02  0.54298398827E+02  0.51100000000E-03 0. -1.
         23    2    1    0    0    0 -0.23858180116E+02  0.22704416429E+01  0.18787020462E+02  0.94548073927E+02  0.89509879241E+02 0.  0.
         11    1    3    3    0    0 -0.95250690541E+01  0.28970283144E+02 -0.26268462068E+02  0.40249675100E+02  0.51100000000E-03 0.  1.
         22    1    1    0    0    0  0.23858180116E+02 -0.22704416429E+01 -0.18787020462E+02  0.30451926073E+02  0.00000000000E+00 0. -1.
</event>
<event>
 5    1  0.8900327E-005  0.9118800E+02  0.7818608E-02  0.1130116E+00
         25   -1    0    0    0    0  0.00000000000E+00  0.00000000000E+00  0.99999998245E-14  0.12500000000E+03  0.12500000000E+03 0.  0.
        -11    1    3    3    0    0 -0.31490056568E+02  0.91841592235E+01 -0.11350681906E+02  0.34710379186E+02  0.51100000000E-03 0.  1.
         23    2    1    0    0    0  0.21348384711E+02  0.16345417724E+02  0.15025746826E+02  0.94199037710E+02  0.89021117874E+02 0.  0.
         11    1    3    3    0    0  0.52838441278E+02  0.71612585001E+01  0.26376428732E+02  0.59488658524E+02  0.51100000000E-03 0. -1.
         22    1    1    0    0    0 -0.21348384711E+02 -0.16345417724E+02 -0.15025746826E+02  0.30800962290E+02  0.00000000000E+00 0. -1.
</event>
<event>
 5    1  0.8900327E-005  0.9118800E+02  0.7818608E-02  0.1130116E+00
         25   -1    0    0    0    0  0.00000000000E+00  0.00000000000E+00  0.99999998245E-14  0.12500000000E+03  0.12500000000E+03 0.  0.
        -11    1    3    3    0    0 -0.70891834370E+01  0.39992579176E+02  0.24140490807E+02  0.47248557730E+02  0.51100000000E-03 0.  1.
         23    2    1    0    0    0  0.95012271433E+01 -0.94131559839E+01  0.21807746811E+02  0.99417610671E+02  0.96069780200E+02 0.  0.
         11    1    3    3    0    0  0.16590410580E+02 -0.49405735160E+02 -0.23327439959E+01  0.52169052941E+02  0.51100000000E-03 0. -1.
         22    1    1    0    0    0 -0.95012271433E+01  0.94131559839E+01 -0.21807746811E+02  0.25582389329E+02  0.00000000000E+00 0. -1.
</event>
<event>
 4    1  0.8900327E-005  0.9118800E+02  0.7818608E-02  0.1130116E+00
         25   -1    0    0    0    0  0.00000000000E+00  0.00000000000E+00  0.99999998245E-14  0.12500000000E+03  0.12500000000E+03 0.  0.
        -11    1    1    0    0    0 -0.74546237764E+01  0.10754256538E+02  0.42881323758E+02  0.44833395776E+02  0.51100000000E-03 0.  1.
         11    1    1    0    0    0  0.14816154818E+02  0.83863933386E+01  0.12492948449E+02  0.21116907871E+02  0.51100000000E-03 0. -1.
         22    1    1    0    0    0 -0.73615310414E+01 -0.19140649876E+02 -0.55374272207E+02  0.59049696353E+02  0.00000000000E+00 0.  1.
</event>
<event>
 5    1  0.8900327E-005  0.9118800E+02  0.7818608E-02  0.1130116E+00
         25   -1    0    0    0    0  0.00000000000E+00  0.00000000000E+00  0.99999998245E-14  0.12500000000E+03  0.12500000000E+03 0.  0.
        -11    1    3    3    0    0  0.19281607106E+02  0.26685161284E+01  0.87098242298E+01  0.21325158600E+02  0.51100000000E-03 0. -1.
         23    2    1    0    0    0 -0.65224141682E+01  0.49384969204E+02  0.16546060380E+01  0.75158703959E+02  0.56255452978E+02 0.  0.
         11    1    3    3    0    0 -0.25804021275E+02  0.46716453076E+02 -0.70552181918E+01  0.53833545359E+02  0.51100000000E-03 0.  1.
         22    1    1    0    0    0  0.65224141682E+01 -0.49384969204E+02 -0.16546060380E+01  0.49841296041E+02  0.00000000000E+00 0.  1.
</event>
<event>
 5    1  0.8900327E-005  0.9118800E+02  0.7818608E-02  0.1130116E+00
         25   -1    0    0    0    0  0.00000000000E+00  0.00000000000E+00  0.99999998245E-14  0.12500000000E+03  0.12500000000E+03 0.  0.
        -11    1    3    3    0    0 -0.52068019060E+02 -0.92858244696E+01  0.21166065020E+02  0.56967600033E+02  0.51100000000E-03 0.  1.
         23    2    1    0    0    0 -0.10383697735E+02 -0.17461531033E+02  0.14673237821E+02  0.99939470221E+02  0.96746408487E+02 0.  0.
         11    1    3    3    0    0  0.41684321325E+02 -0.81757065633E+01 -0.64928271988E+01  0.42971870188E+02  0.51100000000E-03 0. -1.
         22    1    1    0    0    0  0.10383697735E+02  0.17461531033E+02 -0.14673237821E+02  0.25060529779E+02  0.00000000000E+00 0.  1.
</event>
<event>
 5    1  0.8900327E-005  0.9118800E+02  0.7818608E-02  0.1130116E+00
         25   -1    0    0    0    0  0.00000000000E+00  0.00000000000E+00  0.99999998245E-14  0.12500000000E+03  0.12500000000E+03 0.  0.
        -11    1    3    3    0    0  0.17106574268E+02  0.32295497845E+02  0.34945916985E+02  0.50565315963E+02  0.51100000000E-03 0. -1.
         23    2    1    0    0    0 -0.17693813664E+02  0.25828895661E+01  0.18709631633E+02  0.99119646905E+02  0.95681302908E+02 0.  0.
         11    1    3    3    0    0 -0.34800387932E+02 -0.29712608279E+02 -0.16236285352E+02  0.48554330942E+02  0.51100000000E-03 0.  1.
         22    1    1    0    0    0  0.17693813664E+02 -0.25828895661E+01 -0.18709631633E+02  0.25880353095E+02  0.00000000000E+00 0.  1.
</event>
<event>
 5    1  0.8900327E-005  0.9118800E+02  0.7818608E-02  0.1130116E+00
         25   -1    0    0    0    0  0.00000000000E+00  0.00000000000E+00  0.99999998245E-14  0.12500000000E+03  0.12500000000E+03 0.  0.
        -11    1    3    3    0    0  0.67594749939E+01 -0.41251353469E+02  0.19560801922E+02  0.46151810770E+02  0.51100000000E-03 0.  1.
         23    2    1    0    0    0  0.27094585491E+02  0.31947625700E+01  0.99167869045E+01  0.95971294667E+02  0.91475809189E+02 0.  0.
         11    1    3    3    0    0  0.20335110497E+02  0.44446116039E+02 -0.96440150179E+01  0.49819483897E+02  0.51100000000E-03 0. -1.
         22    1    1    0    0    0 -0.27094585491E+02 -0.31947625700E+01 -0.99167869045E+01  0.29028705333E+02  0.00000000000E+00 0.  1.
</event>
<event>
 5    1  0.8900327E-005  0.9118800E+02  0.7818608E-02  0.1130116E+00
         25   -1    0    0    0    0  0.00000000000E+00  0.00000000000E+00  0.99999998245E-14  0.12500000000E+03  0.12500000000E+03 0.  0.
        -11    1    3    3    0    0  0.79284246322E+01 -0.49055489542E+02 -0.99156940786E+01  0.50671707694E+02  0.51100000000E-03 0.  1.
         23    2    1    0    0    0  0.28693774343E+02 -0.14059511157E+02  0.17353771701E+01  0.92999780096E+02  0.87320931190E+02 0.  0.
         11    1    3    3    0    0  0.20765349710E+02  0.34995978385E+02  0.11651071249E+02  0.42328072401E+02  0.51100000000E-03 0. -1.
         22    1    1    0    0    0 -0.28693774343E+02  0.14059511157E+02 -0.17353771701E+01  0.32000219904E+02  0.00000000000E+00 0.  1.
</event>
<event>
 5    1  0.8900327E-005  0.9118800E+02  0.7818608E-02  0.1130116E+00
         25   -1    0    0    0    0  0.00000000000E+00  0.00000000000E+00  0.99999998245E-14  0.12500000000E+03  0.12500000000E+03 0.  0.
        -11    1    3    3    0    0  0.44030462860E+02 -0.22569398395E+01  0.72035936000E+01  0.44672891087E+02  0.51100000000E-03 0.  1.
         23    2    1    0    0    0  0.15187335713E+02 -0.15425917141E+02 -0.26390282804E+02  0.90867008450E+02  0.84212541301E+02 0.  0.
         11    1    3    3    0    0 -0.28843127147E+02 -0.13168977302E+02 -0.33593876404E+02  0.46194117363E+02  0.51100000000E-03 0. -1.
         22    1    1    0    0    0 -0.15187335713E+02  0.15425917141E+02  0.26390282804E+02  0.34132991550E+02  0.00000000000E+00 0. -1.
</event>
<event>
 5    1  0.8900327E-005  0.9118800E+02  0.7818608E-02  0.1130116E+00
         25   -1    0    0    0    0  0.00000000000E+00  0.00000000000E+00  0.99999998245E-14  0.12500000000E+03  0.12500000000E+03 0.  0.
        -11    1    3    3    0    0  0.14663689057E+02 -0.42480982596E+02 -0.30023804470E+02  0.54047076648E+02  0.51100000000E-03 0. -1.
         23    2    1    0    0    0  0.18181948057E+02 -0.21320252542E+02  0.63445223780E+01  0.96270409543E+02  0.91883635027E+02 0.  0.
         11    1    3    3    0    0  0.35182589993E+01  0.21160730054E+02  0.36368326848E+02  0.42223332895E+02  0.51100000000E-03 0.  1.
         22    1    1    0    0    0 -0.18181948057E+02  0.21320252542E+02 -0.63445223780E+01  0.28729590457E+02  0.00000000000E+00 0. -1.
</event>
<event>
 5    1  0.8900327E-005  0.9118800E+02  0.7818608E-02  0.1130116E+00
         25   -1    0    0    0    0  0.00000000000E+00  0.00000000000E+00  0.99999998245E-14  0.12500000000E+03  0.12500000000E+03 0.  0.
        -11    1    3    3    0    0 -0.12327177845E+02 -0.62861860912E+00 -0.30693672244E+02  0.33082563249E+02  0.51100000000E-03 0.  1.
         23    2    1    0    0    0  0.18375802974E+02  0.20172001877E+02  0.16506257816E+02  0.93108992776E+02  0.87477129548E+02 0.  0.
         11    1    3    3    0    0  0.30702980820E+02  0.20800620486E+02  0.47199930061E+02  0.60026429527E+02  0.51100000000E-03 0. -1.
         22    1    1    0    0    0 -0.18375802974E+02 -0.20172001877E+02 -0.16506257816E+02  0.31891007224E+02  0.00000000000E+00 0. -1.
</event>
<event>
 5    1  0.8900327E-005  0.9118800E+02  0.7818608E-02  0.1130116E+00
         25   -1    0    0    0    0  0.00000000000E+00  0.00000000000E+00  0.99999998245E-14  0.12500000000E+03  0.12500000000E+03 0.  0.
        -11    1    3    3    0    0 -0.97067291370E+01 -0.56085843908E+02  0.79008124781E+01  0.57465340123E+02  0.51100000000E-03 0. -1.
         23    2    1    0    0    0  0.12453560827E+02 -0.27013260007E+02  0.86290731711E+01  0.94027943284E+02  0.88780548663E+02 0.  0.
         11    1    3    3    0    0  0.22160289964E+02  0.29072583901E+02  0.72826069304E+00  0.36562603160E+02  0.51100000000E-03 0.  1.
         22    1    1    0    0    0 -0.12453560827E+02  0.27013260007E+02 -0.86290731711E+01  0.30972056716E+02  0.00000000000E+00 0. -1.
</event>
<event>
 5    1  0.8900327E-005  0.9118800E+02  0.7818608E-02  0.1130116E+00
         25   -1    0    0    0    0  0.00000000000E+00  0.00000000000E+00  0.99999998245E-14  0.12500000000E+03  0.12500000000E+03 0.  0.
        -11    1    3    3    0    0 -0.39952432752E+02 -0.89562382767E+01  0.20154355243E+01  0.40993573490E+02  0.51100000000E-03 0. -1.
         23    2    1    0    0    0  0.39379609508E+01 -0.96303295171E+01 -0.28636495905E+02  0.94531989222E+02  0.89487414229E+02 0.  0.
         11    1    3    3    0    0  0.43890393703E+02 -0.67409124037E+00 -0.30651931430E+02  0.53538415731E+02  0.51100000000E-03 0.  1.
         22    1    1    0    0    0 -0.39379609508E+01  0.96303295171E+01  0.28636495905E+02  0.30468010778E+02  0.00000000000E+00 0. -1.
</event>
<event>
 5    1  0.8900327E-005  0.9118800E+02  0.7818608E-02  0.1130116E+00
         25   -1    0    0    0    0  0.00000000000E+00  0.00000000000E+00  0.99999998245E-14  0.12500000000E+03  0.12500000000E+03 0.  0.
        -11    1    3    3    0    0 -0.44683432001E+02  0.38859844802E+02 -0.15698303650E+02  0.61262822096E+02  0.51100000000E-03 0. -1.
         23    2    1    0    0    0 -0.27015704468E+02  0.15583098796E+02 -0.14383182248E+01  0.93779013223E+02  0.88429369023E+02 0.  0.
         11    1    3    3    0    0  0.17667727533E+02 -0.23276746006E+02  0.14259985425E+02  0.32516191127E+02  0.51100000000E-03 0.  1.
         22    1    1    0    0    0  0.27015704468E+02 -0.15583098796E+02  0.14383182248E+01  0.31220986777E+02  0.00000000000E+00 0. -1.
</event>
<event>
 5    1  0.8900327E-005  0.9118800E+02  0.7818608E-02  0.1130116E+00
         25   -1    0    0    0    0  0.00000000000E+00  0.00000000000E+00  0.99999998245E-14  0.12500000000E+03  0.12500000000E+03 0.  0.
        -11    1    3    3    0    0  0.21745142381E+02 -0.35299890218E+02 -0.40482392678E+02  0.57946161079E+02  0.51100000000E-03 0. -1.
         23    2    1    0    0    0 -0.56561839662E+01 -0.13394263375E+02 -0.24531588916E+02  0.96483380930E+02  0.92172909429E+02 0.  0.
         11    1    3    3    0    0 -0.27401326348E+02  0.21905626843E+02  0.15950803762E+02  0.38537219852E+02  0.51100000000E-03 0.  1.
         22    1    1    0    0    0  0.56561839662E+01  0.13394263375E+02  0.24531588916E+02  0.28516619070E+02  0.00000000000E+00 0. -1.
</event>
<event>
 5    1  0.8900327E-005  0.9118800E+02  0.7818608E-02  0.1130116E+00
         25   -1    0    0    0    0  0.00000000000E+00  0.00000000000E+00  0.99999998245E-14  0.12500000000E+03  0.12500000000E+03 0.  0.
        -11    1    3    3    0    0  0.55154351243E+02 -0.39545881485E+00 -0.23127530874E+02  0.59808373438E+02  0.51100000000E-03 0. -1.
         23    2    1    0    0    0  0.29322849576E+02  0.12310831761E+00  0.16828738091E+01  0.95628641040E+02  0.91006374831E+02 0.  0.
         11    1    3    3    0    0 -0.25831501667E+02  0.51856713247E+00  0.24810404683E+02  0.35820267602E+02  0.51100000000E-03 0.  1.
         22    1    1    0    0    0 -0.29322849576E+02 -0.12310831761E+00 -0.16828738091E+01  0.29371358960E+02  0.00000000000E+00 0. -1.
</event>
<event>
 5    1  0.8900327E-005  0.9118800E+02  0.7818608E-02  0.1130116E+00
         25   -1    0    0    0    0  0.00000000000E+00  0.00000000000E+00  0.99999998245E-14  0.12500000000E+03  0.12500000000E+03 0.  0.
        -11    1    3    3    0    0  0.69784960700E+01 -0.25429033366E+02 -0.52570177035E+02  0.58812912350E+02  0.51100000000E-03 0.  1.
         23    2    1    0    0    0 -0.28213103518E+01  0.13054518738E+01 -0.29159646909E+02  0.95675112881E+02  0.91070182937E+02 0.  0.
         11    1    3    3    0    0 -0.97998064218E+01  0.26734485240E+02  0.23410530126E+02  0.36862200531E+02  0.51100000000E-03 0. -1.
         22    1    1    0    0    0  0.28213103518E+01 -0.13054518738E+01  0.29159646909E+02  0.29324887119E+02  0.00000000000E+00 0.  1.
</event>
<event>
 5    1  0.8900327E-005  0.9118800E+02  0.7818608E-02  0.1130116E+00
         25   -1    0    0    0    0  0.00000000000E+00  0.00000000000E+00  0.99999998245E-14  0.12500000000E+03  0.12500000000E+03 0.  0.
        -11    1    3    3    0    0 -0.35750802551E+02  0.10926346709E+02  0.59944680508E+01  0.37860778953E+02  0.51100000000E-03 0.  1.
         23    2    1    0    0    0  0.72343155731E+01 -0.13141050480E+02 -0.24842136208E+02  0.95980105773E+02  0.91487848610E+02 0.  0.
         11    1    3    3    0    0  0.42985118124E+02 -0.24067397189E+02 -0.30836604259E+02  0.58119326821E+02  0.51100000000E-03 0. -1.
         22    1    1    0    0    0 -0.72343155731E+01  0.13141050480E+02  0.24842136208E+02  0.29019894227E+02  0.00000000000E+00 0. -1.
</event>
<event>
 5    1  0.8900327E-005  0.9118800E+02  0.7818608E-02  0.1130116E+00
         25   -1    0    0    0    0  0.00000000000E+00  0.00000000000E+00  0.99999998245E-14  0.12500000000E+03  0.12500000000E+03 0.  0.
        -11    1    3    3    0    0 -0.39154084815E+02 -0.34904632204E+02 -0.23057341837E+02  0.57297615306E+02  0.51100000000E-03 0.  1.
         23    2    1    0    0    0 -0.72012608462E+01 -0.29646538701E+02 -0.59669544472E+01  0.93913347557E+02  0.88619054888E+02 0.  0.
         11    1    3    3    0    0  0.31952823969E+02  0.52580935026E+01  0.17090387390E+02  0.36615732251E+02  0.51100000000E-03 0. -1.
         22    1    1    0    0    0  0.72012608462E+01  0.29646538701E+02  0.59669544472E+01  0.31086652443E+02  0.00000000000E+00 0.  1.
</event>
<event>
 5    1  0.8900327E-005  0.9118800E+02  0.7818608E-02  0.1130116E+00
         25   -1    0    0    0    0  0.00000000000E+00  0.00000000000E+00  0.99999998245E-14  0.12500000000E+03  0.12500000000E+03 0.  0.
        -11    1    3    3    0    0  0.40222485933E+02 -0.92116623593E+01  0.21799533224E+02  0.46668219883E+02  0.51100000000E-03 0.  1.
         23    2    1    0    0    0 -0.47774887399E+01 -0.25929763968E+02  0.13475736627E+02  0.95389654920E+02  0.90677526047E+02 0.  0.
         11    1    3    3    0    0 -0.44999974673E+02 -0.16718101609E+02 -0.83237965968E+01  0.48721435037E+02  0.51100000000E-03 0. -1.
         22    1    1    0    0    0  0.47774887399E+01  0.25929763968E+02 -0.13475736627E+02  0.29610345080E+02  0.00000000000E+00 0.  1.
</event>
<event>
 5    1  0.8900327E-005  0.9118800E+02  0.7818608E-02  0.1130116E+00
         25   -1    0    0    0    0  0.00000000000E+00  0.00000000000E+00  0.99999998245E-14  0.12500000000E+03  0.12500000000E+03 0.  0.
        -11    1    3    3    0    0 -0.28058628289E+02 -0.57914128804E+01  0.43075689220E+02  0.51733374978E+02  0.51100000000E-03 0.  1.
         23    2    1    0    0    0 -0.25221999633E+02 -0.16616559782E+02  0.15323753632E+01  0.94757521617E+02  0.89801895327E+02 0.  0.
         11    1    3    3    0    0  0.28366286563E+01 -0.10825146902E+02 -0.41543313856E+02  0.43024146639E+02  0.51100000000E-03 0. -1.
         22    1    1    0    0    0  0.25221999633E+02  0.16616559782E+02 -0.15323753632E+01  0.30242478383E+02  0.00000000000E+00 0.  1.
</event>
<event>
 5    1  0.8900327E-005  0.9118800E+02  0.7818608E-02  0.1130116E+00
         25   -1    0    0    0    0  0.00000000000E+00  0.00000000000E+00  0.99999998245E-14  0.12500000000E+03  0.12500000000E+03 0.  0.
        -11    1    3    3    0    0  0.32813840331E+02 -0.68428080188E+01  0.17965236491E+01  0.33567836337E+02  0.51100000000E-03 0.  1.
         23    2    1    0    0    0 -0.27253512930E+02 -0.78403253207E+01  0.11455157942E+02  0.94414949540E+02  0.89323778385E+02 0.  0.
         11    1    3    3    0    0 -0.60067353261E+02 -0.99751730184E+00  0.96586342929E+01  0.60847113203E+02  0.51100000000E-03 0. -1.
         22    1    1    0    0    0  0.27253512930E+02  0.78403253207E+01 -0.11455157942E+02  0.30585050460E+02  0.00000000000E+00 0. -1.
</event>
<event>
 5    1  0.8900327E-005  0.9118800E+02  0.7818608E-02  0.1130116E+00
         25   -1    0    0    0    0  0.00000000000E+00  0.00000000000E+00  0.99999998245E-14  0.12500000000E+03  0.12500000000E+03 0.  0.
        -11    1    3    3    0    0 -0.12936654409E+02 -0.53143069633E+02 -0.70996626466E+01  0.55153858317E+02  0.51100000000E-03 0.  1.
         23    2    1    0    0    0  0.15559916011E+02 -0.24662329510E+02 -0.40711300729E+01  0.95556569779E+02  0.90907328884E+02 0.  0.
         11    1    3    3    0    0  0.28496570420E+02  0.28480740123E+02  0.30285325737E+01  0.40402711462E+02  0.51100000000E-03 0. -1.
         22    1    1    0    0    0 -0.15559916011E+02  0.24662329510E+02  0.40711300729E+01  0.29443430221E+02  0.00000000000E+00 0.  1.
</event>
<event>
 5    1  0.8900327E-005  0.9118800E+02  0.7818608E-02  0.1130116E+00
         25   -1    0    0    0    0  0.00000000000E+00  0.00000000000E+00  0.99999998245E-14  0.12500000000E+03  0.12500000000E+03 0.  0.
        -11    1    3    3    0    0 -0.21086647447E+02 -0.40908767749E+02 -0.18536146251E+02  0.49616153594E+02  0.51100000000E-03 0. -1.
         23    2    1    0    0    0  0.16579319129E+02 -0.12250099915E+02 -0.19025968498E+02  0.96947794240E+02  0.92800584912E+02 0.  0.
         11    1    3    3    0    0  0.37665966577E+02  0.28658667834E+02 -0.48982224646E+00  0.47331640646E+02  0.51100000000E-03 0.  1.
         22    1    1    0    0    0 -0.16579319129E+02  0.12250099915E+02  0.19025968498E+02  0.28052205760E+02  0.00000000000E+00 0. -1.
</event>
<event>
 5    1  0.8900327E-005  0.9118800E+02  0.7818608E-02  0.1130116E+00
         25   -1    0    0    0    0  0.00000000000E+00  0.00000000000E+00  0.99999998245E-14  0.12500000000E+03  0.12500000000E+03 0.  0.
        -11    1    3    3    0    0  0.25890058244E+02 -0.19450758336E+01 -0.51250850797E+02  0.57451963792E+02  0.51100000000E-03 0.  1.
         23    2    1    0    0    0  0.25952377522E+02 -0.19476757453E+01 -0.12631751791E+02  0.96071113171E+02  0.91612107784E+02 0.  0.
         11    1    3    3    0    0  0.62319277830E-01 -0.25999116703E-02  0.38619099006E+02  0.38619149379E+02  0.51100000000E-03 0. -1.
         22    1    1    0    0    0 -0.25952377522E+02  0.19476757453E+01  0.12631751791E+02  0.28928886829E+02  0.00000000000E+00 0.  1.
</event>
<event>
 5    1  0.8900327E-005  0.9118800E+02  0.7818608E-02  0.1130116E+00
         25   -1    0    0    0    0  0.00000000000E+00  0.00000000000E+00  0.99999998245E-14  0.12500000000E+03  0.12500000000E+03 0.  0.
        -11    1    3    3    0    0  0.77761891374E+01 -0.14258128038E+02  0.28394062150E+02  0.32710641973E+02  0.51100000000E-03 0. -1.
         23    2    1    0    0    0 -0.10907384581E+02  0.15505431421E+02 -0.23139884233E+02  0.95086062040E+02  0.90258049558E+02 0.  0.
         11    1    3    3    0    0 -0.18683573719E+02  0.29763559459E+02 -0.51533946383E+02  0.62375420067E+02  0.51100000000E-03 0.  1.
         22    1    1    0    0    0  0.10907384581E+02 -0.15505431421E+02  0.23139884233E+02  0.29913937960E+02  0.00000000000E+00 0.  1.
</event>
<event>
 5    1  0.8900327E-005  0.9118800E+02  0.7818608E-02  0.1130116E+00
         25   -1    0    0    0    0  0.00000000000E+00  0.00000000000E+00  0.99999998245E-14  0.12500000000E+03  0.12500000000E+03 0.  0.
        -11    1    3    3    0    0 -0.16208491091E+01 -0.28344562995E+02  0.19222577261E+02  0.34286278305E+02  0.51100000000E-03 0.  1.
         23    2    1    0    0    0 -0.12054649259E+02  0.26712929620E+02 -0.48840411719E+01  0.95288907193E+02  0.90538537641E+02 0.  0.
         11    1    3    3    0    0 -0.10433800150E+02  0.55057492615E+02 -0.24106618433E+02  0.61002628887E+02  0.51100000000E-03 0. -1.
         22    1    1    0    0    0  0.12054649259E+02 -0.26712929620E+02  0.48840411719E+01  0.29711092807E+02  0.00000000000E+00 0. -1.
</event>
<event>
 5    1  0.8900327E-005  0.9118800E+02  0.7818608E-02  0.1130116E+00
         25   -1    0    0    0    0  0.00000000000E+00  0.00000000000E+00  0.99999998245E-14  0.12500000000E+03  0.12500000000E+03 0.  0.
        -11    1    3    3    0    0  0.14080318934E+02 -0.35902609636E+02 -0.22567100808E+02  0.44682511110E+02  0.51100000000E-03 0.  1.
         23    2    1    0    0    0  0.25502903296E+02  0.11725055344E+02 -0.93816038535E+01  0.95404569775E+02  0.90698084014E+02 0.  0.
         11    1    3    3    0    0  0.11422584362E+02  0.47627664981E+02  0.13185496954E+02  0.50722058665E+02  0.51100000000E-03 0. -1.
         22    1    1    0    0    0 -0.25502903296E+02 -0.11725055344E+02  0.93816038535E+01  0.29595430225E+02  0.00000000000E+00 0.  1.
</event>
<event>
 5    1  0.8900327E-005  0.9118800E+02  0.7818608E-02  0.1130116E+00
         25   -1    0    0    0    0  0.00000000000E+00  0.00000000000E+00  0.99999998245E-14  0.12500000000E+03  0.12500000000E+03 0.  0.
        -11    1    3    3    0    0 -0.35828603321E+02  0.35095165196E+02  0.21475615509E+01  0.50199317296E+02  0.51100000000E-03 0.  1.
         23    2    1    0    0    0 -0.34937343267E+02 -0.18173277873E+01 -0.91982158811E+01  0.88826421103E+02  0.81127093352E+02 0.  0.
         11    1    3    3    0    0  0.89126005433E+00 -0.36912492983E+02 -0.11345777432E+02  0.38627103807E+02  0.51100000000E-03 0. -1.
         22    1    1    0    0    0  0.34937343267E+02  0.18173277873E+01  0.91982158811E+01  0.36173578897E+02  0.00000000000E+00 0.  1.
</event>
<event>
 5    1  0.8900327E-005  0.9118800E+02  0.7818608E-02  0.1130116E+00
         25   -1    0    0    0    0  0.00000000000E+00  0.00000000000E+00  0.99999998245E-14  0.12500000000E+03  0.12500000000E+03 0.  0.
        -11    1    3    3    0    0  0.37233362558E+01  0.25321599578E+02 -0.38396855996E+02  0.46145045115E+02  0.51100000000E-03 0.  1.
         23    2    1    0    0    0 -0.26941800289E+02  0.19793699525E+02 -0.61108357684E+01  0.91014805319E+02  0.84431637019E+02 0.  0.
         11    1    3    3    0    0 -0.30665136545E+02 -0.55279000533E+01  0.32286020228E+02  0.44869760204E+02  0.51100000000E-03 0. -1.
         22    1    1    0    0    0  0.26941800289E+02 -0.19793699525E+02  0.61108357684E+01  0.33985194681E+02  0.00000000000E+00 0. -1.
</event>
<event>
 5    1  0.8900327E-005  0.9118800E+02  0.7818608E-02  0.1130116E+00
         25   -1    0    0    0    0  0.00000000000E+00  0.00000000000E+00  0.99999998245E-14  0.12500000000E+03  0.12500000000E+03 0.  0.
        -11    1    3    3    0    0  0.15105489000E+02  0.30794667194E+02  0.16676742779E+02  0.38139232760E+02  0.51100000000E-03 0. -1.
         23    2    1    0    0    0  0.54297250232E+01  0.43335025024E+01 -0.30843389700E+02  0.93383930574E+02  0.87869122241E+02 0.  0.
         11    1    3    3    0    0 -0.96757639765E+01 -0.26461164692E+02 -0.47520132480E+02  0.55244697814E+02  0.51100000000E-03 0.  1.
         22    1    1    0    0    0 -0.54297250232E+01 -0.43335025024E+01  0.30843389700E+02  0.31616069426E+02  0.00000000000E+00 0.  1.
</event>
<event>
 5    1  0.8900327E-005  0.9118800E+02  0.7818608E-02  0.1130116E+00
         25   -1    0    0    0    0  0.00000000000E+00  0.00000000000E+00  0.99999998245E-14  0.12500000000E+03  0.12500000000E+03 0.  0.
        -11    1    3    3    0    0 -0.39623326285E-01 -0.11054280293E+02  0.37811562036E+02  0.39394325818E+02  0.51100000000E-03 0. -1.
         23    2    1    0    0    0 -0.17743361792E+02  0.23515712380E+02 -0.25783067599E+01  0.95428674664E+02  0.90731299263E+02 0.  0.
         11    1    3    3    0    0 -0.17703738466E+02  0.34569992672E+02 -0.40389868796E+02  0.56034348846E+02  0.51100000000E-03 0.  1.
         22    1    1    0    0    0  0.17743361792E+02 -0.23515712380E+02  0.25783067599E+01  0.29571325336E+02  0.00000000000E+00 0.  1.
</event>
<event>
 5    1  0.8900327E-005  0.9118800E+02  0.7818608E-02  0.1130116E+00
         25   -1    0    0    0    0  0.00000000000E+00  0.00000000000E+00  0.99999998245E-14  0.12500000000E+03  0.12500000000E+03 0.  0.
        -11    1    3    3    0    0  0.34759986877E+02 -0.17530593038E+01 -0.39741320952E+02  0.52827100014E+02  0.51100000000E-03 0.  1.
         23    2    1    0    0    0 -0.11912898997E+01  0.15879828026E+02 -0.24720525745E+02  0.95594345733E+02  0.90959256996E+02 0.  0.
         11    1    3    3    0    0 -0.35951276777E+02  0.17632887329E+02  0.15020795207E+02  0.42767245719E+02  0.51100000000E-03 0. -1.
         22    1    1    0    0    0  0.11912898997E+01 -0.15879828026E+02  0.24720525745E+02  0.29405654267E+02  0.00000000000E+00 0.  1.
</event>
<event>
 5    1  0.8900327E-005  0.9118800E+02  0.7818608E-02  0.1130116E+00
         25   -1    0    0    0    0  0.00000000000E+00  0.00000000000E+00  0.99999998245E-14  0.12500000000E+03  0.12500000000E+03 0.  0.
        -11    1    3    3    0    0 -0.32707184994E+02  0.11500517474E+02 -0.15487697065E+02  0.37972234765E+02  0.51100000000E-03 0.  1.
         23    2    1    0    0    0  0.10190306081E+02  0.14454610880E+02  0.23209476570E+02  0.95820248179E+02  0.91269173573E+02 0.  0.
         11    1    3    3    0    0  0.42897491075E+02  0.29540934053E+01  0.38697173635E+02  0.57848013414E+02  0.51100000000E-03 0. -1.
         22    1    1    0    0    0 -0.10190306081E+02 -0.14454610880E+02 -0.23209476570E+02  0.29179751821E+02  0.00000000000E+00 0. -1.
</event>
<event>
 5    1  0.8900327E-005  0.9118800E+02  0.7818608E-02  0.1130116E+00
         25   -1    0    0    0    0  0.00000000000E+00  0.00000000000E+00  0.99999998245E-14  0.12500000000E+03  0.12500000000E+03 0.  0.
        -11    1    3    3    0    0  0.26360431953E+02 -0.46764159957E+02 -0.29155208632E+02  0.61088339475E+02  0.51100000000E-03 0.  1.
         23    2    1    0    0    0  0.39788973796E+01 -0.24907716871E+02 -0.16640698020E+02  0.94781813181E+02  0.89835701673E+02 0.  0.
         11    1    3    3    0    0 -0.22381534573E+02  0.21856443086E+02  0.12514510612E+02  0.33693473705E+02  0.51100000000E-03 0. -1.
         22    1    1    0    0    0 -0.39788973796E+01  0.24907716871E+02  0.16640698020E+02  0.30218186819E+02  0.00000000000E+00 0.  1.
</event>
<event>
 5    1  0.8900327E-005  0.9118800E+02  0.7818608E-02  0.1130116E+00
         25   -1    0    0    0    0  0.00000000000E+00  0.00000000000E+00  0.99999998245E-14  0.12500000000E+03  0.12500000000E+03 0.  0.
        -11    1    3    3    0    0 -0.35281274489E+01  0.12253093974E+02 -0.36847332838E+02  0.38991177627E+02  0.51100000000E-03 0.  1.
         23    2    1    0    0    0  0.46194720352E+00  0.21997320511E+02  0.19065371395E+02  0.95886705935E+02  0.91360147131E+02 0.  0.
         11    1    3    3    0    0  0.39900746524E+01  0.97442265364E+01  0.55912704233E+02  0.56895528308E+02  0.51100000000E-03 0. -1.
         22    1    1    0    0    0 -0.46194720352E+00 -0.21997320511E+02 -0.19065371395E+02  0.29113294065E+02  0.00000000000E+00 0. -1.
</event>
<event>
 5    1  0.8900327E-005  0.9118800E+02  0.7818608E-02  0.1130116E+00
         25   -1    0    0    0    0  0.00000000000E+00  0.00000000000E+00  0.99999998245E-14  0.12500000000E+03  0.12500000000E+03 0.  0.
        -11    1    3    3    0    0  0.25080088904E+02  0.17814781113E+02 -0.36922098089E+02  0.48058491581E+02  0.51100000000E-03 0.  1.
         23    2    1    0    0    0  0.22970547238E+02  0.14450176983E+02  0.10687658555E+02  0.95833586086E+02  0.91287439012E+02 0.  0.
         11    1    3    3    0    0 -0.21095416664E+01 -0.33646041302E+01  0.47609756643E+02  0.47775094504E+02  0.51100000000E-03 0. -1.
         22    1    1    0    0    0 -0.22970547238E+02 -0.14450176983E+02 -0.10687658555E+02  0.29166413914E+02  0.00000000000E+00 0.  1.
</event>
<event>
 5    1  0.8900327E-005  0.9118800E+02  0.7818608E-02  0.1130116E+00
         25   -1    0    0    0    0  0.00000000000E+00  0.00000000000E+00  0.99999998245E-14  0.12500000000E+03  0.12500000000E+03 0.  0.
        -11    1    3    3    0    0 -0.16342584137E+02  0.41411274343E+02 -0.43728206925E+02  0.62402962912E+02  0.51100000000E-03 0. -1.
         23    2    1    0    0    0 -0.84207522561E+01  0.20654886960E+02 -0.18483346182E+02  0.96031611885E+02  0.91558194452E+02 0.  0.
         11    1    3    3    0    0  0.79218318811E+01 -0.20756387383E+02  0.25244860744E+02  0.33628648973E+02  0.51100000000E-03 0.  1.
         22    1    1    0    0    0  0.84207522561E+01 -0.20654886960E+02  0.18483346182E+02  0.28968388115E+02  0.00000000000E+00 0. -1.
</event>
<event>
 5    1  0.8900327E-005  0.9118800E+02  0.7818608E-02  0.1130116E+00
         25   -1    0    0    0    0  0.00000000000E+00  0.00000000000E+00  0.99999998245E-14  0.12500000000E+03  0.12500000000E+03 0.  0.
        -11    1    3    3    0    0 -0.23570739733E+02  0.27454146920E+02 -0.84791549870E+01  0.37164580238E+02  0.51100000000E-03 0.  1.
         23    2    1    0    0    0  0.17458980836E+01 -0.14511455355E+02  0.24664516924E+02  0.96330000144E+02  0.91964667324E+02 0.  0.
         11    1    3    3    0    0  0.25316637817E+02 -0.41965602276E+02  0.33143671911E+02  0.59165419906E+02  0.51100000000E-03 0. -1.
         22    1    1    0    0    0 -0.17458980836E+01  0.14511455355E+02 -0.24664516924E+02  0.28669999856E+02  0.00000000000E+00 0. -1.
</event>
<event>
 5    1  0.8900327E-005  0.9118800E+02  0.7818608E-02  0.1130116E+00
         25   -1    0    0    0    0  0.00000000000E+00  0.00000000000E+00  0.99999998245E-14  0.12500000000E+03  0.12500000000E+03 0.  0.
        -11    1    3    3    0    0  0.28869059672E+01  0.77804847702E+01  0.54828480064E+02  0.55452974634E+02  0.51100000000E-03 0.  1.
         23    2    1    0    0    0 -0.14620843081E+01  0.22978268857E+02  0.17221329587E+02  0.96247387546E+02  0.91852310186E+02 0.  0.
         11    1    3    3    0    0 -0.43489902753E+01  0.15197784087E+02 -0.37607150477E+02  0.40794412912E+02  0.51100000000E-03 0. -1.
         22    1    1    0    0    0  0.14620843081E+01 -0.22978268857E+02 -0.17221329587E+02  0.28752612454E+02  0.00000000000E+00 0.  1.
</event>
<event>
 5    1  0.8900327E-005  0.9118800E+02  0.7818608E-02  0.1130116E+00
         25   -1    0    0    0    0  0.00000000000E+00  0.00000000000E+00  0.99999998245E-14  0.12500000000E+03  0.12500000000E+03 0.  0.
        -11    1    3    3    0    0 -0.33042155478E+02 -0.14638327250E+02 -0.24618371322E+02  0.43727895789E+02  0.51100000000E-03 0.  1.
         23    2    1    0    0    0 -0.19264075660E+01 -0.26952990796E+02  0.13784576162E+02  0.94665377884E+02  0.89673543874E+02 0.  0.
         11    1    3    3    0    0  0.31115747912E+02 -0.12314663546E+02  0.38402947485E+02  0.50937482095E+02  0.51100000000E-03 0. -1.
         22    1    1    0    0    0  0.19264075660E+01  0.26952990796E+02 -0.13784576162E+02  0.30334622116E+02  0.00000000000E+00 0. -1.
</event>
<event>
 5    1  0.8900327E-005  0.9118800E+02  0.7818608E-02  0.1130116E+00
         25   -1    0    0    0    0  0.00000000000E+00  0.00000000000E+00  0.99999998245E-14  0.12500000000E+03  0.12500000000E+03 0.  0.
        -11    1    3    3    0    0  0.14574252178E+02  0.47991721348E+01  0.45987137926E+02  0.48479456831E+02  0.51100000000E-03 0. -1.
         23    2    1    0    0    0  0.28010893099E+02  0.10018118341E+02  0.15332060179E+01  0.95212023432E+02  0.90432327505E+02 0.  0.
         11    1    3    3    0    0  0.13436640921E+02  0.52189462059E+01 -0.44453931908E+02  0.46732566601E+02  0.51100000000E-03 0.  1.
         22    1    1    0    0    0 -0.28010893099E+02 -0.10018118341E+02 -0.15332060179E+01  0.29787976568E+02  0.00000000000E+00 0.  1.
</event>
<event>
 5    1  0.8900327E-005  0.9118800E+02  0.7818608E-02  0.1130116E+00
         25   -1    0    0    0    0  0.00000000000E+00  0.00000000000E+00  0.99999998245E-14  0.12500000000E+03  0.12500000000E+03 0.  0.
        -11    1    3    3    0    0 -0.18154881241E+02 -0.18575260951E+02  0.41382447083E+02  0.48858437952E+02  0.51100000000E-03 0. -1.
         23    2    1    0    0    0  0.21281893273E+02 -0.69831608477E+01  0.18794685980E+02  0.95760921050E+02  0.91187884407E+02 0.  0.
         11    1    3    3    0    0  0.39436774514E+02  0.11592100103E+02 -0.22587761103E+02  0.46902483098E+02  0.51100000000E-03 0.  1.
         22    1    1    0    0    0 -0.21281893273E+02  0.69831608477E+01 -0.18794685980E+02  0.29239078950E+02  0.00000000000E+00 0. -1.
</event>
<event>
 5    1  0.8900327E-005  0.9118800E+02  0.7818608E-02  0.1130116E+00
         25   -1    0    0    0    0  0.00000000000E+00  0.00000000000E+00  0.99999998245E-14  0.12500000000E+03  0.12500000000E+03 0.  0.
        -11    1    3    3    0    0 -0.44072717288E+02  0.80722773527E+01  0.18884253837E+02  0.48622845598E+02  0.51100000000E-03 0. -1.
         23    2    1    0    0    0 -0.13055193041E+02 -0.25255223639E+02  0.85954322902E+01  0.95299059903E+02  0.90552553668E+02 0.  0.
         11    1    3    3    0    0  0.31017524247E+02 -0.33327500992E+02 -0.10288821547E+02  0.46676214305E+02  0.51100000000E-03 0.  1.
         22    1    1    0    0    0  0.13055193041E+02  0.25255223639E+02 -0.85954322902E+01  0.29700940097E+02  0.00000000000E+00 0. -1.
</event>
<event>
 5    1  0.8900327E-005  0.9118800E+02  0.7818608E-02  0.1130116E+00
         25   -1    0    0    0    0  0.00000000000E+00  0.00000000000E+00  0.99999998245E-14  0.12500000000E+03  0.12500000000E+03 0.  0.
        -11    1    3    3    0    0 -0.40116518816E+02  0.33348377241E+02  0.33242727168E+02  0.61858938371E+02  0.51100000000E-03 0. -1.
         23    2    1    0    0    0 -0.13956278672E+02  0.17659232272E+02  0.19089809298E+02  0.95486494314E+02  0.90810922133E+02 0.  0.
         11    1    3    3    0    0  0.26160240144E+02 -0.15689144969E+02 -0.14152917870E+02  0.33627555944E+02  0.51100000000E-03 0.  1.
         22    1    1    0    0    0  0.13956278672E+02 -0.17659232272E+02 -0.19089809298E+02  0.29513505686E+02  0.00000000000E+00 0. -1.
</event>
<event>
 5    1  0.8900327E-005  0.9118800E+02  0.7818608E-02  0.1130116E+00
         25   -1    0    0    0    0  0.00000000000E+00  0.00000000000E+00  0.99999998245E-14  0.12500000000E+03  0.12500000000E+03 0.  0.
        -11    1    3    3    0    0 -0.39498067099E+01  0.16036759902E+02  0.29563904227E+02  0.33864481018E+02  0.51100000000E-03 0.  1.
         23    2    1    0    0    0 -0.51667713134E+00 -0.25470728113E+02 -0.15461581771E+02  0.95199237313E+02  0.90414652176E+02 0.  0.
         11    1    3    3    0    0  0.34331295786E+01 -0.41507488016E+02 -0.45025485998E+02  0.61334756295E+02  0.51100000000E-03 0. -1.
         22    1    1    0    0    0  0.51667713134E+00  0.25470728113E+02  0.15461581771E+02  0.29800762687E+02  0.00000000000E+00 0. -1.
</event>
<event>
 5    1  0.8900327E-005  0.9118800E+02  0.7818608E-02  0.1130116E+00
         25   -1    0    0    0    0  0.00000000000E+00  0.00000000000E+00  0.99999998245E-14  0.12500000000E+03  0.12500000000E+03 0.  0.
        -11    1    3    3    0    0 -0.27081157709E+02  0.50128747287E+02 -0.16957512303E-01  0.56976141456E+02  0.51100000000E-03 0.  1.
         23    2    1    0    0    0 -0.17811382364E+02  0.16931557879E+02  0.16704532318E+02  0.95285283210E+02  0.90533534133E+02 0.  0.
         11    1    3    3    0    0  0.92697753451E+01 -0.33197189408E+02  0.16721489830E+02  0.38309141754E+02  0.51100000000E-03 0. -1.
         22    1    1    0    0    0  0.17811382364E+02 -0.16931557879E+02 -0.16704532318E+02  0.29714716790E+02  0.00000000000E+00 0. -1.
</event>
<event>
 5    1  0.8900327E-005  0.9118800E+02  0.7818608E-02  0.1130116E+00
         25   -1    0    0    0    0  0.00000000000E+00  0.00000000000E+00  0.99999998245E-14  0.12500000000E+03  0.12500000000E+03 0.  0.
        -11    1    3    3    0    0  0.48192370301E+02  0.34587500244E+02  0.11059151256E+02  0.60341565733E+02  0.51100000000E-03 0. -1.
         23    2    1    0    0    0  0.19296182745E+02  0.26623098894E+02  0.11040828703E+02  0.90315248859E+02  0.83389521013E+02 0.  0.
         11    1    3    3    0    0 -0.28896187556E+02 -0.79644013502E+01 -0.18322552328E-01  0.29973683126E+02  0.51100000000E-03 0.  1.
         22    1    1    0    0    0 -0.19296182745E+02 -0.26623098894E+02 -0.11040828703E+02  0.34684751141E+02  0.00000000000E+00 0. -1.
</event>
<event>
 5    1  0.8900327E-005  0.9118800E+02  0.7818608E-02  0.1130116E+00
         25   -1    0    0    0    0  0.00000000000E+00  0.00000000000E+00  0.99999998245E-14  0.12500000000E+03  0.12500000000E+03 0.  0.
        -11    1    3    3    0    0  0.29905656853E+02  0.36836094655E+02  0.23085119726E+02  0.52765224667E+02  0.51100000000E-03 0.  1.
         23    2    1    0    0    0 -0.86341462471E+01  0.13765346052E+02  0.21941015872E+02  0.97697227049E+02  0.93804620153E+02 0.  0.
         11    1    3    3    0    0 -0.38539803100E+02 -0.23070748603E+02 -0.11441038536E+01  0.44932002381E+02  0.51100000000E-03 0. -1.
         22    1    1    0    0    0  0.86341462471E+01 -0.13765346052E+02 -0.21941015872E+02  0.27302772951E+02  0.00000000000E+00 0. -1.
</event>
<event>
 5    1  0.8900327E-005  0.9118800E+02  0.7818608E-02  0.1130116E+00
         25   -1    0    0    0    0  0.00000000000E+00  0.00000000000E+00  0.99999998245E-14  0.12500000000E+03  0.12500000000E+03 0.  0.
        -11    1    3    3    0    0  0.48811850783E+02 -0.32271355011E+02  0.52746611802E+01  0.58752524898E+02  0.51100000000E-03 0. -1.
         23    2    1    0    0    0  0.25243091770E+02 -0.25527278289E+02 -0.10120156057E+02  0.87700225503E+02  0.79372894465E+02 0.  0.
         11    1    3    3    0    0 -0.23568759014E+02  0.67440767220E+01 -0.15394817237E+02  0.28947700605E+02  0.51100000000E-03 0.  1.
         22    1    1    0    0    0 -0.25243091770E+02  0.25527278289E+02  0.10120156057E+02  0.37299774497E+02  0.00000000000E+00 0. -1.
</event>
<event>
 5    1  0.8900327E-005  0.9118800E+02  0.7818608E-02  0.1130116E+00
         25   -1    0    0    0    0  0.00000000000E+00  0.00000000000E+00  0.99999998245E-14  0.12500000000E+03  0.12500000000E+03 0.  0.
        -11    1    3    3    0    0 -0.32251904731E+02  0.38569880282E+02  0.28802932288E+02  0.57943333805E+02  0.51100000000E-03 0.  1.
         23    2    1    0    0    0 -0.24574499536E+02  0.45488276744E+01  0.17046399846E+02  0.94748097442E+02  0.89788776362E+02 0.  0.
         11    1    3    3    0    0  0.76774051950E+01 -0.34021052608E+02 -0.11756532442E+02  0.36804763637E+02  0.51100000000E-03 0. -1.
         22    1    1    0    0    0  0.24574499536E+02 -0.45488276744E+01 -0.17046399846E+02  0.30251902558E+02  0.00000000000E+00 0.  1.
</event>
<event>
 5    1  0.8900327E-005  0.9118800E+02  0.7818608E-02  0.1130116E+00
         25   -1    0    0    0    0  0.00000000000E+00  0.00000000000E+00  0.99999998245E-14  0.12500000000E+03  0.12500000000E+03 0.  0.
        -11    1    3    3    0    0  0.36125917753E+02  0.14829250147E+02 -0.43549175951E+01  0.39293178809E+02  0.51100000000E-03 0.  1.
         23    2    1    0    0    0 -0.51168776058E+01 -0.19191596399E+02 -0.21778485950E+02  0.95524548196E+02  0.90863287686E+02 0.  0.
         11    1    3    3    0    0 -0.41242795359E+02 -0.34020846546E+02 -0.17423568355E+02  0.56231369387E+02  0.51100000000E-03 0. -1.
         22    1    1    0    0    0  0.51168776058E+01  0.19191596399E+02  0.21778485950E+02  0.29475451804E+02  0.00000000000E+00 0. -1.
</event>
<event>
 5    1  0.8900327E-005  0.9118800E+02  0.7818608E-02  0.1130116E+00
         25   -1    0    0    0    0  0.00000000000E+00  0.00000000000E+00  0.99999998245E-14  0.12500000000E+03  0.12500000000E+03 0.  0.
        -11    1    3    3    0    0 -0.25841944499E+01  0.28553094927E+02 -0.74348751405E+01  0.29618147469E+02  0.51100000000E-03 0. -1.
         23    2    1    0    0    0  0.20302527109E+02 -0.27592126012E+02 -0.56901012968E+01  0.90273997097E+02  0.83327662119E+02 0.  0.
         11    1    3    3    0    0  0.22886721559E+02 -0.56145220939E+02  0.17447738438E+01  0.60655849628E+02  0.51100000000E-03 0.  1.
         22    1    1    0    0    0 -0.20302527109E+02  0.27592126012E+02  0.56901012968E+01  0.34726002903E+02  0.00000000000E+00 0.  1.
</event>
<event>
 5    1  0.8900327E-005  0.9118800E+02  0.7818608E-02  0.1130116E+00
         25   -1    0    0    0    0  0.00000000000E+00  0.00000000000E+00  0.99999998245E-14  0.12500000000E+03  0.12500000000E+03 0.  0.
        -11    1    3    3    0    0  0.85812008525E+00  0.36510959365E+02 -0.42139770403E+02  0.55763310283E+02  0.51100000000E-03 0. -1.
         23    2    1    0    0    0  0.18645349320E+02  0.67291081432E+01 -0.19545723045E+02  0.97161802554E+02  0.93088402277E+02 0.  0.
         11    1    3    3    0    0  0.17787229235E+02 -0.29781851222E+02  0.22594047358E+02  0.41398492271E+02  0.51100000000E-03 0.  1.
         22    1    1    0    0    0 -0.18645349320E+02 -0.67291081432E+01  0.19545723045E+02  0.27838197446E+02  0.00000000000E+00 0. -1.
</event>
<event>
 5    1  0.8900327E-005  0.9118800E+02  0.7818608E-02  0.1130116E+00
         25   -1    0    0    0    0  0.00000000000E+00  0.00000000000E+00  0.99999998245E-14  0.12500000000E+03  0.12500000000E+03 0.  0.
        -11    1    3    3    0    0 -0.36619099430E+02  0.26233646108E+02  0.63058734876E+01  0.45485455608E+02  0.51100000000E-03 0. -1.
         23    2    1    0    0    0 -0.54054334637E+01  0.11873676751E+02 -0.28044231392E+02  0.94069726401E+02  0.88839358397E+02 0.  0.
         11    1    3    3    0    0  0.31213665966E+02 -0.14359969357E+02 -0.34350104879E+02  0.48584270793E+02  0.51100000000E-03 0.  1.
         22    1    1    0    0    0  0.54054334637E+01 -0.11873676751E+02  0.28044231392E+02  0.30930273599E+02  0.00000000000E+00 0.  1.
</event>
<event>
 5    1  0.8900327E-005  0.9118800E+02  0.7818608E-02  0.1130116E+00
         25   -1    0    0    0    0  0.00000000000E+00  0.00000000000E+00  0.99999998245E-14  0.12500000000E+03  0.12500000000E+03 0.  0.
        -11    1    3    3    0    0 -0.29538557560E+02 -0.13617533278E+02 -0.33108186119E+02  0.46412450739E+02  0.51100000000E-03 0.  1.
         23    2    1    0    0    0 -0.16798975880E+02  0.24387333843E+02 -0.60464147038E+01  0.94775725428E+02  0.89827230599E+02 0.  0.
         11    1    3    3    0    0  0.12739581680E+02  0.38004867121E+02  0.27061771415E+02  0.48363274689E+02  0.51100000000E-03 0. -1.
         22    1    1    0    0    0  0.16798975880E+02 -0.24387333843E+02  0.60464147038E+01  0.30224274572E+02  0.00000000000E+00 0.  1.
</event>
<event>
 5    1  0.8900327E-005  0.9118800E+02  0.7818608E-02  0.1130116E+00
         25   -1    0    0    0    0  0.00000000000E+00  0.00000000000E+00  0.99999998245E-14  0.12500000000E+03  0.12500000000E+03 0.  0.
        -11    1    3    3    0    0 -0.12631270478E+01 -0.43123215985E+02 -0.93315953745E+01  0.44139391923E+02  0.51100000000E-03 0. -1.
         23    2    1    0    0    0  0.92476094391E+01 -0.83432026421E+01  0.26841582365E+02  0.95409497224E+02  0.90704874765E+02 0.  0.
         11    1    3    3    0    0  0.10510736487E+02  0.34780013343E+02  0.36173177739E+02  0.51270105302E+02  0.51100000000E-03 0.  1.
         22    1    1    0    0    0 -0.92476094391E+01  0.83432026421E+01 -0.26841582365E+02  0.29590502776E+02  0.00000000000E+00 0.  1.
</event>
<event>
 5    1  0.8900327E-005  0.9118800E+02  0.7818608E-02  0.1130116E+00
         25   -1    0    0    0    0  0.00000000000E+00  0.00000000000E+00  0.99999998245E-14  0.12500000000E+03  0.12500000000E+03 0.  0.
        -11    1    3    3    0    0 -0.54386388936E+01 -0.45249945294E+01  0.39255451202E+02  0.39887903152E+02  0.51100000000E-03 0. -1.
         23    2    1    0    0    0  0.19132778693E+02  0.23379181355E+02 -0.11126601068E+01  0.94769430143E+02  0.89818469904E+02 0.  0.
         11    1    3    3    0    0  0.24571417586E+02  0.27904175884E+02 -0.40368111309E+02  0.54881526991E+02  0.51100000000E-03 0.  1.
         22    1    1    0    0    0 -0.19132778693E+02 -0.23379181355E+02  0.11126601068E+01  0.30230569857E+02  0.00000000000E+00 0.  1.
</event>
<event>
 5    1  0.8900327E-005  0.9118800E+02  0.7818608E-02  0.1130116E+00
         25   -1    0    0    0    0  0.00000000000E+00  0.00000000000E+00  0.99999998245E-14  0.12500000000E+03  0.12500000000E+03 0.  0.
        -11    1    3    3    0    0  0.53418900780E+01  0.34855600600E+02 -0.18128087586E+02  0.39649416673E+02  0.51100000000E-03 0. -1.
         23    2    1    0    0    0 -0.10795331901E+02 -0.16844914078E+02 -0.23570986587E+02  0.94082662957E+02  0.88857558706E+02 0.  0.
         11    1    3    3    0    0 -0.16137221979E+02 -0.51700514678E+02 -0.54428990009E+01  0.54433246284E+02  0.51100000000E-03 0.  1.
         22    1    1    0    0    0  0.10795331901E+02  0.16844914078E+02  0.23570986587E+02  0.30917337043E+02  0.00000000000E+00 0.  1.
</event>
<event>
 5    1  0.8900327E-005  0.9118800E+02  0.7818608E-02  0.1130116E+00
         25   -1    0    0    0    0  0.00000000000E+00  0.00000000000E+00  0.99999998245E-14  0.12500000000E+03  0.12500000000E+03 0.  0.
        -11    1    3    3    0    0 -0.27699082615E+02 -0.37852420493E+01  0.27477847213E+02  0.39199481154E+02  0.51100000000E-03 0. -1.
         23    2    1    0    0    0 -0.22273429185E+01  0.37740543928E+01 -0.25850740061E+02  0.98780440417E+02  0.95237125662E+02 0.  0.
         11    1    3    3    0    0  0.25471739696E+02  0.75592964421E+01 -0.53328587273E+02  0.59580959263E+02  0.51100000000E-03 0.  1.
         22    1    1    0    0    0  0.22273429185E+01 -0.37740543928E+01  0.25850740061E+02  0.26219559583E+02  0.00000000000E+00 0.  1.
</event>
<event>
 5    1  0.8900327E-005  0.9118800E+02  0.7818608E-02  0.1130116E+00
         25   -1    0    0    0    0  0.00000000000E+00  0.00000000000E+00  0.99999998245E-14  0.12500000000E+03  0.12500000000E+03 0.  0.
        -11    1    3    3    0    0 -0.32532569048E+02  0.17227551112E+02 -0.32057103371E+01  0.36951767823E+02  0.51100000000E-03 0. -1.
         23    2    1    0    0    0  0.31815654821E+01 -0.27990987347E+02  0.81333789679E+01  0.95678172209E+02  0.91074381975E+02 0.  0.
         11    1    3    3    0    0  0.35714134530E+02 -0.45218538459E+02  0.11339089305E+02  0.58726404386E+02  0.51100000000E-03 0.  1.
         22    1    1    0    0    0 -0.31815654821E+01  0.27990987347E+02 -0.81333789679E+01  0.29321827791E+02  0.00000000000E+00 0.  1.
</event>
<event>
 5    1  0.8900327E-005  0.9118800E+02  0.7818608E-02  0.1130116E+00
         25   -1    0    0    0    0  0.00000000000E+00  0.00000000000E+00  0.99999998245E-14  0.12500000000E+03  0.12500000000E+03 0.  0.
        -11    1    3    3    0    0 -0.10950049493E+02  0.24580829109E+02 -0.42030856318E+02  0.49907049870E+02  0.51100000000E-03 0.  1.
         23    2    1    0    0    0 -0.24485453828E+02 -0.54481138151E+01 -0.50820646951E+01  0.99406118409E+02  0.96054826023E+02 0.  0.
         11    1    3    3    0    0 -0.13535404335E+02 -0.30028942924E+02  0.36948791623E+02  0.49499068540E+02  0.51100000000E-03 0. -1.
         22    1    1    0    0    0  0.24485453828E+02  0.54481138151E+01  0.50820646951E+01  0.25593881591E+02  0.00000000000E+00 0.  1.
</event>
<event>
 5    1  0.8900327E-005  0.9118800E+02  0.7818608E-02  0.1130116E+00
         25   -1    0    0    0    0  0.00000000000E+00  0.00000000000E+00  0.99999998245E-14  0.12500000000E+03  0.12500000000E+03 0.  0.
        -11    1    3    3    0    0 -0.30064305267E+02 -0.22707424114E+02 -0.63543151973E+01  0.38208204393E+02  0.51100000000E-03 0.  1.
         23    2    1    0    0    0 -0.17963011333E+02  0.25315688575E+02 -0.18046656449E+02  0.89094071894E+02  0.81538444758E+02 0.  0.
         11    1    3    3    0    0  0.12101293934E+02  0.48023112688E+02 -0.11692341251E+02  0.50885867501E+02  0.51100000000E-03 0. -1.
         22    1    1    0    0    0  0.17963011333E+02 -0.25315688575E+02  0.18046656449E+02  0.35905928106E+02  0.00000000000E+00 0. -1.
</event>
<event>
 5    1  0.8900327E-005  0.9118800E+02  0.7818608E-02  0.1130116E+00
         25   -1    0    0    0    0  0.00000000000E+00  0.00000000000E+00  0.99999998245E-14  0.12500000000E+03  0.12500000000E+03 0.  0.
        -11    1    3    3    0    0 -0.18143528152E+02 -0.36310313645E+02 -0.20779919834E+02  0.45600784636E+02  0.51100000000E-03 0.  1.
         23    2    1    0    0    0 -0.17714989511E+02 -0.38311986658E+01  0.20179173986E+02  0.97876246585E+02  0.94042871320E+02 0.  0.
         11    1    3    3    0    0  0.42853864082E+00  0.32479114979E+02  0.40959093820E+02  0.52275461949E+02  0.51100000000E-03 0. -1.
         22    1    1    0    0    0  0.17714989511E+02  0.38311986658E+01 -0.20179173986E+02  0.27123753415E+02  0.00000000000E+00 0. -1.
</event>
<event>
 5    1  0.8900327E-005  0.9118800E+02  0.7818608E-02  0.1130116E+00
         25   -1    0    0    0    0  0.00000000000E+00  0.00000000000E+00  0.99999998245E-14  0.12500000000E+03  0.12500000000E+03 0.  0.
        -11    1    3    3    0    0  0.57671434435E+01 -0.47177472326E+02  0.12689045891E+02  0.49193350409E+02  0.51100000000E-03 0.  1.
         23    2    1    0    0    0 -0.22319035736E+02 -0.12173987098E+02  0.17210594786E+02  0.94299024593E+02  0.89161405038E+02 0.  0.
         11    1    3    3    0    0 -0.28086179179E+02  0.35003485228E+02  0.45215488948E+01  0.45105674185E+02  0.51100000000E-03 0. -1.
         22    1    1    0    0    0  0.22319035736E+02  0.12173987098E+02 -0.17210594786E+02  0.30700975407E+02  0.00000000000E+00 0.  1.
</event>
<event>
 5    1  0.8900327E-005  0.9118800E+02  0.7818608E-02  0.1130116E+00
         25   -1    0    0    0    0  0.00000000000E+00  0.00000000000E+00  0.99999998245E-14  0.12500000000E+03  0.12500000000E+03 0.  0.
        -11    1    3    3    0    0 -0.31989651055E+02  0.14218502438E+02 -0.40173166962E+02  0.53285898043E+02  0.51100000000E-03 0.  1.
         23    2    1    0    0    0 -0.27446750021E+02 -0.38308642162E+01 -0.30400924077E+00  0.97285526724E+02  0.93254392288E+02 0.  0.
         11    1    3    3    0    0  0.45429010345E+01 -0.18049366655E+02  0.39869157721E+02  0.43999628681E+02  0.51100000000E-03 0. -1.
         22    1    1    0    0    0  0.27446750021E+02  0.38308642162E+01  0.30400924077E+00  0.27714473276E+02  0.00000000000E+00 0.  1.
</event>
<event>
 5    1  0.8900327E-005  0.9118800E+02  0.7818608E-02  0.1130116E+00
         25   -1    0    0    0    0  0.00000000000E+00  0.00000000000E+00  0.99999998245E-14  0.12500000000E+03  0.12500000000E+03 0.  0.
        -11    1    3    3    0    0  0.44251300989E+00  0.19028833288E+01  0.38733949297E+02  0.38783187223E+02  0.51100000000E-03 0.  1.
         23    2    1    0    0    0 -0.27006881645E+02 -0.24041342391E+00 -0.11165877519E+02  0.95774903327E+02  0.91207049243E+02 0.  0.
         11    1    3    3    0    0 -0.27449394655E+02 -0.21432967527E+01 -0.49899826817E+02  0.56991716104E+02  0.51100000000E-03 0. -1.
         22    1    1    0    0    0  0.27006881645E+02  0.24041342391E+00  0.11165877519E+02  0.29225096673E+02  0.00000000000E+00 0. -1.
</event>
<event>
 5    1  0.8900327E-005  0.9118800E+02  0.7818608E-02  0.1130116E+00
         25   -1    0    0    0    0  0.00000000000E+00  0.00000000000E+00  0.99999998245E-14  0.12500000000E+03  0.12500000000E+03 0.  0.
        -11    1    3    3    0    0  0.15119870058E+02 -0.12131393675E+02 -0.36700714398E+02  0.41505705881E+02  0.51100000000E-03 0.  1.
         23    2    1    0    0    0  0.63356030986E+01 -0.24037081938E+02  0.15461577651E+02  0.95725752645E+02  0.91139662943E+02 0.  0.
         11    1    3    3    0    0 -0.87842669594E+01 -0.11905688263E+02  0.52162292050E+02  0.54220046765E+02  0.51100000000E-03 0. -1.
         22    1    1    0    0    0 -0.63356030986E+01  0.24037081938E+02 -0.15461577651E+02  0.29274247355E+02  0.00000000000E+00 0.  1.
</event>
<event>
 5    1  0.8900327E-005  0.9118800E+02  0.7818608E-02  0.1130116E+00
         25   -1    0    0    0    0  0.00000000000E+00  0.00000000000E+00  0.99999998245E-14  0.12500000000E+03  0.12500000000E+03 0.  0.
        -11    1    3    3    0    0 -0.30740007425E+02  0.37221877257E+02  0.28741642150E+02  0.56182721514E+02  0.51100000000E-03 0.  1.
         23    2    1    0    0    0 -0.20606666858E+02 -0.10173194957E+01  0.19065394782E+02  0.96908027194E+02  0.92747004256E+02 0.  0.
         11    1    3    3    0    0  0.10133340567E+02 -0.38239196753E+02 -0.96762473679E+01  0.40725305680E+02  0.51100000000E-03 0. -1.
         22    1    1    0    0    0  0.20606666858E+02  0.10173194957E+01 -0.19065394782E+02  0.28091972806E+02  0.00000000000E+00 0.  1.
</event>
<event>
 5    1  0.8900327E-005  0.9118800E+02  0.7818608E-02  0.1130116E+00
         25   -1    0    0    0    0  0.00000000000E+00  0.00000000000E+00  0.99999998245E-14  0.12500000000E+03  0.12500000000E+03 0.  0.
        -11    1    3    3    0    0  0.48872384544E+00 -0.33194593664E+02  0.25433505198E+02  0.41820845118E+02  0.51100000000E-03 0.  1.
         23    2    1    0    0    0 -0.36901496826E+01  0.19997417490E+02  0.21629939366E+02  0.95312154205E+02  0.90570627420E+02 0.  0.
         11    1    3    3    0    0 -0.41788735280E+01  0.53192011154E+02 -0.38035658313E+01  0.53491309087E+02  0.51100000000E-03 0. -1.
         22    1    1    0    0    0  0.36901496826E+01 -0.19997417490E+02 -0.21629939366E+02  0.29687845795E+02  0.00000000000E+00 0. -1.
</event>
<event>
 5    1  0.8900327E-005  0.9118800E+02  0.7818608E-02  0.1130116E+00
         25   -1    0    0    0    0  0.00000000000E+00  0.00000000000E+00  0.99999998245E-14  0.12500000000E+03  0.12500000000E+03 0.  0.
        -11    1    3    3    0    0 -0.54914267944E+00  0.15951218247E+02  0.39066459207E+02  0.42201080039E+02  0.51100000000E-03 0.  1.
         23    2    1    0    0    0 -0.15859019012E+02  0.23866920244E+02 -0.10346678309E+02  0.94533754449E+02  0.89489879943E+02 0.  0.
         11    1    3    3    0    0 -0.15309876332E+02  0.79157019970E+01 -0.49413137516E+02  0.52332674410E+02  0.51100000000E-03 0. -1.
         22    1    1    0    0    0  0.15859019012E+02 -0.23866920244E+02  0.10346678309E+02  0.30466245551E+02  0.00000000000E+00 0. -1.
</event>
<event>
 5    1  0.8900327E-005  0.9118800E+02  0.7818608E-02  0.1130116E+00
         25   -1    0    0    0    0  0.00000000000E+00  0.00000000000E+00  0.99999998245E-14  0.12500000000E+03  0.12500000000E+03 0.  0.
        -11    1    3    3    0    0  0.14839972914E+02 -0.39116722739E+01  0.32358947513E+02  0.35813788692E+02  0.51100000000E-03 0. -1.
         23    2    1    0    0    0 -0.67303331267E+01  0.26377948356E+02 -0.13302195969E+02  0.94700792732E+02  0.89722896649E+02 0.  0.
         11    1    3    3    0    0 -0.21570306040E+02  0.30289620630E+02 -0.45661143482E+02  0.58887004041E+02  0.51100000000E-03 0.  1.
         22    1    1    0    0    0  0.67303331267E+01 -0.26377948356E+02  0.13302195969E+02  0.30299207268E+02  0.00000000000E+00 0.  1.
</event>
<event>
 5    1  0.8900327E-005  0.9118800E+02  0.7818608E-02  0.1130116E+00
         25   -1    0    0    0    0  0.00000000000E+00  0.00000000000E+00  0.99999998245E-14  0.12500000000E+03  0.12500000000E+03 0.  0.
        -11    1    3    3    0    0  0.35275517857E+02  0.47163431580E+02 -0.32729114334E+01  0.58986976427E+02  0.51100000000E-03 0. -1.
         23    2    1    0    0    0  0.11080817697E+02  0.25401499685E+02  0.11835932516E+02  0.94865136376E+02  0.89951565267E+02 0.  0.
         11    1    3    3    0    0 -0.24194700160E+02 -0.21761931895E+02  0.15108843949E+02  0.35878159949E+02  0.51100000000E-03 0.  1.
         22    1    1    0    0    0 -0.11080817697E+02 -0.25401499685E+02 -0.11835932516E+02  0.30134863624E+02  0.00000000000E+00 0. -1.
</event>
<event>
 5    1  0.8900327E-005  0.9118800E+02  0.7818608E-02  0.1130116E+00
         25   -1    0    0    0    0  0.00000000000E+00  0.00000000000E+00  0.99999998245E-14  0.12500000000E+03  0.12500000000E+03 0.  0.
        -11    1    3    3    0    0  0.22273850446E+02  0.36319951283E+02  0.64644258869E+01  0.43093527092E+02  0.51100000000E-03 0.  1.
         23    2    1    0    0    0 -0.10730683333E+02  0.11974667201E+02 -0.25337579629E+02  0.94991115302E+02  0.90126460185E+02 0.  0.
         11    1    3    3    0    0 -0.33004533779E+02 -0.24345284082E+02 -0.31802005516E+02  0.51897588210E+02  0.51100000000E-03 0. -1.
         22    1    1    0    0    0  0.10730683333E+02 -0.11974667201E+02  0.25337579629E+02  0.30008884698E+02  0.00000000000E+00 0.  1.
</event>
<event>
 5    1  0.8900327E-005  0.9118800E+02  0.7818608E-02  0.1130116E+00
         25   -1    0    0    0    0  0.00000000000E+00  0.00000000000E+00  0.99999998245E-14  0.12500000000E+03  0.12500000000E+03 0.  0.
        -11    1    3    3    0    0  0.57510486380E+02  0.10403446387E+02  0.99943095814E+01  0.59292275758E+02  0.51100000000E-03 0.  1.
         23    2    1    0    0    0  0.23796192173E+02  0.63772267512E+01  0.18376248010E+02  0.94265422178E+02  0.89114283617E+02 0.  0.
         11    1    3    3    0    0 -0.33714294207E+02 -0.40262196359E+01  0.83819384285E+01  0.34973146420E+02  0.51100000000E-03 0. -1.
         22    1    1    0    0    0 -0.23796192173E+02 -0.63772267512E+01 -0.18376248010E+02  0.30734577822E+02  0.00000000000E+00 0.  1.
</event>
<event>
 5    1  0.8900327E-005  0.9118800E+02  0.7818608E-02  0.1130116E+00
         25   -1    0    0    0    0  0.00000000000E+00  0.00000000000E+00  0.99999998245E-14  0.12500000000E+03  0.12500000000E+03 0.  0.
        -11    1    3    3    0    0 -0.30846483292E+02  0.14533227888E+02  0.22923431481E+02  0.41087759192E+02  0.51100000000E-03 0. -1.
         23    2    1    0    0    0 -0.16353475970E+02 -0.19019732589E+02 -0.16600487263E+02  0.94920728376E+02  0.90028784808E+02 0.  0.
         11    1    3    3    0    0  0.14493007322E+02 -0.33552960477E+02 -0.39523918744E+02  0.53832969184E+02  0.51100000000E-03 0.  1.
         22    1    1    0    0    0  0.16353475970E+02  0.19019732589E+02  0.16600487263E+02  0.30079271624E+02  0.00000000000E+00 0.  1.
</event>
<event>
 5    1  0.8900327E-005  0.9118800E+02  0.7818608E-02  0.1130116E+00
         25   -1    0    0    0    0  0.00000000000E+00  0.00000000000E+00  0.99999998245E-14  0.12500000000E+03  0.12500000000E+03 0.  0.
        -11    1    3    3    0    0 -0.17497089009E+02  0.11415289730E+02 -0.56439023023E+02  0.60181560993E+02  0.51100000000E-03 0.  1.
         23    2    1    0    0    0 -0.17467251823E+01 -0.55964354654E+01 -0.25453324553E+02  0.98880220721E+02  0.95367998723E+02 0.  0.
         11    1    3    3    0    0  0.15750363827E+02 -0.17011725196E+02  0.30985698471E+02  0.38698659729E+02  0.51100000000E-03 0. -1.
         22    1    1    0    0    0  0.17467251823E+01  0.55964354654E+01  0.25453324553E+02  0.26119779279E+02  0.00000000000E+00 0.  1.
</event>
<event>
 5    1  0.8900327E-005  0.9118800E+02  0.7818608E-02  0.1130116E+00
         25   -1    0    0    0    0  0.00000000000E+00  0.00000000000E+00  0.99999998245E-14  0.12500000000E+03  0.12500000000E+03 0.  0.
        -11    1    3    3    0    0 -0.21915464007E+01  0.31140929388E+02 -0.13307518350E+02  0.33935975066E+02  0.51100000000E-03 0. -1.
         23    2    1    0    0    0 -0.92649523512E+01 -0.27790935493E+02  0.31668357720E+01  0.95534693512E+02  0.90877243454E+02 0.  0.
         11    1    3    3    0    0 -0.70734059505E+01 -0.58931864881E+02  0.16474354122E+02  0.61598718445E+02  0.51100000000E-03 0.  1.
         22    1    1    0    0    0  0.92649523512E+01  0.27790935493E+02 -0.31668357720E+01  0.29465306488E+02  0.00000000000E+00 0.  1.
</event>
<event>
 5    1  0.8900327E-005  0.9118800E+02  0.7818608E-02  0.1130116E+00
         25   -1    0    0    0    0  0.00000000000E+00  0.00000000000E+00  0.99999998245E-14  0.12500000000E+03  0.12500000000E+03 0.  0.
        -11    1    3    3    0    0  0.37492438214E+01  0.20233708807E+02  0.29876119552E+02  0.36277297599E+02  0.51100000000E-03 0.  1.
         23    2    1    0    0    0  0.93097315906E+01 -0.26616621189E+02 -0.67511781118E+01  0.96005275795E+02  0.91522231992E+02 0.  0.
         11    1    3    3    0    0  0.55604877692E+01 -0.46850329997E+02 -0.36627297664E+02  0.59727978196E+02  0.51100000000E-03 0. -1.
         22    1    1    0    0    0 -0.93097315906E+01  0.26616621189E+02  0.67511781118E+01  0.28994724205E+02  0.00000000000E+00 0. -1.
</event>
<event>
 5    1  0.8900327E-005  0.9118800E+02  0.7818608E-02  0.1130116E+00
         25   -1    0    0    0    0  0.00000000000E+00  0.00000000000E+00  0.99999998245E-14  0.12500000000E+03  0.12500000000E+03 0.  0.
        -11    1    3    3    0    0  0.26881945754E+02 -0.99922302548E+01  0.57113448121E+01  0.29242146515E+02  0.51100000000E-03 0.  1.
         23    2    1    0    0    0 -0.32912812249E+02  0.65114094652E+01  0.25230946890E+01  0.91354529723E+02  0.84933105623E+02 0.  0.
         11    1    3    3    0    0 -0.59794758003E+02  0.16503639720E+02 -0.31882501231E+01  0.62112383208E+02  0.51100000000E-03 0. -1.
         22    1    1    0    0    0  0.32912812249E+02 -0.65114094652E+01 -0.25230946890E+01  0.33645470277E+02  0.00000000000E+00 0. -1.
</event>
<event>
 5    1  0.8900327E-005  0.9118800E+02  0.7818608E-02  0.1130116E+00
         25   -1    0    0    0    0  0.00000000000E+00  0.00000000000E+00  0.99999998245E-14  0.12500000000E+03  0.12500000000E+03 0.  0.
        -11    1    3    3    0    0 -0.34330268394E+02  0.19830149653E+02 -0.38826153676E+02  0.55491191849E+02  0.51100000000E-03 0. -1.
         23    2    1    0    0    0 -0.25152650173E+02  0.14266921949E+02  0.31924764226E+00  0.96081099749E+02  0.91625732943E+02 0.  0.
         11    1    3    3    0    0  0.91776182208E+01 -0.55632277037E+01  0.39145401319E+02  0.40589907900E+02  0.51100000000E-03 0.  1.
         22    1    1    0    0    0  0.25152650173E+02 -0.14266921949E+02 -0.31924764226E+00  0.28918900251E+02  0.00000000000E+00 0. -1.
</event>
<event>
 5    1  0.8900327E-005  0.9118800E+02  0.7818608E-02  0.1130116E+00
         25   -1    0    0    0    0  0.00000000000E+00  0.00000000000E+00  0.99999998245E-14  0.12500000000E+03  0.12500000000E+03 0.  0.
        -11    1    3    3    0    0  0.35065256104E+02 -0.10518440035E+02  0.46899651096E+02  0.59496109450E+02  0.51100000000E-03 0.  1.
         23    2    1    0    0    0  0.53633739619E+01 -0.43451972010E+00  0.28781559284E+02  0.95719755082E+02  0.91131436785E+02 0.  0.
         11    1    3    3    0    0 -0.29701882143E+02  0.10083920315E+02 -0.18118091813E+02  0.36223645633E+02  0.51100000000E-03 0. -1.
         22    1    1    0    0    0 -0.53633739619E+01  0.43451972010E+00 -0.28781559284E+02  0.29280244918E+02  0.00000000000E+00 0.  1.
</event>
<event>
 5    1  0.8900327E-005  0.9118800E+02  0.7818608E-02  0.1130116E+00
         25   -1    0    0    0    0  0.00000000000E+00  0.00000000000E+00  0.99999998245E-14  0.12500000000E+03  0.12500000000E+03 0.  0.
        -11    1    3    3    0    0  0.29154936272E+02  0.15080498030E+02  0.27925828488E+02  0.43096213603E+02  0.51100000000E-03 0.  1.
         23    2    1    0    0    0  0.94537254821E+01 -0.26837255193E+02  0.13088395767E+01  0.96516245809E+02  0.92217468259E+02 0.  0.
         11    1    3    3    0    0 -0.19701210790E+02 -0.41917753223E+02 -0.26616988912E+02  0.53420032206E+02  0.51100000000E-03 0. -1.
         22    1    1    0    0    0 -0.94537254821E+01  0.26837255193E+02 -0.13088395767E+01  0.28483754191E+02  0.00000000000E+00 0. -1.
</event>
<event>
 5    1  0.8900327E-005  0.9118800E+02  0.7818608E-02  0.1130116E+00
         25   -1    0    0    0    0  0.00000000000E+00  0.00000000000E+00  0.99999998245E-14  0.12500000000E+03  0.12500000000E+03 0.  0.
        -11    1    3    3    0    0  0.30693365875E+02 -0.22690319040E+02  0.35664003150E+01  0.38336046984E+02  0.51100000000E-03 0. -1.
         23    2    1    0    0    0 -0.18519296080E+01  0.19940078907E+02 -0.19799908169E+02  0.96838452572E+02  0.92653187440E+02 0.  0.
         11    1    3    3    0    0 -0.32545295483E+02  0.42630397947E+02 -0.23366308484E+02  0.58502405588E+02  0.51100000000E-03 0.  1.
         22    1    1    0    0    0  0.18519296080E+01 -0.19940078907E+02  0.19799908169E+02  0.28161547428E+02  0.00000000000E+00 0.  1.
</event>
<event>
 5    1  0.8900327E-005  0.9118800E+02  0.7818608E-02  0.1130116E+00
         25   -1    0    0    0    0  0.00000000000E+00  0.00000000000E+00  0.99999998245E-14  0.12500000000E+03  0.12500000000E+03 0.  0.
        -11    1    3    3    0    0 -0.11554638366E+02 -0.40273823401E+02 -0.38761802092E+00  0.41900367147E+02  0.51100000000E-03 0.  1.
         23    2    1    0    0    0 -0.85668450346E+01  0.63739640000E+01 -0.27193997904E+02  0.95784733907E+02  0.91220521138E+02 0.  0.
         11    1    3    3    0    0  0.29877933316E+01  0.46647787401E+02 -0.26806379883E+02  0.53884366759E+02  0.51100000000E-03 0. -1.
         22    1    1    0    0    0  0.85668450346E+01 -0.63739640000E+01  0.27193997904E+02  0.29215266093E+02  0.00000000000E+00 0. -1.
</event>
