<event>
 4    1  0.1977762E-002  0.9118800E+02  0.7818608E-02  0.1130116E+00
         25   -1    0    0    0    0  0.00000000000E+00  0.00000000000E+00  0.99999998245E-14  0.12500000000E+03  0.12500000000E+03 0.  0.
        -11    1    1    0    0    0 -0.86326793754E+01  0.69864210367E+01  0.10209150769E+00  0.11106018865E+02  0.51100000000E-03 0. -1.
         11    1    1    0    0    0 -0.40351832242E+02  0.31827260836E+02  0.36651373746E+00  0.51394350178E+02  0.51100000000E-03 0.  1.
         22    1    1    0    0    0  0.48984511617E+02 -0.38813681873E+02 -0.46860524515E+00  0.62499630957E+02  0.00000000000E+00 0.  1.
</event>
<event>
 4    1  0.1977762E-002  0.9118800E+02  0.7818608E-02  0.1130116E+00
         25   -1    0    0    0    0  0.00000000000E+00  0.00000000000E+00  0.99999998245E-14  0.12500000000E+03  0.12500000000E+03 0.  0.
        -11    1    1    0    0    0 -0.33993742792E+02  0.19625173905E+02  0.13184007149E+02  0.41407004777E+02  0.51100000000E-03 0.  1.
         11    1    1    0    0    0 -0.17316155005E+02  0.99975395531E+01  0.67167273608E+01  0.21092995235E+02  0.51100000000E-03 0.  1.
         22    1    1    0    0    0  0.51309897797E+02 -0.29622713458E+02 -0.19900734510E+02  0.62499999989E+02  0.00000000000E+00 0.  1.
</event>
<event>
 4    1  0.1977762E-002  0.9118800E+02  0.7818608E-02  0.1130116E+00
         25   -1    0    0    0    0  0.00000000000E+00  0.00000000000E+00  0.99999998245E-14  0.12500000000E+03  0.12500000000E+03 0.  0.
        -11    1    1    0    0    0  0.47960435634E+00 -0.79708163924E+00  0.33173858937E+01  0.34453459778E+01  0.51100000000E-03 0. -1.
         11    1    1    0    0    0  0.82307449496E+01 -0.13529634074E+02  0.56891620793E+02  0.59054658388E+02  0.51100000000E-03 0.  1.
         22    1    1    0    0    0 -0.87103493059E+01  0.14326715713E+02 -0.60209006686E+02  0.62499995635E+02  0.00000000000E+00 0.  1.
</event>
<event>
 4    1  0.1977762E-002  0.9118800E+02  0.7818608E-02  0.1130116E+00
         25   -1    0    0    0    0  0.00000000000E+00  0.00000000000E+00  0.99999998245E-14  0.12500000000E+03  0.12500000000E+03 0.  0.
        -11    1    1    0    0    0  0.41764891496E+02 -0.25547990267E+02 -0.27177679291E+02  0.55996716156E+02  0.51100000000E-03 0. -1.
         11    1    1    0    0    0  0.47339563436E+01 -0.31224815837E+01 -0.31858684767E+01  0.65046131411E+01  0.51100000000E-03 0.  1.
         22    1    1    0    0    0 -0.46498847840E+02  0.28670471851E+02  0.30363547768E+02  0.62498670703E+02  0.00000000000E+00 0. -1.
</event>
<event>
 4    1  0.1977762E-002  0.9118800E+02  0.7818608E-02  0.1130116E+00
         25   -1    0    0    0    0  0.00000000000E+00  0.00000000000E+00  0.99999998245E-14  0.12500000000E+03  0.12500000000E+03 0.  0.
        -11    1    1    0    0    0  0.24178718089E+01 -0.20846942537E+02  0.88235169613E+01  0.22766105707E+02  0.51100000000E-03 0.  1.
         11    1    1    0    0    0  0.71197396488E+01 -0.35777781257E+02  0.15800955653E+02  0.39754377421E+02  0.51100000000E-03 0. -1.
         22    1    1    0    0    0 -0.95376114577E+01  0.56624723794E+02 -0.24624472615E+02  0.62479516872E+02  0.00000000000E+00 0. -1.
</event>
<event>
 4    1  0.1977762E-002  0.9118800E+02  0.7818608E-02  0.1130116E+00
         25   -1    0    0    0    0  0.00000000000E+00  0.00000000000E+00  0.99999998245E-14  0.12500000000E+03  0.12500000000E+03 0.  0.
        -11    1    1    0    0    0 -0.65172464686E+01 -0.39468206587E+01 -0.31493284693E+01  0.82444020349E+01  0.51100000000E-03 0. -1.
         11    1    1    0    0    0 -0.42898643044E+02 -0.25970826064E+02 -0.20709721203E+02  0.54255598181E+02  0.51100000000E-03 0.  1.
         22    1    1    0    0    0  0.49415889512E+02  0.29917646723E+02  0.23859049672E+02  0.62499999784E+02  0.00000000000E+00 0.  1.
</event>
<event>
 4    1  0.1977762E-002  0.9118800E+02  0.7818608E-02  0.1130116E+00
         25   -1    0    0    0    0  0.00000000000E+00  0.00000000000E+00  0.99999998245E-14  0.12500000000E+03  0.12500000000E+03 0.  0.
        -11    1    1    0    0    0 -0.53722472109E+02 -0.14575518146E+02 -0.80359095335E+01  0.56241671214E+02  0.51100000000E-03 0.  1.
         11    1    1    0    0    0 -0.62357870989E+01 -0.90568095322E+00 -0.96633252777E-01  0.63019550124E+01  0.51100000000E-03 0. -1.
         22    1    1    0    0    0  0.59958259208E+02  0.15481199099E+02  0.81325427862E+01  0.62456373773E+02  0.00000000000E+00 0.  1.
</event>
<event>
 4    1  0.1977762E-002  0.9118800E+02  0.7818608E-02  0.1130116E+00
         25   -1    0    0    0    0  0.00000000000E+00  0.00000000000E+00  0.99999998245E-14  0.12500000000E+03  0.12500000000E+03 0.  0.
        -11    1    1    0    0    0 -0.36043408288E+02 -0.17352770492E+02 -0.39248873497E+02  0.56042126974E+02  0.51100000000E-03 0.  1.
         11    1    1    0    0    0 -0.41539683272E+01 -0.19989090220E+01 -0.45225030860E+01  0.64578730682E+01  0.51100000000E-03 0. -1.
         22    1    1    0    0    0  0.40197376615E+02  0.19351679513E+02  0.43771376583E+02  0.62499999958E+02  0.00000000000E+00 0.  1.
</event>
<event>
 4    1  0.1977762E-002  0.9118800E+02  0.7818608E-02  0.1130116E+00
         25   -1    0    0    0    0  0.00000000000E+00  0.00000000000E+00  0.99999998245E-14  0.12500000000E+03  0.12500000000E+03 0.  0.
        -11    1    1    0    0    0  0.17977684927E+01 -0.30665525086E+00 -0.40342431313E+00  0.18678223775E+01  0.51100000000E-03 0. -1.
         11    1    1    0    0    0  0.59738787269E+02 -0.10024606067E+02 -0.29354392153E+01  0.60645133645E+02  0.51100000000E-03 0.  1.
         22    1    1    0    0    0 -0.61536555762E+02  0.10331261318E+02  0.33388635284E+01  0.62487043978E+02  0.00000000000E+00 0.  1.
</event>
<event>
 4    1  0.1977762E-002  0.9118800E+02  0.7818608E-02  0.1130116E+00
         25   -1    0    0    0    0  0.00000000000E+00  0.00000000000E+00  0.99999998245E-14  0.12500000000E+03  0.12500000000E+03 0.  0.
        -11    1    1    0    0    0 -0.20867842268E+01  0.28374922217E+02  0.38451064981E+02  0.47832784548E+02  0.51100000000E-03 0. -1.
         11    1    1    0    0    0 -0.59451915002E+00  0.86833615779E+01  0.11805675734E+02  0.14667249269E+02  0.51100000000E-03 0.  1.
         22    1    1    0    0    0  0.26813033768E+01 -0.37058283795E+02 -0.50256740715E+02  0.62499966183E+02  0.00000000000E+00 0. -1.
</event>
<event>
 4    1  0.1977762E-002  0.9118800E+02  0.7818608E-02  0.1130116E+00
         25   -1    0    0    0    0  0.00000000000E+00  0.00000000000E+00  0.99999998245E-14  0.12500000000E+03  0.12500000000E+03 0.  0.
        -11    1    1    0    0    0  0.49236245518E+02  0.94370292864E+01  0.20458729972E+02  0.54146329763E+02  0.51100000000E-03 0. -1.
         11    1    1    0    0    0  0.75971472006E+01  0.14536082206E+01  0.31550257429E+01  0.83536704595E+01  0.51100000000E-03 0.  1.
         22    1    1    0    0    0 -0.56833392719E+02 -0.10890637507E+02 -0.23613755715E+02  0.62499999778E+02  0.00000000000E+00 0. -1.
</event>
<event>
 4    1  0.1977762E-002  0.9118800E+02  0.7818608E-02  0.1130116E+00
         25   -1    0    0    0    0  0.00000000000E+00  0.00000000000E+00  0.99999998245E-14  0.12500000000E+03  0.12500000000E+03 0.  0.
        -11    1    1    0    0    0  0.33575295389E+02  0.11929041761E+02  0.26925639103E+02  0.44660861380E+02  0.51100000000E-03 0.  1.
         11    1    1    0    0    0  0.13400945389E+02  0.47766628044E+01  0.10762580030E+02  0.17839141628E+02  0.51100000000E-03 0. -1.
         22    1    1    0    0    0 -0.46976240778E+02 -0.16705704565E+02 -0.37688219133E+02  0.62499996992E+02  0.00000000000E+00 0.  1.
</event>
<event>
 4    1  0.1977762E-002  0.9118800E+02  0.7818608E-02  0.1130116E+00
         25   -1    0    0    0    0  0.00000000000E+00  0.00000000000E+00  0.99999998245E-14  0.12500000000E+03  0.12500000000E+03 0.  0.
        -11    1    1    0    0    0 -0.29650208795E+00 -0.16441519648E+01  0.11001120535E+01  0.20003489603E+01  0.51100000000E-03 0. -1.
         11    1    1    0    0    0 -0.89406336625E+01 -0.49699168562E+02  0.33320647573E+02  0.60499651577E+02  0.51100000000E-03 0.  1.
         22    1    1    0    0    0  0.92371357504E+01  0.51343320527E+02 -0.34420759626E+02  0.62499999463E+02  0.00000000000E+00 0.  1.
</event>
<event>
 4    1  0.1977762E-002  0.9118800E+02  0.7818608E-02  0.1130116E+00
         25   -1    0    0    0    0  0.00000000000E+00  0.00000000000E+00  0.99999998245E-14  0.12500000000E+03  0.12500000000E+03 0.  0.
        -11    1    1    0    0    0  0.37950709947E+02  0.11237625416E+02  0.17585346451E+02  0.43310333877E+02  0.51100000000E-03 0. -1.
         11    1    1    0    0    0  0.16120856293E+02  0.68589771723E+01  0.79191917559E+01  0.19226054556E+02  0.51100000000E-03 0.  1.
         22    1    1    0    0    0 -0.54071566240E+02 -0.18096602588E+02 -0.25504538206E+02  0.62463611567E+02  0.00000000000E+00 0. -1.
</event>
<event>
 4    1  0.1977762E-002  0.9118800E+02  0.7818608E-02  0.1130116E+00
         25   -1    0    0    0    0  0.00000000000E+00  0.00000000000E+00  0.99999998245E-14  0.12500000000E+03  0.12500000000E+03 0.  0.
        -11    1    1    0    0    0 -0.23893306007E+02  0.33230121582E+02 -0.25299874417E+02  0.48116677961E+02  0.51100000000E-03 0. -1.
         11    1    1    0    0    0 -0.71528403998E+01  0.99420175685E+01 -0.75414428679E+01  0.14383330626E+02  0.51100000000E-03 0.  1.
         22    1    1    0    0    0  0.31046146407E+02 -0.43172139150E+02  0.32841317285E+02  0.62499991412E+02  0.00000000000E+00 0. -1.
</event>
<event>
 4    1  0.1977762E-002  0.9118800E+02  0.7818608E-02  0.1130116E+00
         25   -1    0    0    0    0  0.00000000000E+00  0.00000000000E+00  0.99999998245E-14  0.12500000000E+03  0.12500000000E+03 0.  0.
        -11    1    1    0    0    0  0.77476732101E+01 -0.12014548329E+02  0.89860641361E+01  0.16885649547E+02  0.51100000000E-03 0. -1.
         11    1    1    0    0    0  0.20930149919E+02 -0.32455778549E+02  0.24273859001E+02  0.45614350460E+02  0.51100000000E-03 0. -1.
         22    1    1    0    0    0 -0.28677823129E+02  0.44470326878E+02 -0.33259923137E+02  0.62499999993E+02  0.00000000000E+00 0. -1.
</event>
<event>
 4    1  0.1977762E-002  0.9118800E+02  0.7818608E-02  0.1130116E+00
         25   -1    0    0    0    0  0.00000000000E+00  0.00000000000E+00  0.99999998245E-14  0.12500000000E+03  0.12500000000E+03 0.  0.
        -11    1    1    0    0    0 -0.10111379264E+02 -0.37358431603E+02 -0.27670961483E+02  0.47577037656E+02  0.51100000000E-03 0. -1.
         11    1    1    0    0    0 -0.37240237723E+01 -0.10062973040E+02 -0.10486601904E+02  0.15003352933E+02  0.51100000000E-03 0.  1.
         22    1    1    0    0    0  0.13835403036E+02  0.47421404643E+02  0.38157563387E+02  0.62419609412E+02  0.00000000000E+00 0.  1.
</event>
<event>
 4    1  0.1977762E-002  0.9118800E+02  0.7818608E-02  0.1130116E+00
         25   -1    0    0    0    0  0.00000000000E+00  0.00000000000E+00  0.99999998245E-14  0.12500000000E+03  0.12500000000E+03 0.  0.
        -11    1    1    0    0    0 -0.25068977368E+01  0.16504951275E+01  0.37481845115E+00  0.30247577690E+01  0.51100000000E-03 0. -1.
         11    1    1    0    0    0 -0.84806834476E+01 -0.51167824396E+02  0.32800747654E+02  0.61367396002E+02  0.51100000000E-03 0.  1.
         22    1    1    0    0    0  0.10987581184E+02  0.49517329268E+02 -0.33175566105E+02  0.60607846229E+02  0.00000000000E+00 0.  1.
</event>
<event>
 4    1  0.1977762E-002  0.9118800E+02  0.7818608E-02  0.1130116E+00
         25   -1    0    0    0    0  0.00000000000E+00  0.00000000000E+00  0.99999998245E-14  0.12500000000E+03  0.12500000000E+03 0.  0.
        -11    1    1    0    0    0 -0.26229358501E-01 -0.66558813839E-01 -0.15950983058E+00  0.17481905537E+00  0.51100000000E-03 0. -1.
         11    1    1    0    0    0  0.22504235471E+00 -0.62268346327E+02  0.37928580505E+01  0.62384159614E+02  0.51100000000E-03 0.  1.
         22    1    1    0    0    0 -0.19881299621E+00  0.62334905141E+02 -0.36333482200E+01  0.62441021330E+02  0.00000000000E+00 0.  1.
</event>
<event>
 4    1  0.1977762E-002  0.9118800E+02  0.7818608E-02  0.1130116E+00
         25   -1    0    0    0    0  0.00000000000E+00  0.00000000000E+00  0.99999998245E-14  0.12500000000E+03  0.12500000000E+03 0.  0.
        -11    1    1    0    0    0 -0.16686692512E+01  0.51594305469E+02  0.27183012818E+02  0.58341006162E+02  0.51100000000E-03 0. -1.
         11    1    1    0    0    0 -0.12007183738E+00  0.36776161610E+01  0.19385439547E+01  0.41589939648E+01  0.51100000000E-03 0.  1.
         22    1    1    0    0    0  0.17887410886E+01 -0.55271921630E+02 -0.29121556772E+02  0.62499999873E+02  0.00000000000E+00 0. -1.
</event>
<event>
 4    1  0.1977762E-002  0.9118800E+02  0.7818608E-02  0.1130116E+00
         25   -1    0    0    0    0  0.00000000000E+00  0.00000000000E+00  0.99999998245E-14  0.12500000000E+03  0.12500000000E+03 0.  0.
        -11    1    1    0    0    0  0.41066917305E+02 -0.34454062283E+02  0.19380103869E+01  0.53640749335E+02  0.51100000000E-03 0.  1.
         11    1    1    0    0    0  0.36015025306E+01 -0.72824545147E+01  0.54481411332E+01  0.97819837613E+01  0.51100000000E-03 0. -1.
         22    1    1    0    0    0 -0.44668419835E+02  0.41736516798E+02 -0.73861515201E+01  0.61577266903E+02  0.00000000000E+00 0.  1.
</event>
<event>
 4    1  0.1977762E-002  0.9118800E+02  0.7818608E-02  0.1130116E+00
         25   -1    0    0    0    0  0.00000000000E+00  0.00000000000E+00  0.99999998245E-14  0.12500000000E+03  0.12500000000E+03 0.  0.
        -11    1    1    0    0    0  0.17908688813E+01 -0.88318935970E+00  0.12060729729E+01  0.23327766872E+01  0.51100000000E-03 0.  1.
         11    1    1    0    0    0  0.46139425764E+02 -0.22179765357E+02  0.31611986269E+02  0.60167319013E+02  0.51100000000E-03 0. -1.
         22    1    1    0    0    0 -0.47930294646E+02  0.23062954716E+02 -0.32818059242E+02  0.62499904300E+02  0.00000000000E+00 0. -1.
</event>
<event>
 4    1  0.1977762E-002  0.9118800E+02  0.7818608E-02  0.1130116E+00
         25   -1    0    0    0    0  0.00000000000E+00  0.00000000000E+00  0.99999998245E-14  0.12500000000E+03  0.12500000000E+03 0.  0.
        -11    1    1    0    0    0 -0.11499018159E+02  0.10998473374E+02 -0.11051592813E+02  0.19373475143E+02  0.51100000000E-03 0.  1.
         11    1    1    0    0    0 -0.93970569469E+01  0.60107701720E+01 -0.43433676297E+02  0.44843263421E+02  0.51100000000E-03 0. -1.
         22    1    1    0    0    0  0.20896075106E+02 -0.17009243546E+02  0.54485269109E+02  0.60783261436E+02  0.00000000000E+00 0. -1.
</event>
<event>
 4    1  0.1977762E-002  0.9118800E+02  0.7818608E-02  0.1130116E+00
         25   -1    0    0    0    0  0.00000000000E+00  0.00000000000E+00  0.99999998245E-14  0.12500000000E+03  0.12500000000E+03 0.  0.
        -11    1    1    0    0    0  0.15218456105E+02  0.23448421361E+02 -0.55849870397E+02  0.62455087017E+02  0.51100000000E-03 0.  1.
         11    1    1    0    0    0  0.38039532611E-01 -0.46951808272E-01 -0.32845097396E-01  0.68778920356E-01  0.51100000000E-03 0. -1.
         22    1    1    0    0    0 -0.15256495638E+02 -0.23401469553E+02  0.55882715495E+02  0.62476134063E+02  0.00000000000E+00 0.  1.
</event>
<event>
 4    1  0.1977762E-002  0.9118800E+02  0.7818608E-02  0.1130116E+00
         25   -1    0    0    0    0  0.00000000000E+00  0.00000000000E+00  0.99999998245E-14  0.12500000000E+03  0.12500000000E+03 0.  0.
        -11    1    1    0    0    0  0.21003786176E+02  0.36901432780E+02  0.23553297428E+02  0.48555458961E+02  0.51100000000E-03 0. -1.
         11    1    1    0    0    0  0.38494912906E+01  0.10891540892E+02  0.79658951523E+01  0.14032096494E+02  0.51100000000E-03 0.  1.
         22    1    1    0    0    0 -0.24853277466E+02 -0.47792973671E+02 -0.31519192580E+02  0.62412444545E+02  0.00000000000E+00 0.  1.
</event>
<event>
 4    1  0.1977762E-002  0.9118800E+02  0.7818608E-02  0.1130116E+00
         25   -1    0    0    0    0  0.00000000000E+00  0.00000000000E+00  0.99999998245E-14  0.12500000000E+03  0.12500000000E+03 0.  0.
        -11    1    1    0    0    0  0.46420332241E+02  0.25995737980E+02  0.21181858937E+02  0.57265144606E+02  0.51100000000E-03 0.  1.
         11    1    1    0    0    0  0.29937561169E+01  0.49669030867E+01 -0.34143881846E+00  0.58094132826E+01  0.51100000000E-03 0. -1.
         22    1    1    0    0    0 -0.49414088358E+02 -0.30962641066E+02 -0.20840420118E+02  0.61925442112E+02  0.00000000000E+00 0.  1.
</event>
<event>
 4    1  0.1977762E-002  0.9118800E+02  0.7818608E-02  0.1130116E+00
         25   -1    0    0    0    0  0.00000000000E+00  0.00000000000E+00  0.99999998245E-14  0.12500000000E+03  0.12500000000E+03 0.  0.
        -11    1    1    0    0    0  0.52687734090E+00 -0.18969959302E+01  0.33122868787E+01  0.38532373298E+01  0.51100000000E-03 0. -1.
         11    1    1    0    0    0  0.86631947561E+01 -0.28763643924E+02  0.50369215110E+02  0.58646875333E+02  0.51100000000E-03 0.  1.
         22    1    1    0    0    0 -0.91900720970E+01  0.30660639855E+02 -0.53681501989E+02  0.62499887338E+02  0.00000000000E+00 0.  1.
</event>
<event>
 4    1  0.1977762E-002  0.9118800E+02  0.7818608E-02  0.1130116E+00
         25   -1    0    0    0    0  0.00000000000E+00  0.00000000000E+00  0.99999998245E-14  0.12500000000E+03  0.12500000000E+03 0.  0.
        -11    1    1    0    0    0 -0.65795678564E+01  0.69909194092E+01  0.77783026498E+01  0.12355794581E+02  0.51100000000E-03 0.  1.
         11    1    1    0    0    0 -0.26277404311E+02  0.28482892624E+02  0.31822786047E+02  0.50144459930E+02  0.51100000000E-03 0. -1.
         22    1    1    0    0    0  0.32856972168E+02 -0.35473812033E+02 -0.39601088697E+02  0.62499745489E+02  0.00000000000E+00 0. -1.
</event>
<event>
 4    1  0.1977762E-002  0.9118800E+02  0.7818608E-02  0.1130116E+00
         25   -1    0    0    0    0  0.00000000000E+00  0.00000000000E+00  0.99999998245E-14  0.12500000000E+03  0.12500000000E+03 0.  0.
        -11    1    1    0    0    0 -0.28892364059E+01  0.14277290255E+01 -0.12918415090E+01  0.34720241827E+01  0.51100000000E-03 0.  1.
         11    1    1    0    0    0 -0.47922328766E+02  0.29292983879E+02  0.19447549024E+02  0.59437661984E+02  0.51100000000E-03 0. -1.
         22    1    1    0    0    0  0.50811565172E+02 -0.30720712904E+02 -0.18155707515E+02  0.62090313833E+02  0.00000000000E+00 0. -1.
</event>
<event>
 4    1  0.1977762E-002  0.9118800E+02  0.7818608E-02  0.1130116E+00
         25   -1    0    0    0    0  0.00000000000E+00  0.00000000000E+00  0.99999998245E-14  0.12500000000E+03  0.12500000000E+03 0.  0.
        -11    1    1    0    0    0  0.99824570187E+01 -0.11202514410E+02 -0.36890035292E+01  0.15451683550E+02  0.51100000000E-03 0. -1.
         11    1    1    0    0    0  0.30406636149E+02 -0.34095037764E+02 -0.11247623371E+02  0.47048317226E+02  0.51100000000E-03 0.  1.
         22    1    1    0    0    0 -0.40389093168E+02  0.45297552174E+02  0.14936626900E+02  0.62499999224E+02  0.00000000000E+00 0.  1.
</event>
<event>
 4    1  0.1977762E-002  0.9118800E+02  0.7818608E-02  0.1130116E+00
         25   -1    0    0    0    0  0.00000000000E+00  0.00000000000E+00  0.99999998245E-14  0.12500000000E+03  0.12500000000E+03 0.  0.
        -11    1    1    0    0    0  0.27628432746E+02  0.13792458288E+02 -0.23230882412E+02  0.38642413221E+02  0.51100000000E-03 0.  1.
         11    1    1    0    0    0  0.53878388186E+01  0.28788754755E+02  0.77757170007E+01  0.30303184364E+02  0.51100000000E-03 0. -1.
         22    1    1    0    0    0 -0.33016271564E+02 -0.42581213043E+02  0.15455165411E+02  0.56054402415E+02  0.00000000000E+00 0.  1.
</event>
<event>
 4    1  0.1977762E-002  0.9118800E+02  0.7818608E-02  0.1130116E+00
         25   -1    0    0    0    0  0.00000000000E+00  0.00000000000E+00  0.99999998245E-14  0.12500000000E+03  0.12500000000E+03 0.  0.
        -11    1    1    0    0    0 -0.13885915104E+01 -0.48359447297E+01 -0.97559238940E+00  0.51250686418E+01  0.51100000000E-03 0.  1.
         11    1    1    0    0    0 -0.15528699152E+02 -0.54138953648E+02 -0.10941479674E+02  0.57374931609E+02  0.51100000000E-03 0. -1.
         22    1    1    0    0    0  0.16917290663E+02  0.58974898378E+02  0.11917072064E+02  0.62499999749E+02  0.00000000000E+00 0. -1.
</event>
<event>
 4    1  0.1977762E-002  0.9118800E+02  0.7818608E-02  0.1130116E+00
         25   -1    0    0    0    0  0.00000000000E+00  0.00000000000E+00  0.99999998245E-14  0.12500000000E+03  0.12500000000E+03 0.  0.
        -11    1    1    0    0    0 -0.77471276248E+01  0.10636023508E+02  0.11260280061E+02  0.17318686146E+02  0.51100000000E-03 0.  1.
         11    1    1    0    0    0 -0.12281473266E+02  0.22513456706E+02  0.37487778731E+02  0.45420522596E+02  0.51100000000E-03 0. -1.
         22    1    1    0    0    0  0.20028600891E+02 -0.33149480214E+02 -0.48748058792E+02  0.62260791258E+02  0.00000000000E+00 0.  1.
</event>
<event>
 4    1  0.1977762E-002  0.9118800E+02  0.7818608E-02  0.1130116E+00
         25   -1    0    0    0    0  0.00000000000E+00  0.00000000000E+00  0.99999998245E-14  0.12500000000E+03  0.12500000000E+03 0.  0.
        -11    1    1    0    0    0 -0.45988336578E+01 -0.40122423409E+01 -0.78014377963E+01  0.99050386958E+01  0.51100000000E-03 0.  1.
         11    1    1    0    0    0 -0.26369353707E+02 -0.20442027509E+02 -0.40662230926E+02  0.52598824395E+02  0.51100000000E-03 0. -1.
         22    1    1    0    0    0  0.30968187364E+02  0.24454269849E+02  0.48463668723E+02  0.62496136909E+02  0.00000000000E+00 0. -1.
</event>
<event>
 4    1  0.1977762E-002  0.9118800E+02  0.7818608E-02  0.1130116E+00
         25   -1    0    0    0    0  0.00000000000E+00  0.00000000000E+00  0.99999998245E-14  0.12500000000E+03  0.12500000000E+03 0.  0.
        -11    1    1    0    0    0 -0.18181980891E+00  0.35151326378E+01  0.77840441061E+01  0.85428659600E+01  0.51100000000E-03 0. -1.
         11    1    1    0    0    0 -0.77983924150E+00  0.22406463422E+02  0.49078785742E+02  0.53957251250E+02  0.51100000000E-03 0.  1.
         22    1    1    0    0    0  0.96165905041E+00 -0.25921596060E+02 -0.56862829848E+02  0.62499882790E+02  0.00000000000E+00 0.  1.
</event>
<event>
 4    1  0.1977762E-002  0.9118800E+02  0.7818608E-02  0.1130116E+00
         25   -1    0    0    0    0  0.00000000000E+00  0.00000000000E+00  0.99999998245E-14  0.12500000000E+03  0.12500000000E+03 0.  0.
        -11    1    1    0    0    0 -0.44051697105E+01 -0.31129905814E+01 -0.24713433205E+01  0.59332763805E+01  0.51100000000E-03 0.  1.
         11    1    1    0    0    0 -0.44302835670E+02 -0.27587739040E+02 -0.21830517868E+02  0.56572043488E+02  0.51100000000E-03 0. -1.
         22    1    1    0    0    0  0.48708005381E+02  0.30700729621E+02  0.24301861189E+02  0.62494680131E+02  0.00000000000E+00 0. -1.
</event>
<event>
 4    1  0.1977762E-002  0.9118800E+02  0.7818608E-02  0.1130116E+00
         25   -1    0    0    0    0  0.00000000000E+00  0.00000000000E+00  0.99999998245E-14  0.12500000000E+03  0.12500000000E+03 0.  0.
        -11    1    1    0    0    0 -0.24498111694E+02  0.50275011808E+02 -0.26665501582E+02  0.61957915263E+02  0.51100000000E-03 0.  1.
         11    1    1    0    0    0 -0.21392182902E+00  0.43952657546E+00 -0.23432934051E+00  0.54208547334E+00  0.51100000000E-03 0. -1.
         22    1    1    0    0    0  0.24712033523E+02 -0.50714538383E+02  0.26899830923E+02  0.62499999264E+02  0.00000000000E+00 0.  1.
</event>
<event>
 4    1  0.1977762E-002  0.9118800E+02  0.7818608E-02  0.1130116E+00
         25   -1    0    0    0    0  0.00000000000E+00  0.00000000000E+00  0.99999998245E-14  0.12500000000E+03  0.12500000000E+03 0.  0.
        -11    1    1    0    0    0  0.97348832621E+01  0.17115962790E+02  0.30158298856E+02  0.36017317009E+02  0.51100000000E-03 0.  1.
         11    1    1    0    0    0  0.68556828394E+00  0.72758977368E+01  0.25929246843E+02  0.26939460534E+02  0.51100000000E-03 0. -1.
         22    1    1    0    0    0 -0.10420451546E+02 -0.24391860527E+02 -0.56087545699E+02  0.62043222457E+02  0.00000000000E+00 0.  1.
</event>
<event>
 4    1  0.1977762E-002  0.9118800E+02  0.7818608E-02  0.1130116E+00
         25   -1    0    0    0    0  0.00000000000E+00  0.00000000000E+00  0.99999998245E-14  0.12500000000E+03  0.12500000000E+03 0.  0.
        -11    1    1    0    0    0  0.63338933019E+01 -0.12049466484E+01 -0.30358359215E+01  0.71264578010E+01  0.51100000000E-03 0. -1.
         11    1    1    0    0    0  0.45778561791E+02 -0.11809885334E+02 -0.28873632474E+02  0.55397082628E+02  0.51100000000E-03 0.  1.
         22    1    1    0    0    0 -0.52112455092E+02  0.13014831982E+02  0.31909468395E+02  0.62476459571E+02  0.00000000000E+00 0.  1.
</event>
<event>
 4    1  0.1977762E-002  0.9118800E+02  0.7818608E-02  0.1130116E+00
         25   -1    0    0    0    0  0.00000000000E+00  0.00000000000E+00  0.99999998245E-14  0.12500000000E+03  0.12500000000E+03 0.  0.
        -11    1    1    0    0    0  0.19575290234E+02  0.32541233472E+02 -0.46234138038E+02  0.59830756171E+02  0.51100000000E-03 0.  1.
         11    1    1    0    0    0 -0.13285487857E-01  0.18610540387E+01 -0.20302352089E+01  0.27541884292E+01  0.51100000000E-03 0. -1.
         22    1    1    0    0    0 -0.19562004746E+02 -0.34402287511E+02  0.48264373247E+02  0.62415055400E+02  0.00000000000E+00 0.  1.
</event>
<event>
 4    1  0.1977762E-002  0.9118800E+02  0.7818608E-02  0.1130116E+00
         25   -1    0    0    0    0  0.00000000000E+00  0.00000000000E+00  0.99999998245E-14  0.12500000000E+03  0.12500000000E+03 0.  0.
        -11    1    1    0    0    0  0.11744396046E+02  0.22746795941E+02  0.16775644300E+02  0.30606695444E+02  0.51100000000E-03 0.  1.
         11    1    1    0    0    0  0.11795930498E+02  0.24186962313E+02  0.17122105228E+02  0.31895448107E+02  0.51100000000E-03 0. -1.
         22    1    1    0    0    0 -0.23540326544E+02 -0.46933758254E+02 -0.33897749527E+02  0.62497856449E+02  0.00000000000E+00 0.  1.
</event>
<event>
 4    1  0.1977762E-002  0.9118800E+02  0.7818608E-02  0.1130116E+00
         25   -1    0    0    0    0  0.00000000000E+00  0.00000000000E+00  0.99999998245E-14  0.12500000000E+03  0.12500000000E+03 0.  0.
        -11    1    1    0    0    0 -0.34873336989E+02 -0.18635865839E+02  0.36203466029E+02  0.53610969784E+02  0.51100000000E-03 0.  1.
         11    1    1    0    0    0  0.38617995093E+01  0.18738925027E+02  0.50416929188E+01  0.19785840250E+02  0.51100000000E-03 0. -1.
         22    1    1    0    0    0  0.31011537480E+02 -0.10305918886E+00 -0.41245158948E+02  0.51603189967E+02  0.00000000000E+00 0.  1.
</event>
<event>
 4    1  0.1977762E-002  0.9118800E+02  0.7818608E-02  0.1130116E+00
         25   -1    0    0    0    0  0.00000000000E+00  0.00000000000E+00  0.99999998245E-14  0.12500000000E+03  0.12500000000E+03 0.  0.
        -11    1    1    0    0    0 -0.13153850034E+02 -0.12705656717E+02  0.10498180967E+02  0.21087183008E+02  0.51100000000E-03 0. -1.
         11    1    1    0    0    0 -0.17187766401E+02 -0.15820057299E+02  0.35097617467E+02  0.42160838214E+02  0.51100000000E-03 0.  1.
         22    1    1    0    0    0  0.30341616436E+02  0.28525714016E+02 -0.45595798434E+02  0.61751978777E+02  0.00000000000E+00 0.  1.
</event>
<event>
 4    1  0.1977762E-002  0.9118800E+02  0.7818608E-02  0.1130116E+00
         25   -1    0    0    0    0  0.00000000000E+00  0.00000000000E+00  0.99999998245E-14  0.12500000000E+03  0.12500000000E+03 0.  0.
        -11    1    1    0    0    0 -0.19620084603E+02  0.46599235590E+02 -0.11505026038E+02  0.51853660447E+02  0.51100000000E-03 0.  1.
         11    1    1    0    0    0 -0.40652721202E+01  0.95324890479E+01 -0.24399482910E+01  0.10646508009E+02  0.51100000000E-03 0. -1.
         22    1    1    0    0    0  0.23685356723E+02 -0.56131724638E+02  0.13944974329E+02  0.62499831544E+02  0.00000000000E+00 0.  1.
</event>
<event>
 4    1  0.1977762E-002  0.9118800E+02  0.7818608E-02  0.1130116E+00
         25   -1    0    0    0    0  0.00000000000E+00  0.00000000000E+00  0.99999998245E-14  0.12500000000E+03  0.12500000000E+03 0.  0.
        -11    1    1    0    0    0 -0.14038163218E+01 -0.50748136204E+01 -0.25515722438E+01  0.58510644094E+01  0.51100000000E-03 0.  1.
         11    1    1    0    0    0 -0.29308664560E+02 -0.13370750402E+02 -0.47623845809E+02  0.57496134431E+02  0.51100000000E-03 0. -1.
         22    1    1    0    0    0  0.30712480882E+02  0.18445564022E+02  0.50175418053E+02  0.61652801159E+02  0.00000000000E+00 0. -1.
</event>
<event>
 4    1  0.1977762E-002  0.9118800E+02  0.7818608E-02  0.1130116E+00
         25   -1    0    0    0    0  0.00000000000E+00  0.00000000000E+00  0.99999998245E-14  0.12500000000E+03  0.12500000000E+03 0.  0.
        -11    1    1    0    0    0 -0.22352924769E+02  0.76146033898E+01 -0.31292892870E+02  0.39203068438E+02  0.51100000000E-03 0.  1.
         11    1    1    0    0    0 -0.13216865947E+02  0.47016325353E+01 -0.18600196253E+02  0.23297171392E+02  0.51100000000E-03 0. -1.
         22    1    1    0    0    0  0.35569790716E+02 -0.12316235925E+02  0.49893089123E+02  0.62499760170E+02  0.00000000000E+00 0.  1.
</event>
<event>
 4    1  0.1977762E-002  0.9118800E+02  0.7818608E-02  0.1130116E+00
         25   -1    0    0    0    0  0.00000000000E+00  0.00000000000E+00  0.99999998245E-14  0.12500000000E+03  0.12500000000E+03 0.  0.
        -11    1    1    0    0    0  0.23795173902E+02  0.28497951009E+02  0.28453773797E+01  0.37234925613E+02  0.51100000000E-03 0. -1.
         11    1    1    0    0    0  0.16156400115E+02  0.19315104553E+02  0.20557946146E+01  0.25265170103E+02  0.51100000000E-03 0.  1.
         22    1    1    0    0    0 -0.39951574017E+02 -0.47813055562E+02 -0.49011719943E+01  0.62499904284E+02  0.00000000000E+00 0.  1.
</event>
<event>
 4    1  0.1977762E-002  0.9118800E+02  0.7818608E-02  0.1130116E+00
         25   -1    0    0    0    0  0.00000000000E+00  0.00000000000E+00  0.99999998245E-14  0.12500000000E+03  0.12500000000E+03 0.  0.
        -11    1    1    0    0    0 -0.13509922622E+02  0.13268721322E+02 -0.35505378378E+02  0.40239394488E+02  0.51100000000E-03 0. -1.
         11    1    1    0    0    0 -0.74754997520E+01  0.73391819399E+01 -0.19641483422E+02  0.22260605548E+02  0.51100000000E-03 0.  1.
         22    1    1    0    0    0  0.20985422374E+02 -0.20607903262E+02  0.55146861800E+02  0.62499999964E+02  0.00000000000E+00 0. -1.
</event>
<event>
 4    1  0.1977762E-002  0.9118800E+02  0.7818608E-02  0.1130116E+00
         25   -1    0    0    0    0  0.00000000000E+00  0.00000000000E+00  0.99999998245E-14  0.12500000000E+03  0.12500000000E+03 0.  0.
        -11    1    1    0    0    0 -0.32847431760E+01 -0.77594603817E+00  0.40683862187E+01  0.52861514046E+01  0.51100000000E-03 0.  1.
         11    1    1    0    0    0 -0.30865091632E+02 -0.29590518592E+01  0.48113399568E+02  0.57239052120E+02  0.51100000000E-03 0. -1.
         22    1    1    0    0    0  0.34149834808E+02  0.37349978974E+01 -0.52181785787E+02  0.62474796475E+02  0.00000000000E+00 0. -1.
</event>
<event>
 4    1  0.1977762E-002  0.9118800E+02  0.7818608E-02  0.1130116E+00
         25   -1    0    0    0    0  0.00000000000E+00  0.00000000000E+00  0.99999998245E-14  0.12500000000E+03  0.12500000000E+03 0.  0.
        -11    1    1    0    0    0 -0.47550756719E+01  0.56829754372E+01  0.25599162124E+01  0.78396508686E+01  0.51100000000E-03 0.  1.
         11    1    1    0    0    0 -0.34706764375E+02  0.37338819532E+02  0.19741076632E+02  0.54666781909E+02  0.51100000000E-03 0. -1.
         22    1    1    0    0    0  0.39461840047E+02 -0.43021794970E+02 -0.22300992845E+02  0.62493567222E+02  0.00000000000E+00 0. -1.
</event>
<event>
 4    1  0.1977762E-002  0.9118800E+02  0.7818608E-02  0.1130116E+00
         25   -1    0    0    0    0  0.00000000000E+00  0.00000000000E+00  0.99999998245E-14  0.12500000000E+03  0.12500000000E+03 0.  0.
        -11    1    1    0    0    0  0.20011104803E+02 -0.23490180588E+02  0.21491124315E+02  0.37604538610E+02  0.51100000000E-03 0.  1.
         11    1    1    0    0    0  0.13247835424E+02 -0.15551076223E+02  0.14228242434E+02  0.24895461396E+02  0.51100000000E-03 0.  1.
         22    1    1    0    0    0 -0.33258940227E+02  0.39041256810E+02 -0.35719366748E+02  0.62499999994E+02  0.00000000000E+00 0.  1.
</event>
<event>
 4    1  0.1977762E-002  0.9118800E+02  0.7818608E-02  0.1130116E+00
         25   -1    0    0    0    0  0.00000000000E+00  0.00000000000E+00  0.99999998245E-14  0.12500000000E+03  0.12500000000E+03 0.  0.
        -11    1    1    0    0    0  0.17604089979E+02  0.20189602237E+02  0.45946286711E+01  0.27177833530E+02  0.51100000000E-03 0. -1.
         11    1    1    0    0    0  0.22880237869E+02  0.26239254465E+02  0.59709031680E+01  0.35322166478E+02  0.51100000000E-03 0. -1.
         22    1    1    0    0    0 -0.40484327848E+02 -0.46428856702E+02 -0.10565531839E+02  0.62499999992E+02  0.00000000000E+00 0. -1.
</event>
<event>
 4    1  0.1977762E-002  0.9118800E+02  0.7818608E-02  0.1130116E+00
         25   -1    0    0    0    0  0.00000000000E+00  0.00000000000E+00  0.99999998245E-14  0.12500000000E+03  0.12500000000E+03 0.  0.
        -11    1    1    0    0    0 -0.42520024763E+02 -0.37321791485E+01 -0.30505044830E+02  0.52463696280E+02  0.51100000000E-03 0.  1.
         11    1    1    0    0    0 -0.81367983179E+01 -0.70702338385E+00 -0.58326709392E+01  0.10036305071E+02  0.51100000000E-03 0. -1.
         22    1    1    0    0    0  0.50656823081E+02  0.44392025323E+01  0.36337715770E+02  0.62499998649E+02  0.00000000000E+00 0.  1.
</event>
<event>
 4    1  0.1977762E-002  0.9118800E+02  0.7818608E-02  0.1130116E+00
         25   -1    0    0    0    0  0.00000000000E+00  0.00000000000E+00  0.99999998245E-14  0.12500000000E+03  0.12500000000E+03 0.  0.
        -11    1    1    0    0    0  0.42810293210E+02  0.16025977730E+02  0.17631083917E+02  0.48993961743E+02  0.51100000000E-03 0.  1.
         11    1    1    0    0    0  0.11304021985E+02  0.47057964512E+01  0.57374941797E+01  0.13521992198E+02  0.51100000000E-03 0. -1.
         22    1    1    0    0    0 -0.54114315195E+02 -0.20731774181E+02 -0.23368578097E+02  0.62484046059E+02  0.00000000000E+00 0.  1.
</event>
<event>
 4    1  0.1977762E-002  0.9118800E+02  0.7818608E-02  0.1130116E+00
         25   -1    0    0    0    0  0.00000000000E+00  0.00000000000E+00  0.99999998245E-14  0.12500000000E+03  0.12500000000E+03 0.  0.
        -11    1    1    0    0    0  0.29654367007E+02  0.43945887515E+01 -0.12919930513E+02  0.32643812547E+02  0.51100000000E-03 0. -1.
         11    1    1    0    0    0  0.26405025651E+02  0.67517319736E+01 -0.12276846502E+02  0.29892009377E+02  0.51100000000E-03 0.  1.
         22    1    1    0    0    0 -0.56059392658E+02 -0.11146320725E+02  0.25196777015E+02  0.62464178077E+02  0.00000000000E+00 0.  1.
</event>
<event>
 4    1  0.1977762E-002  0.9118800E+02  0.7818608E-02  0.1130116E+00
         25   -1    0    0    0    0  0.00000000000E+00  0.00000000000E+00  0.99999998245E-14  0.12500000000E+03  0.12500000000E+03 0.  0.
        -11    1    1    0    0    0 -0.98849036088E+01 -0.68790640164E+01 -0.46528011771E+02  0.48061301697E+02  0.51100000000E-03 0.  1.
         11    1    1    0    0    0 -0.29840797680E+01 -0.20285022620E+01 -0.13980597144E+02  0.14438720520E+02  0.51100000000E-03 0. -1.
         22    1    1    0    0    0  0.12868983377E+02  0.89075662784E+01  0.60508608915E+02  0.62499977784E+02  0.00000000000E+00 0. -1.
</event>
<event>
 4    1  0.1977762E-002  0.9118800E+02  0.7818608E-02  0.1130116E+00
         25   -1    0    0    0    0  0.00000000000E+00  0.00000000000E+00  0.99999998245E-14  0.12500000000E+03  0.12500000000E+03 0.  0.
        -11    1    1    0    0    0 -0.16426747592E+02 -0.95846294952E+01  0.42653841652E+02  0.46701749078E+02  0.51100000000E-03 0.  1.
         11    1    1    0    0    0 -0.55672134794E+01 -0.32205866407E+01  0.14429792247E+02  0.15798257777E+02  0.51100000000E-03 0. -1.
         22    1    1    0    0    0  0.21993961072E+02  0.12805216136E+02 -0.57083633899E+02  0.62499993145E+02  0.00000000000E+00 0.  1.
</event>
<event>
 4    1  0.1977762E-002  0.9118800E+02  0.7818608E-02  0.1130116E+00
         25   -1    0    0    0    0  0.00000000000E+00  0.00000000000E+00  0.99999998245E-14  0.12500000000E+03  0.12500000000E+03 0.  0.
        -11    1    1    0    0    0  0.39151963827E+02  0.25300489760E+02 -0.33387870828E+02  0.57338826046E+02  0.51100000000E-03 0. -1.
         11    1    1    0    0    0  0.35265595323E+01  0.22741187148E+01 -0.30049103026E+01  0.51611746968E+01  0.51100000000E-03 0.  1.
         22    1    1    0    0    0 -0.42678523360E+02 -0.27574608475E+02  0.36392781131E+02  0.62499999257E+02  0.00000000000E+00 0. -1.
</event>
<event>
 4    1  0.1977762E-002  0.9118800E+02  0.7818608E-02  0.1130116E+00
         25   -1    0    0    0    0  0.00000000000E+00  0.00000000000E+00  0.99999998245E-14  0.12500000000E+03  0.12500000000E+03 0.  0.
        -11    1    1    0    0    0 -0.21620291335E+01 -0.83317871684E+01 -0.56176827353E+00  0.86260437772E+01  0.51100000000E-03 0.  1.
         11    1    1    0    0    0 -0.13338648293E+02 -0.52081923515E+02 -0.34581854681E+01  0.53873976485E+02  0.51100000000E-03 0. -1.
         22    1    1    0    0    0  0.15500677426E+02  0.60413710683E+02  0.40199537417E+01  0.62499979738E+02  0.00000000000E+00 0. -1.
</event>
<event>
 4    1  0.1977762E-002  0.9118800E+02  0.7818608E-02  0.1130116E+00
         25   -1    0    0    0    0  0.00000000000E+00  0.00000000000E+00  0.99999998245E-14  0.12500000000E+03  0.12500000000E+03 0.  0.
        -11    1    1    0    0    0  0.26690680497E+02  0.26004723498E+02 -0.38337218938E+01  0.37461119756E+02  0.51100000000E-03 0. -1.
         11    1    1    0    0    0  0.37436990710E+01  0.20137844180E+02 -0.18805888374E+02  0.27806644687E+02  0.51100000000E-03 0.  1.
         22    1    1    0    0    0 -0.30434379568E+02 -0.46142567678E+02  0.22639610268E+02  0.59732235557E+02  0.00000000000E+00 0. -1.
</event>
<event>
 4    1  0.1977762E-002  0.9118800E+02  0.7818608E-02  0.1130116E+00
         25   -1    0    0    0    0  0.00000000000E+00  0.00000000000E+00  0.99999998245E-14  0.12500000000E+03  0.12500000000E+03 0.  0.
        -11    1    1    0    0    0 -0.28940707289E+01 -0.10201405106E+02  0.26355026550E+02  0.28408304002E+02  0.51100000000E-03 0. -1.
         11    1    1    0    0    0 -0.34745516863E+01 -0.12242841869E+02  0.31627267511E+02  0.34091696011E+02  0.51100000000E-03 0.  1.
         22    1    1    0    0    0  0.63686224153E+01  0.22444246975E+02 -0.57982294061E+02  0.62499999987E+02  0.00000000000E+00 0. -1.
</event>
<event>
 4    1  0.1977762E-002  0.9118800E+02  0.7818608E-02  0.1130116E+00
         25   -1    0    0    0    0  0.00000000000E+00  0.00000000000E+00  0.99999998245E-14  0.12500000000E+03  0.12500000000E+03 0.  0.
        -11    1    1    0    0    0  0.10443147360E+02 -0.20023295364E+02 -0.39185918308E+02  0.45227512400E+02  0.51100000000E-03 0.  1.
         11    1    1    0    0    0 -0.66537810581E+01 -0.80050716245E+01 -0.15228688785E+02  0.18446325825E+02  0.51100000000E-03 0. -1.
         22    1    1    0    0    0 -0.37893663016E+01  0.28028366988E+02  0.54414607093E+02  0.61326161775E+02  0.00000000000E+00 0.  1.
</event>
<event>
 4    1  0.1977762E-002  0.9118800E+02  0.7818608E-02  0.1130116E+00
         25   -1    0    0    0    0  0.00000000000E+00  0.00000000000E+00  0.99999998245E-14  0.12500000000E+03  0.12500000000E+03 0.  0.
        -11    1    1    0    0    0 -0.66741132505E+01 -0.11919749335E+01  0.13407030730E+02  0.15023750038E+02  0.51100000000E-03 0. -1.
         11    1    1    0    0    0 -0.22275945256E+02 -0.26350166708E+01  0.41847204874E+02  0.47479991638E+02  0.51100000000E-03 0.  1.
         22    1    1    0    0    0  0.28950058506E+02  0.38269916043E+01 -0.55254235605E+02  0.62496258324E+02  0.00000000000E+00 0.  1.
</event>
<event>
 4    1  0.1977762E-002  0.9118800E+02  0.7818608E-02  0.1130116E+00
         25   -1    0    0    0    0  0.00000000000E+00  0.00000000000E+00  0.99999998245E-14  0.12500000000E+03  0.12500000000E+03 0.  0.
        -11    1    1    0    0    0  0.59623853832E+02  0.10905191822E+02  0.25965013221E+01  0.60668517155E+02  0.51100000000E-03 0. -1.
         11    1    1    0    0    0  0.17972607755E+01  0.35098359436E+00  0.42882009747E-01  0.18317136530E+01  0.51100000000E-03 0.  1.
         22    1    1    0    0    0 -0.61421114608E+02 -0.11256175416E+02 -0.26393833319E+01  0.62499769192E+02  0.00000000000E+00 0. -1.
</event>
<event>
 4    1  0.1977762E-002  0.9118800E+02  0.7818608E-02  0.1130116E+00
         25   -1    0    0    0    0  0.00000000000E+00  0.00000000000E+00  0.99999998245E-14  0.12500000000E+03  0.12500000000E+03 0.  0.
        -11    1    1    0    0    0  0.28039696194E+02 -0.18895048366E+02  0.49777064990E+01  0.34176380406E+02  0.51100000000E-03 0. -1.
         11    1    1    0    0    0  0.22769888818E+02 -0.16378638136E+02  0.39633763274E+01  0.28327300897E+02  0.51100000000E-03 0.  1.
         22    1    1    0    0    0 -0.50809585012E+02  0.35273686502E+02 -0.89410828264E+01  0.62496318697E+02  0.00000000000E+00 0. -1.
</event>
<event>
 4    1  0.1977762E-002  0.9118800E+02  0.7818608E-02  0.1130116E+00
         25   -1    0    0    0    0  0.00000000000E+00  0.00000000000E+00  0.99999998245E-14  0.12500000000E+03  0.12500000000E+03 0.  0.
        -11    1    1    0    0    0 -0.91621357724E+01 -0.52760671611E+02 -0.79234994787E+01  0.54133308092E+02  0.51100000000E-03 0. -1.
         11    1    1    0    0    0 -0.14209797683E+01 -0.81547997552E+01 -0.12172202242E+01  0.83666939638E+01  0.51100000000E-03 0.  1.
         22    1    1    0    0    0  0.10583115541E+02  0.60915471366E+02  0.91407197029E+01  0.62499997944E+02  0.00000000000E+00 0. -1.
</event>
<event>
 4    1  0.1977762E-002  0.9118800E+02  0.7818608E-02  0.1130116E+00
         25   -1    0    0    0    0  0.00000000000E+00  0.00000000000E+00  0.99999998245E-14  0.12500000000E+03  0.12500000000E+03 0.  0.
        -11    1    1    0    0    0 -0.15306671884E+02  0.35498342078E+01  0.98711266589E+01  0.18556256865E+02  0.51100000000E-03 0. -1.
         11    1    1    0    0    0 -0.36249310715E+02  0.84063832704E+01  0.23374617738E+02  0.43943743146E+02  0.51100000000E-03 0. -1.
         22    1    1    0    0    0  0.51555982599E+02 -0.11956217478E+02 -0.33245744397E+02  0.62499999989E+02  0.00000000000E+00 0. -1.
</event>
<event>
 4    1  0.1977762E-002  0.9118800E+02  0.7818608E-02  0.1130116E+00
         25   -1    0    0    0    0  0.00000000000E+00  0.00000000000E+00  0.99999998245E-14  0.12500000000E+03  0.12500000000E+03 0.  0.
        -11    1    1    0    0    0 -0.34708143704E+01 -0.27014734155E+02 -0.29138980111E+02  0.39886370805E+02  0.51100000000E-03 0.  1.
         11    1    1    0    0    0 -0.19670235332E+01 -0.15316274067E+02 -0.16520254012E+02  0.22613629204E+02  0.51100000000E-03 0.  1.
         22    1    1    0    0    0  0.54378379036E+01  0.42331008223E+02  0.45659234122E+02  0.62499999991E+02  0.00000000000E+00 0.  1.
</event>
<event>
 4    1  0.1977762E-002  0.9118800E+02  0.7818608E-02  0.1130116E+00
         25   -1    0    0    0    0  0.00000000000E+00  0.00000000000E+00  0.99999998245E-14  0.12500000000E+03  0.12500000000E+03 0.  0.
        -11    1    1    0    0    0  0.35398827768E+02  0.17342086559E+02  0.20852427746E+02  0.44594267756E+02  0.51100000000E-03 0. -1.
         11    1    1    0    0    0  0.14212680491E+02  0.69636972477E+01  0.83738809256E+01  0.17905732270E+02  0.51100000000E-03 0.  1.
         22    1    1    0    0    0 -0.49611508259E+02 -0.24305783807E+02 -0.29226308671E+02  0.62499999974E+02  0.00000000000E+00 0. -1.
</event>
<event>
 4    1  0.1977762E-002  0.9118800E+02  0.7818608E-02  0.1130116E+00
         25   -1    0    0    0    0  0.00000000000E+00  0.00000000000E+00  0.99999998245E-14  0.12500000000E+03  0.12500000000E+03 0.  0.
        -11    1    1    0    0    0 -0.14163373816E+01  0.77963567962E+00 -0.10414560576E+01  0.19231417921E+01  0.51100000000E-03 0.  1.
         11    1    1    0    0    0 -0.39210402025E+02  0.44176048033E+02  0.14902290100E+02  0.60918446281E+02  0.51100000000E-03 0. -1.
         22    1    1    0    0    0  0.40626739407E+02 -0.44955683713E+02 -0.13860834043E+02  0.62158411927E+02  0.00000000000E+00 0. -1.
</event>
<event>
 4    1  0.1977762E-002  0.9118800E+02  0.7818608E-02  0.1130116E+00
         25   -1    0    0    0    0  0.00000000000E+00  0.00000000000E+00  0.99999998245E-14  0.12500000000E+03  0.12500000000E+03 0.  0.
        -11    1    1    0    0    0 -0.23331063671E+00  0.10815527239E+02  0.17890795905E+02  0.20907191147E+02  0.51100000000E-03 0.  1.
         11    1    1    0    0    0 -0.50735797562E+00  0.21582050128E+02  0.35551663153E+02  0.41592824538E+02  0.51100000000E-03 0. -1.
         22    1    1    0    0    0  0.74066861233E+00 -0.32397577367E+02 -0.53442459058E+02  0.62499984315E+02  0.00000000000E+00 0. -1.
</event>
<event>
 4    1  0.1977762E-002  0.9118800E+02  0.7818608E-02  0.1130116E+00
         25   -1    0    0    0    0  0.00000000000E+00  0.00000000000E+00  0.99999998245E-14  0.12500000000E+03  0.12500000000E+03 0.  0.
        -11    1    1    0    0    0  0.16083619979E+02 -0.12306712227E+02 -0.11896807637E+02  0.23487699540E+02  0.51100000000E-03 0. -1.
         11    1    1    0    0    0  0.26696895443E+02 -0.20543602480E+02 -0.19677374851E+02  0.39012343052E+02  0.51100000000E-03 0.  1.
         22    1    1    0    0    0 -0.42780515422E+02  0.32850314707E+02  0.31574182488E+02  0.62499957407E+02  0.00000000000E+00 0.  1.
</event>
<event>
 4    1  0.1977762E-002  0.9118800E+02  0.7818608E-02  0.1130116E+00
         25   -1    0    0    0    0  0.00000000000E+00  0.00000000000E+00  0.99999998245E-14  0.12500000000E+03  0.12500000000E+03 0.  0.
        -11    1    1    0    0    0  0.25008639477E+01 -0.54175094067E+01 -0.35922420286E+01  0.69647635788E+01  0.51100000000E-03 0. -1.
         11    1    1    0    0    0  0.33768457760E+02 -0.33982293755E+02 -0.28363087468E+02  0.55673779819E+02  0.51100000000E-03 0.  1.
         22    1    1    0    0    0 -0.36269321707E+02  0.39399803162E+02  0.31955329497E+02  0.62361456602E+02  0.00000000000E+00 0.  1.
</event>
<event>
 4    1  0.1977762E-002  0.9118800E+02  0.7818608E-02  0.1130116E+00
         25   -1    0    0    0    0  0.00000000000E+00  0.00000000000E+00  0.99999998245E-14  0.12500000000E+03  0.12500000000E+03 0.  0.
        -11    1    1    0    0    0  0.42804365258E+02 -0.46574766339E+01  0.26914060601E+02  0.50776691818E+02  0.51100000000E-03 0.  1.
         11    1    1    0    0    0  0.98860472007E+01 -0.10606661361E+01  0.62110472470E+01  0.11723312248E+02  0.51100000000E-03 0. -1.
         22    1    1    0    0    0 -0.52690412458E+02  0.57181427700E+01 -0.33125107848E+02  0.62499995934E+02  0.00000000000E+00 0.  1.
</event>
<event>
 4    1  0.1977762E-002  0.9118800E+02  0.7818608E-02  0.1130116E+00
         25   -1    0    0    0    0  0.00000000000E+00  0.00000000000E+00  0.99999998245E-14  0.12500000000E+03  0.12500000000E+03 0.  0.
        -11    1    1    0    0    0  0.51042726414E+02  0.11036497789E+02  0.24283695633E+02  0.57592205002E+02  0.51100000000E-03 0. -1.
         11    1    1    0    0    0  0.43388571126E+01  0.60855819192E+00  0.22254182030E+01  0.49141134048E+01  0.51100000000E-03 0.  1.
         22    1    1    0    0    0 -0.55381583526E+02 -0.11645055981E+02 -0.26509113836E+02  0.62493681593E+02  0.00000000000E+00 0. -1.
</event>
<event>
 4    1  0.1977762E-002  0.9118800E+02  0.7818608E-02  0.1130116E+00
         25   -1    0    0    0    0  0.00000000000E+00  0.00000000000E+00  0.99999998245E-14  0.12500000000E+03  0.12500000000E+03 0.  0.
        -11    1    1    0    0    0 -0.35690892499E+01  0.42314429893E+02  0.30085667245E+02  0.52042259262E+02  0.51100000000E-03 0.  1.
         11    1    1    0    0    0 -0.64450381972E+00  0.84496656566E+01  0.61284865632E+01  0.10458039142E+02  0.51100000000E-03 0. -1.
         22    1    1    0    0    0  0.42135930696E+01 -0.50764095549E+02 -0.36214153809E+02  0.62499701596E+02  0.00000000000E+00 0. -1.
</event>
<event>
 4    1  0.1977762E-002  0.9118800E+02  0.7818608E-02  0.1130116E+00
         25   -1    0    0    0    0  0.00000000000E+00  0.00000000000E+00  0.99999998245E-14  0.12500000000E+03  0.12500000000E+03 0.  0.
        -11    1    1    0    0    0  0.29444224659E+01 -0.25306591114E+00  0.75839773516E+01  0.81394335640E+01  0.51100000000E-03 0.  1.
         11    1    1    0    0    0  0.15158776990E+01 -0.33263384988E+02  0.44002134383E+02  0.55180961360E+02  0.51100000000E-03 0. -1.
         22    1    1    0    0    0 -0.44603001649E+01  0.33516450899E+02 -0.51586111735E+02  0.61679605076E+02  0.00000000000E+00 0. -1.
</event>
<event>
 4    1  0.1977762E-002  0.9118800E+02  0.7818608E-02  0.1130116E+00
         25   -1    0    0    0    0  0.00000000000E+00  0.00000000000E+00  0.99999998245E-14  0.12500000000E+03  0.12500000000E+03 0.  0.
        -11    1    1    0    0    0 -0.98952820385E+01  0.13548276197E+02 -0.13626436784E+02  0.21613703390E+02  0.51100000000E-03 0.  1.
         11    1    1    0    0    0 -0.17668751746E+02  0.26497414028E+02 -0.25645964643E+02  0.40890258512E+02  0.51100000000E-03 0. -1.
         22    1    1    0    0    0  0.27564033785E+02 -0.40045690225E+02  0.39272401428E+02  0.62496038098E+02  0.00000000000E+00 0.  1.
</event>
<event>
 4    1  0.1977762E-002  0.9118800E+02  0.7818608E-02  0.1130116E+00
         25   -1    0    0    0    0  0.00000000000E+00  0.00000000000E+00  0.99999998245E-14  0.12500000000E+03  0.12500000000E+03 0.  0.
        -11    1    1    0    0    0 -0.31988243758E+00 -0.94436827688E+01  0.41026426164E+01  0.10301317669E+02  0.51100000000E-03 0.  1.
         11    1    1    0    0    0 -0.16067013413E+01 -0.47850602190E+02  0.20795211923E+02  0.52198682534E+02  0.51100000000E-03 0. -1.
         22    1    1    0    0    0  0.19265837789E+01  0.57294284959E+02 -0.24897854539E+02  0.62499999797E+02  0.00000000000E+00 0. -1.
</event>
<event>
 4    1  0.1977762E-002  0.9118800E+02  0.7818608E-02  0.1130116E+00
         25   -1    0    0    0    0  0.00000000000E+00  0.00000000000E+00  0.99999998245E-14  0.12500000000E+03  0.12500000000E+03 0.  0.
        -11    1    1    0    0    0  0.22897713316E+02  0.35747148468E+02  0.23309697722E+02  0.48430423361E+02  0.51100000000E-03 0.  1.
         11    1    1    0    0    0  0.66462775733E+01  0.10376136938E+02  0.67908724267E+01  0.14069583218E+02  0.51100000000E-03 0. -1.
         22    1    1    0    0    0 -0.29543990890E+02 -0.46123285407E+02 -0.30100570149E+02  0.62499993422E+02  0.00000000000E+00 0.  1.
</event>
<event>
 4    1  0.1977762E-002  0.9118800E+02  0.7818608E-02  0.1130116E+00
         25   -1    0    0    0    0  0.00000000000E+00  0.00000000000E+00  0.99999998245E-14  0.12500000000E+03  0.12500000000E+03 0.  0.
        -11    1    1    0    0    0  0.22110873086E+02  0.37150986431E+02 -0.19316665799E+02  0.47352086324E+02  0.51100000000E-03 0.  1.
         11    1    1    0    0    0  0.53360133241E+01  0.12091621073E+02 -0.75250747717E+01  0.15208783283E+02  0.51100000000E-03 0. -1.
         22    1    1    0    0    0 -0.27446886410E+02 -0.49242607504E+02  0.26841740571E+02  0.62439130393E+02  0.00000000000E+00 0.  1.
</event>
<event>
 4    1  0.1977762E-002  0.9118800E+02  0.7818608E-02  0.1130116E+00
         25   -1    0    0    0    0  0.00000000000E+00  0.00000000000E+00  0.99999998245E-14  0.12500000000E+03  0.12500000000E+03 0.  0.
        -11    1    1    0    0    0  0.15940811401E+02 -0.30164090574E+02 -0.40659492344E+02  0.53077077408E+02  0.51100000000E-03 0. -1.
         11    1    1    0    0    0 -0.19577558398E+01 -0.20938392909E+01 -0.99191493492E+01  0.10325042130E+02  0.51100000000E-03 0.  1.
         22    1    1    0    0    0 -0.13983055561E+02  0.32257929865E+02  0.50578641693E+02  0.61597880463E+02  0.00000000000E+00 0. -1.
</event>
<event>
 4    1  0.1977762E-002  0.9118800E+02  0.7818608E-02  0.1130116E+00
         25   -1    0    0    0    0  0.00000000000E+00  0.00000000000E+00  0.99999998245E-14  0.12500000000E+03  0.12500000000E+03 0.  0.
        -11    1    1    0    0    0 -0.20202357921E+02  0.65900327618E+01 -0.23025293545E+02  0.31332538047E+02  0.51100000000E-03 0. -1.
         11    1    1    0    0    0 -0.20143640688E+02  0.65911564431E+01 -0.22851753933E+02  0.31167487250E+02  0.51100000000E-03 0.  1.
         22    1    1    0    0    0  0.40345998609E+02 -0.13181189205E+02  0.45877047478E+02  0.62499974703E+02  0.00000000000E+00 0.  1.
</event>
<event>
 4    1  0.1977762E-002  0.9118800E+02  0.7818608E-02  0.1130116E+00
         25   -1    0    0    0    0  0.00000000000E+00  0.00000000000E+00  0.99999998245E-14  0.12500000000E+03  0.12500000000E+03 0.  0.
        -11    1    1    0    0    0 -0.26794398151E+02 -0.35013282703E+01 -0.15981218821E+02  0.31394241943E+02  0.51100000000E-03 0.  1.
         11    1    1    0    0    0 -0.26378776654E+02 -0.35981796001E+01 -0.16087539188E+02  0.31106199890E+02  0.51100000000E-03 0. -1.
         22    1    1    0    0    0  0.53173174805E+02  0.70995078704E+01  0.32068758008E+02  0.62499558167E+02  0.00000000000E+00 0. -1.
</event>
<event>
 4    1  0.1977762E-002  0.9118800E+02  0.7818608E-02  0.1130116E+00
         25   -1    0    0    0    0  0.00000000000E+00  0.00000000000E+00  0.99999998245E-14  0.12500000000E+03  0.12500000000E+03 0.  0.
        -11    1    1    0    0    0 -0.19871295125E+02 -0.93767785405E+01 -0.17858864284E+02  0.28314861460E+02  0.51100000000E-03 0. -1.
         11    1    1    0    0    0  0.28697511275E+02 -0.15342381980E+02 -0.28600833250E+02  0.43323705994E+02  0.51100000000E-03 0.  1.
         22    1    1    0    0    0 -0.88262161501E+01  0.24719160521E+02  0.46459697534E+02  0.53361432546E+02  0.00000000000E+00 0.  1.
</event>
<event>
 4    1  0.1977762E-002  0.9118800E+02  0.7818608E-02  0.1130116E+00
         25   -1    0    0    0    0  0.00000000000E+00  0.00000000000E+00  0.99999998245E-14  0.12500000000E+03  0.12500000000E+03 0.  0.
        -11    1    1    0    0    0 -0.43575246029E+01 -0.17315466747E+02  0.44802991464E+02  0.48229881336E+02  0.51100000000E-03 0. -1.
         11    1    1    0    0    0  0.33132791596E+01  0.66363603808E+00  0.14642625306E+02  0.15027465112E+02  0.51100000000E-03 0.  1.
         22    1    1    0    0    0  0.10442454434E+01  0.16651830708E+02 -0.59445616770E+02  0.61742653552E+02  0.00000000000E+00 0. -1.
</event>
<event>
 4    1  0.1977762E-002  0.9118800E+02  0.7818608E-02  0.1130116E+00
         25   -1    0    0    0    0  0.00000000000E+00  0.00000000000E+00  0.99999998245E-14  0.12500000000E+03  0.12500000000E+03 0.  0.
        -11    1    1    0    0    0 -0.21851704801E+02  0.29773108922E+02 -0.22900926510E+02  0.43455580227E+02  0.51100000000E-03 0. -1.
         11    1    1    0    0    0 -0.95775582221E+01  0.13053442404E+02 -0.10028358631E+02  0.19044420632E+02  0.51100000000E-03 0.  1.
         22    1    1    0    0    0  0.31429263023E+02 -0.42826551326E+02  0.32929285142E+02  0.62499999141E+02  0.00000000000E+00 0.  1.
</event>
<event>
 4    1  0.1977762E-002  0.9118800E+02  0.7818608E-02  0.1130116E+00
         25   -1    0    0    0    0  0.00000000000E+00  0.00000000000E+00  0.99999998245E-14  0.12500000000E+03  0.12500000000E+03 0.  0.
        -11    1    1    0    0    0  0.24750853076E+02 -0.59362880937E+01  0.18659575801E+02  0.31559848125E+02  0.51100000000E-03 0.  1.
         11    1    1    0    0    0  0.25980735413E+02 -0.69641602833E+01  0.15394552011E+02  0.30991779119E+02  0.51100000000E-03 0. -1.
         22    1    1    0    0    0 -0.50731588489E+02  0.12900448377E+02 -0.34054127812E+02  0.62448372757E+02  0.00000000000E+00 0.  1.
</event>
<event>
 4    1  0.1977762E-002  0.9118800E+02  0.7818608E-02  0.1130116E+00
         25   -1    0    0    0    0  0.00000000000E+00  0.00000000000E+00  0.99999998245E-14  0.12500000000E+03  0.12500000000E+03 0.  0.
        -11    1    1    0    0    0 -0.22003183369E+02  0.34532659017E+02 -0.31140999049E+01  0.41065097536E+02  0.51100000000E-03 0.  1.
         11    1    1    0    0    0 -0.11405136836E+02  0.18062984468E+02 -0.17650668404E+01  0.21435111740E+02  0.51100000000E-03 0. -1.
         22    1    1    0    0    0  0.33408320205E+02 -0.52595643484E+02  0.48791667453E+01  0.62499790724E+02  0.00000000000E+00 0. -1.
</event>
<event>
 4    1  0.1977762E-002  0.9118800E+02  0.7818608E-02  0.1130116E+00
         25   -1    0    0    0    0  0.00000000000E+00  0.00000000000E+00  0.99999998245E-14  0.12500000000E+03  0.12500000000E+03 0.  0.
        -11    1    1    0    0    0  0.38184783295E+02  0.39978165419E+02 -0.55181315273E+01  0.55558808135E+02  0.51100000000E-03 0.  1.
         11    1    1    0    0    0  0.47702934150E+01  0.49951788142E+01 -0.68748494100E+00  0.69411920054E+01  0.51100000000E-03 0. -1.
         22    1    1    0    0    0 -0.42955076710E+02 -0.44973344234E+02  0.62056164683E+01  0.62499999860E+02  0.00000000000E+00 0.  1.
</event>
<event>
 4    1  0.1977762E-002  0.9118800E+02  0.7818608E-02  0.1130116E+00
         25   -1    0    0    0    0  0.00000000000E+00  0.00000000000E+00  0.99999998245E-14  0.12500000000E+03  0.12500000000E+03 0.  0.
        -11    1    1    0    0    0  0.26805556228E+02 -0.10170394945E+02 -0.46697002223E+02  0.54795846511E+02  0.51100000000E-03 0. -1.
         11    1    1    0    0    0  0.37682191098E+01 -0.14319440882E+01 -0.65653669860E+01  0.77041536234E+01  0.51100000000E-03 0.  1.
         22    1    1    0    0    0 -0.30573775337E+02  0.11602339034E+02  0.53262369209E+02  0.62499999865E+02  0.00000000000E+00 0. -1.
</event>
<event>
 4    1  0.1977762E-002  0.9118800E+02  0.7818608E-02  0.1130116E+00
         25   -1    0    0    0    0  0.00000000000E+00  0.00000000000E+00  0.99999998245E-14  0.12500000000E+03  0.12500000000E+03 0.  0.
        -11    1    1    0    0    0 -0.28020571628E+02  0.30722877700E+02  0.11041070319E+02  0.43022701944E+02  0.51100000000E-03 0. -1.
         11    1    1    0    0    0 -0.12685570778E+02  0.13908638056E+02  0.49991220320E+01  0.19477298064E+02  0.51100000000E-03 0.  1.
         22    1    1    0    0    0  0.40706142406E+02 -0.44631515756E+02 -0.16040192351E+02  0.62499999991E+02  0.00000000000E+00 0. -1.
</event>
<event>
 4    1  0.1977762E-002  0.9118800E+02  0.7818608E-02  0.1130116E+00
         25   -1    0    0    0    0  0.00000000000E+00  0.00000000000E+00  0.99999998245E-14  0.12500000000E+03  0.12500000000E+03 0.  0.
        -11    1    1    0    0    0  0.19311242637E+01 -0.40689304844E+01 -0.72783960766E+01  0.85592339562E+01  0.51100000000E-03 0. -1.
         11    1    1    0    0    0  0.11752760201E+02 -0.25776811468E+02 -0.45902593551E+02  0.53940888728E+02  0.51100000000E-03 0.  1.
         22    1    1    0    0    0 -0.13683884465E+02  0.29845741953E+02  0.53180989627E+02  0.62499877316E+02  0.00000000000E+00 0.  1.
</event>
<event>
 4    1  0.1977762E-002  0.9118800E+02  0.7818608E-02  0.1130116E+00
         25   -1    0    0    0    0  0.00000000000E+00  0.00000000000E+00  0.99999998245E-14  0.12500000000E+03  0.12500000000E+03 0.  0.
        -11    1    1    0    0    0  0.46649779678E+01 -0.85400515042E+01 -0.78792707007E+01  0.12521078475E+02  0.51100000000E-03 0. -1.
         11    1    1    0    0    0  0.17824674845E+02 -0.31615014562E+02 -0.34383167425E+02  0.49994303491E+02  0.51100000000E-03 0.  1.
         22    1    1    0    0    0 -0.22489652813E+02  0.40155066067E+02  0.42262438126E+02  0.62484618034E+02  0.00000000000E+00 0.  1.
</event>
<event>
 4    1  0.1977762E-002  0.9118800E+02  0.7818608E-02  0.1130116E+00
         25   -1    0    0    0    0  0.00000000000E+00  0.00000000000E+00  0.99999998245E-14  0.12500000000E+03  0.12500000000E+03 0.  0.
        -11    1    1    0    0    0 -0.12714200943E+02 -0.43474272649E+01 -0.18312010133E+02  0.22713008273E+02  0.51100000000E-03 0. -1.
         11    1    1    0    0    0 -0.29979944573E+02 -0.20295073147E+02 -0.18601387260E+02  0.40702563542E+02  0.51100000000E-03 0.  1.
         22    1    1    0    0    0  0.42694145515E+02  0.24642500412E+02  0.36913397393E+02  0.61584428185E+02  0.00000000000E+00 0.  1.
</event>
<event>
 4    1  0.1977762E-002  0.9118800E+02  0.7818608E-02  0.1130116E+00
         25   -1    0    0    0    0  0.00000000000E+00  0.00000000000E+00  0.99999998245E-14  0.12500000000E+03  0.12500000000E+03 0.  0.
        -11    1    1    0    0    0  0.29977193777E+01  0.13868261614E+01  0.61428438879E+00  0.33596062032E+01  0.51100000000E-03 0.  1.
         11    1    1    0    0    0  0.52779002633E+02  0.24401859548E+02  0.10794087632E+02  0.59140393949E+02  0.51100000000E-03 0.  1.
         22    1    1    0    0    0 -0.55776722010E+02 -0.25788685710E+02 -0.11408372021E+02  0.62499999848E+02  0.00000000000E+00 0.  1.
</event>
<event>
 4    1  0.1977762E-002  0.9118800E+02  0.7818608E-02  0.1130116E+00
         25   -1    0    0    0    0  0.00000000000E+00  0.00000000000E+00  0.99999998245E-14  0.12500000000E+03  0.12500000000E+03 0.  0.
        -11    1    1    0    0    0  0.80476917109E+01 -0.70296253114E+01 -0.22891983747E+02  0.25263093517E+02  0.51100000000E-03 0.  1.
         11    1    1    0    0    0  0.11863320603E+02 -0.10359673150E+02 -0.33742050945E+02  0.37236906501E+02  0.51100000000E-03 0. -1.
         22    1    1    0    0    0 -0.19911012314E+02  0.17389298461E+02  0.56634034692E+02  0.62499999983E+02  0.00000000000E+00 0. -1.
</event>
<event>
 4    1  0.1977762E-002  0.9118800E+02  0.7818608E-02  0.1130116E+00
         25   -1    0    0    0    0  0.00000000000E+00  0.00000000000E+00  0.99999998245E-14  0.12500000000E+03  0.12500000000E+03 0.  0.
        -11    1    1    0    0    0  0.70578597983E+01  0.47287668752E+01  0.17172465568E+02  0.19159023854E+02  0.51100000000E-03 0. -1.
         11    1    1    0    0    0 -0.43872320329E+02  0.29715480892E+02 -0.13674023116E+01  0.53006226852E+02  0.51100000000E-03 0.  1.
         22    1    1    0    0    0  0.36814460531E+02 -0.34444247767E+02 -0.15805063256E+02  0.52834749294E+02  0.00000000000E+00 0.  1.
</event>
<event>
 4    1  0.1977762E-002  0.9118800E+02  0.7818608E-02  0.1130116E+00
         25   -1    0    0    0    0  0.00000000000E+00  0.00000000000E+00  0.99999998245E-14  0.12500000000E+03  0.12500000000E+03 0.  0.
        -11    1    1    0    0    0  0.34444110070E+01 -0.51232285233E+01 -0.11360651569E+01  0.62771077726E+01  0.51100000000E-03 0.  1.
         11    1    1    0    0    0  0.30857934620E+02 -0.45885299137E+02 -0.10165668361E+02  0.56222892307E+02  0.51100000000E-03 0. -1.
         22    1    1    0    0    0 -0.34302345627E+02  0.51008527660E+02  0.11301733518E+02  0.62499999920E+02  0.00000000000E+00 0. -1.
</event>
<event>
 4    1  0.1977762E-002  0.9118800E+02  0.7818608E-02  0.1130116E+00
         25   -1    0    0    0    0  0.00000000000E+00  0.00000000000E+00  0.99999998245E-14  0.12500000000E+03  0.12500000000E+03 0.  0.
        -11    1    1    0    0    0 -0.31189985240E+01 -0.64737746610E+01 -0.23728927016E+02  0.24793141949E+02  0.51100000000E-03 0.  1.
         11    1    1    0    0    0  0.16899169792E+02 -0.87652640242E+01 -0.33980180382E+02  0.38949511578E+02  0.51100000000E-03 0. -1.
         22    1    1    0    0    0 -0.13780171268E+02  0.15239038685E+02  0.57709107398E+02  0.61257346473E+02  0.00000000000E+00 0. -1.
</event>
<event>
 4    1  0.1977762E-002  0.9118800E+02  0.7818608E-02  0.1130116E+00
         25   -1    0    0    0    0  0.00000000000E+00  0.00000000000E+00  0.99999998245E-14  0.12500000000E+03  0.12500000000E+03 0.  0.
        -11    1    1    0    0    0  0.32340492744E+02 -0.21836668061E+02  0.34255499878E+02  0.51924818874E+02  0.51100000000E-03 0.  1.
         11    1    1    0    0    0  0.11332388058E+02 -0.57959617548E+01 -0.48990857369E+01  0.13638813477E+02  0.51100000000E-03 0. -1.
         22    1    1    0    0    0 -0.43672880801E+02  0.27632629816E+02 -0.29356414141E+02  0.59436367649E+02  0.00000000000E+00 0.  1.
</event>
<event>
 4    1  0.1977762E-002  0.9118800E+02  0.7818608E-02  0.1130116E+00
         25   -1    0    0    0    0  0.00000000000E+00  0.00000000000E+00  0.99999998245E-14  0.12500000000E+03  0.12500000000E+03 0.  0.
        -11    1    1    0    0    0 -0.10203667907E+02 -0.63093775270E+01 -0.83898257829E+01  0.14639407791E+02  0.51100000000E-03 0.  1.
         11    1    1    0    0    0 -0.33387102288E+02 -0.20372648262E+02 -0.27584477732E+02  0.47860702131E+02  0.51100000000E-03 0. -1.
         22    1    1    0    0    0  0.43590770195E+02  0.26682025789E+02  0.35974303515E+02  0.62499890079E+02  0.00000000000E+00 0. -1.
</event>
<event>
 4    1  0.1977762E-002  0.9118800E+02  0.7818608E-02  0.1130116E+00
         25   -1    0    0    0    0  0.00000000000E+00  0.00000000000E+00  0.99999998245E-14  0.12500000000E+03  0.12500000000E+03 0.  0.
        -11    1    1    0    0    0  0.15161056027E+02 -0.14884355339E+02  0.54647463044E+01  0.21937755266E+02  0.51100000000E-03 0. -1.
         11    1    1    0    0    0  0.33342477007E+02 -0.21155398898E+02  0.99049901568E+01  0.40710938404E+02  0.51100000000E-03 0.  1.
         22    1    1    0    0    0 -0.48503533033E+02  0.36039754236E+02 -0.15369736461E+02  0.62351306330E+02  0.00000000000E+00 0. -1.
</event>
<event>
 4    1  0.1977762E-002  0.9118800E+02  0.7818608E-02  0.1130116E+00
         25   -1    0    0    0    0  0.00000000000E+00  0.00000000000E+00  0.99999998245E-14  0.12500000000E+03  0.12500000000E+03 0.  0.
        -11    1    1    0    0    0 -0.81407760404E+01 -0.33085425432E+01 -0.25178956284E+01  0.91410331449E+01  0.51100000000E-03 0.  1.
         11    1    1    0    0    0 -0.23070242212E+02 -0.47870872257E+02 -0.11330933480E+02  0.54334579599E+02  0.51100000000E-03 0. -1.
         22    1    1    0    0    0  0.31211018252E+02  0.51179414800E+02  0.13848829109E+02  0.61524387257E+02  0.00000000000E+00 0. -1.
</event>
<event>
 4    1  0.1977762E-002  0.9118800E+02  0.7818608E-02  0.1130116E+00
         25   -1    0    0    0    0  0.00000000000E+00  0.00000000000E+00  0.99999998245E-14  0.12500000000E+03  0.12500000000E+03 0.  0.
        -11    1    1    0    0    0 -0.12249601912E+02  0.22986813930E+02  0.17042125991E+02  0.31126844045E+02  0.51100000000E-03 0.  1.
         11    1    1    0    0    0 -0.12341202254E+02  0.23170315930E+02  0.17178652730E+02  0.31373156093E+02  0.51100000000E-03 0. -1.
         22    1    1    0    0    0  0.24590804166E+02 -0.46157129860E+02 -0.34220778720E+02  0.62499999862E+02  0.00000000000E+00 0. -1.
</event>
<event>
 4    1  0.1977762E-002  0.9118800E+02  0.7818608E-02  0.1130116E+00
         25   -1    0    0    0    0  0.00000000000E+00  0.00000000000E+00  0.99999998245E-14  0.12500000000E+03  0.12500000000E+03 0.  0.
        -11    1    1    0    0    0 -0.17421024043E+02 -0.42719883694E+00 -0.47716400547E+01  0.18067737175E+02  0.51100000000E-03 0. -1.
         11    1    1    0    0    0 -0.29822057087E+02 -0.28884981749E+02 -0.19978637369E+02  0.46074322686E+02  0.51100000000E-03 0.  1.
         22    1    1    0    0    0  0.47243081131E+02  0.29312180586E+02  0.24750277423E+02  0.60857940139E+02  0.00000000000E+00 0.  1.
</event>
<event>
 4    1  0.1977762E-002  0.9118800E+02  0.7818608E-02  0.1130116E+00
         25   -1    0    0    0    0  0.00000000000E+00  0.00000000000E+00  0.99999998245E-14  0.12500000000E+03  0.12500000000E+03 0.  0.
        -11    1    1    0    0    0 -0.37839853184E+02  0.32349110884E+02  0.11398317947E+02  0.51070941995E+02  0.51100000000E-03 0.  1.
         11    1    1    0    0    0 -0.79206101432E+01  0.72883502590E+01  0.39631668708E+01  0.11470083105E+02  0.51100000000E-03 0. -1.
         22    1    1    0    0    0  0.45760463327E+02 -0.39637461143E+02 -0.15361484818E+02  0.62458974900E+02  0.00000000000E+00 0. -1.
</event>
<event>
 4    1  0.1977762E-002  0.9118800E+02  0.7818608E-02  0.1130116E+00
         25   -1    0    0    0    0  0.00000000000E+00  0.00000000000E+00  0.99999998245E-14  0.12500000000E+03  0.12500000000E+03 0.  0.
        -11    1    1    0    0    0  0.28551409767E+01 -0.92653788293E+00  0.20389685820E+01  0.36287319527E+01  0.51100000000E-03 0.  1.
         11    1    1    0    0    0  0.47467964130E+02 -0.14124741898E+02  0.31831078928E+02  0.58872179663E+02  0.51100000000E-03 0. -1.
         22    1    1    0    0    0 -0.50323105106E+02  0.15051279781E+02 -0.33870047510E+02  0.62499088384E+02  0.00000000000E+00 0. -1.
</event>
<event>
 4    1  0.1977762E-002  0.9118800E+02  0.7818608E-02  0.1130116E+00
         25   -1    0    0    0    0  0.00000000000E+00  0.00000000000E+00  0.99999998245E-14  0.12500000000E+03  0.12500000000E+03 0.  0.
        -11    1    1    0    0    0 -0.64889755648E+01 -0.13940333702E+02 -0.12765272692E+01  0.15429492206E+02  0.51100000000E-03 0.  1.
         11    1    1    0    0    0 -0.19867589726E+02 -0.42504356265E+02 -0.37806846500E+01  0.47070532180E+02  0.51100000000E-03 0. -1.
         22    1    1    0    0    0  0.26356565290E+02  0.56444689967E+02  0.50572119192E+01  0.62499975614E+02  0.00000000000E+00 0.  1.
</event>
<event>
 4    1  0.1977762E-002  0.9118800E+02  0.7818608E-02  0.1130116E+00
         25   -1    0    0    0    0  0.00000000000E+00  0.00000000000E+00  0.99999998245E-14  0.12500000000E+03  0.12500000000E+03 0.  0.
        -11    1    1    0    0    0  0.28803282092E+02  0.17922739049E+02 -0.43071383003E+02  0.54826979384E+02  0.51100000000E-03 0. -1.
         11    1    1    0    0    0  0.40319321595E+01  0.25086522250E+01 -0.60270584065E+01  0.76730206713E+01  0.51100000000E-03 0.  1.
         22    1    1    0    0    0 -0.32835214252E+02 -0.20431391274E+02  0.49098441409E+02  0.62499999945E+02  0.00000000000E+00 0. -1.
</event>
<event>
 4    1  0.1977762E-002  0.9118800E+02  0.7818608E-02  0.1130116E+00
         25   -1    0    0    0    0  0.00000000000E+00  0.00000000000E+00  0.99999998245E-14  0.12500000000E+03  0.12500000000E+03 0.  0.
        -11    1    1    0    0    0 -0.25495302182E+02  0.19721190334E+02  0.44470493012E+02  0.54923223963E+02  0.51100000000E-03 0. -1.
         11    1    1    0    0    0 -0.35208786249E+01  0.27230986501E+01  0.61315329324E+01  0.75767769475E+01  0.51100000000E-03 0.  1.
         22    1    1    0    0    0  0.29016180807E+02 -0.22444288984E+02 -0.50602025944E+02  0.62499999090E+02  0.00000000000E+00 0. -1.
</event>
<event>
 4    1  0.1977762E-002  0.9118800E+02  0.7818608E-02  0.1130116E+00
         25   -1    0    0    0    0  0.00000000000E+00  0.00000000000E+00  0.99999998245E-14  0.12500000000E+03  0.12500000000E+03 0.  0.
        -11    1    1    0    0    0 -0.21453014638E+02 -0.22429746912E+02 -0.29849253270E+02  0.43061622179E+02  0.51100000000E-03 0.  1.
         11    1    1    0    0    0 -0.96940787778E+01 -0.10162758132E+02 -0.13438552012E+02  0.19438402626E+02  0.51100000000E-03 0. -1.
         22    1    1    0    0    0  0.31147093416E+02  0.32592505044E+02  0.43287805282E+02  0.62499975196E+02  0.00000000000E+00 0.  1.
</event>
<event>
 4    1  0.1977762E-002  0.9118800E+02  0.7818608E-02  0.1130116E+00
         25   -1    0    0    0    0  0.00000000000E+00  0.00000000000E+00  0.99999998245E-14  0.12500000000E+03  0.12500000000E+03 0.  0.
        -11    1    1    0    0    0  0.22610106112E+01  0.15631427847E+02  0.10900414773E+02  0.19190433762E+02  0.51100000000E-03 0. -1.
         11    1    1    0    0    0  0.50011541563E+01  0.35244367799E+02  0.24668684429E+02  0.43309594736E+02  0.51100000000E-03 0.  1.
         22    1    1    0    0    0 -0.72621647675E+01 -0.50875795646E+02 -0.35569099202E+02  0.62499971502E+02  0.00000000000E+00 0.  1.
</event>
<event>
 4    1  0.1977762E-002  0.9118800E+02  0.7818608E-02  0.1130116E+00
         25   -1    0    0    0    0  0.00000000000E+00  0.00000000000E+00  0.99999998245E-14  0.12500000000E+03  0.12500000000E+03 0.  0.
        -11    1    1    0    0    0 -0.94147404068E+01  0.46975951763E+02 -0.20435458375E+01  0.47953659515E+02  0.51100000000E-03 0.  1.
         11    1    1    0    0    0 -0.28559239940E+01  0.14249742621E+02 -0.62012484136E+00  0.14546340492E+02  0.51100000000E-03 0.  1.
         22    1    1    0    0    0  0.12270664401E+02 -0.61225694384E+02  0.26636706789E+01  0.62499999993E+02  0.00000000000E+00 0.  1.
</event>
<event>
 4    1  0.1977762E-002  0.9118800E+02  0.7818608E-02  0.1130116E+00
         25   -1    0    0    0    0  0.00000000000E+00  0.00000000000E+00  0.99999998245E-14  0.12500000000E+03  0.12500000000E+03 0.  0.
        -11    1    1    0    0    0  0.31695810814E+02  0.45779368350E+02 -0.19500580907E+02  0.58997013871E+02  0.51100000000E-03 0. -1.
         11    1    1    0    0    0  0.18842794504E+01  0.27163375288E+01 -0.11584115701E+01  0.35029867605E+01  0.51100000000E-03 0.  1.
         22    1    1    0    0    0 -0.33580090264E+02 -0.48495705879E+02  0.20658992478E+02  0.62499999368E+02  0.00000000000E+00 0. -1.
</event>
<event>
 4    1  0.1977762E-002  0.9118800E+02  0.7818608E-02  0.1130116E+00
         25   -1    0    0    0    0  0.00000000000E+00  0.00000000000E+00  0.99999998245E-14  0.12500000000E+03  0.12500000000E+03 0.  0.
        -11    1    1    0    0    0  0.12209930155E+02  0.96892675021E+01  0.16057864967E+02  0.22378992977E+02  0.51100000000E-03 0.  1.
         11    1    1    0    0    0  0.21236956871E+02  0.17800986847E+02  0.29016037944E+02  0.40122486564E+02  0.51100000000E-03 0. -1.
         22    1    1    0    0    0 -0.33446887026E+02 -0.27490254349E+02 -0.45073902911E+02  0.62498520459E+02  0.00000000000E+00 0. -1.
</event>
<event>
 4    1  0.1977762E-002  0.9118800E+02  0.7818608E-02  0.1130116E+00
         25   -1    0    0    0    0  0.00000000000E+00  0.00000000000E+00  0.99999998245E-14  0.12500000000E+03  0.12500000000E+03 0.  0.
        -11    1    1    0    0    0 -0.26652215047E+02  0.37701570185E+02  0.41023154366E+02  0.61762837983E+02  0.51100000000E-03 0.  1.
         11    1    1    0    0    0 -0.31458104737E+00  0.45995392060E+00  0.48266764772E+00  0.73721581895E+00  0.51100000000E-03 0. -1.
         22    1    1    0    0    0  0.26966796094E+02 -0.38161524106E+02 -0.41505822014E+02  0.62499946198E+02  0.00000000000E+00 0.  1.
</event>
<event>
 4    1  0.1977762E-002  0.9118800E+02  0.7818608E-02  0.1130116E+00
         25   -1    0    0    0    0  0.00000000000E+00  0.00000000000E+00  0.99999998245E-14  0.12500000000E+03  0.12500000000E+03 0.  0.
        -11    1    1    0    0    0 -0.66437831351E-01  0.92122502186E+01  0.46364495913E+00  0.92241495535E+01  0.51100000000E-03 0.  1.
         11    1    1    0    0    0 -0.99202928138E+01  0.43117801361E+02 -0.31322449191E+02  0.54209342620E+02  0.51100000000E-03 0. -1.
         22    1    1    0    0    0  0.99867306452E+01 -0.52330051580E+02  0.30858804232E+02  0.61566507826E+02  0.00000000000E+00 0. -1.
</event>
<event>
 4    1  0.1977762E-002  0.9118800E+02  0.7818608E-02  0.1130116E+00
         25   -1    0    0    0    0  0.00000000000E+00  0.00000000000E+00  0.99999998245E-14  0.12500000000E+03  0.12500000000E+03 0.  0.
        -11    1    1    0    0    0  0.53382870682E+02 -0.17350266988E+02 -0.14300769532E+02  0.57924732682E+02  0.51100000000E-03 0. -1.
         11    1    1    0    0    0  0.26431000475E+01 -0.40328293225E+00 -0.46159290024E+01  0.53343617988E+01  0.51100000000E-03 0.  1.
         22    1    1    0    0    0 -0.56025970729E+02  0.17753549920E+02  0.18916698535E+02  0.61740905519E+02  0.00000000000E+00 0. -1.
</event>
<event>
 4    1  0.1977762E-002  0.9118800E+02  0.7818608E-02  0.1130116E+00
         25   -1    0    0    0    0  0.00000000000E+00  0.00000000000E+00  0.99999998245E-14  0.12500000000E+03  0.12500000000E+03 0.  0.
        -11    1    1    0    0    0  0.42079427468E+01 -0.29493496959E-01  0.42348911854E+01  0.59700884114E+01  0.51100000000E-03 0. -1.
         11    1    1    0    0    0  0.47129046362E+02 -0.32700885801E+02  0.44280139033E+01  0.57533488080E+02  0.51100000000E-03 0.  1.
         22    1    1    0    0    0 -0.51336989109E+02  0.32730379298E+02 -0.86629050888E+01  0.61496423509E+02  0.00000000000E+00 0.  1.
</event>
<event>
 4    1  0.1977762E-002  0.9118800E+02  0.7818608E-02  0.1130116E+00
         25   -1    0    0    0    0  0.00000000000E+00  0.00000000000E+00  0.99999998245E-14  0.12500000000E+03  0.12500000000E+03 0.  0.
        -11    1    1    0    0    0  0.20386786406E+02 -0.16236504661E+02  0.52425806719E+02  0.58546651091E+02  0.51100000000E-03 0. -1.
         11    1    1    0    0    0  0.13694556171E+01 -0.11615418609E+01  0.35222919323E+01  0.39536222504E+01  0.51100000000E-03 0.  1.
         22    1    1    0    0    0 -0.21756242023E+02  0.17398046522E+02 -0.55948098651E+02  0.62499726659E+02  0.00000000000E+00 0. -1.
</event>
<event>
 4    1  0.1977762E-002  0.9118800E+02  0.7818608E-02  0.1130116E+00
         25   -1    0    0    0    0  0.00000000000E+00  0.00000000000E+00  0.99999998245E-14  0.12500000000E+03  0.12500000000E+03 0.  0.
        -11    1    1    0    0    0  0.56984435578E+01 -0.58126517932E+02 -0.16783257840E+02  0.60768759160E+02  0.51100000000E-03 0. -1.
         11    1    1    0    0    0  0.16409089077E+00 -0.16553539301E+01 -0.47966140067E+00  0.17312416858E+01  0.51100000000E-03 0.  1.
         22    1    1    0    0    0 -0.58625344486E+01  0.59781871862E+02  0.17262919241E+02  0.62499999154E+02  0.00000000000E+00 0. -1.
</event>
<event>
 4    1  0.1977762E-002  0.9118800E+02  0.7818608E-02  0.1130116E+00
         25   -1    0    0    0    0  0.00000000000E+00  0.00000000000E+00  0.99999998245E-14  0.12500000000E+03  0.12500000000E+03 0.  0.
        -11    1    1    0    0    0 -0.23409401130E+01 -0.16596154316E+02 -0.28711280016E+02  0.33245299504E+02  0.51100000000E-03 0.  1.
         11    1    1    0    0    0 -0.20627209591E+01 -0.14884179445E+02 -0.25101232778E+02  0.29255179076E+02  0.51100000000E-03 0. -1.
         22    1    1    0    0    0  0.44036610721E+01  0.31480333761E+02  0.53812512794E+02  0.62499521420E+02  0.00000000000E+00 0. -1.
</event>
<event>
 4    1  0.1977762E-002  0.9118800E+02  0.7818608E-02  0.1130116E+00
         25   -1    0    0    0    0  0.00000000000E+00  0.00000000000E+00  0.99999998245E-14  0.12500000000E+03  0.12500000000E+03 0.  0.
        -11    1    1    0    0    0 -0.62675061332E+01 -0.39141281198E+01 -0.14520510742E+02  0.16292552426E+02  0.51100000000E-03 0.  1.
         11    1    1    0    0    0 -0.17551740533E+02 -0.11590024948E+02 -0.41143332752E+02  0.46207857602E+02  0.51100000000E-03 0. -1.
         22    1    1    0    0    0  0.23819246666E+02  0.15504153068E+02  0.55663843494E+02  0.62499589972E+02  0.00000000000E+00 0.  1.
</event>
<event>
 4    1  0.1977762E-002  0.9118800E+02  0.7818608E-02  0.1130116E+00
         25   -1    0    0    0    0  0.00000000000E+00  0.00000000000E+00  0.99999998245E-14  0.12500000000E+03  0.12500000000E+03 0.  0.
        -11    1    1    0    0    0  0.25787239467E+01  0.11826460255E+01 -0.63971844660E+01  0.69980310208E+01  0.51100000000E-03 0.  1.
         11    1    1    0    0    0  0.20489156437E+02  0.93623549717E+01 -0.50724840472E+02  0.55501969904E+02  0.51100000000E-03 0. -1.
         22    1    1    0    0    0 -0.23067880383E+02 -0.10545000997E+02  0.57122024938E+02  0.62499999075E+02  0.00000000000E+00 0. -1.
</event>
<event>
 4    1  0.1977762E-002  0.9118800E+02  0.7818608E-02  0.1130116E+00
         25   -1    0    0    0    0  0.00000000000E+00  0.00000000000E+00  0.99999998245E-14  0.12500000000E+03  0.12500000000E+03 0.  0.
        -11    1    1    0    0    0  0.11700600999E+02 -0.59349074538E+00  0.66281503344E+01  0.13460634165E+02  0.51100000000E-03 0.  1.
         11    1    1    0    0    0  0.42625908672E+02 -0.21648498514E+01  0.24149632260E+02  0.49039365856E+02  0.51100000000E-03 0. -1.
         22    1    1    0    0    0 -0.54326509671E+02  0.27583405968E+01 -0.30777782595E+02  0.62499999979E+02  0.00000000000E+00 0. -1.
</event>
<event>
 4    1  0.1977762E-002  0.9118800E+02  0.7818608E-02  0.1130116E+00
         25   -1    0    0    0    0  0.00000000000E+00  0.00000000000E+00  0.99999998245E-14  0.12500000000E+03  0.12500000000E+03 0.  0.
        -11    1    1    0    0    0 -0.17836436187E+01 -0.13851632882E+02 -0.11444852519E+01  0.14012814308E+02  0.51100000000E-03 0.  1.
         11    1    1    0    0    0 -0.28372284486E+02 -0.77047620022E+01  0.44882404998E+02  0.53654265097E+02  0.51100000000E-03 0. -1.
         22    1    1    0    0    0  0.30155928105E+02  0.21556394885E+02 -0.43737919746E+02  0.57332920595E+02  0.00000000000E+00 0. -1.
</event>
<event>
 4    1  0.1977762E-002  0.9118800E+02  0.7818608E-02  0.1130116E+00
         25   -1    0    0    0    0  0.00000000000E+00  0.00000000000E+00  0.99999998245E-14  0.12500000000E+03  0.12500000000E+03 0.  0.
        -11    1    1    0    0    0 -0.17887988508E+02  0.18081339562E+02  0.18016834498E+02  0.31169236417E+02  0.51100000000E-03 0. -1.
         11    1    1    0    0    0 -0.32956584890E+02 -0.44090707143E+01  0.92850557222E+01  0.34522292105E+02  0.51100000000E-03 0.  1.
         22    1    1    0    0    0  0.50844573398E+02 -0.13672268848E+02 -0.27301890220E+02  0.59308471478E+02  0.00000000000E+00 0. -1.
</event>
<event>
 4    1  0.1977762E-002  0.9118800E+02  0.7818608E-02  0.1130116E+00
         25   -1    0    0    0    0  0.00000000000E+00  0.00000000000E+00  0.99999998245E-14  0.12500000000E+03  0.12500000000E+03 0.  0.
        -11    1    1    0    0    0 -0.39236734588E+02  0.19121772145E+02 -0.26270801003E+02  0.50944268536E+02  0.51100000000E-03 0.  1.
         11    1    1    0    0    0 -0.89000636139E+01  0.43376042467E+01 -0.59589417391E+01  0.11555731472E+02  0.51100000000E-03 0.  1.
         22    1    1    0    0    0  0.48136798202E+02 -0.23459376392E+02  0.32229742742E+02  0.62499999992E+02  0.00000000000E+00 0.  1.
</event>
<event>
 4    1  0.1977762E-002  0.9118800E+02  0.7818608E-02  0.1130116E+00
         25   -1    0    0    0    0  0.00000000000E+00  0.00000000000E+00  0.99999998245E-14  0.12500000000E+03  0.12500000000E+03 0.  0.
        -11    1    1    0    0    0 -0.61386847859E+02 -0.42109969403E+00 -0.16744139263E+00  0.61388520522E+02  0.51100000000E-03 0.  1.
         11    1    1    0    0    0 -0.11113306694E+01 -0.13097735014E-01  0.21873112237E-01  0.11116231833E+01  0.51100000000E-03 0. -1.
         22    1    1    0    0    0  0.62498178528E+02  0.43419742904E+00  0.14556828039E+00  0.62499856295E+02  0.00000000000E+00 0.  1.
</event>
<event>
 4    1  0.1977762E-002  0.9118800E+02  0.7818608E-02  0.1130116E+00
         25   -1    0    0    0    0  0.00000000000E+00  0.00000000000E+00  0.99999998245E-14  0.12500000000E+03  0.12500000000E+03 0.  0.
        -11    1    1    0    0    0 -0.79720935555E+01 -0.41367388707E+01  0.61887376799E+01  0.10907215890E+02  0.51100000000E-03 0. -1.
         11    1    1    0    0    0 -0.37685425647E+02 -0.19487863625E+02  0.29357255472E+02  0.51592795854E+02  0.51100000000E-03 0.  1.
         22    1    1    0    0    0  0.45657519203E+02  0.23624602496E+02 -0.35545993152E+02  0.62499988256E+02  0.00000000000E+00 0. -1.
</event>
<event>
 4    1  0.1977762E-002  0.9118800E+02  0.7818608E-02  0.1130116E+00
         25   -1    0    0    0    0  0.00000000000E+00  0.00000000000E+00  0.99999998245E-14  0.12500000000E+03  0.12500000000E+03 0.  0.
        -11    1    1    0    0    0  0.23486492174E+02 -0.25867214622E+02  0.18135130424E+02  0.39365099551E+02  0.51100000000E-03 0.  1.
         11    1    1    0    0    0  0.75607244522E+01 -0.19183547053E+02  0.11293234720E+02  0.23509789078E+02  0.51100000000E-03 0. -1.
         22    1    1    0    0    0 -0.31047216626E+02  0.45050761675E+02 -0.29428365144E+02  0.62125111371E+02  0.00000000000E+00 0.  1.
</event>
<event>
 4    1  0.1977762E-002  0.9118800E+02  0.7818608E-02  0.1130116E+00
         25   -1    0    0    0    0  0.00000000000E+00  0.00000000000E+00  0.99999998245E-14  0.12500000000E+03  0.12500000000E+03 0.  0.
        -11    1    1    0    0    0 -0.72438055260E+00  0.39791586476E+01 -0.24809618569E+02  0.25137135966E+02  0.51100000000E-03 0.  1.
         11    1    1    0    0    0 -0.11297420651E+01  0.58821040288E+01 -0.36879654597E+02  0.37362874466E+02  0.51100000000E-03 0. -1.
         22    1    1    0    0    0  0.18541226177E+01 -0.98612626764E+01  0.61689273166E+02  0.62499989568E+02  0.00000000000E+00 0. -1.
</event>
<event>
 4    1  0.1977762E-002  0.9118800E+02  0.7818608E-02  0.1130116E+00
         25   -1    0    0    0    0  0.00000000000E+00  0.00000000000E+00  0.99999998245E-14  0.12500000000E+03  0.12500000000E+03 0.  0.
        -11    1    1    0    0    0  0.15673915869E+00  0.29843516977E+01  0.25149707337E+01  0.39058930185E+01  0.51100000000E-03 0.  1.
         11    1    1    0    0    0  0.92245345406E+01  0.41380212607E+02  0.40471297031E+02  0.58611772850E+02  0.51100000000E-03 0. -1.
         22    1    1    0    0    0 -0.93812736993E+01 -0.44364564305E+02 -0.42986267765E+02  0.62482334132E+02  0.00000000000E+00 0. -1.
</event>
<event>
 4    1  0.1977762E-002  0.9118800E+02  0.7818608E-02  0.1130116E+00
         25   -1    0    0    0    0  0.00000000000E+00  0.00000000000E+00  0.99999998245E-14  0.12500000000E+03  0.12500000000E+03 0.  0.
        -11    1    1    0    0    0  0.14117724585E+01  0.67803558074E+01  0.42430712986E+01  0.81221906315E+01  0.51100000000E-03 0. -1.
         11    1    1    0    0    0  0.96287112258E+01  0.45371639785E+02  0.28383982780E+02  0.54377828712E+02  0.51100000000E-03 0.  1.
         22    1    1    0    0    0 -0.11040483684E+02 -0.52151995592E+02 -0.32627054079E+02  0.62499980657E+02  0.00000000000E+00 0.  1.
</event>
<event>
 4    1  0.1977762E-002  0.9118800E+02  0.7818608E-02  0.1130116E+00
         25   -1    0    0    0    0  0.00000000000E+00  0.00000000000E+00  0.99999998245E-14  0.12500000000E+03  0.12500000000E+03 0.  0.
        -11    1    1    0    0    0  0.12984571785E+01  0.15505141629E+01  0.55623623286E-01  0.20231607604E+01  0.51100000000E-03 0. -1.
         11    1    1    0    0    0  0.38389777078E+02  0.46677346820E+02  0.22154015091E+01  0.60476918691E+02  0.51100000000E-03 0.  1.
         22    1    1    0    0    0 -0.39688234257E+02 -0.48227860983E+02 -0.22710251324E+01  0.62499920548E+02  0.00000000000E+00 0.  1.
</event>
<event>
 4    1  0.1977762E-002  0.9118800E+02  0.7818608E-02  0.1130116E+00
         25   -1    0    0    0    0  0.00000000000E+00  0.00000000000E+00  0.99999998245E-14  0.12500000000E+03  0.12500000000E+03 0.  0.
        -11    1    1    0    0    0 -0.17921202513E+02  0.52250950719E+02 -0.27737595883E+02  0.61811856276E+02  0.51100000000E-03 0.  1.
         11    1    1    0    0    0 -0.19052456147E+00  0.58815101574E+00 -0.30232708776E+00  0.68820284434E+00  0.51100000000E-03 0. -1.
         22    1    1    0    0    0  0.18111727075E+02 -0.52839101735E+02  0.28039922971E+02  0.62499940880E+02  0.00000000000E+00 0.  1.
</event>
<event>
 4    1  0.1977762E-002  0.9118800E+02  0.7818608E-02  0.1130116E+00
         25   -1    0    0    0    0  0.00000000000E+00  0.00000000000E+00  0.99999998245E-14  0.12500000000E+03  0.12500000000E+03 0.  0.
        -11    1    1    0    0    0  0.35371139140E+01  0.37424287172E+01 -0.31375277480E+01  0.60300106281E+01  0.51100000000E-03 0.  1.
         11    1    1    0    0    0  0.33119858689E+02  0.35051101850E+02 -0.29382901866E+02  0.56469989400E+02  0.51100000000E-03 0.  1.
         22    1    1    0    0    0 -0.36656972603E+02 -0.38793530567E+02  0.32520429614E+02  0.62499999972E+02  0.00000000000E+00 0.  1.
</event>
<event>
 4    1  0.1977762E-002  0.9118800E+02  0.7818608E-02  0.1130116E+00
         25   -1    0    0    0    0  0.00000000000E+00  0.00000000000E+00  0.99999998245E-14  0.12500000000E+03  0.12500000000E+03 0.  0.
        -11    1    1    0    0    0 -0.80556059609E+00 -0.11383422350E+01 -0.57058270548E+00  0.15067567166E+01  0.51100000000E-03 0.  1.
         11    1    1    0    0    0 -0.32886576649E+02 -0.45071526876E+02 -0.24642407426E+02  0.60993587390E+02  0.51100000000E-03 0. -1.
         22    1    1    0    0    0  0.33692137246E+02  0.46209869111E+02  0.25212990132E+02  0.62499655894E+02  0.00000000000E+00 0. -1.
</event>
<event>
 4    1  0.1977762E-002  0.9118800E+02  0.7818608E-02  0.1130116E+00
         25   -1    0    0    0    0  0.00000000000E+00  0.00000000000E+00  0.99999998245E-14  0.12500000000E+03  0.12500000000E+03 0.  0.
        -11    1    1    0    0    0 -0.46861596781E+01 -0.30888116223E+02 -0.18087837452E+02  0.36099940170E+02  0.51100000000E-03 0. -1.
         11    1    1    0    0    0 -0.34258467719E+01 -0.22552164548E+02 -0.13290151129E+02  0.26400088431E+02  0.51100000000E-03 0.  1.
         22    1    1    0    0    0  0.81120064500E+01  0.53440280771E+02  0.31377988580E+02  0.62499971399E+02  0.00000000000E+00 0. -1.
</event>
<event>
 4    1  0.1977762E-002  0.9118800E+02  0.7818608E-02  0.1130116E+00
         25   -1    0    0    0    0  0.00000000000E+00  0.00000000000E+00  0.99999998245E-14  0.12500000000E+03  0.12500000000E+03 0.  0.
        -11    1    1    0    0    0  0.89685569547E+01 -0.34111454611E+02 -0.21196278563E+02  0.41149830798E+02  0.51100000000E-03 0. -1.
         11    1    1    0    0    0  0.46426667542E+01 -0.17705615711E+02 -0.10990296338E+02  0.21350170869E+02  0.51100000000E-03 0.  1.
         22    1    1    0    0    0 -0.13611223709E+02  0.51817070322E+02  0.32186574902E+02  0.62499998332E+02  0.00000000000E+00 0.  1.
</event>
<event>
 4    1  0.1977762E-002  0.9118800E+02  0.7818608E-02  0.1130116E+00
         25   -1    0    0    0    0  0.00000000000E+00  0.00000000000E+00  0.99999998245E-14  0.12500000000E+03  0.12500000000E+03 0.  0.
        -11    1    1    0    0    0  0.61743326072E+01  0.99486798763E+01  0.11905316327E+01  0.11769281212E+02  0.51100000000E-03 0. -1.
         11    1    1    0    0    0  0.27957283243E+02  0.42214559809E+02  0.32368406538E+01  0.50736139820E+02  0.51100000000E-03 0.  1.
         22    1    1    0    0    0 -0.34131615850E+02 -0.52163239685E+02 -0.44273722865E+01  0.62494578968E+02  0.00000000000E+00 0.  1.
</event>
<event>
 4    1  0.1977762E-002  0.9118800E+02  0.7818608E-02  0.1130116E+00
         25   -1    0    0    0    0  0.00000000000E+00  0.00000000000E+00  0.99999998245E-14  0.12500000000E+03  0.12500000000E+03 0.  0.
        -11    1    1    0    0    0  0.79532350880E+01  0.36917681695E+02  0.46239260304E+02  0.59701242565E+02  0.51100000000E-03 0.  1.
         11    1    1    0    0    0  0.36982893600E+00  0.17303480445E+01  0.21684487402E+01  0.27987582956E+01  0.51100000000E-03 0. -1.
         22    1    1    0    0    0 -0.83230640240E+01 -0.38648029739E+02 -0.48407709045E+02  0.62499999139E+02  0.00000000000E+00 0.  1.
</event>
<event>
 4    1  0.1977762E-002  0.9118800E+02  0.7818608E-02  0.1130116E+00
         25   -1    0    0    0    0  0.00000000000E+00  0.00000000000E+00  0.99999998245E-14  0.12500000000E+03  0.12500000000E+03 0.  0.
        -11    1    1    0    0    0 -0.21762027022E+02  0.12352025806E+01  0.58358565302E+02  0.62296337692E+02  0.51100000000E-03 0. -1.
         11    1    1    0    0    0 -0.86800467490E-01  0.33388955356E-02  0.18459229531E+00  0.20400991640E+00  0.51100000000E-03 0.  1.
         22    1    1    0    0    0  0.21848827489E+02 -0.12385414761E+01 -0.58543157597E+02  0.62499652392E+02  0.00000000000E+00 0. -1.
</event>
<event>
 4    1  0.1977762E-002  0.9118800E+02  0.7818608E-02  0.1130116E+00
         25   -1    0    0    0    0  0.00000000000E+00  0.00000000000E+00  0.99999998245E-14  0.12500000000E+03  0.12500000000E+03 0.  0.
        -11    1    1    0    0    0  0.49900761536E+01  0.15986398382E+02  0.18068151223E+02  0.24635825176E+02  0.51100000000E-03 0. -1.
         11    1    1    0    0    0  0.76685109494E+01  0.24569107672E+02  0.27771363382E+02  0.37864174840E+02  0.51100000000E-03 0.  1.
         22    1    1    0    0    0 -0.12658587103E+02 -0.40555506055E+02 -0.45839514604E+02  0.62499999983E+02  0.00000000000E+00 0. -1.
</event>
<event>
 4    1  0.1977762E-002  0.9118800E+02  0.7818608E-02  0.1130116E+00
         25   -1    0    0    0    0  0.00000000000E+00  0.00000000000E+00  0.99999998245E-14  0.12500000000E+03  0.12500000000E+03 0.  0.
        -11    1    1    0    0    0  0.12225395552E+02 -0.28867770402E+02  0.33456991187E+01  0.31527799911E+02  0.51100000000E-03 0. -1.
         11    1    1    0    0    0  0.36432614036E+02  0.21304541414E+02 -0.11059250476E+02  0.43629415212E+02  0.51100000000E-03 0.  1.
         22    1    1    0    0    0 -0.48658009588E+02  0.75632289880E+01  0.77135513570E+01  0.49842784877E+02  0.00000000000E+00 0.  1.
</event>
<event>
 4    1  0.1977762E-002  0.9118800E+02  0.7818608E-02  0.1130116E+00
         25   -1    0    0    0    0  0.00000000000E+00  0.00000000000E+00  0.99999998245E-14  0.12500000000E+03  0.12500000000E+03 0.  0.
        -11    1    1    0    0    0  0.81228118428E+01 -0.66755547407E+01  0.12757979627E+02  0.16532064231E+02  0.51100000000E-03 0. -1.
         11    1    1    0    0    0  0.22934109479E+02 -0.18357264166E+02  0.35356922640E+02  0.45968190133E+02  0.51100000000E-03 0.  1.
         22    1    1    0    0    0 -0.31056921321E+02  0.25032818907E+02 -0.48114902267E+02  0.62499745636E+02  0.00000000000E+00 0.  1.
</event>
<event>
 4    1  0.1977762E-002  0.9118800E+02  0.7818608E-02  0.1130116E+00
         25   -1    0    0    0    0  0.00000000000E+00  0.00000000000E+00  0.99999998245E-14  0.12500000000E+03  0.12500000000E+03 0.  0.
        -11    1    1    0    0    0 -0.14080299894E+00 -0.40608092760E+00 -0.14120946313E+01  0.14760551186E+01  0.51100000000E-03 0. -1.
         11    1    1    0    0    0  0.14824342076E+02  0.59938872689E+02 -0.45827587412E+01  0.61914709521E+02  0.51100000000E-03 0.  1.
         22    1    1    0    0    0 -0.14683539077E+02 -0.59532791761E+02  0.59948533725E+01  0.61609235360E+02  0.00000000000E+00 0.  1.
</event>
<event>
 4    1  0.1977762E-002  0.9118800E+02  0.7818608E-02  0.1130116E+00
         25   -1    0    0    0    0  0.00000000000E+00  0.00000000000E+00  0.99999998245E-14  0.12500000000E+03  0.12500000000E+03 0.  0.
        -11    1    1    0    0    0 -0.58110332085E+02 -0.78884729020E+01  0.79951896327E+01  0.59185823955E+02  0.51100000000E-03 0.  1.
         11    1    1    0    0    0 -0.32540691103E+01 -0.44202035838E+00  0.44655976579E+00  0.33141761658E+01  0.51100000000E-03 0. -1.
         22    1    1    0    0    0  0.61364401195E+02  0.83304932604E+01 -0.84417493985E+01  0.62499999879E+02  0.00000000000E+00 0.  1.
</event>
<event>
 4    1  0.1977762E-002  0.9118800E+02  0.7818608E-02  0.1130116E+00
         25   -1    0    0    0    0  0.00000000000E+00  0.00000000000E+00  0.99999998245E-14  0.12500000000E+03  0.12500000000E+03 0.  0.
        -11    1    1    0    0    0  0.20265602316E+02 -0.30502849722E+02  0.43504019946E+02  0.56865791387E+02  0.51100000000E-03 0.  1.
         11    1    1    0    0    0  0.87859560311E+00 -0.37607599942E+01  0.42030456821E+01  0.57079627920E+01  0.51100000000E-03 0. -1.
         22    1    1    0    0    0 -0.21144197919E+02  0.34263609716E+02 -0.47707065628E+02  0.62426245821E+02  0.00000000000E+00 0.  1.
</event>
<event>
 4    1  0.1977762E-002  0.9118800E+02  0.7818608E-02  0.1130116E+00
         25   -1    0    0    0    0  0.00000000000E+00  0.00000000000E+00  0.99999998245E-14  0.12500000000E+03  0.12500000000E+03 0.  0.
        -11    1    1    0    0    0  0.45680855392E+02 -0.15689793730E+02  0.18286434051E+02  0.51645947055E+02  0.51100000000E-03 0.  1.
         11    1    1    0    0    0  0.95961473682E+01 -0.33693611086E+01  0.37914478228E+01  0.10854202663E+02  0.51100000000E-03 0. -1.
         22    1    1    0    0    0 -0.55277002760E+02  0.19059154839E+02 -0.22077881874E+02  0.62499850282E+02  0.00000000000E+00 0.  1.
</event>
<event>
 4    1  0.1977762E-002  0.9118800E+02  0.7818608E-02  0.1130116E+00
         25   -1    0    0    0    0  0.00000000000E+00  0.00000000000E+00  0.99999998245E-14  0.12500000000E+03  0.12500000000E+03 0.  0.
        -11    1    1    0    0    0  0.43047069320E+01 -0.14395403340E+02  0.54655683084E+01  0.15988451341E+02  0.51100000000E-03 0.  1.
         11    1    1    0    0    0  0.12559354147E+02 -0.41870392525E+02  0.15888901943E+02  0.46511550738E+02  0.51100000000E-03 0. -1.
         22    1    1    0    0    0 -0.16864061079E+02  0.56265795865E+02 -0.21354470252E+02  0.62499997921E+02  0.00000000000E+00 0. -1.
</event>
<event>
 4    1  0.1977762E-002  0.9118800E+02  0.7818608E-02  0.1130116E+00
         25   -1    0    0    0    0  0.00000000000E+00  0.00000000000E+00  0.99999998245E-14  0.12500000000E+03  0.12500000000E+03 0.  0.
        -11    1    1    0    0    0  0.25802133621E+01 -0.37689402548E+01  0.51646217265E+00  0.45966449803E+01  0.51100000000E-03 0.  1.
         11    1    1    0    0    0  0.32487985301E+02 -0.47488187006E+02  0.64962639946E+01  0.57903355173E+02  0.51100000000E-03 0. -1.
         22    1    1    0    0    0 -0.35068198664E+02  0.51257127261E+02 -0.70127261672E+01  0.62499999847E+02  0.00000000000E+00 0. -1.
</event>
<event>
 4    1  0.1977762E-002  0.9118800E+02  0.7818608E-02  0.1130116E+00
         25   -1    0    0    0    0  0.00000000000E+00  0.00000000000E+00  0.99999998245E-14  0.12500000000E+03  0.12500000000E+03 0.  0.
        -11    1    1    0    0    0 -0.13972496511E+01  0.35179023465E+01  0.37986549282E+01  0.53626227755E+01  0.51100000000E-03 0.  1.
         11    1    1    0    0    0 -0.18194035804E+02  0.36918141540E+02  0.39638623170E+02  0.57141863469E+02  0.51100000000E-03 0. -1.
         22    1    1    0    0    0  0.19591285455E+02 -0.40436043886E+02 -0.43437278099E+02  0.62495513756E+02  0.00000000000E+00 0. -1.
</event>
<event>
 4    1  0.1977762E-002  0.9118800E+02  0.7818608E-02  0.1130116E+00
         25   -1    0    0    0    0  0.00000000000E+00  0.00000000000E+00  0.99999998245E-14  0.12500000000E+03  0.12500000000E+03 0.  0.
        -11    1    1    0    0    0  0.83785061597E+01 -0.95574013512E+01  0.28137046335E+01  0.13017688738E+02  0.51100000000E-03 0. -1.
         11    1    1    0    0    0  0.46846564277E+02  0.43639152066E+01  0.21117642396E+02  0.51571301721E+02  0.51100000000E-03 0.  1.
         22    1    1    0    0    0 -0.55225070437E+02  0.51934861446E+01 -0.23931347030E+02  0.60411009541E+02  0.00000000000E+00 0.  1.
</event>
<event>
 4    1  0.1977762E-002  0.9118800E+02  0.7818608E-02  0.1130116E+00
         25   -1    0    0    0    0  0.00000000000E+00  0.00000000000E+00  0.99999998245E-14  0.12500000000E+03  0.12500000000E+03 0.  0.
        -11    1    1    0    0    0 -0.46356771350E+02  0.30317164181E+02 -0.16347129957E+02  0.57752137208E+02  0.51100000000E-03 0. -1.
         11    1    1    0    0    0 -0.40228172314E+01  0.23086349449E+01 -0.10513142917E+01  0.47558506902E+01  0.51100000000E-03 0.  1.
         22    1    1    0    0    0  0.50379588582E+02 -0.32625799126E+02  0.17398444249E+02  0.62492012102E+02  0.00000000000E+00 0. -1.
</event>
<event>
 4    1  0.1977762E-002  0.9118800E+02  0.7818608E-02  0.1130116E+00
         25   -1    0    0    0    0  0.00000000000E+00  0.00000000000E+00  0.99999998245E-14  0.12500000000E+03  0.12500000000E+03 0.  0.
        -11    1    1    0    0    0 -0.14370016105E+02 -0.70766514347E+00 -0.32591995622E+02  0.35626343227E+02  0.51100000000E-03 0. -1.
         11    1    1    0    0    0 -0.10972220131E+02 -0.35551365619E+00 -0.24529418486E+02  0.26873934883E+02  0.51100000000E-03 0.  1.
         22    1    1    0    0    0  0.25342236236E+02  0.10631787997E+01  0.57121414108E+02  0.62499721890E+02  0.00000000000E+00 0. -1.
</event>
<event>
 4    1  0.1977762E-002  0.9118800E+02  0.7818608E-02  0.1130116E+00
         25   -1    0    0    0    0  0.00000000000E+00  0.00000000000E+00  0.99999998245E-14  0.12500000000E+03  0.12500000000E+03 0.  0.
        -11    1    1    0    0    0 -0.30747136071E+02 -0.36161258418E+02 -0.24603916153E+02  0.53463779115E+02  0.51100000000E-03 0. -1.
         11    1    1    0    0    0 -0.50529251788E+01 -0.60531960337E+01 -0.44180536631E+01  0.90383866655E+01  0.51100000000E-03 0.  1.
         22    1    1    0    0    0  0.35800061250E+02  0.42214454452E+02  0.29021969816E+02  0.62497834220E+02  0.00000000000E+00 0. -1.
</event>
<event>
 4    1  0.1977762E-002  0.9118800E+02  0.7818608E-02  0.1130116E+00
         25   -1    0    0    0    0  0.00000000000E+00  0.00000000000E+00  0.99999998245E-14  0.12500000000E+03  0.12500000000E+03 0.  0.
        -11    1    1    0    0    0  0.75401906864E+01  0.98950594983E+01 -0.39312298290E+01  0.13046886460E+02  0.51100000000E-03 0. -1.
         11    1    1    0    0    0  0.28581824578E+02  0.37505216191E+02 -0.14901291950E+02  0.49453113550E+02  0.51100000000E-03 0. -1.
         22    1    1    0    0    0 -0.36122015264E+02 -0.47400275690E+02  0.18832521779E+02  0.62499999990E+02  0.00000000000E+00 0. -1.
</event>
<event>
 4    1  0.1977762E-002  0.9118800E+02  0.7818608E-02  0.1130116E+00
         25   -1    0    0    0    0  0.00000000000E+00  0.00000000000E+00  0.99999998245E-14  0.12500000000E+03  0.12500000000E+03 0.  0.
        -11    1    1    0    0    0  0.22383139607E+02 -0.26192557228E+02 -0.35918361558E+02  0.49771313927E+02  0.51100000000E-03 0. -1.
         11    1    1    0    0    0  0.56695828525E+01 -0.66901055479E+01 -0.92260300905E+01  0.12728759305E+02  0.51100000000E-03 0.  1.
         22    1    1    0    0    0 -0.28052722460E+02  0.32882662776E+02  0.45144391648E+02  0.62499926767E+02  0.00000000000E+00 0. -1.
</event>
<event>
 4    1  0.1977762E-002  0.9118800E+02  0.7818608E-02  0.1130116E+00
         25   -1    0    0    0    0  0.00000000000E+00  0.00000000000E+00  0.99999998245E-14  0.12500000000E+03  0.12500000000E+03 0.  0.
        -11    1    1    0    0    0  0.85895167958E-01  0.27921645042E+02  0.90060658829E+00  0.27936297756E+02  0.51100000000E-03 0. -1.
         11    1    1    0    0    0 -0.90187300930E-01  0.34548600205E+02  0.10227907018E+01  0.34563854110E+02  0.51100000000E-03 0.  1.
         22    1    1    0    0    0  0.42921329721E-02 -0.62470245247E+02 -0.19233972901E+01  0.62499848134E+02  0.00000000000E+00 0.  1.
</event>
<event>
 4    1  0.1977762E-002  0.9118800E+02  0.7818608E-02  0.1130116E+00
         25   -1    0    0    0    0  0.00000000000E+00  0.00000000000E+00  0.99999998245E-14  0.12500000000E+03  0.12500000000E+03 0.  0.
        -11    1    1    0    0    0 -0.44685141103E+02  0.88337845802E+01 -0.42415578839E+02  0.62240492558E+02  0.51100000000E-03 0.  1.
         11    1    1    0    0    0 -0.18672548535E+00  0.41331305603E-01 -0.17544357442E+00  0.25952917490E+00  0.51100000000E-03 0. -1.
         22    1    1    0    0    0  0.44871866588E+02 -0.88751158858E+01  0.42591022413E+02  0.62499978267E+02  0.00000000000E+00 0.  1.
</event>
<event>
 4    1  0.1977762E-002  0.9118800E+02  0.7818608E-02  0.1130116E+00
         25   -1    0    0    0    0  0.00000000000E+00  0.00000000000E+00  0.99999998245E-14  0.12500000000E+03  0.12500000000E+03 0.  0.
        -11    1    1    0    0    0 -0.15698547837E+01  0.50468132083E+00  0.30081731774E+01  0.34304887996E+01  0.51100000000E-03 0.  1.
         11    1    1    0    0    0 -0.22611615872E+02 -0.31607375340E+02  0.45004598509E+02  0.59461964611E+02  0.51100000000E-03 0. -1.
         22    1    1    0    0    0  0.24181470656E+02  0.31102694020E+02 -0.48012771686E+02  0.62107546589E+02  0.00000000000E+00 0. -1.
</event>
<event>
 4    1  0.1977762E-002  0.9118800E+02  0.7818608E-02  0.1130116E+00
         25   -1    0    0    0    0  0.00000000000E+00  0.00000000000E+00  0.99999998245E-14  0.12500000000E+03  0.12500000000E+03 0.  0.
        -11    1    1    0    0    0 -0.29140705542E+02  0.20899708609E+02 -0.49796932344E+02  0.61365405650E+02  0.51100000000E-03 0.  1.
         11    1    1    0    0    0 -0.53895558897E+00  0.38647837689E+00 -0.92057893306E+00  0.11345944191E+01  0.51100000000E-03 0.  1.
         22    1    1    0    0    0  0.29679661131E+02 -0.21286186986E+02  0.50717511277E+02  0.62499999931E+02  0.00000000000E+00 0.  1.
</event>
<event>
 4    1  0.1977762E-002  0.9118800E+02  0.7818608E-02  0.1130116E+00
         25   -1    0    0    0    0  0.00000000000E+00  0.00000000000E+00  0.99999998245E-14  0.12500000000E+03  0.12500000000E+03 0.  0.
        -11    1    1    0    0    0 -0.44946200755E+02 -0.17572854401E+02 -0.91404737048E+01  0.49117353695E+02  0.51100000000E-03 0. -1.
         11    1    1    0    0    0  0.40590659681E+00 -0.18159046423E+02  0.35570361037E+01  0.18508598900E+02  0.51100000000E-03 0.  1.
         22    1    1    0    0    0  0.44540294158E+02  0.35731900824E+02  0.55834376011E+01  0.57374047405E+02  0.00000000000E+00 0. -1.
</event>
<event>
 4    1  0.1977762E-002  0.9118800E+02  0.7818608E-02  0.1130116E+00
         25   -1    0    0    0    0  0.00000000000E+00  0.00000000000E+00  0.99999998245E-14  0.12500000000E+03  0.12500000000E+03 0.  0.
        -11    1    1    0    0    0  0.12643751186E+02  0.43730079368E+00 -0.17953929531E+00  0.12652585137E+02  0.51100000000E-03 0.  1.
         11    1    1    0    0    0  0.49812683880E+02  0.17217604106E+01 -0.70486554263E+00  0.49847414877E+02  0.51100000000E-03 0. -1.
         22    1    1    0    0    0 -0.62456435065E+02 -0.21590612043E+01  0.88440483794E+00  0.62499999986E+02  0.00000000000E+00 0. -1.
</event>
<event>
 4    1  0.1977762E-002  0.9118800E+02  0.7818608E-02  0.1130116E+00
         25   -1    0    0    0    0  0.00000000000E+00  0.00000000000E+00  0.99999998245E-14  0.12500000000E+03  0.12500000000E+03 0.  0.
        -11    1    1    0    0    0  0.20237006566E+02  0.23310162334E+02  0.51444322493E+02  0.59995153302E+02  0.51100000000E-03 0. -1.
         11    1    1    0    0    0  0.84567925636E+00  0.98791911466E+00  0.21408472081E+01  0.25048721746E+01  0.51100000000E-03 0.  1.
         22    1    1    0    0    0 -0.21082685822E+02 -0.24298081448E+02 -0.53585169701E+02  0.62499974523E+02  0.00000000000E+00 0. -1.
</event>
<event>
 4    1  0.1977762E-002  0.9118800E+02  0.7818608E-02  0.1130116E+00
         25   -1    0    0    0    0  0.00000000000E+00  0.00000000000E+00  0.99999998245E-14  0.12500000000E+03  0.12500000000E+03 0.  0.
        -11    1    1    0    0    0  0.17064533852E+02 -0.14267832615E+02  0.64281732993E+00  0.22252698207E+02  0.51100000000E-03 0.  1.
         11    1    1    0    0    0  0.30852841363E+02 -0.25819313745E+02  0.11448278929E+01  0.40247303184E+02  0.51100000000E-03 0. -1.
         22    1    1    0    0    0 -0.47917375215E+02  0.40087146359E+02 -0.17876452228E+01  0.62499998609E+02  0.00000000000E+00 0.  1.
</event>
<event>
 4    1  0.1977762E-002  0.9118800E+02  0.7818608E-02  0.1130116E+00
         25   -1    0    0    0    0  0.00000000000E+00  0.00000000000E+00  0.99999998245E-14  0.12500000000E+03  0.12500000000E+03 0.  0.
        -11    1    1    0    0    0  0.29572962500E+00 -0.38898615100E+02 -0.39599255557E+02  0.55509375367E+02  0.51100000000E-03 0.  1.
         11    1    1    0    0    0  0.24918430688E-01 -0.48998372483E+01 -0.49859678193E+01  0.69906295384E+01  0.51100000000E-03 0. -1.
         22    1    1    0    0    0 -0.32064805569E+00  0.43798452349E+02  0.44585223376E+02  0.62499995094E+02  0.00000000000E+00 0.  1.
</event>
<event>
 4    1  0.1977762E-002  0.9118800E+02  0.7818608E-02  0.1130116E+00
         25   -1    0    0    0    0  0.00000000000E+00  0.00000000000E+00  0.99999998245E-14  0.12500000000E+03  0.12500000000E+03 0.  0.
        -11    1    1    0    0    0  0.78704722307E+01  0.14999092873E+02 -0.23445972000E+02  0.28924569546E+02  0.51100000000E-03 0. -1.
         11    1    1    0    0    0  0.91249283117E+01  0.17420718361E+02 -0.27213302588E+02  0.33575431239E+02  0.51100000000E-03 0.  1.
         22    1    1    0    0    0 -0.16995400542E+02 -0.32419811235E+02  0.50659274587E+02  0.62499999214E+02  0.00000000000E+00 0.  1.
</event>
<event>
 4    1  0.1977762E-002  0.9118800E+02  0.7818608E-02  0.1130116E+00
         25   -1    0    0    0    0  0.00000000000E+00  0.00000000000E+00  0.99999998245E-14  0.12500000000E+03  0.12500000000E+03 0.  0.
        -11    1    1    0    0    0  0.21315668382E+02  0.82243384622E+01 -0.16269758581E+02  0.28048217523E+02  0.51100000000E-03 0.  1.
         11    1    1    0    0    0  0.26194111801E+02  0.10071214008E+02 -0.19984111589E+02  0.34451786033E+02  0.51100000000E-03 0. -1.
         22    1    1    0    0    0 -0.47509780183E+02 -0.18295552470E+02  0.36253870169E+02  0.62499996443E+02  0.00000000000E+00 0. -1.
</event>
<event>
 4    1  0.1977762E-002  0.9118800E+02  0.7818608E-02  0.1130116E+00
         25   -1    0    0    0    0  0.00000000000E+00  0.00000000000E+00  0.99999998245E-14  0.12500000000E+03  0.12500000000E+03 0.  0.
        -11    1    1    0    0    0 -0.86530789647E+01 -0.14017315909E+01 -0.19855033912E+01  0.89879280705E+01  0.51100000000E-03 0. -1.
         11    1    1    0    0    0 -0.51627533668E+02 -0.10765156789E+02 -0.91212419588E+01  0.53520910759E+02  0.51100000000E-03 0.  1.
         22    1    1    0    0    0  0.60280612632E+02  0.12166888380E+02  0.11106745350E+02  0.62491161171E+02  0.00000000000E+00 0.  1.
</event>
<event>
 4    1  0.1977762E-002  0.9118800E+02  0.7818608E-02  0.1130116E+00
         25   -1    0    0    0    0  0.00000000000E+00  0.00000000000E+00  0.99999998245E-14  0.12500000000E+03  0.12500000000E+03 0.  0.
        -11    1    1    0    0    0  0.28649075559E+02  0.47903892515E+02 -0.11555639972E+02  0.57000747924E+02  0.51100000000E-03 0. -1.
         11    1    1    0    0    0  0.37597468568E+01 -0.38045256181E+00  0.97410677801E+01  0.10448389461E+02  0.51100000000E-03 0.  1.
         22    1    1    0    0    0 -0.32408822416E+02 -0.47523439954E+02  0.18145721920E+01  0.57550862614E+02  0.00000000000E+00 0. -1.
</event>
<event>
 4    1  0.1977762E-002  0.9118800E+02  0.7818608E-02  0.1130116E+00
         25   -1    0    0    0    0  0.00000000000E+00  0.00000000000E+00  0.99999998245E-14  0.12500000000E+03  0.12500000000E+03 0.  0.
        -11    1    1    0    0    0 -0.12763555770E+02  0.52449281710E+02  0.31207612612E+02  0.62351829107E+02  0.51100000000E-03 0. -1.
         11    1    1    0    0    0 -0.29327978375E-01  0.12437684098E+00  0.75004302552E-01  0.14817434127E+00  0.51100000000E-03 0.  1.
         22    1    1    0    0    0  0.12792883748E+02 -0.52573658551E+02 -0.31282616914E+02  0.62499996552E+02  0.00000000000E+00 0. -1.
</event>
<event>
 4    1  0.1977762E-002  0.9118800E+02  0.7818608E-02  0.1130116E+00
         25   -1    0    0    0    0  0.00000000000E+00  0.00000000000E+00  0.99999998245E-14  0.12500000000E+03  0.12500000000E+03 0.  0.
        -11    1    1    0    0    0 -0.15542135486E+02  0.21166448481E+02  0.49852630887E+02  0.56345907778E+02  0.51100000000E-03 0.  1.
         11    1    1    0    0    0 -0.16962351896E+01  0.23129720364E+01  0.54447955753E+01  0.61540923439E+01  0.51100000000E-03 0. -1.
         22    1    1    0    0    0  0.17238370676E+02 -0.23479420518E+02 -0.55297426462E+02  0.62499999878E+02  0.00000000000E+00 0.  1.
</event>
<event>
 4    1  0.1977762E-002  0.9118800E+02  0.7818608E-02  0.1130116E+00
         25   -1    0    0    0    0  0.00000000000E+00  0.00000000000E+00  0.99999998245E-14  0.12500000000E+03  0.12500000000E+03 0.  0.
        -11    1    1    0    0    0  0.18372056059E+01 -0.97665370553E+00  0.35718526564E+00  0.21111036151E+01  0.51100000000E-03 0.  1.
         11    1    1    0    0    0  0.52604573883E+02 -0.27857388426E+02  0.10175642885E+02  0.60388897918E+02  0.51100000000E-03 0. -1.
         22    1    1    0    0    0 -0.54441779489E+02  0.28834042132E+02 -0.10532828151E+02  0.62499998467E+02  0.00000000000E+00 0. -1.
</event>
<event>
 4    1  0.1977762E-002  0.9118800E+02  0.7818608E-02  0.1130116E+00
         25   -1    0    0    0    0  0.00000000000E+00  0.00000000000E+00  0.99999998245E-14  0.12500000000E+03  0.12500000000E+03 0.  0.
        -11    1    1    0    0    0 -0.35748429110E+02 -0.23232811349E+02 -0.39994110590E+02  0.58457185949E+02  0.51100000000E-03 0. -1.
         11    1    1    0    0    0 -0.23779005303E+01 -0.15582927475E+01 -0.28762150256E+01  0.40441686851E+01  0.51100000000E-03 0.  1.
         22    1    1    0    0    0  0.38126329640E+02  0.24791104096E+02  0.42870325615E+02  0.62498645365E+02  0.00000000000E+00 0. -1.
</event>
<event>
 4    1  0.1977762E-002  0.9118800E+02  0.7818608E-02  0.1130116E+00
         25   -1    0    0    0    0  0.00000000000E+00  0.00000000000E+00  0.99999998245E-14  0.12500000000E+03  0.12500000000E+03 0.  0.
        -11    1    1    0    0    0 -0.37555606112E+02 -0.39650885655E+01  0.34565945912E+02  0.51195215546E+02  0.51100000000E-03 0.  1.
         11    1    1    0    0    0 -0.82942448350E+01 -0.87388694144E+00  0.76315121809E+01  0.11304784571E+02  0.51100000000E-03 0. -1.
         22    1    1    0    0    0  0.45849850947E+02  0.48389755070E+01 -0.42197458093E+02  0.62499999883E+02  0.00000000000E+00 0.  1.
</event>
<event>
 4    1  0.1977762E-002  0.9118800E+02  0.7818608E-02  0.1130116E+00
         25   -1    0    0    0    0  0.00000000000E+00  0.00000000000E+00  0.99999998245E-14  0.12500000000E+03  0.12500000000E+03 0.  0.
        -11    1    1    0    0    0 -0.34253256251E+02 -0.80690165193E+00  0.44649457312E+01  0.34552458591E+02  0.51100000000E-03 0.  1.
         11    1    1    0    0    0  0.20346672501E+02  0.37591955665E+02 -0.21194390603E+02  0.47711051192E+02  0.51100000000E-03 0. -1.
         22    1    1    0    0    0  0.13906583750E+02 -0.36785054013E+02  0.16729444872E+02  0.42736490217E+02  0.00000000000E+00 0.  1.
</event>
<event>
 4    1  0.1977762E-002  0.9118800E+02  0.7818608E-02  0.1130116E+00
         25   -1    0    0    0    0  0.00000000000E+00  0.00000000000E+00  0.99999998245E-14  0.12500000000E+03  0.12500000000E+03 0.  0.
        -11    1    1    0    0    0 -0.17287476176E+01  0.93711307017E+01 -0.93760133629E+01  0.13368481058E+02  0.51100000000E-03 0. -1.
         11    1    1    0    0    0 -0.61246736416E+01  0.34259003845E+02 -0.34680391731E+02  0.49131665375E+02  0.51100000000E-03 0.  1.
         22    1    1    0    0    0  0.78534212592E+01 -0.43630134547E+02  0.44056405094E+02  0.62499853567E+02  0.00000000000E+00 0.  1.
</event>
<event>
 4    1  0.1977762E-002  0.9118800E+02  0.7818608E-02  0.1130116E+00
         25   -1    0    0    0    0  0.00000000000E+00  0.00000000000E+00  0.99999998245E-14  0.12500000000E+03  0.12500000000E+03 0.  0.
        -11    1    1    0    0    0 -0.81529863367E+01  0.73426149248E+01 -0.48557362783E+01  0.11998473036E+02  0.51100000000E-03 0.  1.
         11    1    1    0    0    0 -0.34364996625E+02  0.30737951433E+02 -0.20606679122E+02  0.50501582906E+02  0.51100000000E-03 0. -1.
         22    1    1    0    0    0  0.42517982962E+02 -0.38080566357E+02  0.25462415400E+02  0.62499944058E+02  0.00000000000E+00 0. -1.
</event>
<event>
 4    1  0.1977762E-002  0.9118800E+02  0.7818608E-02  0.1130116E+00
         25   -1    0    0    0    0  0.00000000000E+00  0.00000000000E+00  0.99999998245E-14  0.12500000000E+03  0.12500000000E+03 0.  0.
        -11    1    1    0    0    0 -0.29191116187E+02  0.13425670373E+00  0.26500719111E+01  0.29311468242E+02  0.51100000000E-03 0. -1.
         11    1    1    0    0    0 -0.33078312767E+02  0.25341612926E+00  0.26951969656E+01  0.33188899984E+02  0.51100000000E-03 0.  1.
         22    1    1    0    0    0  0.62269428954E+02 -0.38767283299E+00 -0.53452688767E+01  0.62499631774E+02  0.00000000000E+00 0.  1.
</event>
<event>
 4    1  0.1977762E-002  0.9118800E+02  0.7818608E-02  0.1130116E+00
         25   -1    0    0    0    0  0.00000000000E+00  0.00000000000E+00  0.99999998245E-14  0.12500000000E+03  0.12500000000E+03 0.  0.
        -11    1    1    0    0    0 -0.20907565937E+02 -0.10625268574E+02  0.33355984736E+01  0.23688580859E+02  0.51100000000E-03 0. -1.
         11    1    1    0    0    0 -0.34225023246E+02 -0.17380568735E+02  0.57362114645E+01  0.38811602749E+02  0.51100000000E-03 0.  1.
         22    1    1    0    0    0  0.55132589184E+02  0.28005837308E+02 -0.90718099380E+01  0.62499816391E+02  0.00000000000E+00 0. -1.
</event>
<event>
 4    1  0.1977762E-002  0.9118800E+02  0.7818608E-02  0.1130116E+00
         25   -1    0    0    0    0  0.00000000000E+00  0.00000000000E+00  0.99999998245E-14  0.12500000000E+03  0.12500000000E+03 0.  0.
        -11    1    1    0    0    0 -0.15162248861E+02 -0.29014944260E+02 -0.35713954610E+02  0.48448398684E+02  0.51100000000E-03 0. -1.
         11    1    1    0    0    0 -0.44342432125E+01 -0.84174086303E+01 -0.10340834553E+02  0.14051624121E+02  0.51100000000E-03 0.  1.
         22    1    1    0    0    0  0.19596492074E+02  0.37432352890E+02  0.46054789163E+02  0.62499977195E+02  0.00000000000E+00 0. -1.
</event>
<event>
 4    1  0.1977762E-002  0.9118800E+02  0.7818608E-02  0.1130116E+00
         25   -1    0    0    0    0  0.00000000000E+00  0.00000000000E+00  0.99999998245E-14  0.12500000000E+03  0.12500000000E+03 0.  0.
        -11    1    1    0    0    0  0.12538502444E+02  0.45834490611E+02 -0.14178950491E+02  0.49588881923E+02  0.51100000000E-03 0. -1.
         11    1    1    0    0    0  0.13482818860E+02  0.48682518385E+01 -0.51507636129E+01  0.15232092647E+02  0.51100000000E-03 0.  1.
         22    1    1    0    0    0 -0.26021321303E+02 -0.50702742450E+02  0.19329714104E+02  0.60179025429E+02  0.00000000000E+00 0. -1.
</event>
<event>
 4    1  0.1977762E-002  0.9118800E+02  0.7818608E-02  0.1130116E+00
         25   -1    0    0    0    0  0.00000000000E+00  0.00000000000E+00  0.99999998245E-14  0.12500000000E+03  0.12500000000E+03 0.  0.
        -11    1    1    0    0    0 -0.30251854990E+02  0.25371292950E+02  0.22736228417E+02  0.45561094359E+02  0.51100000000E-03 0.  1.
         11    1    1    0    0    0 -0.11241717456E+02  0.94412814470E+01  0.84505951001E+01  0.16938906828E+02  0.51100000000E-03 0. -1.
         22    1    1    0    0    0  0.41493572446E+02 -0.34812574397E+02 -0.31186823517E+02  0.62499998813E+02  0.00000000000E+00 0.  1.
</event>
<event>
 4    1  0.1977762E-002  0.9118800E+02  0.7818608E-02  0.1130116E+00
         25   -1    0    0    0    0  0.00000000000E+00  0.00000000000E+00  0.99999998245E-14  0.12500000000E+03  0.12500000000E+03 0.  0.
        -11    1    1    0    0    0  0.56922458421E+00  0.95792694353E+00  0.25700413399E+00  0.11435436338E+01  0.51100000000E-03 0. -1.
         11    1    1    0    0    0  0.31232037135E+02  0.50757231579E+02  0.14590819965E+02  0.61356570379E+02  0.51100000000E-03 0.  1.
         22    1    1    0    0    0 -0.31801261719E+02 -0.51715158523E+02 -0.14847824099E+02  0.62499885987E+02  0.00000000000E+00 0.  1.
</event>
<event>
 4    1  0.1977762E-002  0.9118800E+02  0.7818608E-02  0.1130116E+00
         25   -1    0    0    0    0  0.00000000000E+00  0.00000000000E+00  0.99999998245E-14  0.12500000000E+03  0.12500000000E+03 0.  0.
        -11    1    1    0    0    0 -0.15246891911E+02  0.10331084850E+01 -0.74176502012E+01  0.16986952666E+02  0.51100000000E-03 0.  1.
         11    1    1    0    0    0 -0.40851944454E+02  0.27672133307E+01 -0.19872056847E+02  0.45513047348E+02  0.51100000000E-03 0. -1.
         22    1    1    0    0    0  0.56098836366E+02 -0.38003218156E+01  0.27289707048E+02  0.62499999986E+02  0.00000000000E+00 0. -1.
</event>
<event>
 4    1  0.1977762E-002  0.9118800E+02  0.7818608E-02  0.1130116E+00
         25   -1    0    0    0    0  0.00000000000E+00  0.00000000000E+00  0.99999998245E-14  0.12500000000E+03  0.12500000000E+03 0.  0.
        -11    1    1    0    0    0  0.82123945391E+01 -0.12592222444E+02  0.18895302764E+02  0.24146220345E+02  0.51100000000E-03 0.  1.
         11    1    1    0    0    0  0.13048027889E+02 -0.19998855625E+02  0.30013449642E+02  0.38353779707E+02  0.51100000000E-03 0. -1.
         22    1    1    0    0    0 -0.21260422428E+02  0.32591078069E+02 -0.48908752406E+02  0.62499999948E+02  0.00000000000E+00 0.  1.
</event>
<event>
 4    1  0.1977762E-002  0.9118800E+02  0.7818608E-02  0.1130116E+00
         25   -1    0    0    0    0  0.00000000000E+00  0.00000000000E+00  0.99999998245E-14  0.12500000000E+03  0.12500000000E+03 0.  0.
        -11    1    1    0    0    0  0.43895896217E+02  0.13234915567E+02  0.21293472618E+02  0.50551208404E+02  0.51100000000E-03 0. -1.
         11    1    1    0    0    0  0.10511492226E+02  0.29749853817E+01  0.48438695447E+01  0.11950107919E+02  0.51100000000E-03 0.  1.
         22    1    1    0    0    0 -0.54407388443E+02 -0.16209900948E+02 -0.26137342163E+02  0.62498683677E+02  0.00000000000E+00 0. -1.
</event>
<event>
 4    1  0.1977762E-002  0.9118800E+02  0.7818608E-02  0.1130116E+00
         25   -1    0    0    0    0  0.00000000000E+00  0.00000000000E+00  0.99999998245E-14  0.12500000000E+03  0.12500000000E+03 0.  0.
        -11    1    1    0    0    0  0.68392363097E+01  0.96019661848E+00  0.49596067294E+01  0.85026366509E+01  0.51100000000E-03 0. -1.
         11    1    1    0    0    0  0.22849951369E+02  0.11758319839E+01 -0.54271927389E+02  0.58897750052E+02  0.51100000000E-03 0.  1.
         22    1    1    0    0    0 -0.29689187678E+02 -0.21360286024E+01  0.49312320659E+02  0.57599613297E+02  0.00000000000E+00 0.  1.
</event>
<event>
 4    1  0.1977762E-002  0.9118800E+02  0.7818608E-02  0.1130116E+00
         25   -1    0    0    0    0  0.00000000000E+00  0.00000000000E+00  0.99999998245E-14  0.12500000000E+03  0.12500000000E+03 0.  0.
        -11    1    1    0    0    0  0.40056290282E+00 -0.15965488233E+01  0.10222173271E+01  0.19376138184E+01  0.51100000000E-03 0.  1.
         11    1    1    0    0    0 -0.42299602449E+02 -0.43084689679E+02  0.88345738852E+01  0.61021279470E+02  0.51100000000E-03 0. -1.
         22    1    1    0    0    0  0.41899039546E+02  0.44681238503E+02 -0.98567912123E+01  0.62041106712E+02  0.00000000000E+00 0. -1.
</event>
<event>
 4    1  0.1977762E-002  0.9118800E+02  0.7818608E-02  0.1130116E+00
         25   -1    0    0    0    0  0.00000000000E+00  0.00000000000E+00  0.99999998245E-14  0.12500000000E+03  0.12500000000E+03 0.  0.
        -11    1    1    0    0    0 -0.25739254110E+01 -0.88852841634E+01 -0.30332697426E+01  0.97351986256E+01  0.51100000000E-03 0. -1.
         11    1    1    0    0    0 -0.13883411907E+02 -0.48189465744E+02 -0.16405823685E+02  0.52764806319E+02  0.51100000000E-03 0.  1.
         22    1    1    0    0    0  0.16457337318E+02  0.57074749908E+02  0.19439093427E+02  0.62499995055E+02  0.00000000000E+00 0.  1.
</event>
<event>
 4    1  0.1977762E-002  0.9118800E+02  0.7818608E-02  0.1130116E+00
         25   -1    0    0    0    0  0.00000000000E+00  0.00000000000E+00  0.99999998245E-14  0.12500000000E+03  0.12500000000E+03 0.  0.
        -11    1    1    0    0    0 -0.15371085778E+02 -0.32203298434E+02 -0.44219251051E+02  0.56821341693E+02  0.51100000000E-03 0.  1.
         11    1    1    0    0    0 -0.15364347458E+01 -0.32180134328E+01 -0.44193798168E+01  0.56786583282E+01  0.51100000000E-03 0.  1.
         22    1    1    0    0    0  0.16907520524E+02  0.35421311866E+02  0.48638630868E+02  0.62499999979E+02  0.00000000000E+00 0.  1.
</event>
<event>
 4    1  0.1977762E-002  0.9118800E+02  0.7818608E-02  0.1130116E+00
         25   -1    0    0    0    0  0.00000000000E+00  0.00000000000E+00  0.99999998245E-14  0.12500000000E+03  0.12500000000E+03 0.  0.
        -11    1    1    0    0    0  0.25803077209E+02  0.44071811327E+02 -0.25301411294E+02  0.56993725627E+02  0.51100000000E-03 0.  1.
         11    1    1    0    0    0  0.30220177581E+01  0.24487527413E+01 -0.42904471835E+01  0.57911068556E+01  0.51100000000E-03 0. -1.
         22    1    1    0    0    0 -0.28825094967E+02 -0.46520564068E+02  0.29591858477E+02  0.62215167518E+02  0.00000000000E+00 0.  1.
</event>
<event>
 4    1  0.1977762E-002  0.9118800E+02  0.7818608E-02  0.1130116E+00
         25   -1    0    0    0    0  0.00000000000E+00  0.00000000000E+00  0.99999998245E-14  0.12500000000E+03  0.12500000000E+03 0.  0.
        -11    1    1    0    0    0  0.35763742151E+01  0.94661552413E+01  0.47991013596E+01  0.11199550067E+02  0.51100000000E-03 0. -1.
         11    1    1    0    0    0  0.72820178265E+01  0.41640456236E+02  0.29278798373E+02  0.51421818459E+02  0.51100000000E-03 0.  1.
         22    1    1    0    0    0 -0.10858392042E+02 -0.51106611477E+02 -0.34077899733E+02  0.62378631474E+02  0.00000000000E+00 0.  1.
</event>
<event>
 4    1  0.1977762E-002  0.9118800E+02  0.7818608E-02  0.1130116E+00
         25   -1    0    0    0    0  0.00000000000E+00  0.00000000000E+00  0.99999998245E-14  0.12500000000E+03  0.12500000000E+03 0.  0.
        -11    1    1    0    0    0  0.62910001647E+01  0.40167012404E+02  0.25953988209E+02  0.48234583784E+02  0.51100000000E-03 0.  1.
         11    1    1    0    0    0  0.32937806466E+01  0.13474980750E+02  0.41915534812E+01  0.14491142743E+02  0.51100000000E-03 0. -1.
         22    1    1    0    0    0 -0.95847808113E+01 -0.53641993154E+02 -0.30145541691E+02  0.62274273473E+02  0.00000000000E+00 0.  1.
</event>
<event>
 4    1  0.1977762E-002  0.9118800E+02  0.7818608E-02  0.1130116E+00
         25   -1    0    0    0    0  0.00000000000E+00  0.00000000000E+00  0.99999998245E-14  0.12500000000E+03  0.12500000000E+03 0.  0.
        -11    1    1    0    0    0  0.13334744927E+02 -0.16046790455E+02 -0.19885246196E+01  0.20958748450E+02  0.51100000000E-03 0. -1.
         11    1    1    0    0    0  0.26412498300E+02 -0.31818405718E+02 -0.39553361744E+01  0.41541252911E+02  0.51100000000E-03 0.  1.
         22    1    1    0    0    0 -0.39747243226E+02  0.47865196173E+02  0.59438607939E+01  0.62499998639E+02  0.00000000000E+00 0. -1.
</event>
<event>
 4    1  0.1977762E-002  0.9118800E+02  0.7818608E-02  0.1130116E+00
         25   -1    0    0    0    0  0.00000000000E+00  0.00000000000E+00  0.99999998245E-14  0.12500000000E+03  0.12500000000E+03 0.  0.
        -11    1    1    0    0    0 -0.79376313425E+01  0.24806954129E+02  0.21863995468E+02  0.34006253286E+02  0.51100000000E-03 0. -1.
         11    1    1    0    0    0 -0.66325483622E+01  0.20792966132E+02  0.18318175957E+02  0.28493748595E+02  0.51100000000E-03 0.  1.
         22    1    1    0    0    0  0.14570179705E+02 -0.45599920261E+02 -0.40182171425E+02  0.62499998119E+02  0.00000000000E+00 0. -1.
</event>
<event>
 4    1  0.1977762E-002  0.9118800E+02  0.7818608E-02  0.1130116E+00
         25   -1    0    0    0    0  0.00000000000E+00  0.00000000000E+00  0.99999998245E-14  0.12500000000E+03  0.12500000000E+03 0.  0.
        -11    1    1    0    0    0 -0.46796751661E+02  0.39377601196E+02 -0.11072806225E+01  0.61169906920E+02  0.51100000000E-03 0. -1.
         11    1    1    0    0    0 -0.14831010121E+01 -0.30553096079E+01 -0.15197583117E+00  0.33996473827E+01  0.51100000000E-03 0.  1.
         22    1    1    0    0    0  0.48279852673E+02 -0.36322291588E+02  0.12592564537E+01  0.60430445697E+02  0.00000000000E+00 0. -1.
</event>
<event>
 4    1  0.1977762E-002  0.9118800E+02  0.7818608E-02  0.1130116E+00
         25   -1    0    0    0    0  0.00000000000E+00  0.00000000000E+00  0.99999998245E-14  0.12500000000E+03  0.12500000000E+03 0.  0.
        -11    1    1    0    0    0  0.70762627625E+00  0.62174588468E+01 -0.22285922300E+02  0.23147783101E+02  0.51100000000E-03 0. -1.
         11    1    1    0    0    0  0.11984972411E+01  0.10584285347E+02 -0.37883156252E+02  0.39352217470E+02  0.51100000000E-03 0.  1.
         22    1    1    0    0    0 -0.19061235174E+01 -0.16801744193E+02  0.60169078552E+02  0.62499999429E+02  0.00000000000E+00 0.  1.
</event>
<event>
 4    1  0.1977762E-002  0.9118800E+02  0.7818608E-02  0.1130116E+00
         25   -1    0    0    0    0  0.00000000000E+00  0.00000000000E+00  0.99999998245E-14  0.12500000000E+03  0.12500000000E+03 0.  0.
        -11    1    1    0    0    0 -0.52519373911E+01 -0.17811408240E+02 -0.20856479382E+02  0.27925290371E+02  0.51100000000E-03 0. -1.
         11    1    1    0    0    0  0.80110468313E+01 -0.18183551490E+02 -0.29223833093E+02  0.35339083704E+02  0.51100000000E-03 0.  1.
         22    1    1    0    0    0 -0.27591094402E+01  0.35994959730E+02  0.50080312475E+02  0.61735625925E+02  0.00000000000E+00 0.  1.
</event>
<event>
 4    1  0.1977762E-002  0.9118800E+02  0.7818608E-02  0.1130116E+00
         25   -1    0    0    0    0  0.00000000000E+00  0.00000000000E+00  0.99999998245E-14  0.12500000000E+03  0.12500000000E+03 0.  0.
        -11    1    1    0    0    0 -0.10837035780E+02 -0.33583104532E+02  0.19879166564E+02  0.40502438421E+02  0.51100000000E-03 0.  1.
         11    1    1    0    0    0 -0.26527738495E+02  0.19339492520E+02  0.10292216701E+02  0.34404456186E+02  0.51100000000E-03 0. -1.
         22    1    1    0    0    0  0.37364774275E+02  0.14243612012E+02 -0.30171383265E+02  0.50093105393E+02  0.00000000000E+00 0. -1.
</event>
<event>
 4    1  0.1977762E-002  0.9118800E+02  0.7818608E-02  0.1130116E+00
         25   -1    0    0    0    0  0.00000000000E+00  0.00000000000E+00  0.99999998245E-14  0.12500000000E+03  0.12500000000E+03 0.  0.
        -11    1    1    0    0    0 -0.38835285405E+02  0.33815804556E+02 -0.29028816141E+02  0.59113113579E+02  0.51100000000E-03 0. -1.
         11    1    1    0    0    0 -0.22258401059E+01  0.19363908464E+01 -0.16634382111E+01  0.33868865689E+01  0.51100000000E-03 0.  1.
         22    1    1    0    0    0  0.41061125510E+02 -0.35752195403E+02  0.30692254352E+02  0.62499999852E+02  0.00000000000E+00 0. -1.
</event>
<event>
 4    1  0.1977762E-002  0.9118800E+02  0.7818608E-02  0.1130116E+00
         25   -1    0    0    0    0  0.00000000000E+00  0.00000000000E+00  0.99999998245E-14  0.12500000000E+03  0.12500000000E+03 0.  0.
        -11    1    1    0    0    0  0.49616531336E+01  0.44669259660E+01 -0.49908540004E+00  0.66948126114E+01  0.51100000000E-03 0.  1.
         11    1    1    0    0    0  0.41468188022E+02  0.37173614422E+02 -0.35707375045E+01  0.55805361693E+02  0.51100000000E-03 0. -1.
         22    1    1    0    0    0 -0.46429841156E+02 -0.41640540388E+02  0.40698229045E+01  0.62499825696E+02  0.00000000000E+00 0. -1.
</event>
<event>
 4    1  0.1977762E-002  0.9118800E+02  0.7818608E-02  0.1130116E+00
         25   -1    0    0    0    0  0.00000000000E+00  0.00000000000E+00  0.99999998245E-14  0.12500000000E+03  0.12500000000E+03 0.  0.
        -11    1    1    0    0    0 -0.36467826449E+01  0.16885435940E+02 -0.48389458754E+02  0.51380508847E+02  0.51100000000E-03 0. -1.
         11    1    1    0    0    0 -0.80409503577E+00  0.37589083604E+01 -0.10434189420E+02  0.11119724367E+02  0.51100000000E-03 0.  1.
         22    1    1    0    0    0  0.44508776807E+01 -0.20644344300E+02  0.58823648175E+02  0.62499766786E+02  0.00000000000E+00 0. -1.
</event>
<event>
 4    1  0.1977762E-002  0.9118800E+02  0.7818608E-02  0.1130116E+00
         25   -1    0    0    0    0  0.00000000000E+00  0.00000000000E+00  0.99999998245E-14  0.12500000000E+03  0.12500000000E+03 0.  0.
        -11    1    1    0    0    0 -0.90623882660E+01 -0.10190136203E+02  0.14721528225E+02  0.20067116147E+02  0.51100000000E-03 0. -1.
         11    1    1    0    0    0  0.14055487979E+02  0.41906821736E+02 -0.43353587258E+02  0.61913423252E+02  0.51100000000E-03 0.  1.
         22    1    1    0    0    0 -0.49930997128E+01 -0.31716685533E+02  0.28632059034E+02  0.43019460602E+02  0.00000000000E+00 0.  1.
</event>
<event>
 4    1  0.1977762E-002  0.9118800E+02  0.7818608E-02  0.1130116E+00
         25   -1    0    0    0    0  0.00000000000E+00  0.00000000000E+00  0.99999998245E-14  0.12500000000E+03  0.12500000000E+03 0.  0.
        -11    1    1    0    0    0  0.35769247666E+02 -0.26746299135E+02 -0.28370748271E+02  0.52912219323E+02  0.51100000000E-03 0.  1.
         11    1    1    0    0    0  0.64829210956E+01 -0.48457546014E+01 -0.51396436003E+01  0.95877807749E+01  0.51100000000E-03 0.  1.
         22    1    1    0    0    0 -0.42252168762E+02  0.31592053736E+02  0.33510391871E+02  0.62499999902E+02  0.00000000000E+00 0.  1.
</event>
<event>
 4    1  0.1977762E-002  0.9118800E+02  0.7818608E-02  0.1130116E+00
         25   -1    0    0    0    0  0.00000000000E+00  0.00000000000E+00  0.99999998245E-14  0.12500000000E+03  0.12500000000E+03 0.  0.
        -11    1    1    0    0    0 -0.17233321881E+01  0.97868085175E+01  0.20715454234E+02  0.22975672768E+02  0.51100000000E-03 0. -1.
         11    1    1    0    0    0 -0.29156876696E+01  0.16825449395E+02  0.35645139024E+02  0.39524333242E+02  0.51100000000E-03 0.  1.
         22    1    1    0    0    0  0.46390198577E+01 -0.26612257913E+02 -0.56360593257E+02  0.62499993990E+02  0.00000000000E+00 0.  1.
</event>
<event>
 4    1  0.1977762E-002  0.9118800E+02  0.7818608E-02  0.1130116E+00
         25   -1    0    0    0    0  0.00000000000E+00  0.00000000000E+00  0.99999998245E-14  0.12500000000E+03  0.12500000000E+03 0.  0.
        -11    1    1    0    0    0 -0.19802412389E+02  0.17494504519E+02 -0.14956518331E+01  0.26465641867E+02  0.51100000000E-03 0.  1.
         11    1    1    0    0    0 -0.23408229738E+02  0.27247935537E+02 -0.37213199177E+01  0.36114310636E+02  0.51100000000E-03 0. -1.
         22    1    1    0    0    0  0.43210642127E+02 -0.44742440057E+02  0.52169717508E+01  0.62420047497E+02  0.00000000000E+00 0. -1.
</event>
<event>
 4    1  0.1977762E-002  0.9118800E+02  0.7818608E-02  0.1130116E+00
         25   -1    0    0    0    0  0.00000000000E+00  0.00000000000E+00  0.99999998245E-14  0.12500000000E+03  0.12500000000E+03 0.  0.
        -11    1    1    0    0    0 -0.31436487633E+00 -0.91292000854E+01 -0.49796072970E+01  0.10403730512E+02  0.51100000000E-03 0.  1.
         11    1    1    0    0    0  0.21388099654E+00 -0.44955565649E+02 -0.26333427289E+02  0.52100844724E+02  0.51100000000E-03 0. -1.
         22    1    1    0    0    0  0.10048387979E+00  0.54084765734E+02  0.31313034586E+02  0.62495424764E+02  0.00000000000E+00 0. -1.
</event>
<event>
 4    1  0.1977762E-002  0.9118800E+02  0.7818608E-02  0.1130116E+00
         25   -1    0    0    0    0  0.00000000000E+00  0.00000000000E+00  0.99999998245E-14  0.12500000000E+03  0.12500000000E+03 0.  0.
        -11    1    1    0    0    0 -0.63797856996E+01 -0.52116752228E+02 -0.16281433521E-01  0.52505788192E+02  0.51100000000E-03 0.  1.
         11    1    1    0    0    0  0.77172361726E+01 -0.86762486840E+01 -0.12059628671E+01  0.11674218264E+02  0.51100000000E-03 0. -1.
         22    1    1    0    0    0 -0.13374504730E+01  0.60793000912E+02  0.12222443006E+01  0.60819993544E+02  0.00000000000E+00 0.  1.
</event>
<event>
 4    1  0.1977762E-002  0.9118800E+02  0.7818608E-02  0.1130116E+00
         25   -1    0    0    0    0  0.00000000000E+00  0.00000000000E+00  0.99999998245E-14  0.12500000000E+03  0.12500000000E+03 0.  0.
        -11    1    1    0    0    0  0.13245182960E+01  0.87820710136E+01 -0.26099710724E+02  0.27569439968E+02  0.51100000000E-03 0.  1.
         11    1    1    0    0    0  0.33371113516E+01  0.12728001416E+02 -0.32377209679E+02  0.34948848895E+02  0.51100000000E-03 0. -1.
         22    1    1    0    0    0 -0.46616296477E+01 -0.21510072430E+02  0.58476920403E+02  0.62481711138E+02  0.00000000000E+00 0. -1.
</event>
<event>
 4    1  0.1977762E-002  0.9118800E+02  0.7818608E-02  0.1130116E+00
         25   -1    0    0    0    0  0.00000000000E+00  0.00000000000E+00  0.99999998245E-14  0.12500000000E+03  0.12500000000E+03 0.  0.
        -11    1    1    0    0    0 -0.91661307767E+01  0.18469673583E+02  0.98769116357E+01  0.22862637193E+02  0.51100000000E-03 0. -1.
         11    1    1    0    0    0 -0.15888616054E+02  0.32026412642E+02  0.17116697088E+02  0.39637363009E+02  0.51100000000E-03 0.  1.
         22    1    1    0    0    0  0.25054746831E+02 -0.50496086226E+02 -0.26993608723E+02  0.62499999798E+02  0.00000000000E+00 0. -1.
</event>
<event>
 4    1  0.1977762E-002  0.9118800E+02  0.7818608E-02  0.1130116E+00
         25   -1    0    0    0    0  0.00000000000E+00  0.00000000000E+00  0.99999998245E-14  0.12500000000E+03  0.12500000000E+03 0.  0.
        -11    1    1    0    0    0 -0.26975483988E+02  0.63676227699E+01  0.43016175572E+02  0.51172401910E+02  0.51100000000E-03 0.  1.
         11    1    1    0    0    0 -0.59691402210E+01  0.14121354011E+01  0.95231151489E+01  0.11327598323E+02  0.51100000000E-03 0. -1.
         22    1    1    0    0    0  0.32944624209E+02 -0.77797581710E+01 -0.52539290721E+02  0.62499999767E+02  0.00000000000E+00 0.  1.
</event>
<event>
 4    1  0.1977762E-002  0.9118800E+02  0.7818608E-02  0.1130116E+00
         25   -1    0    0    0    0  0.00000000000E+00  0.00000000000E+00  0.99999998245E-14  0.12500000000E+03  0.12500000000E+03 0.  0.
        -11    1    1    0    0    0  0.72440241168E+01 -0.13674887297E+02 -0.28071486423E+01  0.15727635288E+02  0.51100000000E-03 0. -1.
         11    1    1    0    0    0  0.21228739428E+02 -0.40696449334E+02 -0.89921321224E+01  0.46773056416E+02  0.51100000000E-03 0.  1.
         22    1    1    0    0    0 -0.28472763545E+02  0.54371336631E+02  0.11799280765E+02  0.62499308296E+02  0.00000000000E+00 0.  1.
</event>
<event>
 4    1  0.1977762E-002  0.9118800E+02  0.7818608E-02  0.1130116E+00
         25   -1    0    0    0    0  0.00000000000E+00  0.00000000000E+00  0.99999998245E-14  0.12500000000E+03  0.12500000000E+03 0.  0.
        -11    1    1    0    0    0 -0.31212012162E+01  0.20888280933E+02  0.26196633927E+02  0.33650049135E+02  0.51100000000E-03 0. -1.
         11    1    1    0    0    0 -0.26501316168E+01  0.17905767549E+02  0.22465087255E+02  0.28849954155E+02  0.51100000000E-03 0.  1.
         22    1    1    0    0    0  0.57713328331E+01 -0.38794048483E+02 -0.48661721182E+02  0.62499996710E+02  0.00000000000E+00 0.  1.
</event>
<event>
 4    1  0.1977762E-002  0.9118800E+02  0.7818608E-02  0.1130116E+00
         25   -1    0    0    0    0  0.00000000000E+00  0.00000000000E+00  0.99999998245E-14  0.12500000000E+03  0.12500000000E+03 0.  0.
        -11    1    1    0    0    0 -0.14849989978E+00 -0.23441567156E+01  0.10375108967E+01  0.25677912784E+01  0.51100000000E-03 0.  1.
         11    1    1    0    0    0  0.31804059571E+02 -0.51055226004E+02 -0.40057906819E+01  0.60284165970E+02  0.51100000000E-03 0. -1.
         22    1    1    0    0    0 -0.31655559671E+02  0.53399382720E+02  0.29682797852E+01  0.62148042751E+02  0.00000000000E+00 0. -1.
</event>
<event>
 4    1  0.1977762E-002  0.9118800E+02  0.7818608E-02  0.1130116E+00
         25   -1    0    0    0    0  0.00000000000E+00  0.00000000000E+00  0.99999998245E-14  0.12500000000E+03  0.12500000000E+03 0.  0.
        -11    1    1    0    0    0 -0.22901822755E+02  0.20883026758E+02 -0.45151575568E+02  0.54765491586E+02  0.51100000000E-03 0.  1.
         11    1    1    0    0    0 -0.28509443398E+01  0.32679572256E+01 -0.64128547217E+01  0.77415847215E+01  0.51100000000E-03 0. -1.
         22    1    1    0    0    0  0.25752767095E+02 -0.24150983984E+02  0.51564430290E+02  0.62492923692E+02  0.00000000000E+00 0.  1.
</event>
<event>
 4    1  0.1977762E-002  0.9118800E+02  0.7818608E-02  0.1130116E+00
         25   -1    0    0    0    0  0.00000000000E+00  0.00000000000E+00  0.99999998245E-14  0.12500000000E+03  0.12500000000E+03 0.  0.
        -11    1    1    0    0    0  0.33243854655E+02 -0.18525494759E+02  0.86631280768E+01  0.39030726572E+02  0.51100000000E-03 0. -1.
         11    1    1    0    0    0  0.20020486599E+02 -0.11091941305E+02  0.51919980065E+01  0.23469296733E+02  0.51100000000E-03 0.  1.
         22    1    1    0    0    0 -0.53264341253E+02  0.29617436064E+02 -0.13855126083E+02  0.62499976696E+02  0.00000000000E+00 0.  1.
</event>
<event>
 4    1  0.1977762E-002  0.9118800E+02  0.7818608E-02  0.1130116E+00
         25   -1    0    0    0    0  0.00000000000E+00  0.00000000000E+00  0.99999998245E-14  0.12500000000E+03  0.12500000000E+03 0.  0.
        -11    1    1    0    0    0 -0.45605257597E+02  0.10485615134E+02  0.30777375644E+02  0.56009235818E+02  0.51100000000E-03 0.  1.
         11    1    1    0    0    0 -0.52855328103E+01  0.12147886671E+01  0.35661535640E+01  0.64907642153E+01  0.51100000000E-03 0. -1.
         22    1    1    0    0    0  0.50890790407E+02 -0.11700403802E+02 -0.34343529208E+02  0.62499999966E+02  0.00000000000E+00 0.  1.
</event>
<event>
 4    1  0.1977762E-002  0.9118800E+02  0.7818608E-02  0.1130116E+00
         25   -1    0    0    0    0  0.00000000000E+00  0.00000000000E+00  0.99999998245E-14  0.12500000000E+03  0.12500000000E+03 0.  0.
        -11    1    1    0    0    0  0.55083563574E+01  0.84758870770E+01  0.11254409668E+01  0.10171001383E+02  0.51100000000E-03 0. -1.
         11    1    1    0    0    0  0.28319248332E+02  0.43621811246E+02  0.57863552277E+01  0.52328999127E+02  0.51100000000E-03 0.  1.
         22    1    1    0    0    0 -0.33827604690E+02 -0.52097698323E+02 -0.69117961945E+01  0.62499999490E+02  0.00000000000E+00 0.  1.
</event>
<event>
 4    1  0.1977762E-002  0.9118800E+02  0.7818608E-02  0.1130116E+00
         25   -1    0    0    0    0  0.00000000000E+00  0.00000000000E+00  0.99999998245E-14  0.12500000000E+03  0.12500000000E+03 0.  0.
        -11    1    1    0    0    0  0.17867191057E+02 -0.12942171136E+02 -0.22656601806E+02  0.31623692315E+02  0.51100000000E-03 0.  1.
         11    1    1    0    0    0  0.17445931228E+02 -0.12636453512E+02 -0.22120260011E+02  0.30876307697E+02  0.51100000000E-03 0. -1.
         22    1    1    0    0    0 -0.35313122285E+02  0.25578624648E+02  0.44776861817E+02  0.62499999988E+02  0.00000000000E+00 0.  1.
</event>
<event>
 4    1  0.1977762E-002  0.9118800E+02  0.7818608E-02  0.1130116E+00
         25   -1    0    0    0    0  0.00000000000E+00  0.00000000000E+00  0.99999998245E-14  0.12500000000E+03  0.12500000000E+03 0.  0.
        -11    1    1    0    0    0 -0.17482528242E+00  0.19957322079E+00 -0.88090348183E-01  0.27955951136E+00  0.51100000000E-03 0.  1.
         11    1    1    0    0    0 -0.38756609866E+02  0.44251862618E+02 -0.20275162302E+02  0.62220449694E+02  0.51100000000E-03 0. -1.
         22    1    1    0    0    0  0.38931435149E+02 -0.44451435839E+02  0.20363252650E+02  0.62499990795E+02  0.00000000000E+00 0. -1.
</event>
<event>
 4    1  0.1977762E-002  0.9118800E+02  0.7818608E-02  0.1130116E+00
         25   -1    0    0    0    0  0.00000000000E+00  0.00000000000E+00  0.99999998245E-14  0.12500000000E+03  0.12500000000E+03 0.  0.
        -11    1    1    0    0    0 -0.23754083461E+02 -0.51941956491E+01 -0.57338948454E+01  0.24982267708E+02  0.51100000000E-03 0.  1.
         11    1    1    0    0    0 -0.12586844378E+02 -0.39839499167E+02  0.55651778040E+01  0.42149561676E+02  0.51100000000E-03 0. -1.
         22    1    1    0    0    0  0.36340927839E+02  0.45033694816E+02  0.16871704135E+00  0.57868170615E+02  0.00000000000E+00 0. -1.
</event>
<event>
 4    1  0.1977762E-002  0.9118800E+02  0.7818608E-02  0.1130116E+00
         25   -1    0    0    0    0  0.00000000000E+00  0.00000000000E+00  0.99999998245E-14  0.12500000000E+03  0.12500000000E+03 0.  0.
        -11    1    1    0    0    0  0.21408861120E+01  0.42422155808E+01  0.25262103667E+01  0.53815913498E+01  0.51100000000E-03 0. -1.
         11    1    1    0    0    0  0.86633401551E+01  0.39579855432E+02  0.40481456942E+02  0.57274486249E+02  0.51100000000E-03 0.  1.
         22    1    1    0    0    0 -0.10804226267E+02 -0.43822071013E+02 -0.43007667309E+02  0.62343922401E+02  0.00000000000E+00 0.  1.
</event>
<event>
 4    1  0.1977762E-002  0.9118800E+02  0.7818608E-02  0.1130116E+00
         25   -1    0    0    0    0  0.00000000000E+00  0.00000000000E+00  0.99999998245E-14  0.12500000000E+03  0.12500000000E+03 0.  0.
        -11    1    1    0    0    0 -0.86534895176E+01 -0.85353180007E+01  0.13438874610E+00  0.12155352516E+02  0.51100000000E-03 0. -1.
         11    1    1    0    0    0 -0.38643749200E+02 -0.31698512941E+02  0.64744214542E+01  0.50398940547E+02  0.51100000000E-03 0.  1.
         22    1    1    0    0    0  0.47297238717E+02  0.40233830941E+02 -0.66088102003E+01  0.62445706936E+02  0.00000000000E+00 0.  1.
</event>
<event>
 4    1  0.1977762E-002  0.9118800E+02  0.7818608E-02  0.1130116E+00
         25   -1    0    0    0    0  0.00000000000E+00  0.00000000000E+00  0.99999998245E-14  0.12500000000E+03  0.12500000000E+03 0.  0.
        -11    1    1    0    0    0  0.42654885262E+02  0.20083699497E+02  0.31947944655E+01  0.47254639287E+02  0.51100000000E-03 0.  1.
         11    1    1    0    0    0  0.13851150236E+02  0.62943182524E+01  0.98239572757E+00  0.15245914428E+02  0.51100000000E-03 0. -1.
         22    1    1    0    0    0 -0.56506035498E+02 -0.26378017749E+02 -0.41771901931E+01  0.62499446285E+02  0.00000000000E+00 0.  1.
</event>
<event>
 4    1  0.1977762E-002  0.9118800E+02  0.7818608E-02  0.1130116E+00
         25   -1    0    0    0    0  0.00000000000E+00  0.00000000000E+00  0.99999998245E-14  0.12500000000E+03  0.12500000000E+03 0.  0.
        -11    1    1    0    0    0  0.40573357569E+02  0.87993727528E+01  0.26260512023E+02  0.49124747299E+02  0.51100000000E-03 0.  1.
         11    1    1    0    0    0  0.11047280456E+02  0.23956348236E+01  0.71495393672E+01  0.13375252712E+02  0.51100000000E-03 0. -1.
         22    1    1    0    0    0 -0.51620638025E+02 -0.11195007576E+02 -0.33410051390E+02  0.62499999989E+02  0.00000000000E+00 0.  1.
</event>
<event>
 4    1  0.1977762E-002  0.9118800E+02  0.7818608E-02  0.1130116E+00
         25   -1    0    0    0    0  0.00000000000E+00  0.00000000000E+00  0.99999998245E-14  0.12500000000E+03  0.12500000000E+03 0.  0.
        -11    1    1    0    0    0 -0.26795177451E+02 -0.10211779303E+02  0.64221239384E+01  0.29385466600E+02  0.51100000000E-03 0. -1.
         11    1    1    0    0    0 -0.28746489684E+02 -0.16065963996E+02  0.44015856845E+01  0.33224235508E+02  0.51100000000E-03 0.  1.
         22    1    1    0    0    0  0.55541667136E+02  0.26277743298E+02 -0.10823709623E+02  0.62390297892E+02  0.00000000000E+00 0.  1.
</event>
<event>
 4    1  0.1977762E-002  0.9118800E+02  0.7818608E-02  0.1130116E+00
         25   -1    0    0    0    0  0.00000000000E+00  0.00000000000E+00  0.99999998245E-14  0.12500000000E+03  0.12500000000E+03 0.  0.
        -11    1    1    0    0    0 -0.18608158197E+01 -0.45360755940E+01 -0.67912440112E+01  0.83761335227E+01  0.51100000000E-03 0.  1.
         11    1    1    0    0    0 -0.11972088507E+02 -0.29254567295E+02 -0.43934415689E+02  0.54123871749E+02  0.51100000000E-03 0. -1.
         22    1    1    0    0    0  0.13832904326E+02  0.33790642889E+02  0.50725659701E+02  0.62499994728E+02  0.00000000000E+00 0. -1.
</event>
<event>
 4    1  0.1977762E-002  0.9118800E+02  0.7818608E-02  0.1130116E+00
         25   -1    0    0    0    0  0.00000000000E+00  0.00000000000E+00  0.99999998245E-14  0.12500000000E+03  0.12500000000E+03 0.  0.
        -11    1    1    0    0    0 -0.26757320189E+02 -0.69542226089E+01 -0.35086175085E+02  0.44669397557E+02  0.51100000000E-03 0. -1.
         11    1    1    0    0    0 -0.90709433053E+01 -0.16595872009E+00 -0.15484563003E+02  0.17946622144E+02  0.51100000000E-03 0.  1.
         22    1    1    0    0    0  0.35828263495E+02  0.71201813290E+01  0.50570738087E+02  0.62383980298E+02  0.00000000000E+00 0. -1.
</event>
<event>
 4    1  0.1977762E-002  0.9118800E+02  0.7818608E-02  0.1130116E+00
         25   -1    0    0    0    0  0.00000000000E+00  0.00000000000E+00  0.99999998245E-14  0.12500000000E+03  0.12500000000E+03 0.  0.
        -11    1    1    0    0    0  0.20252495979E+02  0.86176634731E+01  0.14187170682E+02  0.26185941445E+02  0.51100000000E-03 0. -1.
         11    1    1    0    0    0  0.28085611065E+02  0.11951047398E+02  0.19674393664E+02  0.36314058560E+02  0.51100000000E-03 0. -1.
         22    1    1    0    0    0 -0.48338107044E+02 -0.20568710872E+02 -0.33861564345E+02  0.62499999995E+02  0.00000000000E+00 0. -1.
</event>
<event>
 4    1  0.1977762E-002  0.9118800E+02  0.7818608E-02  0.1130116E+00
         25   -1    0    0    0    0  0.00000000000E+00  0.00000000000E+00  0.99999998245E-14  0.12500000000E+03  0.12500000000E+03 0.  0.
        -11    1    1    0    0    0 -0.12021141639E+02  0.65393629247E+01  0.11437422655E+02  0.17834958677E+02  0.51100000000E-03 0. -1.
         11    1    1    0    0    0 -0.29121686125E+02  0.18455983637E+02  0.28408320892E+02  0.44673578667E+02  0.51100000000E-03 0.  1.
         22    1    1    0    0    0  0.41142827763E+02 -0.24995346562E+02 -0.39845743547E+02  0.62491462656E+02  0.00000000000E+00 0.  1.
</event>
<event>
 4    1  0.1977762E-002  0.9118800E+02  0.7818608E-02  0.1130116E+00
         25   -1    0    0    0    0  0.00000000000E+00  0.00000000000E+00  0.99999998245E-14  0.12500000000E+03  0.12500000000E+03 0.  0.
        -11    1    1    0    0    0  0.15945402734E+00  0.75396428351E+00  0.63304229109E+00  0.99731165193E+00  0.51100000000E-03 0. -1.
         11    1    1    0    0    0 -0.63989973031E+01  0.60999667953E+02  0.57702339674E+01  0.61605212906E+02  0.51100000000E-03 0.  1.
         22    1    1    0    0    0  0.62395432758E+01 -0.61753632237E+02 -0.64032762585E+01  0.62397475442E+02  0.00000000000E+00 0.  1.
</event>
<event>
 4    1  0.1977762E-002  0.9118800E+02  0.7818608E-02  0.1130116E+00
         25   -1    0    0    0    0  0.00000000000E+00  0.00000000000E+00  0.99999998245E-14  0.12500000000E+03  0.12500000000E+03 0.  0.
        -11    1    1    0    0    0  0.34565660887E+02 -0.55524000850E+01  0.15301393074E+02  0.38206631487E+02  0.51100000000E-03 0. -1.
         11    1    1    0    0    0  0.21978532237E+02 -0.35317936940E+01  0.97282222721E+01  0.24293368536E+02  0.51100000000E-03 0.  1.
         22    1    1    0    0    0 -0.56544193125E+02  0.90841937790E+01 -0.25029615346E+02  0.62499999977E+02  0.00000000000E+00 0.  1.
</event>
<event>
 4    1  0.1977762E-002  0.9118800E+02  0.7818608E-02  0.1130116E+00
         25   -1    0    0    0    0  0.00000000000E+00  0.00000000000E+00  0.99999998245E-14  0.12500000000E+03  0.12500000000E+03 0.  0.
        -11    1    1    0    0    0  0.15123170477E+01  0.92205311357E+01 -0.55457188025E+02  0.56238821122E+02  0.51100000000E-03 0. -1.
         11    1    1    0    0    0  0.17101359233E+00  0.10286564309E+01 -0.61737335846E+01  0.62611793087E+01  0.51100000000E-03 0.  1.
         22    1    1    0    0    0 -0.16833306400E+01 -0.10249187567E+02  0.61630921609E+02  0.62499999570E+02  0.00000000000E+00 0. -1.
</event>
<event>
 4    1  0.1977762E-002  0.9118800E+02  0.7818608E-02  0.1130116E+00
         25   -1    0    0    0    0  0.00000000000E+00  0.00000000000E+00  0.99999998245E-14  0.12500000000E+03  0.12500000000E+03 0.  0.
        -11    1    1    0    0    0 -0.98645584771E+00  0.47963171441E+02  0.33668677302E+02  0.58609032933E+02  0.51100000000E-03 0.  1.
         11    1    1    0    0    0 -0.77866556558E-01  0.31843883483E+01  0.22345702669E+01  0.38909763418E+01  0.51100000000E-03 0. -1.
         22    1    1    0    0    0  0.10643224043E+01 -0.51147559790E+02 -0.35903247569E+02  0.62499990725E+02  0.00000000000E+00 0.  1.
</event>
<event>
 4    1  0.1977762E-002  0.9118800E+02  0.7818608E-02  0.1130116E+00
         25   -1    0    0    0    0  0.00000000000E+00  0.00000000000E+00  0.99999998245E-14  0.12500000000E+03  0.12500000000E+03 0.  0.
        -11    1    1    0    0    0 -0.23532700498E+01 -0.24112358677E+01 -0.37019650298E+01  0.50056451812E+01  0.51100000000E-03 0. -1.
         11    1    1    0    0    0 -0.26837816814E+02 -0.27626434026E+02 -0.42686242867E+02  0.57494378844E+02  0.51100000000E-03 0.  1.
         22    1    1    0    0    0  0.29191086863E+02  0.30037669894E+02  0.46388207897E+02  0.62499975974E+02  0.00000000000E+00 0.  1.
</event>
<event>
 4    1  0.1977762E-002  0.9118800E+02  0.7818608E-02  0.1130116E+00
         25   -1    0    0    0    0  0.00000000000E+00  0.00000000000E+00  0.99999998245E-14  0.12500000000E+03  0.12500000000E+03 0.  0.
        -11    1    1    0    0    0 -0.71326067520E+01 -0.28322774034E+02 -0.45999229503E+02  0.54488372367E+02  0.51100000000E-03 0. -1.
         11    1    1    0    0    0 -0.10437012829E+01 -0.41591933816E+01 -0.67674223347E+01  0.80116295016E+01  0.51100000000E-03 0.  1.
         22    1    1    0    0    0  0.81763080349E+01  0.32481967416E+02  0.52766651837E+02  0.62499998131E+02  0.00000000000E+00 0. -1.
</event>
<event>
 4    1  0.1977762E-002  0.9118800E+02  0.7818608E-02  0.1130116E+00
         25   -1    0    0    0    0  0.00000000000E+00  0.00000000000E+00  0.99999998245E-14  0.12500000000E+03  0.12500000000E+03 0.  0.
        -11    1    1    0    0    0 -0.16214316774E+02  0.37462335790E+02  0.93234463373E+01  0.41871915686E+02  0.51100000000E-03 0.  1.
         11    1    1    0    0    0 -0.82334859908E+01  0.18350147249E+02  0.45851519779E+01  0.20628664876E+02  0.51100000000E-03 0. -1.
         22    1    1    0    0    0  0.24447802765E+02 -0.55812483040E+02 -0.13908598315E+02  0.62499419439E+02  0.00000000000E+00 0.  1.
</event>
<event>
 4    1  0.1977762E-002  0.9118800E+02  0.7818608E-02  0.1130116E+00
         25   -1    0    0    0    0  0.00000000000E+00  0.00000000000E+00  0.99999998245E-14  0.12500000000E+03  0.12500000000E+03 0.  0.
        -11    1    1    0    0    0  0.75907621880E+01 -0.32339999164E+01 -0.22174022208E+02  0.23659367853E+02  0.51100000000E-03 0.  1.
         11    1    1    0    0    0  0.12459909264E+02 -0.53063170581E+01 -0.36403136791E+02  0.38840632179E+02  0.51100000000E-03 0. -1.
         22    1    1    0    0    0 -0.20050671452E+02  0.85403169745E+01  0.58577158999E+02  0.62499999968E+02  0.00000000000E+00 0. -1.
</event>
<event>
 4    1  0.1977762E-002  0.9118800E+02  0.7818608E-02  0.1130116E+00
         25   -1    0    0    0    0  0.00000000000E+00  0.00000000000E+00  0.99999998245E-14  0.12500000000E+03  0.12500000000E+03 0.  0.
        -11    1    1    0    0    0  0.70042229463E+01  0.26274695279E+02 -0.62681013546E+01  0.27905337231E+02  0.51100000000E-03 0. -1.
         11    1    1    0    0    0  0.86832577734E+01  0.32572992052E+02 -0.77712235481E+01  0.34594662775E+02  0.51100000000E-03 0.  1.
         22    1    1    0    0    0 -0.15687480720E+02 -0.58847687332E+02  0.14039324903E+02  0.62499999995E+02  0.00000000000E+00 0.  1.
</event>
<event>
 4    1  0.1977762E-002  0.9118800E+02  0.7818608E-02  0.1130116E+00
         25   -1    0    0    0    0  0.00000000000E+00  0.00000000000E+00  0.99999998245E-14  0.12500000000E+03  0.12500000000E+03 0.  0.
        -11    1    1    0    0    0  0.33216533982E+01 -0.91054783281E+01  0.41818560163E+02  0.42927090412E+02  0.51100000000E-03 0. -1.
         11    1    1    0    0    0  0.36034993936E+00 -0.44993308431E+01  0.19058438309E+02  0.19585655495E+02  0.51100000000E-03 0.  1.
         22    1    1    0    0    0 -0.36820033376E+01  0.13604809171E+02 -0.60876998472E+02  0.62487254093E+02  0.00000000000E+00 0. -1.
</event>
<event>
 4    1  0.1977762E-002  0.9118800E+02  0.7818608E-02  0.1130116E+00
         25   -1    0    0    0    0  0.00000000000E+00  0.00000000000E+00  0.99999998245E-14  0.12500000000E+03  0.12500000000E+03 0.  0.
        -11    1    1    0    0    0 -0.18613947870E+02 -0.93037558091E+01 -0.29364698395E+02  0.35990615993E+02  0.51100000000E-03 0.  1.
         11    1    1    0    0    0 -0.13480840714E+02 -0.68841278384E+01 -0.21763359297E+02  0.26509773492E+02  0.51100000000E-03 0. -1.
         22    1    1    0    0    0  0.32094788584E+02  0.16187883648E+02  0.51128057691E+02  0.62499610515E+02  0.00000000000E+00 0. -1.
</event>
<event>
 4    1  0.1977762E-002  0.9118800E+02  0.7818608E-02  0.1130116E+00
         25   -1    0    0    0    0  0.00000000000E+00  0.00000000000E+00  0.99999998245E-14  0.12500000000E+03  0.12500000000E+03 0.  0.
        -11    1    1    0    0    0 -0.93246371401E+00 -0.99258833255E+00 -0.55323707808E-02  0.13618924495E+01  0.51100000000E-03 0.  1.
         11    1    1    0    0    0 -0.50871701268E+02 -0.33932712115E+02  0.79785779819E+00  0.61155502768E+02  0.51100000000E-03 0. -1.
         22    1    1    0    0    0  0.51804164982E+02  0.34925300448E+02 -0.79232542741E+00  0.62482604783E+02  0.00000000000E+00 0. -1.
</event>
<event>
 4    1  0.1977762E-002  0.9118800E+02  0.7818608E-02  0.1130116E+00
         25   -1    0    0    0    0  0.00000000000E+00  0.00000000000E+00  0.99999998245E-14  0.12500000000E+03  0.12500000000E+03 0.  0.
        -11    1    1    0    0    0 -0.30583411178E+00 -0.62049104026E+01  0.64292581750E+01  0.89403472276E+01  0.51100000000E-03 0.  1.
         11    1    1    0    0    0  0.23989834303E+01 -0.31382746517E+02  0.43398031467E+02  0.53609896809E+02  0.51100000000E-03 0. -1.
         22    1    1    0    0    0 -0.20931493185E+01  0.37587656920E+02 -0.49827289642E+02  0.62449755963E+02  0.00000000000E+00 0. -1.
</event>
<event>
 4    1  0.1977762E-002  0.9118800E+02  0.7818608E-02  0.1130116E+00
         25   -1    0    0    0    0  0.00000000000E+00  0.00000000000E+00  0.99999998245E-14  0.12500000000E+03  0.12500000000E+03 0.  0.
        -11    1    1    0    0    0 -0.34470855423E+01  0.52044040714E+01  0.33103687676E+01  0.70658872135E+01  0.51100000000E-03 0. -1.
         11    1    1    0    0    0 -0.27041644314E+02  0.40827719075E+02  0.25976675917E+02  0.55434112819E+02  0.51100000000E-03 0. -1.
         22    1    1    0    0    0  0.30488729857E+02 -0.46032123146E+02 -0.29287044684E+02  0.62499999968E+02  0.00000000000E+00 0. -1.
</event>
<event>
 4    1  0.1977762E-002  0.9118800E+02  0.7818608E-02  0.1130116E+00
         25   -1    0    0    0    0  0.00000000000E+00  0.00000000000E+00  0.99999998245E-14  0.12500000000E+03  0.12500000000E+03 0.  0.
        -11    1    1    0    0    0 -0.36928687907E+02 -0.25899651538E+02  0.21338246654E+02  0.49898303687E+02  0.51100000000E-03 0. -1.
         11    1    1    0    0    0  0.43211897830E+01 -0.17267459438E+02 -0.35224335398E+01  0.18145119864E+02  0.51100000000E-03 0.  1.
         22    1    1    0    0    0  0.32607498124E+02  0.43167110975E+02 -0.17815813114E+02  0.56956576449E+02  0.00000000000E+00 0. -1.
</event>
<event>
 4    1  0.1977762E-002  0.9118800E+02  0.7818608E-02  0.1130116E+00
         25   -1    0    0    0    0  0.00000000000E+00  0.00000000000E+00  0.99999998245E-14  0.12500000000E+03  0.12500000000E+03 0.  0.
        -11    1    1    0    0    0  0.51183728162E+01 -0.25186896038E+02  0.21217668354E+02  0.33328170111E+02  0.51100000000E-03 0.  1.
         11    1    1    0    0    0  0.17993901409E+02 -0.25043489914E+02  0.36342216028E+01  0.31050997438E+02  0.51100000000E-03 0. -1.
         22    1    1    0    0    0 -0.23112274225E+02  0.50230385951E+02 -0.24851889957E+02  0.60620832451E+02  0.00000000000E+00 0.  1.
</event>
<event>
 4    1  0.1977762E-002  0.9118800E+02  0.7818608E-02  0.1130116E+00
         25   -1    0    0    0    0  0.00000000000E+00  0.00000000000E+00  0.99999998245E-14  0.12500000000E+03  0.12500000000E+03 0.  0.
        -11    1    1    0    0    0 -0.19444347572E+02  0.34577162427E+02  0.36963028040E+02  0.54221105265E+02  0.51100000000E-03 0. -1.
         11    1    1    0    0    0 -0.30038881877E+01  0.13575341998E+01  0.82086597937E+01  0.88458091330E+01  0.51100000000E-03 0.  1.
         22    1    1    0    0    0  0.22448235760E+02 -0.35934696627E+02 -0.45171687834E+02  0.61933085602E+02  0.00000000000E+00 0. -1.
</event>
<event>
 4    1  0.1977762E-002  0.9118800E+02  0.7818608E-02  0.1130116E+00
         25   -1    0    0    0    0  0.00000000000E+00  0.00000000000E+00  0.99999998245E-14  0.12500000000E+03  0.12500000000E+03 0.  0.
        -11    1    1    0    0    0  0.38809479540E+02 -0.11085190433E+02 -0.46845754463E+02  0.61835118344E+02  0.51100000000E-03 0. -1.
         11    1    1    0    0    0  0.44762456448E+00 -0.12955516981E+00 -0.47521071886E+00  0.66556576023E+00  0.51100000000E-03 0.  1.
         22    1    1    0    0    0 -0.39257104105E+02  0.11214745603E+02  0.47320965182E+02  0.62499315896E+02  0.00000000000E+00 0. -1.
</event>
<event>
 4    1  0.1977762E-002  0.9118800E+02  0.7818608E-02  0.1130116E+00
         25   -1    0    0    0    0  0.00000000000E+00  0.00000000000E+00  0.99999998245E-14  0.12500000000E+03  0.12500000000E+03 0.  0.
        -11    1    1    0    0    0 -0.24968017370E+02 -0.52563795164E+02 -0.21077285217E+02  0.61891892893E+02  0.51100000000E-03 0.  1.
         11    1    1    0    0    0 -0.22761302438E+00 -0.54639403501E+00 -0.14762115916E+00  0.61003803005E+00  0.51100000000E-03 0. -1.
         22    1    1    0    0    0  0.25195630395E+02  0.53110189199E+02  0.21224906376E+02  0.62498069077E+02  0.00000000000E+00 0.  1.
</event>
<event>
 4    1  0.1977762E-002  0.9118800E+02  0.7818608E-02  0.1130116E+00
         25   -1    0    0    0    0  0.00000000000E+00  0.00000000000E+00  0.99999998245E-14  0.12500000000E+03  0.12500000000E+03 0.  0.
        -11    1    1    0    0    0 -0.28272672793E+02 -0.96510861622E+01  0.20946121272E+01  0.29947869560E+02  0.51100000000E-03 0.  1.
         11    1    1    0    0    0 -0.30731107132E+02 -0.10491298864E+02  0.22744010929E+01  0.32552130468E+02  0.51100000000E-03 0. -1.
         22    1    1    0    0    0  0.59003779925E+02  0.20142385026E+02 -0.43690132201E+01  0.62499999972E+02  0.00000000000E+00 0.  1.
</event>
<event>
 4    1  0.1977762E-002  0.9118800E+02  0.7818608E-02  0.1130116E+00
         25   -1    0    0    0    0  0.00000000000E+00  0.00000000000E+00  0.99999998245E-14  0.12500000000E+03  0.12500000000E+03 0.  0.
        -11    1    1    0    0    0  0.24706658679E+02 -0.37999996822E+02 -0.34860284617E+02  0.57180925013E+02  0.51100000000E-03 0.  1.
         11    1    1    0    0    0  0.22980494808E+01 -0.35372718250E+01 -0.32402532085E+01  0.53190755303E+01  0.51100000000E-03 0. -1.
         22    1    1    0    0    0 -0.27004708160E+02  0.41537268647E+02  0.38100537826E+02  0.62499999456E+02  0.00000000000E+00 0.  1.
</event>
<event>
 4    1  0.1977762E-002  0.9118800E+02  0.7818608E-02  0.1130116E+00
         25   -1    0    0    0    0  0.00000000000E+00  0.00000000000E+00  0.99999998245E-14  0.12500000000E+03  0.12500000000E+03 0.  0.
        -11    1    1    0    0    0 -0.21594584709E+01  0.41430491386E+00  0.14865842003E+01  0.26542121797E+01  0.51100000000E-03 0.  1.
         11    1    1    0    0    0 -0.47001886384E+02  0.75686540490E+01  0.36267674477E+02  0.59848191786E+02  0.51100000000E-03 0. -1.
         22    1    1    0    0    0  0.49161344855E+02 -0.79829589629E+01 -0.37754258677E+02  0.62497596034E+02  0.00000000000E+00 0. -1.
</event>
<event>
 4    1  0.1977762E-002  0.9118800E+02  0.7818608E-02  0.1130116E+00
         25   -1    0    0    0    0  0.00000000000E+00  0.00000000000E+00  0.99999998245E-14  0.12500000000E+03  0.12500000000E+03 0.  0.
        -11    1    1    0    0    0  0.26731694289E+00 -0.16865429901E+01 -0.81947079092E+00  0.18940481102E+01  0.51100000000E-03 0.  1.
         11    1    1    0    0    0  0.85331021256E+01 -0.54128470904E+02 -0.25891664070E+02  0.60605968871E+02  0.51100000000E-03 0. -1.
         22    1    1    0    0    0 -0.88004190685E+01  0.55815013894E+02  0.26711134861E+02  0.62499983018E+02  0.00000000000E+00 0. -1.
</event>
<event>
 4    1  0.1977762E-002  0.9118800E+02  0.7818608E-02  0.1130116E+00
         25   -1    0    0    0    0  0.00000000000E+00  0.00000000000E+00  0.99999998245E-14  0.12500000000E+03  0.12500000000E+03 0.  0.
        -11    1    1    0    0    0 -0.47036507042E+01  0.20046724802E+02 -0.18288954515E+02  0.27540540350E+02  0.51100000000E-03 0. -1.
         11    1    1    0    0    0 -0.59697269649E+01  0.25452839990E+02 -0.23209462118E+02  0.34959459889E+02  0.51100000000E-03 0.  1.
         22    1    1    0    0    0  0.10673377669E+02 -0.45499564792E+02  0.41498416633E+02  0.62499999762E+02  0.00000000000E+00 0. -1.
</event>
<event>
 4    1  0.1977762E-002  0.9118800E+02  0.7818608E-02  0.1130116E+00
         25   -1    0    0    0    0  0.00000000000E+00  0.00000000000E+00  0.99999998245E-14  0.12500000000E+03  0.12500000000E+03 0.  0.
        -11    1    1    0    0    0  0.47350934824E+02  0.11381784320E+02  0.53093381824E+01  0.48988214044E+02  0.51100000000E-03 0.  1.
         11    1    1    0    0    0  0.12781194177E+02  0.22767439353E+01  0.41435706227E+01  0.13627606734E+02  0.51100000000E-03 0. -1.
         22    1    1    0    0    0 -0.60132129001E+02 -0.13658528256E+02 -0.94529088051E+01  0.62384179222E+02  0.00000000000E+00 0.  1.
</event>
<event>
 4    1  0.1977762E-002  0.9118800E+02  0.7818608E-02  0.1130116E+00
         25   -1    0    0    0    0  0.00000000000E+00  0.00000000000E+00  0.99999998245E-14  0.12500000000E+03  0.12500000000E+03 0.  0.
        -11    1    1    0    0    0 -0.24953970403E+02 -0.17293132491E+02  0.43145260853E+02  0.52756673555E+02  0.51100000000E-03 0. -1.
         11    1    1    0    0    0 -0.67411460580E+01  0.29634581825E+00  0.75247190526E+01  0.10107040521E+02  0.51100000000E-03 0.  1.
         22    1    1    0    0    0  0.31695116461E+02  0.16996786673E+02 -0.50669979906E+02  0.62136285923E+02  0.00000000000E+00 0. -1.
</event>
<event>
 4    1  0.1977762E-002  0.9118800E+02  0.7818608E-02  0.1130116E+00
         25   -1    0    0    0    0  0.00000000000E+00  0.00000000000E+00  0.99999998245E-14  0.12500000000E+03  0.12500000000E+03 0.  0.
        -11    1    1    0    0    0  0.11354489611E+02  0.69389106977E+01  0.58658473707E+01  0.14542389131E+02  0.51100000000E-03 0. -1.
         11    1    1    0    0    0  0.37399624184E+02  0.22929556434E+02  0.19376186395E+02  0.47957617194E+02  0.51100000000E-03 0.  1.
         22    1    1    0    0    0 -0.48754113796E+02 -0.29868467132E+02 -0.25242033766E+02  0.62499993675E+02  0.00000000000E+00 0.  1.
</event>
<event>
 4    1  0.1977762E-002  0.9118800E+02  0.7818608E-02  0.1130116E+00
         25   -1    0    0    0    0  0.00000000000E+00  0.00000000000E+00  0.99999998245E-14  0.12500000000E+03  0.12500000000E+03 0.  0.
        -11    1    1    0    0    0 -0.11586414002E+02 -0.86910194759E+01  0.24709888652E+02  0.28641882033E+02  0.51100000000E-03 0.  1.
         11    1    1    0    0    0 -0.13866225392E+02 -0.11582044536E+02  0.28643125179E+02  0.33865093866E+02  0.51100000000E-03 0. -1.
         22    1    1    0    0    0  0.25452639394E+02  0.20273064012E+02 -0.53353013830E+02  0.62493024101E+02  0.00000000000E+00 0.  1.
</event>
<event>
 4    1  0.1977762E-002  0.9118800E+02  0.7818608E-02  0.1130116E+00
         25   -1    0    0    0    0  0.00000000000E+00  0.00000000000E+00  0.99999998245E-14  0.12500000000E+03  0.12500000000E+03 0.  0.
        -11    1    1    0    0    0 -0.50772873872E+01  0.82489314330E+00  0.22985009943E+01  0.56340396690E+01  0.51100000000E-03 0.  1.
         11    1    1    0    0    0 -0.51162366882E+02  0.84831414050E+01  0.23327840653E+02  0.56865979486E+02  0.51100000000E-03 0. -1.
         22    1    1    0    0    0  0.56239654269E+02 -0.93080345483E+01 -0.25626341648E+02  0.62499980845E+02  0.00000000000E+00 0. -1.
</event>
<event>
 4    1  0.1977762E-002  0.9118800E+02  0.7818608E-02  0.1130116E+00
         25   -1    0    0    0    0  0.00000000000E+00  0.00000000000E+00  0.99999998245E-14  0.12500000000E+03  0.12500000000E+03 0.  0.
        -11    1    1    0    0    0  0.20233994107E+02 -0.27186465774E+02 -0.77497614415E+01  0.34764597530E+02  0.51100000000E-03 0.  1.
         11    1    1    0    0    0  0.15142199345E+02 -0.21957218509E+02 -0.76652929614E+01  0.27751799259E+02  0.51100000000E-03 0. -1.
         22    1    1    0    0    0 -0.35376193452E+02  0.49143684283E+02  0.15415054403E+02  0.62483603211E+02  0.00000000000E+00 0. -1.
</event>
<event>
 4    1  0.1977762E-002  0.9118800E+02  0.7818608E-02  0.1130116E+00
         25   -1    0    0    0    0  0.00000000000E+00  0.00000000000E+00  0.99999998245E-14  0.12500000000E+03  0.12500000000E+03 0.  0.
        -11    1    1    0    0    0  0.12170289651E+02  0.73530652236E+01  0.16128803815E+01  0.14310307536E+02  0.51100000000E-03 0. -1.
         11    1    1    0    0    0  0.41315841667E+02  0.24372343513E+02  0.46197356199E+01  0.48190786033E+02  0.51100000000E-03 0.  1.
         22    1    1    0    0    0 -0.53486131319E+02 -0.31725408736E+02 -0.62326160015E+01  0.62498906432E+02  0.00000000000E+00 0.  1.
</event>
<event>
 4    1  0.1977762E-002  0.9118800E+02  0.7818608E-02  0.1130116E+00
         25   -1    0    0    0    0  0.00000000000E+00  0.00000000000E+00  0.99999998245E-14  0.12500000000E+03  0.12500000000E+03 0.  0.
        -11    1    1    0    0    0  0.20018632324E+02  0.53652822615E+02 -0.22971429226E+02  0.61701357972E+02  0.51100000000E-03 0. -1.
         11    1    1    0    0    0  0.78645829591E+00  0.46119907091E+00 -0.64706954876E-01  0.91400683003E+00  0.51100000000E-03 0.  1.
         22    1    1    0    0    0 -0.20805090620E+02 -0.54114021686E+02  0.23036136180E+02  0.62384635198E+02  0.00000000000E+00 0. -1.
</event>
<event>
 4    1  0.1977762E-002  0.9118800E+02  0.7818608E-02  0.1130116E+00
         25   -1    0    0    0    0  0.00000000000E+00  0.00000000000E+00  0.99999998245E-14  0.12500000000E+03  0.12500000000E+03 0.  0.
        -11    1    1    0    0    0  0.47712123489E+01 -0.28602272716E+02  0.92090363598E+01  0.30424674571E+02  0.51100000000E-03 0.  1.
         11    1    1    0    0    0  0.59993382038E+01 -0.29842397243E+02  0.10127227503E+02  0.32079923150E+02  0.51100000000E-03 0. -1.
         22    1    1    0    0    0 -0.10770550553E+02  0.58444669960E+02 -0.19336263863E+02  0.62495402280E+02  0.00000000000E+00 0. -1.
</event>
<event>
 4    1  0.1977762E-002  0.9118800E+02  0.7818608E-02  0.1130116E+00
         25   -1    0    0    0    0  0.00000000000E+00  0.00000000000E+00  0.99999998245E-14  0.12500000000E+03  0.12500000000E+03 0.  0.
        -11    1    1    0    0    0  0.23602469021E+01 -0.31060313442E+01 -0.40786041494E+01  0.56438646527E+01  0.51100000000E-03 0. -1.
         11    1    1    0    0    0  0.22768791938E+02 -0.35538001894E+02 -0.38111852202E+02  0.56867220290E+02  0.51100000000E-03 0.  1.
         22    1    1    0    0    0 -0.25129038840E+02  0.38644033238E+02  0.42190456351E+02  0.62488915058E+02  0.00000000000E+00 0.  1.
</event>
<event>
 4    1  0.1977762E-002  0.9118800E+02  0.7818608E-02  0.1130116E+00
         25   -1    0    0    0    0  0.00000000000E+00  0.00000000000E+00  0.99999998245E-14  0.12500000000E+03  0.12500000000E+03 0.  0.
        -11    1    1    0    0    0  0.20050369366E+01 -0.33933847351E+02 -0.43692511224E+02  0.55358483600E+02  0.51100000000E-03 0.  1.
         11    1    1    0    0    0  0.34912170328E+00 -0.43423075919E+01 -0.56593411392E+01  0.71418249472E+01  0.51100000000E-03 0. -1.
         22    1    1    0    0    0 -0.23541586399E+01  0.38276154943E+02  0.49351852363E+02  0.62499691453E+02  0.00000000000E+00 0.  1.
</event>
<event>
 4    1  0.1977762E-002  0.9118800E+02  0.7818608E-02  0.1130116E+00
         25   -1    0    0    0    0  0.00000000000E+00  0.00000000000E+00  0.99999998245E-14  0.12500000000E+03  0.12500000000E+03 0.  0.
        -11    1    1    0    0    0  0.90223147808E+00  0.17353939368E+01  0.38730535105E+01  0.43389120194E+01  0.51100000000E-03 0. -1.
         11    1    1    0    0    0  0.37387480861E+02  0.41673546516E+02  0.17960776885E+02  0.58797089306E+02  0.51100000000E-03 0.  1.
         22    1    1    0    0    0 -0.38289712339E+02 -0.43408940453E+02 -0.21833830395E+02  0.61863998674E+02  0.00000000000E+00 0.  1.
</event>
<event>
 4    1  0.1977762E-002  0.9118800E+02  0.7818608E-02  0.1130116E+00
         25   -1    0    0    0    0  0.00000000000E+00  0.00000000000E+00  0.99999998245E-14  0.12500000000E+03  0.12500000000E+03 0.  0.
        -11    1    1    0    0    0  0.23911154784E+01  0.23489107077E+01 -0.97713413965E+01  0.10330243351E+02  0.51100000000E-03 0. -1.
         11    1    1    0    0    0  0.19200300253E+02  0.14438378896E+02 -0.46368570275E+02  0.52222242623E+02  0.51100000000E-03 0.  1.
         22    1    1    0    0    0 -0.21591415731E+02 -0.16787289603E+02  0.56139911672E+02  0.62447514026E+02  0.00000000000E+00 0.  1.
</event>
<event>
 4    1  0.1977762E-002  0.9118800E+02  0.7818608E-02  0.1130116E+00
         25   -1    0    0    0    0  0.00000000000E+00  0.00000000000E+00  0.99999998245E-14  0.12500000000E+03  0.12500000000E+03 0.  0.
        -11    1    1    0    0    0 -0.22211645848E+02  0.34993817008E+01 -0.20135688942E+02  0.30183585821E+02  0.51100000000E-03 0.  1.
         11    1    1    0    0    0 -0.20935148460E+02  0.29650612993E+01 -0.24525724679E+02  0.32381834426E+02  0.51100000000E-03 0. -1.
         22    1    1    0    0    0  0.43146794308E+02 -0.64644430001E+01  0.44661413621E+02  0.62434579753E+02  0.00000000000E+00 0. -1.
</event>
<event>
 4    1  0.1977762E-002  0.9118800E+02  0.7818608E-02  0.1130116E+00
         25   -1    0    0    0    0  0.00000000000E+00  0.00000000000E+00  0.99999998245E-14  0.12500000000E+03  0.12500000000E+03 0.  0.
        -11    1    1    0    0    0 -0.95838552094E+00 -0.76635579303E+00  0.46041152677E+00  0.13106422255E+01  0.51100000000E-03 0.  1.
         11    1    1    0    0    0 -0.47104061435E+02 -0.34448868418E+02  0.18406448524E+02  0.61190803937E+02  0.51100000000E-03 0. -1.
         22    1    1    0    0    0  0.48062446955E+02  0.35215224211E+02 -0.18866860051E+02  0.62498553837E+02  0.00000000000E+00 0. -1.
</event>
<event>
 4    1  0.1977762E-002  0.9118800E+02  0.7818608E-02  0.1130116E+00
         25   -1    0    0    0    0  0.00000000000E+00  0.00000000000E+00  0.99999998245E-14  0.12500000000E+03  0.12500000000E+03 0.  0.
        -11    1    1    0    0    0 -0.20855196251E+02 -0.19390183139E+02 -0.31808167716E+02  0.42692832496E+02  0.51100000000E-03 0. -1.
         11    1    1    0    0    0 -0.95956936265E+01 -0.89053434412E+01 -0.14864397677E+02  0.19807392472E+02  0.51100000000E-03 0.  1.
         22    1    1    0    0    0  0.30450889877E+02  0.28295526580E+02  0.46672565393E+02  0.62499775032E+02  0.00000000000E+00 0. -1.
</event>
<event>
 4    1  0.1977762E-002  0.9118800E+02  0.7818608E-02  0.1130116E+00
         25   -1    0    0    0    0  0.00000000000E+00  0.00000000000E+00  0.99999998245E-14  0.12500000000E+03  0.12500000000E+03 0.  0.
        -11    1    1    0    0    0 -0.85447404284E+01 -0.33888644739E+01 -0.13466706784E+02  0.16304882192E+02  0.51100000000E-03 0. -1.
         11    1    1    0    0    0 -0.26795496237E+02 -0.95110080377E+00 -0.37759112334E+02  0.46310406777E+02  0.51100000000E-03 0.  1.
         22    1    1    0    0    0  0.35340236665E+02  0.43399652777E+01  0.51225819118E+02  0.62384711032E+02  0.00000000000E+00 0. -1.
</event>
<event>
 4    1  0.1977762E-002  0.9118800E+02  0.7818608E-02  0.1130116E+00
         25   -1    0    0    0    0  0.00000000000E+00  0.00000000000E+00  0.99999998245E-14  0.12500000000E+03  0.12500000000E+03 0.  0.
        -11    1    1    0    0    0 -0.77734938479E+01  0.39101293433E+01 -0.24603160935E+01  0.90426474899E+01  0.51100000000E-03 0.  1.
         11    1    1    0    0    0 -0.45865761754E+02  0.23124195676E+02 -0.14808701186E+02  0.53457405081E+02  0.51100000000E-03 0. -1.
         22    1    1    0    0    0  0.53639255602E+02 -0.27034325019E+02  0.17269017280E+02  0.62499947429E+02  0.00000000000E+00 0. -1.
</event>
<event>
 4    1  0.1977762E-002  0.9118800E+02  0.7818608E-02  0.1130116E+00
         25   -1    0    0    0    0  0.00000000000E+00  0.00000000000E+00  0.99999998245E-14  0.12500000000E+03  0.12500000000E+03 0.  0.
        -11    1    1    0    0    0 -0.46173059310E+02 -0.77723234040E+01 -0.15751674013E+02  0.49401170549E+02  0.51100000000E-03 0.  1.
         11    1    1    0    0    0 -0.12242749735E+02 -0.20605271401E+01 -0.41771569155E+01  0.13098829464E+02  0.51100000000E-03 0.  1.
         22    1    1    0    0    0  0.58415809045E+02  0.98328505442E+01  0.19928830928E+02  0.62499999987E+02  0.00000000000E+00 0.  1.
</event>
<event>
 4    1  0.1977762E-002  0.9118800E+02  0.7818608E-02  0.1130116E+00
         25   -1    0    0    0    0  0.00000000000E+00  0.00000000000E+00  0.99999998245E-14  0.12500000000E+03  0.12500000000E+03 0.  0.
        -11    1    1    0    0    0 -0.85300547149E+00  0.24759374113E+00 -0.19475345823E+02  0.19495589660E+02  0.51100000000E-03 0. -1.
         11    1    1    0    0    0 -0.39309011980E+01  0.19625700411E+01 -0.42790747822E+02  0.43015715324E+02  0.51100000000E-03 0.  1.
         22    1    1    0    0    0  0.47839066695E+01 -0.22101637822E+01  0.62266093645E+02  0.62488695016E+02  0.00000000000E+00 0.  1.
</event>
<event>
 4    1  0.1977762E-002  0.9118800E+02  0.7818608E-02  0.1130116E+00
         25   -1    0    0    0    0  0.00000000000E+00  0.00000000000E+00  0.99999998245E-14  0.12500000000E+03  0.12500000000E+03 0.  0.
        -11    1    1    0    0    0  0.28390394802E+02  0.72326857736E+01  0.68420475685E+01  0.30085542636E+02  0.51100000000E-03 0. -1.
         11    1    1    0    0    0  0.30595321707E+02  0.77431517820E+01  0.73937577622E+01  0.32414468436E+02  0.51100000000E-03 0.  1.
         22    1    1    0    0    0 -0.58985716509E+02 -0.14975837556E+02 -0.14235805331E+02  0.62499988928E+02  0.00000000000E+00 0. -1.
</event>
<event>
 4    1  0.1977762E-002  0.9118800E+02  0.7818608E-02  0.1130116E+00
         25   -1    0    0    0    0  0.00000000000E+00  0.00000000000E+00  0.99999998245E-14  0.12500000000E+03  0.12500000000E+03 0.  0.
        -11    1    1    0    0    0 -0.81346804883E+01  0.74560646764E+01  0.25186922830E+02  0.27498127373E+02  0.51100000000E-03 0.  1.
         11    1    1    0    0    0 -0.11274308980E+02  0.77052174916E+01  0.32241983474E+02  0.35014652907E+02  0.51100000000E-03 0. -1.
         22    1    1    0    0    0  0.19408989468E+02 -0.15161282168E+02 -0.57428906304E+02  0.62487219721E+02  0.00000000000E+00 0. -1.
</event>
<event>
 4    1  0.1977762E-002  0.9118800E+02  0.7818608E-02  0.1130116E+00
         25   -1    0    0    0    0  0.00000000000E+00  0.00000000000E+00  0.99999998245E-14  0.12500000000E+03  0.12500000000E+03 0.  0.
        -11    1    1    0    0    0 -0.98828608330E+01 -0.13479755490E+02 -0.16306662119E+02  0.23351273542E+02  0.51100000000E-03 0.  1.
         11    1    1    0    0    0 -0.16571168477E+02 -0.22602427975E+02 -0.27334034007E+02  0.39148726549E+02  0.51100000000E-03 0. -1.
         22    1    1    0    0    0  0.26454029310E+02  0.36082183464E+02  0.43640696126E+02  0.62499999909E+02  0.00000000000E+00 0. -1.
</event>
<event>
 4    1  0.1977762E-002  0.9118800E+02  0.7818608E-02  0.1130116E+00
         25   -1    0    0    0    0  0.00000000000E+00  0.00000000000E+00  0.99999998245E-14  0.12500000000E+03  0.12500000000E+03 0.  0.
        -11    1    1    0    0    0  0.21304726842E+02  0.20754890157E+02  0.16205222516E+02  0.33871316602E+02  0.51100000000E-03 0. -1.
         11    1    1    0    0    0  0.53688850372E+01 -0.49592280782E+02 -0.42261750369E+01  0.50060761035E+02  0.51100000000E-03 0.  1.
         22    1    1    0    0    0 -0.26673611879E+02  0.28837390624E+02 -0.11979047480E+02  0.41067922363E+02  0.00000000000E+00 0.  1.
</event>
<event>
 4    1  0.1977762E-002  0.9118800E+02  0.7818608E-02  0.1130116E+00
         25   -1    0    0    0    0  0.00000000000E+00  0.00000000000E+00  0.99999998245E-14  0.12500000000E+03  0.12500000000E+03 0.  0.
        -11    1    1    0    0    0  0.46249601768E+02  0.17740289581E+02 -0.31399529642E+02  0.58648734003E+02  0.51100000000E-03 0.  1.
         11    1    1    0    0    0  0.22971963131E+01 -0.12280392912E+01 -0.34712009236E+01  0.43398649190E+01  0.51100000000E-03 0. -1.
         22    1    1    0    0    0 -0.48546798081E+02 -0.16512250290E+02  0.34870730566E+02  0.62011401078E+02  0.00000000000E+00 0.  1.
</event>
<event>
 4    1  0.1977762E-002  0.9118800E+02  0.7818608E-02  0.1130116E+00
         25   -1    0    0    0    0  0.00000000000E+00  0.00000000000E+00  0.99999998245E-14  0.12500000000E+03  0.12500000000E+03 0.  0.
        -11    1    1    0    0    0 -0.13164307514E-01 -0.61576463200E+01 -0.59238256586E+02  0.59557432997E+02  0.51100000000E-03 0.  1.
         11    1    1    0    0    0 -0.24210381708E+00 -0.17645216751E+00 -0.29333508763E+01  0.29486093757E+01  0.51100000000E-03 0. -1.
         22    1    1    0    0    0  0.25526812459E+00  0.63340984875E+01  0.62171607463E+02  0.62493957628E+02  0.00000000000E+00 0.  1.
</event>
<event>
 4    1  0.1977762E-002  0.9118800E+02  0.7818608E-02  0.1130116E+00
         25   -1    0    0    0    0  0.00000000000E+00  0.00000000000E+00  0.99999998245E-14  0.12500000000E+03  0.12500000000E+03 0.  0.
        -11    1    1    0    0    0  0.46665076093E+02 -0.84113289226E+01 -0.10349647948E+02  0.48533442016E+02  0.51100000000E-03 0. -1.
         11    1    1    0    0    0  0.11629388597E+02 -0.24338917249E+01  0.12350996998E+02  0.17138075597E+02  0.51100000000E-03 0.  1.
         22    1    1    0    0    0 -0.58294464690E+02  0.10845220647E+02 -0.20013490493E+01  0.59328482387E+02  0.00000000000E+00 0. -1.
</event>
<event>
 4    1  0.1977762E-002  0.9118800E+02  0.7818608E-02  0.1130116E+00
         25   -1    0    0    0    0  0.00000000000E+00  0.00000000000E+00  0.99999998245E-14  0.12500000000E+03  0.12500000000E+03 0.  0.
        -11    1    1    0    0    0 -0.15148113759E+02  0.10975812439E+02  0.23000699115E+01  0.18847390563E+02  0.51100000000E-03 0.  1.
         11    1    1    0    0    0 -0.34450587869E+02  0.26807333581E+02  0.15906907843E+01  0.43680733003E+02  0.51100000000E-03 0. -1.
         22    1    1    0    0    0  0.49598701628E+02 -0.37783146020E+02 -0.38907606958E+01  0.62471876434E+02  0.00000000000E+00 0. -1.
</event>
<event>
 4    1  0.1977762E-002  0.9118800E+02  0.7818608E-02  0.1130116E+00
         25   -1    0    0    0    0  0.00000000000E+00  0.00000000000E+00  0.99999998245E-14  0.12500000000E+03  0.12500000000E+03 0.  0.
        -11    1    1    0    0    0  0.14223112137E+02 -0.30934215484E+02 -0.42505694712E+02  0.54460597589E+02  0.51100000000E-03 0.  1.
         11    1    1    0    0    0  0.23344155620E+01 -0.44425244146E+01 -0.62830901306E+01  0.80413146339E+01  0.51100000000E-03 0. -1.
         22    1    1    0    0    0 -0.16557527699E+02  0.35376739899E+02  0.48788784843E+02  0.62498087777E+02  0.00000000000E+00 0.  1.
</event>
<event>
 4    1  0.1977762E-002  0.9118800E+02  0.7818608E-02  0.1130116E+00
         25   -1    0    0    0    0  0.00000000000E+00  0.00000000000E+00  0.99999998245E-14  0.12500000000E+03  0.12500000000E+03 0.  0.
        -11    1    1    0    0    0  0.50083633961E+01 -0.38250069738E+02  0.70042578653E+01  0.39207284621E+02  0.51100000000E-03 0.  1.
         11    1    1    0    0    0  0.29777367226E+01 -0.22723796041E+02  0.41608615541E+01  0.23292715420E+02  0.51100000000E-03 0. -1.
         22    1    1    0    0    0 -0.79861001187E+01  0.60973865779E+02 -0.11165119419E+02  0.62499999959E+02  0.00000000000E+00 0.  1.
</event>
<event>
 4    1  0.1977762E-002  0.9118800E+02  0.7818608E-02  0.1130116E+00
         25   -1    0    0    0    0  0.00000000000E+00  0.00000000000E+00  0.99999998245E-14  0.12500000000E+03  0.12500000000E+03 0.  0.
        -11    1    1    0    0    0 -0.71441700628E+00  0.21639915288E+01 -0.79653919144E+00  0.24140683379E+01  0.51100000000E-03 0. -1.
         11    1    1    0    0    0 -0.18562055838E+02  0.53813877291E+02 -0.19231601633E+02  0.60086086640E+02  0.51100000000E-03 0.  1.
         22    1    1    0    0    0  0.19276472845E+02 -0.55977868820E+02  0.20028140825E+02  0.62499845022E+02  0.00000000000E+00 0.  1.
</event>
<event>
 4    1  0.1977762E-002  0.9118800E+02  0.7818608E-02  0.1130116E+00
         25   -1    0    0    0    0  0.00000000000E+00  0.00000000000E+00  0.99999998245E-14  0.12500000000E+03  0.12500000000E+03 0.  0.
        -11    1    1    0    0    0 -0.44360923128E+01  0.10293829005E+02  0.31850788646E+01  0.11652748956E+02  0.51100000000E-03 0.  1.
         11    1    1    0    0    0 -0.19443014303E+02  0.43349314156E+02  0.18170889038E+02  0.50866246683E+02  0.51100000000E-03 0. -1.
         22    1    1    0    0    0  0.23879106615E+02 -0.53643143161E+02 -0.21355967903E+02  0.62481004361E+02  0.00000000000E+00 0. -1.
</event>
<event>
 4    1  0.1977762E-002  0.9118800E+02  0.7818608E-02  0.1130116E+00
         25   -1    0    0    0    0  0.00000000000E+00  0.00000000000E+00  0.99999998245E-14  0.12500000000E+03  0.12500000000E+03 0.  0.
        -11    1    1    0    0    0 -0.76180274797E+01  0.13142912820E+02  0.13818511158E+02  0.20535864992E+02  0.51100000000E-03 0. -1.
         11    1    1    0    0    0 -0.15524136925E+02  0.26865094088E+02  0.28253440061E+02  0.41964139252E+02  0.51100000000E-03 0.  1.
         22    1    1    0    0    0  0.23142164404E+02 -0.40008006909E+02 -0.42071951219E+02  0.62499995756E+02  0.00000000000E+00 0.  1.
</event>
<event>
 4    1  0.1977762E-002  0.9118800E+02  0.7818608E-02  0.1130116E+00
         25   -1    0    0    0    0  0.00000000000E+00  0.00000000000E+00  0.99999998245E-14  0.12500000000E+03  0.12500000000E+03 0.  0.
        -11    1    1    0    0    0  0.78670610635E+00  0.54330594022E+00 -0.84490879607E+00  0.12759149569E+01  0.51100000000E-03 0. -1.
         11    1    1    0    0    0  0.36314885939E+02  0.45098149919E+02 -0.20093869129E+02  0.61289294691E+02  0.51100000000E-03 0.  1.
         22    1    1    0    0    0 -0.37101592045E+02 -0.45641455859E+02  0.20938777925E+02  0.62434790352E+02  0.00000000000E+00 0.  1.
</event>
<event>
 4    1  0.1977762E-002  0.9118800E+02  0.7818608E-02  0.1130116E+00
         25   -1    0    0    0    0  0.00000000000E+00  0.00000000000E+00  0.99999998245E-14  0.12500000000E+03  0.12500000000E+03 0.  0.
        -11    1    1    0    0    0 -0.91862966688E+01  0.20527210213E+02 -0.58904172921E+01  0.23247611098E+02  0.51100000000E-03 0.  1.
         11    1    1    0    0    0 -0.13888323042E+02  0.35435256955E+02 -0.96346564283E+01  0.39260279637E+02  0.51100000000E-03 0. -1.
         22    1    1    0    0    0  0.23074619711E+02 -0.55962467168E+02  0.15525073720E+02  0.62492109265E+02  0.00000000000E+00 0.  1.
</event>
<event>
 4    1  0.1977762E-002  0.9118800E+02  0.7818608E-02  0.1130116E+00
         25   -1    0    0    0    0  0.00000000000E+00  0.00000000000E+00  0.99999998245E-14  0.12500000000E+03  0.12500000000E+03 0.  0.
        -11    1    1    0    0    0 -0.87260194809E+00  0.57667949741E+02 -0.17624907007E+02  0.60307472247E+02  0.51100000000E-03 0. -1.
         11    1    1    0    0    0  0.11330366435E+02 -0.25756461338E+02  0.12226756899E+02  0.30680060117E+02  0.51100000000E-03 0.  1.
         22    1    1    0    0    0 -0.10457764487E+02 -0.31911488403E+02  0.53981501077E+01  0.34012467637E+02  0.00000000000E+00 0. -1.
</event>
<event>
 4    1  0.1977762E-002  0.9118800E+02  0.7818608E-02  0.1130116E+00
         25   -1    0    0    0    0  0.00000000000E+00  0.00000000000E+00  0.99999998245E-14  0.12500000000E+03  0.12500000000E+03 0.  0.
        -11    1    1    0    0    0 -0.75283163627E+01  0.61153069164E+02 -0.66648920107E+01  0.61974141392E+02  0.51100000000E-03 0. -1.
         11    1    1    0    0    0 -0.28060496984E+01 -0.19038339780E+02  0.73408172029E+00  0.19258015804E+02  0.51100000000E-03 0.  1.
         22    1    1    0    0    0  0.10334366061E+02 -0.42114729385E+02  0.59308102904E+01  0.43767842804E+02  0.00000000000E+00 0. -1.
</event>
<event>
 4    1  0.1977762E-002  0.9118800E+02  0.7818608E-02  0.1130116E+00
         25   -1    0    0    0    0  0.00000000000E+00  0.00000000000E+00  0.99999998245E-14  0.12500000000E+03  0.12500000000E+03 0.  0.
        -11    1    1    0    0    0 -0.40601496817E+00  0.60296193588E+00 -0.31937721021E+02  0.31945992480E+02  0.51100000000E-03 0. -1.
         11    1    1    0    0    0 -0.39314519357E+00  0.56672602551E+00 -0.30546221785E+02  0.30554008037E+02  0.51100000000E-03 0.  1.
         22    1    1    0    0    0  0.79916016174E+00 -0.11696879614E+01  0.62483942806E+02  0.62499999483E+02  0.00000000000E+00 0.  1.
</event>
<event>
 4    1  0.1977762E-002  0.9118800E+02  0.7818608E-02  0.1130116E+00
         25   -1    0    0    0    0  0.00000000000E+00  0.00000000000E+00  0.99999998245E-14  0.12500000000E+03  0.12500000000E+03 0.  0.
        -11    1    1    0    0    0 -0.36980673528E+00 -0.74050844265E+00  0.15033823893E+01  0.17161785002E+01  0.51100000000E-03 0. -1.
         11    1    1    0    0    0 -0.40995491305E+02  0.22765986003E+01  0.45073846322E+02  0.60971016320E+02  0.51100000000E-03 0.  1.
         22    1    1    0    0    0  0.41365298040E+02 -0.15360901576E+01 -0.46577228712E+02  0.62312805180E+02  0.00000000000E+00 0.  1.
</event>
<event>
 4    1  0.1977762E-002  0.9118800E+02  0.7818608E-02  0.1130116E+00
         25   -1    0    0    0    0  0.00000000000E+00  0.00000000000E+00  0.99999998245E-14  0.12500000000E+03  0.12500000000E+03 0.  0.
        -11    1    1    0    0    0  0.10147247823E+01  0.44720421757E+00  0.10492547924E+02  0.10550981954E+02  0.51100000000E-03 0.  1.
         11    1    1    0    0    0  0.26966457579E+01 -0.92086368204E+00  0.51883082857E+02  0.51961275728E+02  0.51100000000E-03 0. -1.
         22    1    1    0    0    0 -0.37113705403E+01  0.47365946447E+00 -0.62375630781E+02  0.62487742318E+02  0.00000000000E+00 0. -1.
</event>
<event>
 4    1  0.1977762E-002  0.9118800E+02  0.7818608E-02  0.1130116E+00
         25   -1    0    0    0    0  0.00000000000E+00  0.00000000000E+00  0.99999998245E-14  0.12500000000E+03  0.12500000000E+03 0.  0.
        -11    1    1    0    0    0  0.23183862839E+01  0.15037357886E+01  0.35340077939E+01  0.44861283566E+01  0.51100000000E-03 0.  1.
         11    1    1    0    0    0  0.29981867589E+02  0.19272269533E+02  0.45774204775E+02  0.58013882650E+02  0.51100000000E-03 0. -1.
         22    1    1    0    0    0 -0.32300253873E+02 -0.20776005322E+02 -0.49308212569E+02  0.62499988993E+02  0.00000000000E+00 0. -1.
</event>
<event>
 4    1  0.1977762E-002  0.9118800E+02  0.7818608E-02  0.1130116E+00
         25   -1    0    0    0    0  0.00000000000E+00  0.00000000000E+00  0.99999998245E-14  0.12500000000E+03  0.12500000000E+03 0.  0.
        -11    1    1    0    0    0 -0.57150303376E+02  0.27102145383E+01  0.12789001503E+02  0.58626453061E+02  0.51100000000E-03 0. -1.
         11    1    1    0    0    0 -0.37766971531E+01  0.18659038460E+00  0.84032456375E+00  0.38735517283E+01  0.51100000000E-03 0.  1.
         22    1    1    0    0    0  0.60927000529E+02 -0.28968049229E+01 -0.13629326067E+02  0.62499995210E+02  0.00000000000E+00 0. -1.
</event>
<event>
 4    1  0.1977762E-002  0.9118800E+02  0.7818608E-02  0.1130116E+00
         25   -1    0    0    0    0  0.00000000000E+00  0.00000000000E+00  0.99999998245E-14  0.12500000000E+03  0.12500000000E+03 0.  0.
        -11    1    1    0    0    0  0.95712375133E+01  0.36354124738E+02  0.43996201484E+01  0.37849539372E+02  0.51100000000E-03 0. -1.
         11    1    1    0    0    0  0.60256703500E+01  0.23736443213E+02  0.28164976708E+01  0.24650762645E+02  0.51100000000E-03 0.  1.
         22    1    1    0    0    0 -0.15596907863E+02 -0.60090567951E+02 -0.72161178192E+01  0.62499697983E+02  0.00000000000E+00 0. -1.
</event>
<event>
 4    1  0.1977762E-002  0.9118800E+02  0.7818608E-02  0.1130116E+00
         25   -1    0    0    0    0  0.00000000000E+00  0.00000000000E+00  0.99999998245E-14  0.12500000000E+03  0.12500000000E+03 0.  0.
        -11    1    1    0    0    0 -0.23074783132E+02 -0.21205201510E+02  0.41948859872E+02  0.52362324553E+02  0.51100000000E-03 0.  1.
         11    1    1    0    0    0 -0.44673649462E+01 -0.41051480879E+01  0.81217530770E+01  0.10137675458E+02  0.51100000000E-03 0. -1.
         22    1    1    0    0    0  0.27542148078E+02  0.25310349598E+02 -0.50070612949E+02  0.62499999989E+02  0.00000000000E+00 0.  1.
</event>
<event>
 4    1  0.1977762E-002  0.9118800E+02  0.7818608E-02  0.1130116E+00
         25   -1    0    0    0    0  0.00000000000E+00  0.00000000000E+00  0.99999998245E-14  0.12500000000E+03  0.12500000000E+03 0.  0.
        -11    1    1    0    0    0  0.44619065955E+02  0.86949628553E+00 -0.42809750072E+02  0.61840858435E+02  0.51100000000E-03 0.  1.
         11    1    1    0    0    0 -0.28422566151E+01 -0.21849004573E+01  0.38872740182E+00  0.36060119146E+01  0.51100000000E-03 0. -1.
         22    1    1    0    0    0 -0.41776809340E+02  0.13154041718E+01  0.42421022670E+02  0.59553129650E+02  0.00000000000E+00 0.  1.
</event>
<event>
 4    1  0.1977762E-002  0.9118800E+02  0.7818608E-02  0.1130116E+00
         25   -1    0    0    0    0  0.00000000000E+00  0.00000000000E+00  0.99999998245E-14  0.12500000000E+03  0.12500000000E+03 0.  0.
        -11    1    1    0    0    0  0.19422111260E+02 -0.38903692937E+02  0.11153096705E+02  0.44889946495E+02  0.51100000000E-03 0. -1.
         11    1    1    0    0    0  0.78578812788E+01 -0.15117688053E+02  0.44557183805E+01  0.17610911868E+02  0.51100000000E-03 0.  1.
         22    1    1    0    0    0 -0.27279992539E+02  0.54021380990E+02 -0.15608815086E+02  0.62499141637E+02  0.00000000000E+00 0. -1.
</event>
<event>
 4    1  0.1977762E-002  0.9118800E+02  0.7818608E-02  0.1130116E+00
         25   -1    0    0    0    0  0.00000000000E+00  0.00000000000E+00  0.99999998245E-14  0.12500000000E+03  0.12500000000E+03 0.  0.
        -11    1    1    0    0    0 -0.24008423008E+00  0.28997017032E+01 -0.45471692417E+01  0.53983940926E+01  0.51100000000E-03 0.  1.
         11    1    1    0    0    0 -0.25932803140E+01  0.30770514129E+02 -0.48031702983E+02  0.57101612361E+02  0.51100000000E-03 0. -1.
         22    1    1    0    0    0  0.28333645441E+01 -0.33670215832E+02  0.52578872225E+02  0.62499993546E+02  0.00000000000E+00 0. -1.
</event>
<event>
 4    1  0.1977762E-002  0.9118800E+02  0.7818608E-02  0.1130116E+00
         25   -1    0    0    0    0  0.00000000000E+00  0.00000000000E+00  0.99999998245E-14  0.12500000000E+03  0.12500000000E+03 0.  0.
        -11    1    1    0    0    0 -0.13043774718E+02 -0.43191693618E+01  0.76244858098E+01  0.15713944985E+02  0.51100000000E-03 0. -1.
         11    1    1    0    0    0  0.30089901250E+02 -0.39311291701E+02  0.21667317255E+02  0.54039360190E+02  0.51100000000E-03 0.  1.
         22    1    1    0    0    0 -0.17046126532E+02  0.43630461063E+02 -0.29291803065E+02  0.55246694825E+02  0.00000000000E+00 0.  1.
</event>
<event>
 4    1  0.1977762E-002  0.9118800E+02  0.7818608E-02  0.1130116E+00
         25   -1    0    0    0    0  0.00000000000E+00  0.00000000000E+00  0.99999998245E-14  0.12500000000E+03  0.12500000000E+03 0.  0.
        -11    1    1    0    0    0  0.34863570323E+02  0.30951934951E+02  0.26172400050E+02  0.53464804661E+02  0.51100000000E-03 0.  1.
         11    1    1    0    0    0  0.64318647886E+01  0.48819421974E+01  0.40815754029E+01  0.90477346506E+01  0.51100000000E-03 0. -1.
         22    1    1    0    0    0 -0.41295435111E+02 -0.35833877148E+02 -0.30253975453E+02  0.62487460688E+02  0.00000000000E+00 0.  1.
</event>
<event>
 4    1  0.1977762E-002  0.9118800E+02  0.7818608E-02  0.1130116E+00
         25   -1    0    0    0    0  0.00000000000E+00  0.00000000000E+00  0.99999998245E-14  0.12500000000E+03  0.12500000000E+03 0.  0.
        -11    1    1    0    0    0 -0.33126268310E+02  0.38023256229E+02 -0.59268464201E+01  0.50776423418E+02  0.51100000000E-03 0. -1.
         11    1    1    0    0    0 -0.99797654963E+01  0.65815624132E+01  0.75876728389E+00  0.11978664834E+02  0.51100000000E-03 0.  1.
         22    1    1    0    0    0  0.43106033806E+02 -0.44604818642E+02  0.51680791362E+01  0.62244911748E+02  0.00000000000E+00 0. -1.
</event>
<event>
 4    1  0.1977762E-002  0.9118800E+02  0.7818608E-02  0.1130116E+00
         25   -1    0    0    0    0  0.00000000000E+00  0.00000000000E+00  0.99999998245E-14  0.12500000000E+03  0.12500000000E+03 0.  0.
        -11    1    1    0    0    0 -0.81696632545E+01  0.28919581755E+01  0.97188341632E+01  0.13021618852E+02  0.51100000000E-03 0.  1.
         11    1    1    0    0    0 -0.31043254368E+02  0.10990723304E+02  0.36927368734E+02  0.49478381162E+02  0.51100000000E-03 0.  1.
         22    1    1    0    0    0  0.39212917622E+02 -0.13882681480E+02 -0.46646202897E+02  0.62499999986E+02  0.00000000000E+00 0.  1.
</event>
<event>
 4    1  0.1977762E-002  0.9118800E+02  0.7818608E-02  0.1130116E+00
         25   -1    0    0    0    0  0.00000000000E+00  0.00000000000E+00  0.99999998245E-14  0.12500000000E+03  0.12500000000E+03 0.  0.
        -11    1    1    0    0    0 -0.79746104334E+01  0.39450026355E+01 -0.10039296278E+02  0.13414355272E+02  0.51100000000E-03 0. -1.
         11    1    1    0    0    0 -0.29174508833E+02  0.14464766454E+02 -0.36728996516E+02  0.49085645759E+02  0.51100000000E-03 0.  1.
         22    1    1    0    0    0  0.37149119267E+02 -0.18409769090E+02  0.46768292794E+02  0.62499998969E+02  0.00000000000E+00 0.  1.
</event>
<event>
 4    1  0.1977762E-002  0.9118800E+02  0.7818608E-02  0.1130116E+00
         25   -1    0    0    0    0  0.00000000000E+00  0.00000000000E+00  0.99999998245E-14  0.12500000000E+03  0.12500000000E+03 0.  0.
        -11    1    1    0    0    0 -0.40707206364E+01 -0.22430796562E+02  0.47576415339E+01  0.23288335152E+02  0.51100000000E-03 0.  1.
         11    1    1    0    0    0 -0.45611976278E+01 -0.38939644443E+02  0.26536441961E+01  0.39295575590E+02  0.51100000000E-03 0. -1.
         22    1    1    0    0    0  0.86319182642E+01  0.61370441005E+02 -0.74112857300E+01  0.62416089258E+02  0.00000000000E+00 0.  1.
</event>
<event>
 4    1  0.1977762E-002  0.9118800E+02  0.7818608E-02  0.1130116E+00
         25   -1    0    0    0    0  0.00000000000E+00  0.00000000000E+00  0.99999998245E-14  0.12500000000E+03  0.12500000000E+03 0.  0.
        -11    1    1    0    0    0 -0.34866591799E+02 -0.90341351730E+01 -0.24053009819E+02  0.43310992873E+02  0.51100000000E-03 0. -1.
         11    1    1    0    0    0 -0.15367320903E+02 -0.40560139306E+01 -0.10752609304E+02  0.19189174236E+02  0.51100000000E-03 0.  1.
         22    1    1    0    0    0  0.50233912702E+02  0.13090149104E+02  0.34805619123E+02  0.62499832891E+02  0.00000000000E+00 0.  1.
</event>
<event>
 4    1  0.1977762E-002  0.9118800E+02  0.7818608E-02  0.1130116E+00
         25   -1    0    0    0    0  0.00000000000E+00  0.00000000000E+00  0.99999998245E-14  0.12500000000E+03  0.12500000000E+03 0.  0.
        -11    1    1    0    0    0  0.26671912001E+02 -0.60077020819E+01 -0.32243774729E+02  0.42274630491E+02  0.51100000000E-03 0. -1.
         11    1    1    0    0    0  0.12760056327E+02 -0.28735494473E+01 -0.15426900148E+02  0.20225369523E+02  0.51100000000E-03 0.  1.
         22    1    1    0    0    0 -0.39431968329E+02  0.88812515292E+01  0.47670674877E+02  0.62499999986E+02  0.00000000000E+00 0. -1.
</event>
<event>
 4    1  0.1977762E-002  0.9118800E+02  0.7818608E-02  0.1130116E+00
         25   -1    0    0    0    0  0.00000000000E+00  0.00000000000E+00  0.99999998245E-14  0.12500000000E+03  0.12500000000E+03 0.  0.
        -11    1    1    0    0    0  0.23007824133E+01  0.21214255064E+01 -0.66205589151E+01  0.73229670559E+01  0.51100000000E-03 0.  1.
         11    1    1    0    0    0  0.17245555030E+02  0.15502507741E+02 -0.50067795105E+02  0.55177178448E+02  0.51100000000E-03 0. -1.
         22    1    1    0    0    0 -0.19546337443E+02 -0.17623933247E+02  0.56688354020E+02  0.62499854496E+02  0.00000000000E+00 0.  1.
</event>
<event>
 4    1  0.1977762E-002  0.9118800E+02  0.7818608E-02  0.1130116E+00
         25   -1    0    0    0    0  0.00000000000E+00  0.00000000000E+00  0.99999998245E-14  0.12500000000E+03  0.12500000000E+03 0.  0.
        -11    1    1    0    0    0  0.10602690582E+02  0.17623343754E+02 -0.55580699599E+00  0.20574455384E+02  0.51100000000E-03 0. -1.
         11    1    1    0    0    0  0.21624487766E+02  0.35901727876E+02 -0.10950178499E+01  0.41925548297E+02  0.51100000000E-03 0.  1.
         22    1    1    0    0    0 -0.32227178349E+02 -0.53525071630E+02  0.16508248459E+01  0.62499996320E+02  0.00000000000E+00 0.  1.
</event>
<event>
 4    1  0.1977762E-002  0.9118800E+02  0.7818608E-02  0.1130116E+00
         25   -1    0    0    0    0  0.00000000000E+00  0.00000000000E+00  0.99999998245E-14  0.12500000000E+03  0.12500000000E+03 0.  0.
        -11    1    1    0    0    0 -0.12678457966E+02 -0.71379136264E+01  0.11203545054E+02  0.18363347444E+02  0.51100000000E-03 0.  1.
         11    1    1    0    0    0 -0.41291062061E+02  0.20359706672E+02  0.10090740353E+02  0.47130589887E+02  0.51100000000E-03 0. -1.
         22    1    1    0    0    0  0.53969520027E+02 -0.13221793046E+02 -0.21294285407E+02  0.59506062669E+02  0.00000000000E+00 0. -1.
</event>
<event>
 4    1  0.1977762E-002  0.9118800E+02  0.7818608E-02  0.1130116E+00
         25   -1    0    0    0    0  0.00000000000E+00  0.00000000000E+00  0.99999998245E-14  0.12500000000E+03  0.12500000000E+03 0.  0.
        -11    1    1    0    0    0  0.21859927460E+01 -0.10119529120E+02 -0.15594893940E+02  0.18718550990E+02  0.51100000000E-03 0. -1.
         11    1    1    0    0    0  0.47770569718E+01 -0.23399302019E+02 -0.36694722309E+02  0.43781848453E+02  0.51100000000E-03 0.  1.
         22    1    1    0    0    0 -0.69630497178E+01  0.33518831140E+02  0.52289616249E+02  0.62499600557E+02  0.00000000000E+00 0.  1.
</event>
<event>
 4    1  0.1977762E-002  0.9118800E+02  0.7818608E-02  0.1130116E+00
         25   -1    0    0    0    0  0.00000000000E+00  0.00000000000E+00  0.99999998245E-14  0.12500000000E+03  0.12500000000E+03 0.  0.
        -11    1    1    0    0    0 -0.11977134550E+02  0.35151109184E+01 -0.18045110254E+01  0.12612058400E+02  0.51100000000E-03 0. -1.
         11    1    1    0    0    0 -0.48821869384E+02  0.10441955014E+02 -0.11256507242E+01  0.49938726900E+02  0.51100000000E-03 0.  1.
         22    1    1    0    0    0  0.60799003933E+02 -0.13957065933E+02  0.29301617496E+01  0.62449214699E+02  0.00000000000E+00 0.  1.
</event>
<event>
 4    1  0.1977762E-002  0.9118800E+02  0.7818608E-02  0.1130116E+00
         25   -1    0    0    0    0  0.00000000000E+00  0.00000000000E+00  0.99999998245E-14  0.12500000000E+03  0.12500000000E+03 0.  0.
        -11    1    1    0    0    0 -0.25723918053E+02  0.36314938153E+02 -0.38724742878E+02  0.58992375815E+02  0.51100000000E-03 0. -1.
         11    1    1    0    0    0 -0.16176329767E+01  0.20803631493E+01 -0.23163487875E+01  0.35085779522E+01  0.51100000000E-03 0.  1.
         22    1    1    0    0    0  0.27341551030E+02 -0.38395301303E+02  0.41041091666E+02  0.62499046232E+02  0.00000000000E+00 0. -1.
</event>
<event>
 4    1  0.1977762E-002  0.9118800E+02  0.7818608E-02  0.1130116E+00
         25   -1    0    0    0    0  0.00000000000E+00  0.00000000000E+00  0.99999998245E-14  0.12500000000E+03  0.12500000000E+03 0.  0.
        -11    1    1    0    0    0 -0.87132015091E+01  0.43543818783E+02  0.33078257600E+02  0.55372873872E+02  0.51100000000E-03 0. -1.
         11    1    1    0    0    0 -0.31674940920E+01  0.17697158768E+01  0.70601425803E+01  0.79379170204E+01  0.51100000000E-03 0.  1.
         22    1    1    0    0    0  0.11880695601E+02 -0.45313534660E+02 -0.40138400180E+02  0.61689209108E+02  0.00000000000E+00 0. -1.
</event>
<event>
 4    1  0.1977762E-002  0.9118800E+02  0.7818608E-02  0.1130116E+00
         25   -1    0    0    0    0  0.00000000000E+00  0.00000000000E+00  0.99999998245E-14  0.12500000000E+03  0.12500000000E+03 0.  0.
        -11    1    1    0    0    0  0.48802292754E+02  0.52176178785E+01  0.30293560468E+02  0.57676573411E+02  0.51100000000E-03 0.  1.
         11    1    1    0    0    0  0.40806655016E+01  0.43613830793E+00  0.25344421601E+01  0.48234266744E+01  0.51100000000E-03 0. -1.
         22    1    1    0    0    0 -0.52882958255E+02 -0.56537561864E+01 -0.32828002628E+02  0.62499999915E+02  0.00000000000E+00 0.  1.
</event>
<event>
 4    1  0.1977762E-002  0.9118800E+02  0.7818608E-02  0.1130116E+00
         25   -1    0    0    0    0  0.00000000000E+00  0.00000000000E+00  0.99999998245E-14  0.12500000000E+03  0.12500000000E+03 0.  0.
        -11    1    1    0    0    0 -0.57321488579E+00 -0.49154763065E+01  0.61053422433E+00  0.49863047365E+01  0.51100000000E-03 0. -1.
         11    1    1    0    0    0 -0.13399814364E+02 -0.55904022639E+02  0.23949085089E+01  0.57537382277E+02  0.51100000000E-03 0.  1.
         22    1    1    0    0    0  0.13973029250E+02  0.60819498946E+02 -0.30054427333E+01  0.62476312987E+02  0.00000000000E+00 0.  1.
</event>
<event>
 4    1  0.1977762E-002  0.9118800E+02  0.7818608E-02  0.1130116E+00
         25   -1    0    0    0    0  0.00000000000E+00  0.00000000000E+00  0.99999998245E-14  0.12500000000E+03  0.12500000000E+03 0.  0.
        -11    1    1    0    0    0  0.28182253691E+02  0.45550249674E+02  0.25645853369E+02  0.59386652236E+02  0.51100000000E-03 0.  1.
         11    1    1    0    0    0  0.97866430702E+00  0.27988663765E+01  0.10664764702E+01  0.31510012919E+01  0.51100000000E-03 0. -1.
         22    1    1    0    0    0 -0.29160917998E+02 -0.48349116051E+02 -0.26712329839E+02  0.62462346472E+02  0.00000000000E+00 0.  1.
</event>
<event>
 4    1  0.1977762E-002  0.9118800E+02  0.7818608E-02  0.1130116E+00
         25   -1    0    0    0    0  0.00000000000E+00  0.00000000000E+00  0.99999998245E-14  0.12500000000E+03  0.12500000000E+03 0.  0.
        -11    1    1    0    0    0  0.13547482808E+02 -0.17294720636E+00  0.11058895548E+02  0.17488950002E+02  0.51100000000E-03 0.  1.
         11    1    1    0    0    0  0.37842268650E+02  0.41702889399E+01  0.24153412700E+02  0.45086760271E+02  0.51100000000E-03 0. -1.
         22    1    1    0    0    0 -0.51389751457E+02 -0.39973417336E+01 -0.35212308248E+02  0.62424289727E+02  0.00000000000E+00 0. -1.
</event>
<event>
 4    1  0.1977762E-002  0.9118800E+02  0.7818608E-02  0.1130116E+00
         25   -1    0    0    0    0  0.00000000000E+00  0.00000000000E+00  0.99999998245E-14  0.12500000000E+03  0.12500000000E+03 0.  0.
        -11    1    1    0    0    0  0.25356763100E+00  0.75731130995E+01  0.59351704134E+01  0.96251019038E+01  0.51100000000E-03 0.  1.
         11    1    1    0    0    0  0.13009472738E+01  0.41539079998E+02  0.32688969527E+02  0.52874912387E+02  0.51100000000E-03 0. -1.
         22    1    1    0    0    0 -0.15545149048E+01 -0.49112193098E+02 -0.38624139941E+02  0.62499985709E+02  0.00000000000E+00 0. -1.
</event>
<event>
 4    1  0.1977762E-002  0.9118800E+02  0.7818608E-02  0.1130116E+00
         25   -1    0    0    0    0  0.00000000000E+00  0.00000000000E+00  0.99999998245E-14  0.12500000000E+03  0.12500000000E+03 0.  0.
        -11    1    1    0    0    0  0.25807958815E+02  0.35417098951E+02  0.49133745711E+01  0.44097198168E+02  0.51100000000E-03 0.  1.
         11    1    1    0    0    0  0.10650909792E+02  0.14854777592E+02  0.21369214636E+01  0.18403063069E+02  0.51100000000E-03 0. -1.
         22    1    1    0    0    0 -0.36458868607E+02 -0.50271876544E+02 -0.70502960347E+01  0.62499738763E+02  0.00000000000E+00 0.  1.
</event>
<event>
 4    1  0.1977762E-002  0.9118800E+02  0.7818608E-02  0.1130116E+00
         25   -1    0    0    0    0  0.00000000000E+00  0.00000000000E+00  0.99999998245E-14  0.12500000000E+03  0.12500000000E+03 0.  0.
        -11    1    1    0    0    0  0.79452684799E+01 -0.17452098119E+02  0.35620578750E+02  0.40454031328E+02  0.51100000000E-03 0. -1.
         11    1    1    0    0    0  0.46108464745E+01 -0.94517942822E+01  0.19376673852E+02  0.22046582733E+02  0.51100000000E-03 0.  1.
         22    1    1    0    0    0 -0.12556114954E+02  0.26903892401E+02 -0.54997252602E+02  0.62499385939E+02  0.00000000000E+00 0. -1.
</event>
<event>
 4    1  0.1977762E-002  0.9118800E+02  0.7818608E-02  0.1130116E+00
         25   -1    0    0    0    0  0.00000000000E+00  0.00000000000E+00  0.99999998245E-14  0.12500000000E+03  0.12500000000E+03 0.  0.
        -11    1    1    0    0    0  0.37488800589E+02  0.12969588008E+02 -0.22770823409E+02  0.45739816153E+02  0.51100000000E-03 0. -1.
         11    1    1    0    0    0  0.13850731653E+02  0.46681341741E+01 -0.82026915484E+01  0.16760620301E+02  0.51100000000E-03 0.  1.
         22    1    1    0    0    0 -0.51339532242E+02 -0.17637722183E+02  0.30973514958E+02  0.62499563546E+02  0.00000000000E+00 0. -1.
</event>
<event>
 4    1  0.1977762E-002  0.9118800E+02  0.7818608E-02  0.1130116E+00
         25   -1    0    0    0    0  0.00000000000E+00  0.00000000000E+00  0.99999998245E-14  0.12500000000E+03  0.12500000000E+03 0.  0.
        -11    1    1    0    0    0 -0.16554177060E+02 -0.15771037097E+02  0.13392365563E+02  0.26497581868E+02  0.51100000000E-03 0. -1.
         11    1    1    0    0    0 -0.24456485010E+02 -0.27990205112E+02 -0.57598748385E+00  0.37173955978E+02  0.51100000000E-03 0.  1.
         22    1    1    0    0    0  0.41010662070E+02  0.43761242209E+02 -0.12816378079E+02  0.61328462153E+02  0.00000000000E+00 0.  1.
</event>
<event>
 4    1  0.1977762E-002  0.9118800E+02  0.7818608E-02  0.1130116E+00
         25   -1    0    0    0    0  0.00000000000E+00  0.00000000000E+00  0.99999998245E-14  0.12500000000E+03  0.12500000000E+03 0.  0.
        -11    1    1    0    0    0  0.31910092494E+00  0.16549686944E+02 -0.28400959941E+02  0.32872610015E+02  0.51100000000E-03 0. -1.
         11    1    1    0    0    0  0.37511569830E-01  0.16269518307E+02 -0.24774182951E+02  0.29638805209E+02  0.51100000000E-03 0.  1.
         22    1    1    0    0    0 -0.35661249477E+00 -0.32819205251E+02  0.53175142892E+02  0.62488584776E+02  0.00000000000E+00 0. -1.
</event>
<event>
 4    1  0.1977762E-002  0.9118800E+02  0.7818608E-02  0.1130116E+00
         25   -1    0    0    0    0  0.00000000000E+00  0.00000000000E+00  0.99999998245E-14  0.12500000000E+03  0.12500000000E+03 0.  0.
        -11    1    1    0    0    0  0.94436486429E+01 -0.41480541026E+02  0.15877970749E+02  0.45408454487E+02  0.51100000000E-03 0. -1.
         11    1    1    0    0    0  0.12532744950E+02 -0.74399632266E+01  0.12244371929E+02  0.19035424687E+02  0.51100000000E-03 0.  1.
         22    1    1    0    0    0 -0.21976393593E+02  0.48920504253E+02 -0.28122342679E+02  0.60556120826E+02  0.00000000000E+00 0. -1.
</event>
<event>
 4    1  0.1977762E-002  0.9118800E+02  0.7818608E-02  0.1130116E+00
         25   -1    0    0    0    0  0.00000000000E+00  0.00000000000E+00  0.99999998245E-14  0.12500000000E+03  0.12500000000E+03 0.  0.
        -11    1    1    0    0    0 -0.28015738787E+02  0.26787627472E+01  0.19297835558E+02  0.34124241341E+02  0.51100000000E-03 0.  1.
         11    1    1    0    0    0  0.71574804037E+01  0.24128861027E+01  0.33257163890E+02  0.34104112587E+02  0.51100000000E-03 0. -1.
         22    1    1    0    0    0  0.20858258383E+02 -0.50916488499E+01 -0.52554999448E+02  0.56771646072E+02  0.00000000000E+00 0. -1.
</event>
<event>
 4    1  0.1977762E-002  0.9118800E+02  0.7818608E-02  0.1130116E+00
         25   -1    0    0    0    0  0.00000000000E+00  0.00000000000E+00  0.99999998245E-14  0.12500000000E+03  0.12500000000E+03 0.  0.
        -11    1    1    0    0    0  0.11255046746E+02 -0.33101125402E+02 -0.28792861035E-01  0.34962285529E+02  0.51100000000E-03 0.  1.
         11    1    1    0    0    0  0.88743167300E+01 -0.26068597574E+02 -0.21658719304E-01  0.27537714979E+02  0.51100000000E-03 0. -1.
         22    1    1    0    0    0 -0.20129363476E+02  0.59169722976E+02  0.50451580338E-01  0.62499999491E+02  0.00000000000E+00 0. -1.
</event>
<event>
 4    1  0.1977762E-002  0.9118800E+02  0.7818608E-02  0.1130116E+00
         25   -1    0    0    0    0  0.00000000000E+00  0.00000000000E+00  0.99999998245E-14  0.12500000000E+03  0.12500000000E+03 0.  0.
        -11    1    1    0    0    0  0.31335585535E+02  0.64008858947E+01  0.83693376036E+01  0.33059583682E+02  0.51100000000E-03 0. -1.
         11    1    1    0    0    0  0.27705552398E+02  0.67385528066E+01  0.73505713497E+01  0.29445485681E+02  0.51100000000E-03 0.  1.
         22    1    1    0    0    0 -0.59041137933E+02 -0.13139438701E+02 -0.15719908953E+02  0.62494930636E+02  0.00000000000E+00 0.  1.
</event>
<event>
 4    1  0.1977762E-002  0.9118800E+02  0.7818608E-02  0.1130116E+00
         25   -1    0    0    0    0  0.00000000000E+00  0.00000000000E+00  0.99999998245E-14  0.12500000000E+03  0.12500000000E+03 0.  0.
        -11    1    1    0    0    0  0.12373582865E+00  0.24434412522E+00 -0.13109902528E+00  0.30364752983E+00  0.51100000000E-03 0. -1.
         11    1    1    0    0    0  0.56533146663E+02  0.25851607388E+02 -0.30411056215E+01  0.62237855039E+02  0.51100000000E-03 0.  1.
         22    1    1    0    0    0 -0.56656882492E+02 -0.26095951513E+02  0.31722046468E+01  0.62458497431E+02  0.00000000000E+00 0.  1.
</event>
<event>
 4    1  0.1977762E-002  0.9118800E+02  0.7818608E-02  0.1130116E+00
         25   -1    0    0    0    0  0.00000000000E+00  0.00000000000E+00  0.99999998245E-14  0.12500000000E+03  0.12500000000E+03 0.  0.
        -11    1    1    0    0    0 -0.14536966699E+02  0.13666829092E+02 -0.18946823780E+02  0.27515227600E+02  0.51100000000E-03 0. -1.
         11    1    1    0    0    0 -0.18622167417E+02  0.17177784452E+02 -0.24126461947E+02  0.34984961974E+02  0.51100000000E-03 0.  1.
         22    1    1    0    0    0  0.33159134117E+02 -0.30844613544E+02  0.43073285726E+02  0.62499810426E+02  0.00000000000E+00 0.  1.
</event>
<event>
 4    1  0.1977762E-002  0.9118800E+02  0.7818608E-02  0.1130116E+00
         25   -1    0    0    0    0  0.00000000000E+00  0.00000000000E+00  0.99999998245E-14  0.12500000000E+03  0.12500000000E+03 0.  0.
        -11    1    1    0    0    0 -0.20266008598E+02 -0.19879829664E+01  0.24621992896E+02  0.31951615221E+02  0.51100000000E-03 0. -1.
         11    1    1    0    0    0 -0.19376549512E+02 -0.19004359076E+01  0.23540209963E+02  0.30548384786E+02  0.51100000000E-03 0. -1.
         22    1    1    0    0    0  0.39642558111E+02  0.38884188740E+01 -0.48162202859E+02  0.62499999993E+02  0.00000000000E+00 0. -1.
</event>
<event>
 4    1  0.1977762E-002  0.9118800E+02  0.7818608E-02  0.1130116E+00
         25   -1    0    0    0    0  0.00000000000E+00  0.00000000000E+00  0.99999998245E-14  0.12500000000E+03  0.12500000000E+03 0.  0.
        -11    1    1    0    0    0  0.12726992337E+00 -0.32062525361E+02 -0.10528592419E+02  0.33747192309E+02  0.51100000000E-03 0.  1.
         11    1    1    0    0    0  0.10889680878E+00 -0.27317812514E+02 -0.89693484419E+01  0.28752807702E+02  0.51100000000E-03 0.  1.
         22    1    1    0    0    0 -0.23616673215E+00  0.59380337874E+02  0.19497940860E+02  0.62499999989E+02  0.00000000000E+00 0.  1.
</event>
<event>
 4    1  0.1977762E-002  0.9118800E+02  0.7818608E-02  0.1130116E+00
         25   -1    0    0    0    0  0.00000000000E+00  0.00000000000E+00  0.99999998245E-14  0.12500000000E+03  0.12500000000E+03 0.  0.
        -11    1    1    0    0    0 -0.82987002531E+01  0.66956456815E+00 -0.18431928537E+02  0.20225052100E+02  0.51100000000E-03 0.  1.
         11    1    1    0    0    0 -0.17338884352E+02  0.14017729828E+01 -0.38530109695E+02  0.42274948036E+02  0.51100000000E-03 0. -1.
         22    1    1    0    0    0  0.25637584605E+02 -0.20713375510E+01  0.56962038231E+02  0.62499999865E+02  0.00000000000E+00 0.  1.
</event>
<event>
 4    1  0.1977762E-002  0.9118800E+02  0.7818608E-02  0.1130116E+00
         25   -1    0    0    0    0  0.00000000000E+00  0.00000000000E+00  0.99999998245E-14  0.12500000000E+03  0.12500000000E+03 0.  0.
        -11    1    1    0    0    0 -0.20687263837E+02  0.25628479198E+02  0.10718790075E+02  0.34636314643E+02  0.51100000000E-03 0.  1.
         11    1    1    0    0    0 -0.16711088524E+02  0.20623496534E+02  0.84736868012E+01  0.27863819861E+02  0.51100000000E-03 0. -1.
         22    1    1    0    0    0  0.37398352361E+02 -0.46251975733E+02 -0.19192476876E+02  0.62499865497E+02  0.00000000000E+00 0.  1.
</event>
<event>
 4    1  0.1977762E-002  0.9118800E+02  0.7818608E-02  0.1130116E+00
         25   -1    0    0    0    0  0.00000000000E+00  0.00000000000E+00  0.99999998245E-14  0.12500000000E+03  0.12500000000E+03 0.  0.
        -11    1    1    0    0    0 -0.11156731706E+02  0.25227612472E+01  0.26527323344E+02  0.28888334509E+02  0.51100000000E-03 0.  1.
         11    1    1    0    0    0 -0.25709404628E+01 -0.11465582945E+00  0.33950893142E+02  0.34048289623E+02  0.51100000000E-03 0. -1.
         22    1    1    0    0    0  0.13727672168E+02 -0.24081054178E+01 -0.60478216486E+02  0.62063375868E+02  0.00000000000E+00 0.  1.
</event>
<event>
 4    1  0.1977762E-002  0.9118800E+02  0.7818608E-02  0.1130116E+00
         25   -1    0    0    0    0  0.00000000000E+00  0.00000000000E+00  0.99999998245E-14  0.12500000000E+03  0.12500000000E+03 0.  0.
        -11    1    1    0    0    0 -0.15705653085E+02  0.41004964564E+02 -0.11169149507E+02  0.45308106986E+02  0.51100000000E-03 0.  1.
         11    1    1    0    0    0 -0.59597724231E+01  0.15558076710E+02 -0.42412912231E+01  0.17191893140E+02  0.51100000000E-03 0. -1.
         22    1    1    0    0    0  0.21665425508E+02 -0.56563041274E+02  0.15410440730E+02  0.62499999873E+02  0.00000000000E+00 0.  1.
</event>
<event>
 4    1  0.1977762E-002  0.9118800E+02  0.7818608E-02  0.1130116E+00
         25   -1    0    0    0    0  0.00000000000E+00  0.00000000000E+00  0.99999998245E-14  0.12500000000E+03  0.12500000000E+03 0.  0.
        -11    1    1    0    0    0  0.69383324017E+01  0.94450680662E+01 -0.56775316113E+02  0.57972288960E+02  0.51100000000E-03 0. -1.
         11    1    1    0    0    0 -0.25142852492E+01  0.27998789553E+01 -0.36339767330E+01  0.52313229336E+01  0.51100000000E-03 0.  1.
         22    1    1    0    0    0 -0.44240471525E+01 -0.12244947022E+02  0.60409292846E+02  0.61796388106E+02  0.00000000000E+00 0. -1.
</event>
<event>
 4    1  0.1977762E-002  0.9118800E+02  0.7818608E-02  0.1130116E+00
         25   -1    0    0    0    0  0.00000000000E+00  0.00000000000E+00  0.99999998245E-14  0.12500000000E+03  0.12500000000E+03 0.  0.
        -11    1    1    0    0    0  0.21929873351E+02  0.11938124785E+02  0.33183128758E+02  0.41527800363E+02  0.51100000000E-03 0. -1.
         11    1    1    0    0    0  0.11078025123E+02  0.60444835299E+01  0.16750368312E+02  0.20972202093E+02  0.51100000000E-03 0.  1.
         22    1    1    0    0    0 -0.33007898474E+02 -0.17982608315E+02 -0.49933497070E+02  0.62499997545E+02  0.00000000000E+00 0.  1.
</event>
<event>
 4    1  0.1977762E-002  0.9118800E+02  0.7818608E-02  0.1130116E+00
         25   -1    0    0    0    0  0.00000000000E+00  0.00000000000E+00  0.99999998245E-14  0.12500000000E+03  0.12500000000E+03 0.  0.
        -11    1    1    0    0    0  0.31848786722E+02  0.42085354134E+02 -0.12776812148E+01  0.52793510186E+02  0.51100000000E-03 0.  1.
         11    1    1    0    0    0  0.66921992779E+01  0.70664400643E+01 -0.25424525887E-01  0.97324587349E+01  0.51100000000E-03 0. -1.
         22    1    1    0    0    0 -0.38540986000E+02 -0.49151794198E+02  0.13031057407E+01  0.62474031079E+02  0.00000000000E+00 0.  1.
</event>
<event>
 4    1  0.1977762E-002  0.9118800E+02  0.7818608E-02  0.1130116E+00
         25   -1    0    0    0    0  0.00000000000E+00  0.00000000000E+00  0.99999998245E-14  0.12500000000E+03  0.12500000000E+03 0.  0.
        -11    1    1    0    0    0  0.10148928326E+02 -0.31129200060E+02  0.13708238405E+00  0.32742123242E+02  0.51100000000E-03 0. -1.
         11    1    1    0    0    0  0.91280464428E+01 -0.28318371691E+02 -0.66880506190E+00  0.29760690643E+02  0.51100000000E-03 0.  1.
         22    1    1    0    0    0 -0.19276974769E+02  0.59447571751E+02  0.53172267785E+00  0.62497186115E+02  0.00000000000E+00 0.  1.
</event>
<event>
 4    1  0.1977762E-002  0.9118800E+02  0.7818608E-02  0.1130116E+00
         25   -1    0    0    0    0  0.00000000000E+00  0.00000000000E+00  0.99999998245E-14  0.12500000000E+03  0.12500000000E+03 0.  0.
        -11    1    1    0    0    0 -0.48638439737E+01 -0.44285867985E+02  0.65919271188E+00  0.44557037790E+02  0.51100000000E-03 0. -1.
         11    1    1    0    0    0 -0.19458911710E+01 -0.17835097530E+02  0.26974371442E+00  0.17942964033E+02  0.51100000000E-03 0.  1.
         22    1    1    0    0    0  0.68097351448E+01  0.62120965515E+02 -0.92893642629E+00  0.62499998177E+02  0.00000000000E+00 0. -1.
</event>
<event>
 4    1  0.1977762E-002  0.9118800E+02  0.7818608E-02  0.1130116E+00
         25   -1    0    0    0    0  0.00000000000E+00  0.00000000000E+00  0.99999998245E-14  0.12500000000E+03  0.12500000000E+03 0.  0.
        -11    1    1    0    0    0 -0.10977149688E+01 -0.75842010394E+00 -0.10405738191E+01  0.16920323108E+01  0.51100000000E-03 0. -1.
         11    1    1    0    0    0 -0.53829572603E+02 -0.13914409221E+02 -0.24773856904E+02  0.60868527638E+02  0.51100000000E-03 0.  1.
         22    1    1    0    0    0  0.54927287572E+02  0.14672829325E+02  0.25814430723E+02  0.62439440052E+02  0.00000000000E+00 0.  1.
</event>
<event>
 4    1  0.1977762E-002  0.9118800E+02  0.7818608E-02  0.1130116E+00
         25   -1    0    0    0    0  0.00000000000E+00  0.00000000000E+00  0.99999998245E-14  0.12500000000E+03  0.12500000000E+03 0.  0.
        -11    1    1    0    0    0  0.39569109703E+02 -0.13339499353E+02 -0.77984152322E+01  0.42479076804E+02  0.51100000000E-03 0. -1.
         11    1    1    0    0    0  0.18649481666E+02 -0.62850339072E+01 -0.36786618208E+01  0.20020923322E+02  0.51100000000E-03 0.  1.
         22    1    1    0    0    0 -0.58218591369E+02  0.19624533260E+02  0.11477077053E+02  0.62499999875E+02  0.00000000000E+00 0. -1.
</event>
<event>
 4    1  0.1977762E-002  0.9118800E+02  0.7818608E-02  0.1130116E+00
         25   -1    0    0    0    0  0.00000000000E+00  0.00000000000E+00  0.99999998245E-14  0.12500000000E+03  0.12500000000E+03 0.  0.
        -11    1    1    0    0    0 -0.88002874050E+01  0.35098549989E+00  0.42745465385E+01  0.97897904780E+01  0.51100000000E-03 0.  1.
         11    1    1    0    0    0 -0.47403561792E+02  0.18721515917E+01  0.22973109560E+02  0.52710211395E+02  0.51100000000E-03 0. -1.
         22    1    1    0    0    0  0.56203849197E+02 -0.22231370916E+01 -0.27247656099E+02  0.62499998127E+02  0.00000000000E+00 0. -1.
</event>
<event>
 4    1  0.1977762E-002  0.9118800E+02  0.7818608E-02  0.1130116E+00
         25   -1    0    0    0    0  0.00000000000E+00  0.00000000000E+00  0.99999998245E-14  0.12500000000E+03  0.12500000000E+03 0.  0.
        -11    1    1    0    0    0 -0.13781751613E+02  0.16788953539E+02  0.45731753217E+02  0.50628044511E+02  0.51100000000E-03 0.  1.
         11    1    1    0    0    0 -0.40512836060E+01  0.40880744923E+01  0.10399142924E+02  0.11885597408E+02  0.51100000000E-03 0. -1.
         22    1    1    0    0    0  0.17833035219E+02 -0.20877028031E+02 -0.56130896142E+02  0.62486358081E+02  0.00000000000E+00 0.  1.
</event>
<event>
 4    1  0.1977762E-002  0.9118800E+02  0.7818608E-02  0.1130116E+00
         25   -1    0    0    0    0  0.00000000000E+00  0.00000000000E+00  0.99999998245E-14  0.12500000000E+03  0.12500000000E+03 0.  0.
        -11    1    1    0    0    0 -0.97295968633E+00 -0.74691348914E+01 -0.23669722109E+02  0.24839290883E+02  0.51100000000E-03 0. -1.
         11    1    1    0    0    0 -0.28906281250E+01 -0.12193121855E+02 -0.35522887904E+02  0.37668335732E+02  0.51100000000E-03 0.  1.
         22    1    1    0    0    0  0.38635878113E+01  0.19662256746E+02  0.59192610013E+02  0.62492373385E+02  0.00000000000E+00 0.  1.
</event>
<event>
 4    1  0.1977762E-002  0.9118800E+02  0.7818608E-02  0.1130116E+00
         25   -1    0    0    0    0  0.00000000000E+00  0.00000000000E+00  0.99999998245E-14  0.12500000000E+03  0.12500000000E+03 0.  0.
        -11    1    1    0    0    0 -0.16469122786E+02 -0.67277492965E+00  0.19220005042E+02  0.25319818829E+02  0.51100000000E-03 0. -1.
         11    1    1    0    0    0 -0.24178521099E+02 -0.98897149349E+00  0.28227414585E+02  0.37180181301E+02  0.51100000000E-03 0.  1.
         22    1    1    0    0    0  0.40647643885E+02  0.16617464231E+01 -0.47447419627E+02  0.62499999871E+02  0.00000000000E+00 0. -1.
</event>
<event>
 4    1  0.1977762E-002  0.9118800E+02  0.7818608E-02  0.1130116E+00
         25   -1    0    0    0    0  0.00000000000E+00  0.00000000000E+00  0.99999998245E-14  0.12500000000E+03  0.12500000000E+03 0.  0.
        -11    1    1    0    0    0 -0.33056122535E+02  0.35754998585E+02 -0.21950054198E+01  0.48743668409E+02  0.51100000000E-03 0.  1.
         11    1    1    0    0    0 -0.92877032472E+01  0.10128043508E+02 -0.63184756185E+00  0.13756377740E+02  0.51100000000E-03 0. -1.
         22    1    1    0    0    0  0.42343825783E+02 -0.45883042093E+02  0.28268529816E+01  0.62499953851E+02  0.00000000000E+00 0.  1.
</event>
<event>
 4    1  0.1977762E-002  0.9118800E+02  0.7818608E-02  0.1130116E+00
         25   -1    0    0    0    0  0.00000000000E+00  0.00000000000E+00  0.99999998245E-14  0.12500000000E+03  0.12500000000E+03 0.  0.
        -11    1    1    0    0    0 -0.40344940027E+02 -0.10770830682E+02  0.47964290020E+01  0.42032495890E+02  0.51100000000E-03 0.  1.
         11    1    1    0    0    0 -0.18820742709E+02 -0.30428538285E+01  0.83354907673E+01  0.20807684209E+02  0.51100000000E-03 0. -1.
         22    1    1    0    0    0  0.59165682735E+02  0.13813684511E+02 -0.13131919769E+02  0.62159819901E+02  0.00000000000E+00 0. -1.
</event>
<event>
 4    1  0.1977762E-002  0.9118800E+02  0.7818608E-02  0.1130116E+00
         25   -1    0    0    0    0  0.00000000000E+00  0.00000000000E+00  0.99999998245E-14  0.12500000000E+03  0.12500000000E+03 0.  0.
        -11    1    1    0    0    0 -0.13241153072E+02 -0.23422930624E+01  0.77584071770E+01  0.15524411540E+02  0.51100000000E-03 0.  1.
         11    1    1    0    0    0 -0.40083912974E+02 -0.70444352617E+01  0.23459796805E+02  0.46975591682E+02  0.51100000000E-03 0. -1.
         22    1    1    0    0    0  0.53325066046E+02  0.93867283241E+01 -0.31218203982E+02  0.62499996778E+02  0.00000000000E+00 0. -1.
</event>
<event>
 4    1  0.1977762E-002  0.9118800E+02  0.7818608E-02  0.1130116E+00
         25   -1    0    0    0    0  0.00000000000E+00  0.00000000000E+00  0.99999998245E-14  0.12500000000E+03  0.12500000000E+03 0.  0.
        -11    1    1    0    0    0  0.30833302625E+02 -0.30611650185E+02 -0.25307554442E+02  0.50281586986E+02  0.51100000000E-03 0.  1.
         11    1    1    0    0    0  0.74913355928E+01 -0.74375653563E+01 -0.61524087112E+01  0.12218413179E+02  0.51100000000E-03 0. -1.
         22    1    1    0    0    0 -0.38324638218E+02  0.38049215541E+02  0.31459963153E+02  0.62499999835E+02  0.00000000000E+00 0.  1.
</event>
<event>
 4    1  0.1977762E-002  0.9118800E+02  0.7818608E-02  0.1130116E+00
         25   -1    0    0    0    0  0.00000000000E+00  0.00000000000E+00  0.99999998245E-14  0.12500000000E+03  0.12500000000E+03 0.  0.
        -11    1    1    0    0    0  0.91291794982E+01  0.45136686903E+02 -0.55222806875E+01  0.46380577909E+02  0.51100000000E-03 0. -1.
         11    1    1    0    0    0  0.12733221135E+02  0.11637422975E+02  0.42601048254E+01  0.17768315265E+02  0.51100000000E-03 0.  1.
         22    1    1    0    0    0 -0.21862400633E+02 -0.56774109879E+02  0.12621758621E+01  0.60851106826E+02  0.00000000000E+00 0. -1.
</event>
<event>
 4    1  0.1977762E-002  0.9118800E+02  0.7818608E-02  0.1130116E+00
         25   -1    0    0    0    0  0.00000000000E+00  0.00000000000E+00  0.99999998245E-14  0.12500000000E+03  0.12500000000E+03 0.  0.
        -11    1    1    0    0    0 -0.11306254098E+02 -0.59866777804E+01  0.29588849644E+01  0.13131134492E+02  0.51100000000E-03 0. -1.
         11    1    1    0    0    0 -0.42494922753E+02 -0.22547312826E+02  0.11094385137E+02  0.49368868300E+02  0.51100000000E-03 0.  1.
         22    1    1    0    0    0  0.53801176850E+02  0.28533990606E+02 -0.14053270102E+02  0.62499997207E+02  0.00000000000E+00 0.  1.
</event>
<event>
 4    1  0.1977762E-002  0.9118800E+02  0.7818608E-02  0.1130116E+00
         25   -1    0    0    0    0  0.00000000000E+00  0.00000000000E+00  0.99999998245E-14  0.12500000000E+03  0.12500000000E+03 0.  0.
        -11    1    1    0    0    0  0.14404151795E+02  0.20858249336E+02  0.24360518329E+01  0.25465280345E+02  0.51100000000E-03 0.  1.
         11    1    1    0    0    0  0.70522665478E+01 -0.15154536843E+02  0.44541795910E+02  0.47574846648E+02  0.51100000000E-03 0. -1.
         22    1    1    0    0    0 -0.21456418343E+02 -0.57037124923E+01 -0.46977847743E+02  0.51959873007E+02  0.00000000000E+00 0. -1.
</event>
<event>
 4    1  0.1977762E-002  0.9118800E+02  0.7818608E-02  0.1130116E+00
         25   -1    0    0    0    0  0.00000000000E+00  0.00000000000E+00  0.99999998245E-14  0.12500000000E+03  0.12500000000E+03 0.  0.
        -11    1    1    0    0    0  0.38077845169E+01 -0.55286164671E+02 -0.16378715063E+02  0.57786862991E+02  0.51100000000E-03 0. -1.
         11    1    1    0    0    0  0.32013282467E+00 -0.45103502762E+01 -0.13296527616E+01  0.47131434699E+01  0.51100000000E-03 0.  1.
         22    1    1    0    0    0 -0.41279173416E+01  0.59796514947E+02  0.17708367824E+02  0.62499993539E+02  0.00000000000E+00 0. -1.
</event>
<event>
 4    1  0.1977762E-002  0.9118800E+02  0.7818608E-02  0.1130116E+00
         25   -1    0    0    0    0  0.00000000000E+00  0.00000000000E+00  0.99999998245E-14  0.12500000000E+03  0.12500000000E+03 0.  0.
        -11    1    1    0    0    0  0.36550244462E+02  0.18201838249E+02  0.27962560571E+02  0.49488706588E+02  0.51100000000E-03 0. -1.
         11    1    1    0    0    0  0.96099053902E+01  0.47822087023E+01  0.73534998511E+01  0.13011293633E+02  0.51100000000E-03 0.  1.
         22    1    1    0    0    0 -0.46160149852E+02 -0.22984046951E+02 -0.35316060422E+02  0.62499999779E+02  0.00000000000E+00 0. -1.
</event>
<event>
 4    1  0.1977762E-002  0.9118800E+02  0.7818608E-02  0.1130116E+00
         25   -1    0    0    0    0  0.00000000000E+00  0.00000000000E+00  0.99999998245E-14  0.12500000000E+03  0.12500000000E+03 0.  0.
        -11    1    1    0    0    0  0.12106857369E+02 -0.21096113574E+01 -0.11731647450E+02  0.16989938423E+02  0.51100000000E-03 0. -1.
         11    1    1    0    0    0  0.32442477397E+02 -0.56546868810E+01 -0.31411398086E+02  0.45510062111E+02  0.51100000000E-03 0.  1.
         22    1    1    0    0    0 -0.44549334766E+02  0.77642982384E+01  0.43143045536E+02  0.62499999467E+02  0.00000000000E+00 0.  1.
</event>
<event>
 4    1  0.1977762E-002  0.9118800E+02  0.7818608E-02  0.1130116E+00
         25   -1    0    0    0    0  0.00000000000E+00  0.00000000000E+00  0.99999998245E-14  0.12500000000E+03  0.12500000000E+03 0.  0.
        -11    1    1    0    0    0 -0.11635689771E+01 -0.17682684333E+02  0.64022045168E+00  0.17732487148E+02  0.51100000000E-03 0. -1.
         11    1    1    0    0    0 -0.23368070957E+02 -0.38231848507E+02 -0.88050236269E+01  0.45664750321E+02  0.51100000000E-03 0.  1.
         22    1    1    0    0    0  0.24531639934E+02  0.55914532840E+02  0.81648031752E+01  0.61602762531E+02  0.00000000000E+00 0.  1.
</event>
<event>
 4    1  0.1977762E-002  0.9118800E+02  0.7818608E-02  0.1130116E+00
         25   -1    0    0    0    0  0.00000000000E+00  0.00000000000E+00  0.99999998245E-14  0.12500000000E+03  0.12500000000E+03 0.  0.
        -11    1    1    0    0    0  0.82847896986E+01  0.17100759262E+02  0.27297132453E+02  0.33259692544E+02  0.51100000000E-03 0.  1.
         11    1    1    0    0    0  0.74541723280E+01  0.15365829247E+02  0.23735575997E+02  0.29241254448E+02  0.51100000000E-03 0. -1.
         22    1    1    0    0    0 -0.15738962027E+02 -0.32466588510E+02 -0.51032708450E+02  0.62499053008E+02  0.00000000000E+00 0. -1.
</event>
<event>
 4    1  0.1977762E-002  0.9118800E+02  0.7818608E-02  0.1130116E+00
         25   -1    0    0    0    0  0.00000000000E+00  0.00000000000E+00  0.99999998245E-14  0.12500000000E+03  0.12500000000E+03 0.  0.
        -11    1    1    0    0    0 -0.25364289019E+02 -0.90845969461E+01 -0.10090674700E+02  0.28769754523E+02  0.51100000000E-03 0.  1.
         11    1    1    0    0    0 -0.24856483670E+02 -0.97551117403E+01 -0.21233320859E+02  0.34115405618E+02  0.51100000000E-03 0. -1.
         22    1    1    0    0    0  0.50220772689E+02  0.18839708686E+02  0.31323995559E+02  0.62114839859E+02  0.00000000000E+00 0. -1.
</event>
<event>
 4    1  0.1977762E-002  0.9118800E+02  0.7818608E-02  0.1130116E+00
         25   -1    0    0    0    0  0.00000000000E+00  0.00000000000E+00  0.99999998245E-14  0.12500000000E+03  0.12500000000E+03 0.  0.
        -11    1    1    0    0    0  0.17675173729E+01 -0.13789260237E+01  0.24007449085E+02  0.24111888488E+02  0.51100000000E-03 0. -1.
         11    1    1    0    0    0  0.31389984555E+01 -0.25284451394E+01  0.38176470859E+02  0.38388660742E+02  0.51100000000E-03 0.  1.
         22    1    1    0    0    0 -0.49065158284E+01  0.39073711631E+01 -0.62183919943E+02  0.62499450770E+02  0.00000000000E+00 0.  1.
</event>
<event>
 4    1  0.1977762E-002  0.9118800E+02  0.7818608E-02  0.1130116E+00
         25   -1    0    0    0    0  0.00000000000E+00  0.00000000000E+00  0.99999998245E-14  0.12500000000E+03  0.12500000000E+03 0.  0.
        -11    1    1    0    0    0  0.65262237969E+00 -0.34619486111E+01  0.16549358749E+01  0.38922766048E+01  0.51100000000E-03 0. -1.
         11    1    1    0    0    0  0.10458513545E+02 -0.52039699619E+02  0.24846875705E+02  0.58607832877E+02  0.51100000000E-03 0.  1.
         22    1    1    0    0    0 -0.11111135924E+02  0.55501648230E+02 -0.26501811579E+02  0.62499890518E+02  0.00000000000E+00 0.  1.
</event>
<event>
 4    1  0.1977762E-002  0.9118800E+02  0.7818608E-02  0.1130116E+00
         25   -1    0    0    0    0  0.00000000000E+00  0.00000000000E+00  0.99999998245E-14  0.12500000000E+03  0.12500000000E+03 0.  0.
        -11    1    1    0    0    0 -0.15077236151E+01 -0.12965164846E+02 -0.97937301404E+01  0.16318268300E+02  0.51100000000E-03 0.  1.
         11    1    1    0    0    0 -0.26384689247E+02 -0.34604548122E+02 -0.17804256141E+02  0.47017210832E+02  0.51100000000E-03 0. -1.
         22    1    1    0    0    0  0.27892412862E+02  0.47569712968E+02  0.27597986281E+02  0.61664520868E+02  0.00000000000E+00 0. -1.
</event>
<event>
 4    1  0.1977762E-002  0.9118800E+02  0.7818608E-02  0.1130116E+00
         25   -1    0    0    0    0  0.00000000000E+00  0.00000000000E+00  0.99999998245E-14  0.12500000000E+03  0.12500000000E+03 0.  0.
        -11    1    1    0    0    0 -0.29183900525E+02 -0.41464618883E+02 -0.22428156619E+02  0.55443997678E+02  0.51100000000E-03 0. -1.
         11    1    1    0    0    0 -0.14419016224E+00 -0.34674640376E+01 -0.73946060994E+01  0.81684941869E+01  0.51100000000E-03 0.  1.
         22    1    1    0    0    0  0.29328090687E+02  0.44932082920E+02  0.29822762718E+02  0.61387508135E+02  0.00000000000E+00 0. -1.
</event>
<event>
 4    1  0.1977762E-002  0.9118800E+02  0.7818608E-02  0.1130116E+00
         25   -1    0    0    0    0  0.00000000000E+00  0.00000000000E+00  0.99999998245E-14  0.12500000000E+03  0.12500000000E+03 0.  0.
        -11    1    1    0    0    0 -0.29101464960E+02 -0.29991459910E+02  0.20917421010E+02  0.46732445178E+02  0.51100000000E-03 0. -1.
         11    1    1    0    0    0 -0.98202823338E+01 -0.10123493011E+02  0.70493093540E+01  0.15767555882E+02  0.51100000000E-03 0.  1.
         22    1    1    0    0    0  0.38921747294E+02  0.40114952921E+02 -0.27966730364E+02  0.62499998940E+02  0.00000000000E+00 0.  1.
</event>
<event>
 4    1  0.1977762E-002  0.9118800E+02  0.7818608E-02  0.1130116E+00
         25   -1    0    0    0    0  0.00000000000E+00  0.00000000000E+00  0.99999998245E-14  0.12500000000E+03  0.12500000000E+03 0.  0.
        -11    1    1    0    0    0  0.22402274985E+01  0.17163881640E+01  0.16181193381E+01  0.32531397184E+01  0.51100000000E-03 0. -1.
         11    1    1    0    0    0  0.17696793765E+02  0.56257811011E+02  0.85847525886E+01  0.59597112234E+02  0.51100000000E-03 0.  1.
         22    1    1    0    0    0 -0.19937021264E+02 -0.57974199175E+02 -0.10202871927E+02  0.62149748048E+02  0.00000000000E+00 0.  1.
</event>
<event>
 4    1  0.1977762E-002  0.9118800E+02  0.7818608E-02  0.1130116E+00
         25   -1    0    0    0    0  0.00000000000E+00  0.00000000000E+00  0.99999998245E-14  0.12500000000E+03  0.12500000000E+03 0.  0.
        -11    1    1    0    0    0 -0.46799545434E+02 -0.27258420607E+02 -0.88123340790E+01  0.54871451402E+02  0.51100000000E-03 0. -1.
         11    1    1    0    0    0 -0.65062049400E+01 -0.37879677096E+01 -0.12310027639E+01  0.76285496758E+01  0.51100000000E-03 0.  1.
         22    1    1    0    0    0  0.53305750374E+02  0.31046388316E+02  0.10043336843E+02  0.62499998922E+02  0.00000000000E+00 0. -1.
</event>
<event>
 4    1  0.1977762E-002  0.9118800E+02  0.7818608E-02  0.1130116E+00
         25   -1    0    0    0    0  0.00000000000E+00  0.00000000000E+00  0.99999998245E-14  0.12500000000E+03  0.12500000000E+03 0.  0.
        -11    1    1    0    0    0  0.16886124778E+02  0.28227918534E+02 -0.26896318056E+02  0.42489628382E+02  0.51100000000E-03 0. -1.
         11    1    1    0    0    0  0.72196204820E+01  0.13924571703E+02 -0.12439203336E+02  0.20018751133E+02  0.51100000000E-03 0.  1.
         22    1    1    0    0    0 -0.24105745260E+02 -0.42152490237E+02  0.39335521392E+02  0.62491620486E+02  0.00000000000E+00 0. -1.
</event>
<event>
 4    1  0.1977762E-002  0.9118800E+02  0.7818608E-02  0.1130116E+00
         25   -1    0    0    0    0  0.00000000000E+00  0.00000000000E+00  0.99999998245E-14  0.12500000000E+03  0.12500000000E+03 0.  0.
        -11    1    1    0    0    0  0.75286319067E+01  0.11996720848E+02 -0.11381628846E+02  0.18169839981E+02  0.51100000000E-03 0.  1.
         11    1    1    0    0    0  0.18308466487E+02  0.29299467633E+02 -0.27775978778E+02  0.44330167449E+02  0.51100000000E-03 0. -1.
         22    1    1    0    0    0 -0.25837098394E+02 -0.41296188481E+02  0.39157607624E+02  0.62499992570E+02  0.00000000000E+00 0. -1.
</event>
<event>
 4    1  0.1977762E-002  0.9118800E+02  0.7818608E-02  0.1130116E+00
         25   -1    0    0    0    0  0.00000000000E+00  0.00000000000E+00  0.99999998245E-14  0.12500000000E+03  0.12500000000E+03 0.  0.
        -11    1    1    0    0    0  0.47312945979E+02 -0.13180380221E+02  0.15912662302E+02  0.51627997267E+02  0.51100000000E-03 0.  1.
         11    1    1    0    0    0  0.99609305915E+01 -0.27728018842E+01  0.33603447473E+01  0.10872004673E+02  0.51100000000E-03 0. -1.
         22    1    1    0    0    0 -0.57273876571E+02  0.15953182106E+02 -0.19273007049E+02  0.62499998060E+02  0.00000000000E+00 0.  1.
</event>
<event>
 4    1  0.1977762E-002  0.9118800E+02  0.7818608E-02  0.1130116E+00
         25   -1    0    0    0    0  0.00000000000E+00  0.00000000000E+00  0.99999998245E-14  0.12500000000E+03  0.12500000000E+03 0.  0.
        -11    1    1    0    0    0  0.30105333239E+01 -0.21827929355E+02 -0.76363927787E+01  0.23320298149E+02  0.51100000000E-03 0.  1.
         11    1    1    0    0    0  0.50575842159E+01 -0.36672439130E+02 -0.12829734502E+02  0.39179701855E+02  0.51100000000E-03 0.  1.
         22    1    1    0    0    0 -0.80681175398E+01  0.58500368485E+02  0.20466127281E+02  0.62499999995E+02  0.00000000000E+00 0.  1.
</event>
<event>
 4    1  0.1977762E-002  0.9118800E+02  0.7818608E-02  0.1130116E+00
         25   -1    0    0    0    0  0.00000000000E+00  0.00000000000E+00  0.99999998245E-14  0.12500000000E+03  0.12500000000E+03 0.  0.
        -11    1    1    0    0    0  0.64674815577E+00  0.18422200087E+01 -0.97346195871E+00  0.21816705030E+01  0.51100000000E-03 0. -1.
         11    1    1    0    0    0  0.18154310907E+02  0.50920011669E+02 -0.26755859659E+02  0.60318343970E+02  0.51100000000E-03 0.  1.
         22    1    1    0    0    0 -0.18801059063E+02 -0.52762231678E+02  0.27729321618E+02  0.62499985527E+02  0.00000000000E+00 0.  1.
</event>
<event>
 4    1  0.1977762E-002  0.9118800E+02  0.7818608E-02  0.1130116E+00
         25   -1    0    0    0    0  0.00000000000E+00  0.00000000000E+00  0.99999998245E-14  0.12500000000E+03  0.12500000000E+03 0.  0.
        -11    1    1    0    0    0  0.94592173790E+00 -0.12129403900E+01 -0.99991300621E-01  0.15414249399E+01  0.51100000000E-03 0. -1.
         11    1    1    0    0    0  0.22162958033E+02 -0.54186117927E+02 -0.17149568852E+02  0.61003604785E+02  0.51100000000E-03 0.  1.
         22    1    1    0    0    0 -0.23108879770E+02  0.55399058317E+02  0.17249560152E+02  0.62454970275E+02  0.00000000000E+00 0.  1.
</event>
<event>
 4    1  0.1977762E-002  0.9118800E+02  0.7818608E-02  0.1130116E+00
         25   -1    0    0    0    0  0.00000000000E+00  0.00000000000E+00  0.99999998245E-14  0.12500000000E+03  0.12500000000E+03 0.  0.
        -11    1    1    0    0    0  0.21149196315E+01 -0.74315224553E+01  0.76990016139E+01  0.10907567885E+02  0.51100000000E-03 0.  1.
         11    1    1    0    0    0  0.13830799944E+02 -0.24659670429E+02  0.43329684774E+02  0.51738302597E+02  0.51100000000E-03 0. -1.
         22    1    1    0    0    0 -0.15945719576E+02  0.32091192884E+02 -0.51028686388E+02  0.62354129518E+02  0.00000000000E+00 0. -1.
</event>
<event>
 4    1  0.1977762E-002  0.9118800E+02  0.7818608E-02  0.1130116E+00
         25   -1    0    0    0    0  0.00000000000E+00  0.00000000000E+00  0.99999998245E-14  0.12500000000E+03  0.12500000000E+03 0.  0.
        -11    1    1    0    0    0  0.18340464344E+02 -0.45579692793E+02  0.71109238953E+01  0.49643189527E+02  0.51100000000E-03 0. -1.
         11    1    1    0    0    0  0.47496189566E+01 -0.11804129818E+02  0.18442389330E+01  0.12856810588E+02  0.51100000000E-03 0.  1.
         22    1    1    0    0    0 -0.23090083301E+02  0.57383822612E+02 -0.89551628283E+01  0.62499999885E+02  0.00000000000E+00 0. -1.
</event>
<event>
 4    1  0.1977762E-002  0.9118800E+02  0.7818608E-02  0.1130116E+00
         25   -1    0    0    0    0  0.00000000000E+00  0.00000000000E+00  0.99999998245E-14  0.12500000000E+03  0.12500000000E+03 0.  0.
        -11    1    1    0    0    0  0.17193324000E+02  0.31202151428E+01 -0.10160949010E+01  0.17503673380E+02  0.51100000000E-03 0.  1.
         11    1    1    0    0    0  0.44197591947E+02  0.80247963742E+01 -0.26162804248E+01  0.44996326676E+02  0.51100000000E-03 0. -1.
         22    1    1    0    0    0 -0.61390915947E+02 -0.11145011517E+02  0.36323753258E+01  0.62499999944E+02  0.00000000000E+00 0. -1.
</event>
<event>
 4    1  0.1977762E-002  0.9118800E+02  0.7818608E-02  0.1130116E+00
         25   -1    0    0    0    0  0.00000000000E+00  0.00000000000E+00  0.99999998245E-14  0.12500000000E+03  0.12500000000E+03 0.  0.
        -11    1    1    0    0    0  0.33038710511E+01 -0.97453019970E+01  0.21806079401E+02  0.24112062833E+02  0.51100000000E-03 0.  1.
         11    1    1    0    0    0  0.52606500612E+01 -0.15512967786E+02  0.34717533216E+02  0.38387937187E+02  0.51100000000E-03 0. -1.
         22    1    1    0    0    0 -0.85645211123E+01  0.25258269783E+02 -0.56523612617E+02  0.62499999981E+02  0.00000000000E+00 0. -1.
</event>
<event>
 4    1  0.1977762E-002  0.9118800E+02  0.7818608E-02  0.1130116E+00
         25   -1    0    0    0    0  0.00000000000E+00  0.00000000000E+00  0.99999998245E-14  0.12500000000E+03  0.12500000000E+03 0.  0.
        -11    1    1    0    0    0 -0.37999045380E+00 -0.42585648243E+00 -0.90577812568E+00  0.10705983200E+01  0.51100000000E-03 0. -1.
         11    1    1    0    0    0  0.12079655270E+02  0.48294034185E+02 -0.36778627189E+02  0.61894258437E+02  0.51100000000E-03 0.  1.
         22    1    1    0    0    0 -0.11699664817E+02 -0.47868177702E+02  0.37684405314E+02  0.62035143243E+02  0.00000000000E+00 0.  1.
</event>
<event>
 4    1  0.1977762E-002  0.9118800E+02  0.7818608E-02  0.1130116E+00
         25   -1    0    0    0    0  0.00000000000E+00  0.00000000000E+00  0.99999998245E-14  0.12500000000E+03  0.12500000000E+03 0.  0.
        -11    1    1    0    0    0  0.11373376555E+02 -0.46699983216E+02 -0.24625238025E+02  0.54005967028E+02  0.51100000000E-03 0.  1.
         11    1    1    0    0    0  0.17886675123E+01 -0.73450704291E+01 -0.38728807061E+01  0.84940329822E+01  0.51100000000E-03 0.  1.
         22    1    1    0    0    0 -0.13162044067E+02  0.54045053645E+02  0.28498118731E+02  0.62499999990E+02  0.00000000000E+00 0.  1.
</event>
<event>
 4    1  0.1977762E-002  0.9118800E+02  0.7818608E-02  0.1130116E+00
         25   -1    0    0    0    0  0.00000000000E+00  0.00000000000E+00  0.99999998245E-14  0.12500000000E+03  0.12500000000E+03 0.  0.
        -11    1    1    0    0    0 -0.11171803004E+02  0.56050636846E+01  0.13469818313E+02  0.18375579635E+02  0.51100000000E-03 0. -1.
         11    1    1    0    0    0 -0.96238429928E+00  0.44038351128E+02  0.16896673607E+02  0.47178386289E+02  0.51100000000E-03 0.  1.
         22    1    1    0    0    0  0.12134187304E+02 -0.49643414813E+02 -0.30366491920E+02  0.59446034076E+02  0.00000000000E+00 0.  1.
</event>
<event>
 4    1  0.1977762E-002  0.9118800E+02  0.7818608E-02  0.1130116E+00
         25   -1    0    0    0    0  0.00000000000E+00  0.00000000000E+00  0.99999998245E-14  0.12500000000E+03  0.12500000000E+03 0.  0.
        -11    1    1    0    0    0  0.34018581356E+01  0.43835455292E+01  0.31950584630E+01  0.64028516322E+01  0.51100000000E-03 0.  1.
         11    1    1    0    0    0 -0.36877454622E+02 -0.48060644105E+02  0.11451088513E+02  0.61651436314E+02  0.51100000000E-03 0. -1.
         22    1    1    0    0    0  0.33475596486E+02  0.43677098576E+02 -0.14646146976E+02  0.56945712054E+02  0.00000000000E+00 0. -1.
</event>
<event>
 4    1  0.1977762E-002  0.9118800E+02  0.7818608E-02  0.1130116E+00
         25   -1    0    0    0    0  0.00000000000E+00  0.00000000000E+00  0.99999998245E-14  0.12500000000E+03  0.12500000000E+03 0.  0.
        -11    1    1    0    0    0  0.20065257449E+02  0.33581652414E+01  0.65190996330E+01  0.21363297746E+02  0.51100000000E-03 0.  1.
         11    1    1    0    0    0  0.34359773071E+02  0.19220023530E+02  0.13165570866E+02  0.41513077054E+02  0.51100000000E-03 0. -1.
         22    1    1    0    0    0 -0.54425030521E+02 -0.22578188771E+02 -0.19684670499E+02  0.62123625200E+02  0.00000000000E+00 0. -1.
</event>
<event>
 4    1  0.1977762E-002  0.9118800E+02  0.7818608E-02  0.1130116E+00
         25   -1    0    0    0    0  0.00000000000E+00  0.00000000000E+00  0.99999998245E-14  0.12500000000E+03  0.12500000000E+03 0.  0.
        -11    1    1    0    0    0 -0.54751460349E+00 -0.46112910773E-01 -0.16707332201E+00  0.57429295453E+00  0.51100000000E-03 0.  1.
         11    1    1    0    0    0 -0.59113286551E+02 -0.47353959836E+01 -0.17832246718E+02  0.61925710697E+02  0.51100000000E-03 0. -1.
         22    1    1    0    0    0  0.59660801155E+02  0.47815088944E+01  0.17999320040E+02  0.62499996349E+02  0.00000000000E+00 0. -1.
</event>
<event>
 4    1  0.1977762E-002  0.9118800E+02  0.7818608E-02  0.1130116E+00
         25   -1    0    0    0    0  0.00000000000E+00  0.00000000000E+00  0.99999998245E-14  0.12500000000E+03  0.12500000000E+03 0.  0.
        -11    1    1    0    0    0 -0.17176176716E+02  0.16492422245E+02 -0.19504165793E+02  0.30780408081E+02  0.51100000000E-03 0.  1.
         11    1    1    0    0    0 -0.17702493341E+02  0.16994297613E+02 -0.20098459929E+02  0.31719591953E+02  0.51100000000E-03 0. -1.
         22    1    1    0    0    0  0.34878670057E+02 -0.33486719858E+02  0.39602625722E+02  0.62499999967E+02  0.00000000000E+00 0. -1.
</event>
<event>
 4    1  0.1977762E-002  0.9118800E+02  0.7818608E-02  0.1130116E+00
         25   -1    0    0    0    0  0.00000000000E+00  0.00000000000E+00  0.99999998245E-14  0.12500000000E+03  0.12500000000E+03 0.  0.
        -11    1    1    0    0    0  0.34189615199E+02 -0.83352580470E+00 -0.79796034463E+01  0.35118351672E+02  0.51100000000E-03 0. -1.
         11    1    1    0    0    0  0.26729517544E+02  0.58016113117E+00 -0.59496510137E+01  0.27389816402E+02  0.51100000000E-03 0.  1.
         22    1    1    0    0    0 -0.60919132743E+02  0.25336467353E+00  0.13929254460E+02  0.62491831927E+02  0.00000000000E+00 0.  1.
</event>
<event>
 4    1  0.1977762E-002  0.9118800E+02  0.7818608E-02  0.1130116E+00
         25   -1    0    0    0    0  0.00000000000E+00  0.00000000000E+00  0.99999998245E-14  0.12500000000E+03  0.12500000000E+03 0.  0.
        -11    1    1    0    0    0 -0.31041426620E+02  0.83087657699E+01 -0.38953219801E+00  0.32136544476E+02  0.51100000000E-03 0. -1.
         11    1    1    0    0    0 -0.14937336980E+02 -0.22954692747E+02 -0.26086251646E+02  0.37822407120E+02  0.51100000000E-03 0.  1.
         22    1    1    0    0    0  0.45978763600E+02  0.14645926977E+02  0.26475783844E+02  0.55041048404E+02  0.00000000000E+00 0.  1.
</event>
<event>
 4    1  0.1977762E-002  0.9118800E+02  0.7818608E-02  0.1130116E+00
         25   -1    0    0    0    0  0.00000000000E+00  0.00000000000E+00  0.99999998245E-14  0.12500000000E+03  0.12500000000E+03 0.  0.
        -11    1    1    0    0    0 -0.58938240938E+02  0.13769910357E+02  0.10669396015E+02  0.61458625821E+02  0.51100000000E-03 0.  1.
         11    1    1    0    0    0 -0.97946910457E+00  0.56535999199E-01  0.40215376117E+00  0.10603225711E+01  0.51100000000E-03 0. -1.
         22    1    1    0    0    0  0.59917710043E+02 -0.13826446356E+02 -0.11071549776E+02  0.62481051608E+02  0.00000000000E+00 0.  1.
</event>
<event>
 4    1  0.1977762E-002  0.9118800E+02  0.7818608E-02  0.1130116E+00
         25   -1    0    0    0    0  0.00000000000E+00  0.00000000000E+00  0.99999998245E-14  0.12500000000E+03  0.12500000000E+03 0.  0.
        -11    1    1    0    0    0 -0.87881887298E+01  0.16133860306E+00 -0.12366147455E+02  0.15171680673E+02  0.51100000000E-03 0.  1.
         11    1    1    0    0    0 -0.26360080871E+02 -0.11401431175E+00 -0.39310936617E+02  0.47330926472E+02  0.51100000000E-03 0. -1.
         22    1    1    0    0    0  0.35148269601E+02 -0.47324291317E-01  0.51677084072E+02  0.62497392855E+02  0.00000000000E+00 0. -1.
</event>
<event>
 4    1  0.1977762E-002  0.9118800E+02  0.7818608E-02  0.1130116E+00
         25   -1    0    0    0    0  0.00000000000E+00  0.00000000000E+00  0.99999998245E-14  0.12500000000E+03  0.12500000000E+03 0.  0.
        -11    1    1    0    0    0  0.50372979575E+02  0.10378566020E+02 -0.26042397285E+01  0.51496929702E+02  0.51100000000E-03 0.  1.
         11    1    1    0    0    0  0.10760829726E+02  0.22232642741E+01 -0.57387818564E+00  0.11003076699E+02  0.51100000000E-03 0. -1.
         22    1    1    0    0    0 -0.61133809301E+02 -0.12601830294E+02  0.31781179142E+01  0.62499993599E+02  0.00000000000E+00 0.  1.
</event>
<event>
 4    1  0.1977762E-002  0.9118800E+02  0.7818608E-02  0.1130116E+00
         25   -1    0    0    0    0  0.00000000000E+00  0.00000000000E+00  0.99999998245E-14  0.12500000000E+03  0.12500000000E+03 0.  0.
        -11    1    1    0    0    0  0.16051790559E+02 -0.82198310702E+00  0.11099308470E+01  0.16111101238E+02  0.51100000000E-03 0. -1.
         11    1    1    0    0    0 -0.56318266608E+02 -0.17973574742E+02  0.16044749556E+02  0.61255453074E+02  0.51100000000E-03 0.  1.
         22    1    1    0    0    0  0.40266476050E+02  0.18795557849E+02 -0.17154680402E+02  0.47633445687E+02  0.00000000000E+00 0.  1.
</event>
<event>
 4    1  0.1977762E-002  0.9118800E+02  0.7818608E-02  0.1130116E+00
         25   -1    0    0    0    0  0.00000000000E+00  0.00000000000E+00  0.99999998245E-14  0.12500000000E+03  0.12500000000E+03 0.  0.
        -11    1    1    0    0    0 -0.36839645231E+02 -0.13018610146E+01  0.63284488009E+01  0.37401919301E+02  0.51100000000E-03 0. -1.
         11    1    1    0    0    0 -0.24263594179E+02  0.38326268114E-01  0.65659873449E+01  0.25136341450E+02  0.51100000000E-03 0.  1.
         22    1    1    0    0    0  0.61103239411E+02  0.12635347465E+01 -0.12894436146E+02  0.62461739250E+02  0.00000000000E+00 0.  1.
</event>
<event>
 4    1  0.1977762E-002  0.9118800E+02  0.7818608E-02  0.1130116E+00
         25   -1    0    0    0    0  0.00000000000E+00  0.00000000000E+00  0.99999998245E-14  0.12500000000E+03  0.12500000000E+03 0.  0.
        -11    1    1    0    0    0 -0.27909559663E+01  0.15540056643E+01  0.10975152609E+02  0.11430588080E+02  0.51100000000E-03 0. -1.
         11    1    1    0    0    0 -0.12481164750E+02  0.69439753980E+01  0.49031485600E+02  0.51069412061E+02  0.51100000000E-03 0.  1.
         22    1    1    0    0    0  0.15272120716E+02 -0.84979810623E+01 -0.60006638208E+02  0.62499999859E+02  0.00000000000E+00 0.  1.
</event>
<event>
 4    1  0.1977762E-002  0.9118800E+02  0.7818608E-02  0.1130116E+00
         25   -1    0    0    0    0  0.00000000000E+00  0.00000000000E+00  0.99999998245E-14  0.12500000000E+03  0.12500000000E+03 0.  0.
        -11    1    1    0    0    0  0.23039256897E+02 -0.27937640232E+01 -0.55060965508E+01  0.23852244659E+02  0.51100000000E-03 0.  1.
         11    1    1    0    0    0  0.36251166340E+02 -0.61200268690E+01 -0.12024651332E+02  0.38680667391E+02  0.51100000000E-03 0. -1.
         22    1    1    0    0    0 -0.59290423237E+02  0.89137908922E+01  0.17530747882E+02  0.62467087950E+02  0.00000000000E+00 0. -1.
</event>
<event>
 4    1  0.1977762E-002  0.9118800E+02  0.7818608E-02  0.1130116E+00
         25   -1    0    0    0    0  0.00000000000E+00  0.00000000000E+00  0.99999998245E-14  0.12500000000E+03  0.12500000000E+03 0.  0.
        -11    1    1    0    0    0 -0.33056631975E+00 -0.43249834935E-01 -0.96677435202E+00  0.10226424345E+01  0.51100000000E-03 0.  1.
         11    1    1    0    0    0 -0.19960685758E+02 -0.24933286380E+01 -0.58093200976E+02  0.61477358950E+02  0.51100000000E-03 0. -1.
         22    1    1    0    0    0  0.20291252077E+02  0.25365784730E+01  0.59059975328E+02  0.62499998615E+02  0.00000000000E+00 0. -1.
</event>
<event>
 4    1  0.1977762E-002  0.9118800E+02  0.7818608E-02  0.1130116E+00
         25   -1    0    0    0    0  0.00000000000E+00  0.00000000000E+00  0.99999998245E-14  0.12500000000E+03  0.12500000000E+03 0.  0.
        -11    1    1    0    0    0  0.11947609011E+02  0.76439586328E+01  0.49107092596E+02  0.51114401182E+02  0.51100000000E-03 0. -1.
         11    1    1    0    0    0 -0.10444060517E+01 -0.63802435109E+00  0.11674092034E+02  0.11738069865E+02  0.51100000000E-03 0.  1.
         22    1    1    0    0    0 -0.10903202959E+02 -0.70059342817E+01 -0.60781184630E+02  0.62147528953E+02  0.00000000000E+00 0. -1.
</event>
<event>
 4    1  0.1977762E-002  0.9118800E+02  0.7818608E-02  0.1130116E+00
         25   -1    0    0    0    0  0.00000000000E+00  0.00000000000E+00  0.99999998245E-14  0.12500000000E+03  0.12500000000E+03 0.  0.
        -11    1    1    0    0    0  0.18308165667E+02  0.43415131358E+02  0.17489901679E+01  0.47149989691E+02  0.51100000000E-03 0. -1.
         11    1    1    0    0    0  0.58849107954E+01  0.14171340518E+02  0.41835870205E+00  0.15350377566E+02  0.51100000000E-03 0.  1.
         22    1    1    0    0    0 -0.24193076463E+02 -0.57586471877E+02 -0.21673488700E+01  0.62499632743E+02  0.00000000000E+00 0. -1.
</event>
<event>
 4    1  0.1977762E-002  0.9118800E+02  0.7818608E-02  0.1130116E+00
         25   -1    0    0    0    0  0.00000000000E+00  0.00000000000E+00  0.99999998245E-14  0.12500000000E+03  0.12500000000E+03 0.  0.
        -11    1    1    0    0    0  0.14904659514E+01  0.40372891297E+01  0.28472051153E+01  0.51602102184E+01  0.51100000000E-03 0.  1.
         11    1    1    0    0    0  0.16565348918E+02  0.44863834730E+02  0.31633479788E+02  0.57339789808E+02  0.51100000000E-03 0.  1.
         22    1    1    0    0    0 -0.18055814869E+02 -0.48901123859E+02 -0.34480684904E+02  0.62499999974E+02  0.00000000000E+00 0.  1.
</event>
<event>
 4    1  0.1977762E-002  0.9118800E+02  0.7818608E-02  0.1130116E+00
         25   -1    0    0    0    0  0.00000000000E+00  0.00000000000E+00  0.99999998245E-14  0.12500000000E+03  0.12500000000E+03 0.  0.
        -11    1    1    0    0    0 -0.15297109878E+02 -0.23345426514E+02 -0.45710646347E+02  0.53558133831E+02  0.51100000000E-03 0. -1.
         11    1    1    0    0    0 -0.25938454301E+01 -0.37901984136E+01 -0.76726581025E+01  0.89422212424E+01  0.51100000000E-03 0.  1.
         22    1    1    0    0    0  0.17890955308E+02  0.27135624927E+02  0.53383304449E+02  0.62499644927E+02  0.00000000000E+00 0. -1.
</event>
<event>
 4    1  0.1977762E-002  0.9118800E+02  0.7818608E-02  0.1130116E+00
         25   -1    0    0    0    0  0.00000000000E+00  0.00000000000E+00  0.99999998245E-14  0.12500000000E+03  0.12500000000E+03 0.  0.
        -11    1    1    0    0    0  0.53743214160E+01 -0.46702252630E+01  0.41888341097E+01  0.82607908913E+01  0.51100000000E-03 0.  1.
         11    1    1    0    0    0  0.36846610952E+02 -0.29902688398E+02  0.26274457955E+02  0.54241963950E+02  0.51100000000E-03 0. -1.
         22    1    1    0    0    0 -0.42220932368E+02  0.34572913661E+02 -0.30463292065E+02  0.62497245159E+02  0.00000000000E+00 0. -1.
</event>
<event>
 4    1  0.1977762E-002  0.9118800E+02  0.7818608E-02  0.1130116E+00
         25   -1    0    0    0    0  0.00000000000E+00  0.00000000000E+00  0.99999998245E-14  0.12500000000E+03  0.12500000000E+03 0.  0.
        -11    1    1    0    0    0  0.66083854672E+01 -0.31072853977E+02  0.39701534133E+02  0.50846876262E+02  0.51100000000E-03 0.  1.
         11    1    1    0    0    0  0.78779233132E+01  0.19761092629E+02  0.82365971836E+01  0.22812364872E+02  0.51100000000E-03 0. -1.
         22    1    1    0    0    0 -0.14486308780E+02  0.11311761348E+02 -0.47938131317E+02  0.51340758867E+02  0.00000000000E+00 0.  1.
</event>
<event>
 4    1  0.1977762E-002  0.9118800E+02  0.7818608E-02  0.1130116E+00
         25   -1    0    0    0    0  0.00000000000E+00  0.00000000000E+00  0.99999998245E-14  0.12500000000E+03  0.12500000000E+03 0.  0.
        -11    1    1    0    0    0 -0.56109783149E+01  0.11549245956E+01  0.79751143307E+01  0.98193369084E+01  0.51100000000E-03 0.  1.
         11    1    1    0    0    0 -0.25822470881E+02  0.10944285843E+02  0.44633553948E+02  0.52713675012E+02  0.51100000000E-03 0. -1.
         22    1    1    0    0    0  0.31433449196E+02 -0.12099210438E+02 -0.52608668279E+02  0.62466988079E+02  0.00000000000E+00 0. -1.
</event>
<event>
 4    1  0.1977762E-002  0.9118800E+02  0.7818608E-02  0.1130116E+00
         25   -1    0    0    0    0  0.00000000000E+00  0.00000000000E+00  0.99999998245E-14  0.12500000000E+03  0.12500000000E+03 0.  0.
        -11    1    1    0    0    0  0.44486015861E+01  0.21595766412E+01  0.11828438449E+02  0.12820521976E+02  0.51100000000E-03 0.  1.
         11    1    1    0    0    0  0.17256172556E+02  0.83550586464E+01  0.45830863985E+02  0.49679478561E+02  0.51100000000E-03 0. -1.
         22    1    1    0    0    0 -0.21704774142E+02 -0.10514635288E+02 -0.57659302433E+02  0.62499999463E+02  0.00000000000E+00 0. -1.
</event>
<event>
 4    1  0.1977762E-002  0.9118800E+02  0.7818608E-02  0.1130116E+00
         25   -1    0    0    0    0  0.00000000000E+00  0.00000000000E+00  0.99999998245E-14  0.12500000000E+03  0.12500000000E+03 0.  0.
        -11    1    1    0    0    0  0.93930971759E+01  0.54159149760E+01  0.13279780357E+02  0.17143948675E+02  0.51100000000E-03 0. -1.
         11    1    1    0    0    0  0.46475397770E+02 -0.13701777237E+02 -0.16758646058E+02  0.51269420859E+02  0.51100000000E-03 0.  1.
         22    1    1    0    0    0 -0.55868494945E+02  0.82858622610E+01  0.34788657004E+01  0.56586630465E+02  0.00000000000E+00 0.  1.
</event>
<event>
 4    1  0.1977762E-002  0.9118800E+02  0.7818608E-02  0.1130116E+00
         25   -1    0    0    0    0  0.00000000000E+00  0.00000000000E+00  0.99999998245E-14  0.12500000000E+03  0.12500000000E+03 0.  0.
        -11    1    1    0    0    0  0.16184545699E+02 -0.87428351711E+01 -0.12118540435E+02  0.22028066390E+02  0.51100000000E-03 0. -1.
         11    1    1    0    0    0  0.30029518876E+02 -0.16094605862E+02 -0.21845263647E+02  0.40472507778E+02  0.51100000000E-03 0.  1.
         22    1    1    0    0    0 -0.46214064575E+02  0.24837441033E+02  0.33963804083E+02  0.62499425832E+02  0.00000000000E+00 0.  1.
</event>
<event>
 4    1  0.1977762E-002  0.9118800E+02  0.7818608E-02  0.1130116E+00
         25   -1    0    0    0    0  0.00000000000E+00  0.00000000000E+00  0.99999998245E-14  0.12500000000E+03  0.12500000000E+03 0.  0.
        -11    1    1    0    0    0  0.18883655577E+01  0.23137425772E+01 -0.39027685439E+00  0.30119172428E+01  0.51100000000E-03 0.  1.
         11    1    1    0    0    0  0.37717403741E+02  0.44646129916E+02 -0.11102298841E+02  0.59490675751E+02  0.51100000000E-03 0. -1.
         22    1    1    0    0    0 -0.39605769299E+02 -0.46959872494E+02  0.11492575696E+02  0.62497407006E+02  0.00000000000E+00 0. -1.
</event>
<event>
 4    1  0.1977762E-002  0.9118800E+02  0.7818608E-02  0.1130116E+00
         25   -1    0    0    0    0  0.00000000000E+00  0.00000000000E+00  0.99999998245E-14  0.12500000000E+03  0.12500000000E+03 0.  0.
        -11    1    1    0    0    0  0.39533958135E+02 -0.23282774773E+02 -0.40275183853E+02  0.61050076836E+02  0.51100000000E-03 0. -1.
         11    1    1    0    0    0 -0.30601538424E+00 -0.17903894751E+01 -0.68377903023E+00  0.19407972360E+01  0.51100000000E-03 0.  1.
         22    1    1    0    0    0 -0.39227942751E+02  0.25073164248E+02  0.40958962883E+02  0.62009125928E+02  0.00000000000E+00 0. -1.
</event>
<event>
 4    1  0.1977762E-002  0.9118800E+02  0.7818608E-02  0.1130116E+00
         25   -1    0    0    0    0  0.00000000000E+00  0.00000000000E+00  0.99999998245E-14  0.12500000000E+03  0.12500000000E+03 0.  0.
        -11    1    1    0    0    0  0.23760047681E+02  0.45186367715E+02  0.60314062086E+00  0.51055964118E+02  0.51100000000E-03 0. -1.
         11    1    1    0    0    0  0.76227974868E+01  0.87096667037E+01 -0.62054063064E-01  0.11574505889E+02  0.51100000000E-03 0.  1.
         22    1    1    0    0    0 -0.31382845167E+02 -0.53896034419E+02 -0.54108655780E+00  0.62369529993E+02  0.00000000000E+00 0. -1.
</event>
<event>
 4    1  0.1977762E-002  0.9118800E+02  0.7818608E-02  0.1130116E+00
         25   -1    0    0    0    0  0.00000000000E+00  0.00000000000E+00  0.99999998245E-14  0.12500000000E+03  0.12500000000E+03 0.  0.
        -11    1    1    0    0    0  0.42968394605E+01 -0.32475149263E+01  0.11603488382E+01  0.55095909316E+01  0.51100000000E-03 0. -1.
         11    1    1    0    0    0  0.44447336143E+02 -0.33589590715E+02  0.12003350895E+02  0.56990409084E+02  0.51100000000E-03 0. -1.
         22    1    1    0    0    0 -0.48744175604E+02  0.36837105642E+02 -0.13163699733E+02  0.62499999984E+02  0.00000000000E+00 0. -1.
</event>
<event>
 4    1  0.1977762E-002  0.9118800E+02  0.7818608E-02  0.1130116E+00
         25   -1    0    0    0    0  0.00000000000E+00  0.00000000000E+00  0.99999998245E-14  0.12500000000E+03  0.12500000000E+03 0.  0.
        -11    1    1    0    0    0 -0.10798558469E+02  0.52629196325E+02 -0.29721182891E+02  0.61398614672E+02  0.51100000000E-03 0.  1.
         11    1    1    0    0    0 -0.14611000159E+00  0.95044805080E+00 -0.53804698008E+00  0.11019049159E+01  0.51100000000E-03 0. -1.
         22    1    1    0    0    0  0.10944668471E+02 -0.53579644376E+02  0.30259229871E+02  0.62499480412E+02  0.00000000000E+00 0.  1.
</event>
<event>
 4    1  0.1977762E-002  0.9118800E+02  0.7818608E-02  0.1130116E+00
         25   -1    0    0    0    0  0.00000000000E+00  0.00000000000E+00  0.99999998245E-14  0.12500000000E+03  0.12500000000E+03 0.  0.
        -11    1    1    0    0    0 -0.11376200176E+02  0.28761713207E+01 -0.46056749594E+01  0.12605654842E+02  0.51100000000E-03 0.  1.
         11    1    1    0    0    0 -0.40659000947E+02  0.12190010458E+01 -0.29319061275E+02  0.50142274339E+02  0.51100000000E-03 0. -1.
         22    1    1    0    0    0  0.52035201123E+02 -0.40951723665E+01  0.33924736234E+02  0.62252070819E+02  0.00000000000E+00 0. -1.
</event>
<event>
 4    1  0.1977762E-002  0.9118800E+02  0.7818608E-02  0.1130116E+00
         25   -1    0    0    0    0  0.00000000000E+00  0.00000000000E+00  0.99999998245E-14  0.12500000000E+03  0.12500000000E+03 0.  0.
        -11    1    1    0    0    0 -0.53395988667E+02 -0.23812467402E+01 -0.74606896663E+01  0.53967247775E+02  0.51100000000E-03 0.  1.
         11    1    1    0    0    0 -0.84425451988E+01 -0.37492472502E+00 -0.11792894330E+01  0.85327522998E+01  0.51100000000E-03 0.  1.
         22    1    1    0    0    0  0.61838533866E+02  0.27561714652E+01  0.86399790992E+01  0.62499999926E+02  0.00000000000E+00 0.  1.
</event>
<event>
 4    1  0.1977762E-002  0.9118800E+02  0.7818608E-02  0.1130116E+00
         25   -1    0    0    0    0  0.00000000000E+00  0.00000000000E+00  0.99999998245E-14  0.12500000000E+03  0.12500000000E+03 0.  0.
        -11    1    1    0    0    0  0.33406682726E+02 -0.31455367559E+02 -0.17842128785E+01  0.45919821590E+02  0.51100000000E-03 0. -1.
         11    1    1    0    0    0  0.12060658949E+02 -0.11358940776E+02 -0.64597893503E+00  0.16580178494E+02  0.51100000000E-03 0.  1.
         22    1    1    0    0    0 -0.45467341675E+02  0.42814308335E+02  0.24301918135E+01  0.62499999916E+02  0.00000000000E+00 0. -1.
</event>
<event>
 4    1  0.1977762E-002  0.9118800E+02  0.7818608E-02  0.1130116E+00
         25   -1    0    0    0    0  0.00000000000E+00  0.00000000000E+00  0.99999998245E-14  0.12500000000E+03  0.12500000000E+03 0.  0.
        -11    1    1    0    0    0 -0.22266055281E+02 -0.13211968603E+02  0.76959012476E+01  0.27010372608E+02  0.51100000000E-03 0.  1.
         11    1    1    0    0    0 -0.29256748218E+02 -0.17359196332E+02  0.10110125602E+02  0.35489627408E+02  0.51100000000E-03 0.  1.
         22    1    1    0    0    0  0.51522803499E+02  0.30571164935E+02 -0.17806026849E+02  0.62499999984E+02  0.00000000000E+00 0.  1.
</event>
<event>
 4    1  0.1977762E-002  0.9118800E+02  0.7818608E-02  0.1130116E+00
         25   -1    0    0    0    0  0.00000000000E+00  0.00000000000E+00  0.99999998245E-14  0.12500000000E+03  0.12500000000E+03 0.  0.
        -11    1    1    0    0    0  0.95482691796E+01 -0.38686433719E+02  0.46563735388E+02  0.61286140780E+02  0.51100000000E-03 0. -1.
         11    1    1    0    0    0  0.17501229241E+00 -0.77841088929E+00  0.91493047866E+00  0.12139402197E+01  0.51100000000E-03 0.  1.
         22    1    1    0    0    0 -0.97232814720E+01  0.39464844609E+02 -0.47478665866E+02  0.62499919000E+02  0.00000000000E+00 0. -1.
</event>
<event>
 4    1  0.1977762E-002  0.9118800E+02  0.7818608E-02  0.1130116E+00
         25   -1    0    0    0    0  0.00000000000E+00  0.00000000000E+00  0.99999998245E-14  0.12500000000E+03  0.12500000000E+03 0.  0.
        -11    1    1    0    0    0 -0.20909249278E+02  0.32296267496E+02  0.46196053033E+02  0.60119222514E+02  0.51100000000E-03 0.  1.
         11    1    1    0    0    0 -0.82725507983E+00  0.12802513490E+01  0.18288543028E+01  0.23807777733E+01  0.51100000000E-03 0. -1.
         22    1    1    0    0    0  0.21736504358E+02 -0.33576518845E+02 -0.48024907336E+02  0.62499999713E+02  0.00000000000E+00 0.  1.
</event>
<event>
 4    1  0.1977762E-002  0.9118800E+02  0.7818608E-02  0.1130116E+00
         25   -1    0    0    0    0  0.00000000000E+00  0.00000000000E+00  0.99999998245E-14  0.12500000000E+03  0.12500000000E+03 0.  0.
        -11    1    1    0    0    0  0.60893601715E+01  0.56829495749E+01 -0.88240354360E+01  0.12134241831E+02  0.51100000000E-03 0. -1.
         11    1    1    0    0    0  0.25282425947E+02  0.23653807260E+02 -0.36578772196E+02  0.50365764516E+02  0.51100000000E-03 0.  1.
         22    1    1    0    0    0 -0.31371786118E+02 -0.29336756835E+02  0.45402807632E+02  0.62499993654E+02  0.00000000000E+00 0. -1.
</event>
<event>
 4    1  0.1977762E-002  0.9118800E+02  0.7818608E-02  0.1130116E+00
         25   -1    0    0    0    0  0.00000000000E+00  0.00000000000E+00  0.99999998245E-14  0.12500000000E+03  0.12500000000E+03 0.  0.
        -11    1    1    0    0    0 -0.25881282485E+01  0.38713694018E+02  0.41861209203E+02  0.57077222677E+02  0.51100000000E-03 0.  1.
         11    1    1    0    0    0 -0.24625141178E+00  0.36773374379E+01  0.39778215048E+01  0.54227773857E+01  0.51100000000E-03 0.  1.
         22    1    1    0    0    0  0.28343796603E+01 -0.42391031456E+02 -0.45839030708E+02  0.62499999937E+02  0.00000000000E+00 0.  1.
</event>
<event>
 4    1  0.1977762E-002  0.9118800E+02  0.7818608E-02  0.1130116E+00
         25   -1    0    0    0    0  0.00000000000E+00  0.00000000000E+00  0.99999998245E-14  0.12500000000E+03  0.12500000000E+03 0.  0.
        -11    1    1    0    0    0  0.28555098024E+01 -0.10207167893E+02 -0.23845550118E+01  0.10863991692E+02  0.51100000000E-03 0.  1.
         11    1    1    0    0    0  0.13578644663E+02 -0.48509967722E+02 -0.11343756402E+02  0.51636008451E+02  0.51100000000E-03 0. -1.
         22    1    1    0    0    0 -0.16434154466E+02  0.58717135614E+02  0.13728311414E+02  0.62499999856E+02  0.00000000000E+00 0. -1.
</event>
<event>
 4    1  0.1977762E-002  0.9118800E+02  0.7818608E-02  0.1130116E+00
         25   -1    0    0    0    0  0.00000000000E+00  0.00000000000E+00  0.99999998245E-14  0.12500000000E+03  0.12500000000E+03 0.  0.
        -11    1    1    0    0    0 -0.39357894851E+01 -0.96431475144E+01  0.60976765987E+00  0.10433242531E+02  0.51100000000E-03 0. -1.
         11    1    1    0    0    0 -0.47439109097E+02 -0.23471985347E+02 -0.56899025056E+01  0.53233242986E+02  0.51100000000E-03 0.  1.
         22    1    1    0    0    0  0.51374898582E+02  0.33115132861E+02  0.50801348457E+01  0.61333514483E+02  0.00000000000E+00 0.  1.
</event>
<event>
 4    1  0.1977762E-002  0.9118800E+02  0.7818608E-02  0.1130116E+00
         25   -1    0    0    0    0  0.00000000000E+00  0.00000000000E+00  0.99999998245E-14  0.12500000000E+03  0.12500000000E+03 0.  0.
        -11    1    1    0    0    0  0.11647197382E+01 -0.12107783779E+02  0.22574693783E+01  0.12371385062E+02  0.51100000000E-03 0.  1.
         11    1    1    0    0    0  0.46475815535E+01 -0.49058930931E+02  0.91923898148E+01  0.50128622056E+02  0.51100000000E-03 0. -1.
         22    1    1    0    0    0 -0.58123012917E+01  0.61166714710E+02 -0.11449859193E+02  0.62499992882E+02  0.00000000000E+00 0. -1.
</event>
<event>
 4    1  0.1977762E-002  0.9118800E+02  0.7818608E-02  0.1130116E+00
         25   -1    0    0    0    0  0.00000000000E+00  0.00000000000E+00  0.99999998245E-14  0.12500000000E+03  0.12500000000E+03 0.  0.
        -11    1    1    0    0    0  0.28345982929E+02 -0.14109948934E+02  0.17039230948E+02  0.35957207882E+02  0.51100000000E-03 0.  1.
         11    1    1    0    0    0  0.20584437787E+02 -0.10685871002E+02  0.12911199883E+02  0.26544415622E+02  0.51100000000E-03 0. -1.
         22    1    1    0    0    0 -0.48930420715E+02  0.24795819935E+02 -0.29950430831E+02  0.62498376496E+02  0.00000000000E+00 0.  1.
</event>
<event>
 4    1  0.1977762E-002  0.9118800E+02  0.7818608E-02  0.1130116E+00
         25   -1    0    0    0    0  0.00000000000E+00  0.00000000000E+00  0.99999998245E-14  0.12500000000E+03  0.12500000000E+03 0.  0.
        -11    1    1    0    0    0 -0.48035139962E+02  0.30339712910E+01  0.27121623686E+02  0.55246376574E+02  0.51100000000E-03 0.  1.
         11    1    1    0    0    0 -0.62466358211E+01  0.27889574439E+00  0.36784258934E+01  0.72545888396E+01  0.51100000000E-03 0. -1.
         22    1    1    0    0    0  0.54281775783E+02 -0.33128670354E+01 -0.30800049580E+02  0.62499034586E+02  0.00000000000E+00 0.  1.
</event>
<event>
 4    1  0.1977762E-002  0.9118800E+02  0.7818608E-02  0.1130116E+00
         25   -1    0    0    0    0  0.00000000000E+00  0.00000000000E+00  0.99999998245E-14  0.12500000000E+03  0.12500000000E+03 0.  0.
        -11    1    1    0    0    0 -0.24138267202E+02 -0.50203092828E+02 -0.82183423402E+00  0.55710698118E+02  0.51100000000E-03 0.  1.
         11    1    1    0    0    0 -0.27441499579E+01 -0.62116776860E+01  0.20571429408E+00  0.67939397479E+01  0.51100000000E-03 0. -1.
         22    1    1    0    0    0  0.26882417160E+02  0.56414770514E+02  0.61611993994E+00  0.62495362134E+02  0.00000000000E+00 0.  1.
</event>
<event>
 4    1  0.1977762E-002  0.9118800E+02  0.7818608E-02  0.1130116E+00
         25   -1    0    0    0    0  0.00000000000E+00  0.00000000000E+00  0.99999998245E-14  0.12500000000E+03  0.12500000000E+03 0.  0.
        -11    1    1    0    0    0  0.30522661612E+02 -0.18554158869E+02 -0.16055822908E+02  0.39162215626E+02  0.51100000000E-03 0. -1.
         11    1    1    0    0    0  0.18214493249E+02 -0.11046437146E+02 -0.95321183752E+01  0.23337798073E+02  0.51100000000E-03 0.  1.
         22    1    1    0    0    0 -0.48737154861E+02  0.29600596015E+02  0.25587941283E+02  0.62499986300E+02  0.00000000000E+00 0. -1.
</event>
<event>
 4    1  0.1977762E-002  0.9118800E+02  0.7818608E-02  0.1130116E+00
         25   -1    0    0    0    0  0.00000000000E+00  0.00000000000E+00  0.99999998245E-14  0.12500000000E+03  0.12500000000E+03 0.  0.
        -11    1    1    0    0    0 -0.67484857311E+01  0.18770566194E+01  0.30483931835E+02  0.31278355161E+02  0.51100000000E-03 0. -1.
         11    1    1    0    0    0 -0.67413021154E+01  0.18830940510E+01  0.30426960717E+02  0.31221645314E+02  0.51100000000E-03 0.  1.
         22    1    1    0    0    0  0.13489787846E+02 -0.37601506704E+01 -0.60910892551E+02  0.62499999525E+02  0.00000000000E+00 0. -1.
</event>
<event>
 4    1  0.1977762E-002  0.9118800E+02  0.7818608E-02  0.1130116E+00
         25   -1    0    0    0    0  0.00000000000E+00  0.00000000000E+00  0.99999998245E-14  0.12500000000E+03  0.12500000000E+03 0.  0.
        -11    1    1    0    0    0 -0.27962226012E+02 -0.38397048221E+02 -0.88828991013E+01  0.48323134132E+02  0.51100000000E-03 0.  1.
         11    1    1    0    0    0 -0.86968754169E+01 -0.10820156840E+02 -0.29118414139E+01  0.14184155130E+02  0.51100000000E-03 0. -1.
         22    1    1    0    0    0  0.36659101429E+02  0.49217205061E+02  0.11794740515E+02  0.62492710738E+02  0.00000000000E+00 0. -1.
</event>
<event>
 4    1  0.1977762E-002  0.9118800E+02  0.7818608E-02  0.1130116E+00
         25   -1    0    0    0    0  0.00000000000E+00  0.00000000000E+00  0.99999998245E-14  0.12500000000E+03  0.12500000000E+03 0.  0.
        -11    1    1    0    0    0  0.54056411645E+02  0.14522134742E+02  0.11474807732E+02  0.57137196730E+02  0.51100000000E-03 0. -1.
         11    1    1    0    0    0  0.50726819138E+01  0.13635072835E+01  0.10809312911E+01  0.53628039894E+01  0.51100000000E-03 0.  1.
         22    1    1    0    0    0 -0.59129093559E+02 -0.15885642026E+02 -0.12555739023E+02  0.62499999281E+02  0.00000000000E+00 0. -1.
</event>
<event>
 4    1  0.1977762E-002  0.9118800E+02  0.7818608E-02  0.1130116E+00
         25   -1    0    0    0    0  0.00000000000E+00  0.00000000000E+00  0.99999998245E-14  0.12500000000E+03  0.12500000000E+03 0.  0.
        -11    1    1    0    0    0  0.14148604788E+02 -0.28730901968E+02  0.31178635191E+02  0.44696253064E+02  0.51100000000E-03 0.  1.
         11    1    1    0    0    0  0.56407969555E+01 -0.11443111034E+02  0.12418133293E+02  0.17803747223E+02  0.51100000000E-03 0. -1.
         22    1    1    0    0    0 -0.19789401743E+02  0.40174013002E+02 -0.43596768483E+02  0.62499999714E+02  0.00000000000E+00 0.  1.
</event>
<event>
 4    1  0.1977762E-002  0.9118800E+02  0.7818608E-02  0.1130116E+00
         25   -1    0    0    0    0  0.00000000000E+00  0.00000000000E+00  0.99999998245E-14  0.12500000000E+03  0.12500000000E+03 0.  0.
        -11    1    1    0    0    0  0.45832640455E+00 -0.20354343235E+02  0.27952553793E+02  0.34581130916E+02  0.51100000000E-03 0.  1.
         11    1    1    0    0    0 -0.14131789014E+01 -0.12966924244E+01  0.29216740198E+02  0.29279624210E+02  0.51100000000E-03 0. -1.
         22    1    1    0    0    0  0.95485249685E+00  0.21651035659E+02 -0.57169293990E+02  0.61139244874E+02  0.00000000000E+00 0.  1.
</event>
<event>
 4    1  0.1977762E-002  0.9118800E+02  0.7818608E-02  0.1130116E+00
         25   -1    0    0    0    0  0.00000000000E+00  0.00000000000E+00  0.99999998245E-14  0.12500000000E+03  0.12500000000E+03 0.  0.
        -11    1    1    0    0    0  0.85707267107E+01 -0.21779561430E+02  0.29823828495E+02  0.37911309642E+02  0.51100000000E-03 0. -1.
         11    1    1    0    0    0  0.55624678671E+01 -0.14124996242E+02  0.19342883191E+02  0.24588690449E+02  0.51100000000E-03 0.  1.
         22    1    1    0    0    0 -0.14133194578E+02  0.35904557672E+02 -0.49166711686E+02  0.62499999909E+02  0.00000000000E+00 0. -1.
</event>
<event>
 4    1  0.1977762E-002  0.9118800E+02  0.7818608E-02  0.1130116E+00
         25   -1    0    0    0    0  0.00000000000E+00  0.00000000000E+00  0.99999998245E-14  0.12500000000E+03  0.12500000000E+03 0.  0.
        -11    1    1    0    0    0  0.23152913483E+00  0.24634896736E+01  0.54660054010E+01  0.59999668680E+01  0.51100000000E-03 0.  1.
         11    1    1    0    0    0  0.17062472895E+02 -0.90254032213E+01  0.53671651538E+02  0.57037111285E+02  0.51100000000E-03 0. -1.
         22    1    1    0    0    0 -0.17294002030E+02  0.65619135477E+01 -0.59137656939E+02  0.61962921847E+02  0.00000000000E+00 0. -1.
</event>
<event>
 4    1  0.1977762E-002  0.9118800E+02  0.7818608E-02  0.1130116E+00
         25   -1    0    0    0    0  0.00000000000E+00  0.00000000000E+00  0.99999998245E-14  0.12500000000E+03  0.12500000000E+03 0.  0.
        -11    1    1    0    0    0  0.25167478444E+02 -0.54568451462E+02  0.68404507590E+01  0.60480655032E+02  0.51100000000E-03 0. -1.
         11    1    1    0    0    0  0.11190030821E+01 -0.15870596056E+01  0.68890396623E+00  0.20604647595E+01  0.51100000000E-03 0.  1.
         22    1    1    0    0    0 -0.26286481526E+02  0.56155511068E+02 -0.75293547252E+01  0.62458880209E+02  0.00000000000E+00 0. -1.
</event>
<event>
 4    1  0.1977762E-002  0.9118800E+02  0.7818608E-02  0.1130116E+00
         25   -1    0    0    0    0  0.00000000000E+00  0.00000000000E+00  0.99999998245E-14  0.12500000000E+03  0.12500000000E+03 0.  0.
        -11    1    1    0    0    0  0.50234015616E+00 -0.21385717555E+01 -0.57638161654E+01  0.61682584119E+01  0.51100000000E-03 0.  1.
         11    1    1    0    0    0  0.81877826302E+01 -0.54209608573E+01 -0.55567384399E+02  0.56428368842E+02  0.51100000000E-03 0. -1.
         22    1    1    0    0    0 -0.86901227864E+01  0.75595326128E+01  0.61331200564E+02  0.62403372746E+02  0.00000000000E+00 0. -1.
</event>
<event>
 4    1  0.1977762E-002  0.9118800E+02  0.7818608E-02  0.1130116E+00
         25   -1    0    0    0    0  0.00000000000E+00  0.00000000000E+00  0.99999998245E-14  0.12500000000E+03  0.12500000000E+03 0.  0.
        -11    1    1    0    0    0 -0.13283817640E+02  0.47835386885E+02  0.22495706214E+02  0.54504503005E+02  0.51100000000E-03 0. -1.
         11    1    1    0    0    0 -0.19549387238E+01  0.70214551570E+01  0.32871645926E+01  0.79955030646E+01  0.51100000000E-03 0.  1.
         22    1    1    0    0    0  0.15238756364E+02 -0.54856842042E+02 -0.25782870806E+02  0.62499993931E+02  0.00000000000E+00 0. -1.
</event>
<event>
 4    1  0.1977762E-002  0.9118800E+02  0.7818608E-02  0.1130116E+00
         25   -1    0    0    0    0  0.00000000000E+00  0.00000000000E+00  0.99999998245E-14  0.12500000000E+03  0.12500000000E+03 0.  0.
        -11    1    1    0    0    0 -0.80021080592E+01 -0.51923316248E+01  0.38527872902E+01  0.10287760264E+02  0.51100000000E-03 0.  1.
         11    1    1    0    0    0 -0.40638586509E+02 -0.26361483610E+02  0.19485786884E+02  0.52212243988E+02  0.51100000000E-03 0. -1.
         22    1    1    0    0    0  0.48640694568E+02  0.31553815235E+02 -0.23338574174E+02  0.62499995747E+02  0.00000000000E+00 0. -1.
</event>
<event>
 4    1  0.1977762E-002  0.9118800E+02  0.7818608E-02  0.1130116E+00
         25   -1    0    0    0    0  0.00000000000E+00  0.00000000000E+00  0.99999998245E-14  0.12500000000E+03  0.12500000000E+03 0.  0.
        -11    1    1    0    0    0 -0.16341238456E+02  0.69418579994E+01  0.66029702227E+01  0.18942668312E+02  0.51100000000E-03 0. -1.
         11    1    1    0    0    0 -0.37568566285E+02  0.15951668375E+02  0.15211456012E+02  0.43557333377E+02  0.51100000000E-03 0.  1.
         22    1    1    0    0    0  0.53909804740E+02 -0.22893526374E+02 -0.21814426235E+02  0.62499998311E+02  0.00000000000E+00 0.  1.
</event>
<event>
 4    1  0.1977762E-002  0.9118800E+02  0.7818608E-02  0.1130116E+00
         25   -1    0    0    0    0  0.00000000000E+00  0.00000000000E+00  0.99999998245E-14  0.12500000000E+03  0.12500000000E+03 0.  0.
        -11    1    1    0    0    0 -0.18286751015E+01 -0.12105065904E+02  0.26279363998E+02  0.28991061477E+02  0.51100000000E-03 0.  1.
         11    1    1    0    0    0 -0.21127028326E+01 -0.13992691884E+02  0.30374167020E+02  0.33508938536E+02  0.51100000000E-03 0.  1.
         22    1    1    0    0    0  0.39413779341E+01  0.26097757788E+02 -0.56653531018E+02  0.62499999987E+02  0.00000000000E+00 0.  1.
</event>
<event>
 4    1  0.1977762E-002  0.9118800E+02  0.7818608E-02  0.1130116E+00
         25   -1    0    0    0    0  0.00000000000E+00  0.00000000000E+00  0.99999998245E-14  0.12500000000E+03  0.12500000000E+03 0.  0.
        -11    1    1    0    0    0  0.29187274824E+01 -0.26340045670E+01 -0.96477104412E+01  0.10418026070E+02  0.51100000000E-03 0.  1.
         11    1    1    0    0    0  0.14625859975E+02 -0.13133636859E+02 -0.48229907831E+02  0.52081975834E+02  0.51100000000E-03 0. -1.
         22    1    1    0    0    0 -0.17544587458E+02  0.15767641426E+02  0.57877618272E+02  0.62499998096E+02  0.00000000000E+00 0.  1.
</event>
<event>
 4    1  0.1977762E-002  0.9118800E+02  0.7818608E-02  0.1130116E+00
         25   -1    0    0    0    0  0.00000000000E+00  0.00000000000E+00  0.99999998245E-14  0.12500000000E+03  0.12500000000E+03 0.  0.
        -11    1    1    0    0    0 -0.12152195376E+02 -0.30267932820E+01  0.71977139619E+01  0.14444528950E+02  0.51100000000E-03 0.  1.
         11    1    1    0    0    0 -0.40483395928E+02 -0.10087967822E+02  0.23846538125E+02  0.48055486903E+02  0.51100000000E-03 0. -1.
         22    1    1    0    0    0  0.52635591305E+02  0.13114761104E+02 -0.31044252087E+02  0.62499984148E+02  0.00000000000E+00 0. -1.
</event>
<event>
 4    1  0.1977762E-002  0.9118800E+02  0.7818608E-02  0.1130116E+00
         25   -1    0    0    0    0  0.00000000000E+00  0.00000000000E+00  0.99999998245E-14  0.12500000000E+03  0.12500000000E+03 0.  0.
        -11    1    1    0    0    0 -0.26193584163E+01 -0.23333789655E+00 -0.55980599106E+01  0.61849624179E+01  0.51100000000E-03 0.  1.
         11    1    1    0    0    0  0.12813427597E+01  0.10752908859E+02 -0.55630646291E+02  0.56674824175E+02  0.51100000000E-03 0. -1.
         22    1    1    0    0    0  0.13380156566E+01 -0.10519570962E+02  0.61228706202E+02  0.62140213407E+02  0.00000000000E+00 0. -1.
</event>
<event>
 4    1  0.1977762E-002  0.9118800E+02  0.7818608E-02  0.1130116E+00
         25   -1    0    0    0    0  0.00000000000E+00  0.00000000000E+00  0.99999998245E-14  0.12500000000E+03  0.12500000000E+03 0.  0.
        -11    1    1    0    0    0  0.17872563374E+02 -0.29711619780E+02 -0.36217037272E+02  0.50138634410E+02  0.51100000000E-03 0. -1.
         11    1    1    0    0    0  0.44068234595E+01 -0.73257605137E+01 -0.89284096805E+01  0.12361365612E+02  0.51100000000E-03 0. -1.
         22    1    1    0    0    0 -0.22279386834E+02  0.37037380294E+02  0.45145446952E+02  0.62499999978E+02  0.00000000000E+00 0. -1.
</event>
<event>
 4    1  0.1977762E-002  0.9118800E+02  0.7818608E-02  0.1130116E+00
         25   -1    0    0    0    0  0.00000000000E+00  0.00000000000E+00  0.99999998245E-14  0.12500000000E+03  0.12500000000E+03 0.  0.
        -11    1    1    0    0    0  0.41839844760E+01 -0.16659226904E+02 -0.10144756227E+02  0.19948725430E+02  0.51100000000E-03 0. -1.
         11    1    1    0    0    0  0.11682011020E+02 -0.37625133407E+02 -0.16278589585E+02  0.42627602847E+02  0.51100000000E-03 0.  1.
         22    1    1    0    0    0 -0.15865995496E+02  0.54284360311E+02  0.26423345812E+02  0.62423671723E+02  0.00000000000E+00 0. -1.
</event>
<event>
 4    1  0.1977762E-002  0.9118800E+02  0.7818608E-02  0.1130116E+00
         25   -1    0    0    0    0  0.00000000000E+00  0.00000000000E+00  0.99999998245E-14  0.12500000000E+03  0.12500000000E+03 0.  0.
        -11    1    1    0    0    0  0.34300081371E+02 -0.32993836267E+01 -0.22371484425E+02  0.41083632142E+02  0.51100000000E-03 0.  1.
         11    1    1    0    0    0  0.92562417482E+01 -0.28818734367E+01 -0.20382732017E+02  0.22570754762E+02  0.51100000000E-03 0. -1.
         22    1    1    0    0    0 -0.43556323119E+02  0.61812570633E+01  0.42754216442E+02  0.61345613096E+02  0.00000000000E+00 0.  1.
</event>
<event>
 4    1  0.1977762E-002  0.9118800E+02  0.7818608E-02  0.1130116E+00
         25   -1    0    0    0    0  0.00000000000E+00  0.00000000000E+00  0.99999998245E-14  0.12500000000E+03  0.12500000000E+03 0.  0.
        -11    1    1    0    0    0  0.15582035526E+02 -0.40275465636E+01  0.83024624790E+01  0.18109440796E+02  0.51100000000E-03 0.  1.
         11    1    1    0    0    0  0.38422847142E+02 -0.95568421005E+01  0.20072531697E+02  0.44390933110E+02  0.51100000000E-03 0. -1.
         22    1    1    0    0    0 -0.54004882668E+02  0.13584388664E+02 -0.28374994176E+02  0.62499626094E+02  0.00000000000E+00 0. -1.
</event>
<event>
 4    1  0.1977762E-002  0.9118800E+02  0.7818608E-02  0.1130116E+00
         25   -1    0    0    0    0  0.00000000000E+00  0.00000000000E+00  0.99999998245E-14  0.12500000000E+03  0.12500000000E+03 0.  0.
        -11    1    1    0    0    0  0.46692579526E+02 -0.15240532853E+02 -0.26215323246E+02  0.55675075191E+02  0.51100000000E-03 0.  1.
         11    1    1    0    0    0  0.60852358856E+01 -0.15255519368E+01 -0.27272992203E+01  0.68407284549E+01  0.51100000000E-03 0. -1.
         22    1    1    0    0    0 -0.52777815411E+02  0.16766084790E+02  0.28942622466E+02  0.62484196354E+02  0.00000000000E+00 0.  1.
</event>
<event>
 4    1  0.1977762E-002  0.9118800E+02  0.7818608E-02  0.1130116E+00
         25   -1    0    0    0    0  0.00000000000E+00  0.00000000000E+00  0.99999998245E-14  0.12500000000E+03  0.12500000000E+03 0.  0.
        -11    1    1    0    0    0  0.47893375413E+01  0.49622030639E+01 -0.52216492895E+01  0.86502505684E+01  0.51100000000E-03 0.  1.
         11    1    1    0    0    0  0.32135523322E+02  0.30731807716E+02 -0.30386592506E+02  0.53856112643E+02  0.51100000000E-03 0. -1.
         22    1    1    0    0    0 -0.36924860864E+02 -0.35694010780E+02  0.35608241795E+02  0.62493636789E+02  0.00000000000E+00 0. -1.
</event>
<event>
 4    1  0.1977762E-002  0.9118800E+02  0.7818608E-02  0.1130116E+00
         25   -1    0    0    0    0  0.00000000000E+00  0.00000000000E+00  0.99999998245E-14  0.12500000000E+03  0.12500000000E+03 0.  0.
        -11    1    1    0    0    0  0.30200748767E+02  0.17546960216E+02  0.46017681756E+02  0.57772035392E+02  0.51100000000E-03 0. -1.
         11    1    1    0    0    0  0.20712599074E+01  0.12598959315E+01  0.40754071898E+01  0.47419826430E+01  0.51100000000E-03 0.  1.
         22    1    1    0    0    0 -0.32272008675E+02 -0.18806856147E+02 -0.50093088945E+02  0.62485981965E+02  0.00000000000E+00 0. -1.
</event>
<event>
 4    1  0.1977762E-002  0.9118800E+02  0.7818608E-02  0.1130116E+00
         25   -1    0    0    0    0  0.00000000000E+00  0.00000000000E+00  0.99999998245E-14  0.12500000000E+03  0.12500000000E+03 0.  0.
        -11    1    1    0    0    0 -0.37840505010E+01  0.22551549341E+02  0.13274470089E+02  0.26440555446E+02  0.51100000000E-03 0.  1.
         11    1    1    0    0    0 -0.73704113882E+01  0.30289095252E+02  0.18155190449E+02  0.36074411925E+02  0.51100000000E-03 0. -1.
         22    1    1    0    0    0  0.11154461889E+02 -0.52840644593E+02 -0.31429660538E+02  0.62485032629E+02  0.00000000000E+00 0. -1.
</event>
<event>
 4    1  0.1977762E-002  0.9118800E+02  0.7818608E-02  0.1130116E+00
         25   -1    0    0    0    0  0.00000000000E+00  0.00000000000E+00  0.99999998245E-14  0.12500000000E+03  0.12500000000E+03 0.  0.
        -11    1    1    0    0    0 -0.29585488215E+02 -0.28691830948E+02  0.11165909239E+02  0.42698943845E+02  0.51100000000E-03 0.  1.
         11    1    1    0    0    0 -0.13628248384E+02 -0.13419659547E+02  0.51257842783E+01  0.19801264634E+02  0.51100000000E-03 0. -1.
         22    1    1    0    0    0  0.43213736599E+02  0.42111490495E+02 -0.16291693517E+02  0.62499791521E+02  0.00000000000E+00 0.  1.
</event>
<event>
 4    1  0.1977762E-002  0.9118800E+02  0.7818608E-02  0.1130116E+00
         25   -1    0    0    0    0  0.00000000000E+00  0.00000000000E+00  0.99999998245E-14  0.12500000000E+03  0.12500000000E+03 0.  0.
        -11    1    1    0    0    0 -0.15709420014E+01 -0.20152932988E+01  0.77292133174E+01  0.81406390793E+01  0.51100000000E-03 0.  1.
         11    1    1    0    0    0 -0.10307771955E+02 -0.23266433695E+02  0.48108574450E+02  0.54424369867E+02  0.51100000000E-03 0. -1.
         22    1    1    0    0    0  0.11878713956E+02  0.25281726994E+02 -0.55837787768E+02  0.62434991053E+02  0.00000000000E+00 0. -1.
</event>
<event>
 4    1  0.1977762E-002  0.9118800E+02  0.7818608E-02  0.1130116E+00
         25   -1    0    0    0    0  0.00000000000E+00  0.00000000000E+00  0.99999998245E-14  0.12500000000E+03  0.12500000000E+03 0.  0.
        -11    1    1    0    0    0 -0.51420050005E+02  0.29424520911E+02 -0.19362201638E+02  0.62327512592E+02  0.51100000000E-03 0.  1.
         11    1    1    0    0    0 -0.17400953753E+00 -0.42208874629E-01 -0.80340644812E-01  0.19625439760E+00  0.51100000000E-03 0. -1.
         22    1    1    0    0    0  0.51594059543E+02 -0.29382312037E+02  0.19442542283E+02  0.62476233010E+02  0.00000000000E+00 0.  1.
</event>
<event>
 4    1  0.1977762E-002  0.9118800E+02  0.7818608E-02  0.1130116E+00
         25   -1    0    0    0    0  0.00000000000E+00  0.00000000000E+00  0.99999998245E-14  0.12500000000E+03  0.12500000000E+03 0.  0.
        -11    1    1    0    0    0  0.85359215362E+01 -0.25658701007E+01 -0.31822692260E+01  0.94642740627E+01  0.51100000000E-03 0. -1.
         11    1    1    0    0    0  0.47815493102E+02 -0.14356956559E+02 -0.17898185052E+02  0.53035729566E+02  0.51100000000E-03 0.  1.
         22    1    1    0    0    0 -0.56351414638E+02  0.16922826660E+02  0.21080454278E+02  0.62499996371E+02  0.00000000000E+00 0.  1.
</event>
<event>
 4    1  0.1977762E-002  0.9118800E+02  0.7818608E-02  0.1130116E+00
         25   -1    0    0    0    0  0.00000000000E+00  0.00000000000E+00  0.99999998245E-14  0.12500000000E+03  0.12500000000E+03 0.  0.
        -11    1    1    0    0    0  0.76586131369E+01 -0.57505103051E+01  0.30648471212E+00  0.95821008704E+01  0.51100000000E-03 0.  1.
         11    1    1    0    0    0  0.42300109759E+02 -0.31751714862E+02  0.16832639998E+01  0.52917899243E+02  0.51100000000E-03 0. -1.
         22    1    1    0    0    0 -0.49958722896E+02  0.37502225167E+02 -0.19897487120E+01  0.62499999887E+02  0.00000000000E+00 0. -1.
</event>
<event>
 4    1  0.1977762E-002  0.9118800E+02  0.7818608E-02  0.1130116E+00
         25   -1    0    0    0    0  0.00000000000E+00  0.00000000000E+00  0.99999998245E-14  0.12500000000E+03  0.12500000000E+03 0.  0.
        -11    1    1    0    0    0 -0.19033632951E+02 -0.12983264338E+02 -0.28547367362E+01  0.23216241260E+02  0.51100000000E-03 0.  1.
         11    1    1    0    0    0 -0.32212512138E+02 -0.21957914862E+02 -0.48391921117E+01  0.39283759289E+02  0.51100000000E-03 0. -1.
         22    1    1    0    0    0  0.51246145088E+02  0.34941179199E+02  0.76939288479E+01  0.62499999451E+02  0.00000000000E+00 0.  1.
</event>
<event>
 4    1  0.1977762E-002  0.9118800E+02  0.7818608E-02  0.1130116E+00
         25   -1    0    0    0    0  0.00000000000E+00  0.00000000000E+00  0.99999998245E-14  0.12500000000E+03  0.12500000000E+03 0.  0.
        -11    1    1    0    0    0 -0.38125287150E+02 -0.82904498039E+01  0.40106072534E+02  0.55953249526E+02  0.51100000000E-03 0.  1.
         11    1    1    0    0    0 -0.36099950266E+01 -0.93685810489E+00  0.54333584279E+01  0.65902315034E+01  0.51100000000E-03 0. -1.
         22    1    1    0    0    0  0.41735282177E+02  0.92273079087E+01 -0.45539430961E+02  0.62456518970E+02  0.00000000000E+00 0.  1.
</event>
<event>
 4    1  0.1977762E-002  0.9118800E+02  0.7818608E-02  0.1130116E+00
         25   -1    0    0    0    0  0.00000000000E+00  0.00000000000E+00  0.99999998245E-14  0.12500000000E+03  0.12500000000E+03 0.  0.
        -11    1    1    0    0    0  0.23678708959E+02 -0.38880884541E+02  0.36480244340E+02  0.58337060845E+02  0.51100000000E-03 0.  1.
         11    1    1    0    0    0  0.16378319241E+01 -0.27344963869E+01  0.26785728034E+01  0.41634980997E+01  0.51100000000E-03 0. -1.
         22    1    1    0    0    0 -0.25316540883E+02  0.41615380928E+02 -0.39158817144E+02  0.62499441055E+02  0.00000000000E+00 0.  1.
</event>
<event>
 4    1  0.1977762E-002  0.9118800E+02  0.7818608E-02  0.1130116E+00
         25   -1    0    0    0    0  0.00000000000E+00  0.00000000000E+00  0.99999998245E-14  0.12500000000E+03  0.12500000000E+03 0.  0.
        -11    1    1    0    0    0  0.19719567496E+02  0.49019445046E+02  0.11504220628E+02  0.54075081390E+02  0.51100000000E-03 0. -1.
         11    1    1    0    0    0  0.31609196751E+01  0.76291934148E+01  0.16712330043E+01  0.84254985235E+01  0.51100000000E-03 0.  1.
         22    1    1    0    0    0 -0.22880487171E+02 -0.56648638461E+02 -0.13175453632E+02  0.62499420086E+02  0.00000000000E+00 0. -1.
</event>
<event>
 4    1  0.1977762E-002  0.9118800E+02  0.7818608E-02  0.1130116E+00
         25   -1    0    0    0    0  0.00000000000E+00  0.00000000000E+00  0.99999998245E-14  0.12500000000E+03  0.12500000000E+03 0.  0.
        -11    1    1    0    0    0  0.37080835990E+02  0.48234345828E+00  0.17175258074E+02  0.40868209443E+02  0.51100000000E-03 0.  1.
         11    1    1    0    0    0  0.19618646575E+02  0.20586470531E+00  0.91105234003E+01  0.21631812467E+02  0.51100000000E-03 0. -1.
         22    1    1    0    0    0 -0.56699482565E+02 -0.68820816359E+00 -0.26285781474E+02  0.62499978090E+02  0.00000000000E+00 0.  1.
</event>
<event>
 4    1  0.1977762E-002  0.9118800E+02  0.7818608E-02  0.1130116E+00
         25   -1    0    0    0    0  0.00000000000E+00  0.00000000000E+00  0.99999998245E-14  0.12500000000E+03  0.12500000000E+03 0.  0.
        -11    1    1    0    0    0  0.20283783726E+01  0.23168034455E+01  0.35151104622E+01  0.46731037706E+01  0.51100000000E-03 0.  1.
         11    1    1    0    0    0  0.34624868674E+02  0.38005527893E+02  0.26790933073E+02  0.57974613205E+02  0.51100000000E-03 0. -1.
         22    1    1    0    0    0 -0.36653247046E+02 -0.40322331339E+02 -0.30306043535E+02  0.62352283024E+02  0.00000000000E+00 0. -1.
</event>
<event>
 4    1  0.1977762E-002  0.9118800E+02  0.7818608E-02  0.1130116E+00
         25   -1    0    0    0    0  0.00000000000E+00  0.00000000000E+00  0.99999998245E-14  0.12500000000E+03  0.12500000000E+03 0.  0.
        -11    1    1    0    0    0 -0.14996591519E+02 -0.67728692860E+01  0.14240083966E+02  0.21761192687E+02  0.51100000000E-03 0. -1.
         11    1    1    0    0    0 -0.28107349685E+02 -0.12639300876E+02  0.26643496234E+02  0.40738813492E+02  0.51100000000E-03 0.  1.
         22    1    1    0    0    0  0.43103941204E+02  0.19412170162E+02 -0.40883580199E+02  0.62499993821E+02  0.00000000000E+00 0. -1.
</event>
<event>
 4    1  0.1977762E-002  0.9118800E+02  0.7818608E-02  0.1130116E+00
         25   -1    0    0    0    0  0.00000000000E+00  0.00000000000E+00  0.99999998245E-14  0.12500000000E+03  0.12500000000E+03 0.  0.
        -11    1    1    0    0    0 -0.91834797913E+01 -0.30495256083E+02 -0.26832986230E+02  0.41645000840E+02  0.51100000000E-03 0.  1.
         11    1    1    0    0    0 -0.99272429557E+01 -0.17743222582E+02 -0.68963359351E+01  0.21469316474E+02  0.51100000000E-03 0. -1.
         22    1    1    0    0    0  0.19110722747E+02  0.48238478664E+02  0.33729322166E+02  0.61885682686E+02  0.00000000000E+00 0.  1.
</event>
<event>
 4    1  0.1977762E-002  0.9118800E+02  0.7818608E-02  0.1130116E+00
         25   -1    0    0    0    0  0.00000000000E+00  0.00000000000E+00  0.99999998245E-14  0.12500000000E+03  0.12500000000E+03 0.  0.
        -11    1    1    0    0    0  0.29647989250E+02 -0.38427546294E+02  0.39165353290E+02  0.62366693670E+02  0.51100000000E-03 0.  1.
         11    1    1    0    0    0  0.63572240035E-01 -0.83116136417E-01  0.82594487304E-01  0.13331103589E+00  0.51100000000E-03 0. -1.
         22    1    1    0    0    0 -0.29711561490E+02  0.38510662430E+02 -0.39247947777E+02  0.62499995294E+02  0.00000000000E+00 0.  1.
</event>
<event>
 4    1  0.1977762E-002  0.9118800E+02  0.7818608E-02  0.1130116E+00
         25   -1    0    0    0    0  0.00000000000E+00  0.00000000000E+00  0.99999998245E-14  0.12500000000E+03  0.12500000000E+03 0.  0.
        -11    1    1    0    0    0 -0.31661680134E+02 -0.30565147276E+02  0.19271862050E+02  0.48042636106E+02  0.51100000000E-03 0.  1.
         11    1    1    0    0    0 -0.92557637386E+01 -0.94021183168E+01  0.59157474953E+01  0.14459082264E+02  0.51100000000E-03 0. -1.
         22    1    1    0    0    0  0.40917443873E+02  0.39967265592E+02 -0.25187609545E+02  0.62498281630E+02  0.00000000000E+00 0.  1.
</event>
<event>
 4    1  0.1977762E-002  0.9118800E+02  0.7818608E-02  0.1130116E+00
         25   -1    0    0    0    0  0.00000000000E+00  0.00000000000E+00  0.99999998245E-14  0.12500000000E+03  0.12500000000E+03 0.  0.
        -11    1    1    0    0    0 -0.15352575752E+02  0.17708102773E+02  0.36888198184E+02  0.43703748713E+02  0.51100000000E-03 0.  1.
         11    1    1    0    0    0  0.23326353816E+02  0.13241840818E+01  0.13403612548E+02  0.26935646928E+02  0.51100000000E-03 0. -1.
         22    1    1    0    0    0 -0.79737780634E+01 -0.19032286854E+02 -0.50291810733E+02  0.54360604359E+02  0.00000000000E+00 0.  1.
</event>
<event>
 4    1  0.1977762E-002  0.9118800E+02  0.7818608E-02  0.1130116E+00
         25   -1    0    0    0    0  0.00000000000E+00  0.00000000000E+00  0.99999998245E-14  0.12500000000E+03  0.12500000000E+03 0.  0.
        -11    1    1    0    0    0 -0.10452891044E+02 -0.94877605254E+01 -0.27619823931E+01  0.14384334464E+02  0.51100000000E-03 0.  1.
         11    1    1    0    0    0  0.60405904177E+01  0.59680111060E+02 -0.18952777808E+01  0.60014968690E+02  0.51100000000E-03 0. -1.
         22    1    1    0    0    0  0.44123006263E+01 -0.50192350535E+02  0.46572601739E+01  0.50600696846E+02  0.00000000000E+00 0. -1.
</event>
<event>
 4    1  0.1977762E-002  0.9118800E+02  0.7818608E-02  0.1130116E+00
         25   -1    0    0    0    0  0.00000000000E+00  0.00000000000E+00  0.99999998245E-14  0.12500000000E+03  0.12500000000E+03 0.  0.
        -11    1    1    0    0    0  0.72537894587E+01  0.32950175293E+01 -0.48974175725E+02  0.49617985552E+02  0.51100000000E-03 0. -1.
         11    1    1    0    0    0  0.22336592652E+01  0.15301501886E+01 -0.12603574706E+02  0.12891108910E+02  0.51100000000E-03 0.  1.
         22    1    1    0    0    0 -0.94874487239E+01 -0.48251677179E+01  0.61577750431E+02  0.62490905538E+02  0.00000000000E+00 0.  1.
</event>
<event>
 4    1  0.1977762E-002  0.9118800E+02  0.7818608E-02  0.1130116E+00
         25   -1    0    0    0    0  0.00000000000E+00  0.00000000000E+00  0.99999998245E-14  0.12500000000E+03  0.12500000000E+03 0.  0.
        -11    1    1    0    0    0 -0.26137550498E+02  0.42231644915E+01  0.40133854336E+01  0.26778982939E+02  0.51100000000E-03 0. -1.
         11    1    1    0    0    0 -0.34867714803E+02  0.56417079071E+01  0.53296148852E+01  0.35721019006E+02  0.51100000000E-03 0.  1.
         22    1    1    0    0    0  0.61005265301E+02 -0.98648723986E+01 -0.93430003188E+01  0.62499998055E+02  0.00000000000E+00 0. -1.
</event>
<event>
 4    1  0.1977762E-002  0.9118800E+02  0.7818608E-02  0.1130116E+00
         25   -1    0    0    0    0  0.00000000000E+00  0.00000000000E+00  0.99999998245E-14  0.12500000000E+03  0.12500000000E+03 0.  0.
        -11    1    1    0    0    0 -0.53763383122E+02 -0.32391618432E+00 -0.37987885350E+01  0.53898395904E+02  0.51100000000E-03 0. -1.
         11    1    1    0    0    0 -0.63814828679E+01 -0.74046388276E+01 -0.26291667952E+01  0.10122475886E+02  0.51100000000E-03 0.  1.
         22    1    1    0    0    0  0.60144865990E+02  0.77285550119E+01  0.64279553302E+01  0.60979128210E+02  0.00000000000E+00 0. -1.
</event>
<event>
 4    1  0.1977762E-002  0.9118800E+02  0.7818608E-02  0.1130116E+00
         25   -1    0    0    0    0  0.00000000000E+00  0.00000000000E+00  0.99999998245E-14  0.12500000000E+03  0.12500000000E+03 0.  0.
        -11    1    1    0    0    0  0.41410036818E+01  0.52479195989E+01 -0.13995536123E+02  0.15510112934E+02  0.51100000000E-03 0. -1.
         11    1    1    0    0    0  0.12493996592E+02  0.15870481746E+02 -0.42427324493E+02  0.46989892590E+02  0.51100000000E-03 0.  1.
         22    1    1    0    0    0 -0.16635000274E+02 -0.21118401345E+02  0.56422860616E+02  0.62499994476E+02  0.00000000000E+00 0. -1.
</event>
<event>
 4    1  0.1977762E-002  0.9118800E+02  0.7818608E-02  0.1130116E+00
         25   -1    0    0    0    0  0.00000000000E+00  0.00000000000E+00  0.99999998245E-14  0.12500000000E+03  0.12500000000E+03 0.  0.
        -11    1    1    0    0    0  0.44323259728E+01 -0.39886578673E+01  0.13108725937E+02  0.14401166656E+02  0.51100000000E-03 0.  1.
         11    1    1    0    0    0  0.12257556904E+02 -0.16509826541E+02  0.43504054144E+02  0.48118861176E+02  0.51100000000E-03 0. -1.
         22    1    1    0    0    0 -0.16689882877E+02  0.20498484409E+02 -0.56612780081E+02  0.62479972167E+02  0.00000000000E+00 0. -1.
</event>
<event>
 4    1  0.1977762E-002  0.9118800E+02  0.7818608E-02  0.1130116E+00
         25   -1    0    0    0    0  0.00000000000E+00  0.00000000000E+00  0.99999998245E-14  0.12500000000E+03  0.12500000000E+03 0.  0.
        -11    1    1    0    0    0 -0.29425933477E+02  0.29105985187E+02  0.21642474503E+02  0.46705895105E+02  0.51100000000E-03 0.  1.
         11    1    1    0    0    0 -0.99532439673E+01  0.98382762384E+01  0.73208616626E+01  0.15794105247E+02  0.51100000000E-03 0. -1.
         22    1    1    0    0    0  0.39379177444E+02 -0.38944261426E+02 -0.28963336166E+02  0.62499999648E+02  0.00000000000E+00 0.  1.
</event>
<event>
 4    1  0.1977762E-002  0.9118800E+02  0.7818608E-02  0.1130116E+00
         25   -1    0    0    0    0  0.00000000000E+00  0.00000000000E+00  0.99999998245E-14  0.12500000000E+03  0.12500000000E+03 0.  0.
        -11    1    1    0    0    0  0.21698025586E+02  0.28645751833E+02  0.75173263027E+01  0.36713670580E+02  0.51100000000E-03 0.  1.
         11    1    1    0    0    0  0.15239626452E+02  0.20119919493E+02  0.52799062645E+01  0.25786329425E+02  0.51100000000E-03 0.  1.
         22    1    1    0    0    0 -0.36937652038E+02 -0.48765671326E+02 -0.12797232567E+02  0.62499999995E+02  0.00000000000E+00 0.  1.
</event>
<event>
 4    1  0.1977762E-002  0.9118800E+02  0.7818608E-02  0.1130116E+00
         25   -1    0    0    0    0  0.00000000000E+00  0.00000000000E+00  0.99999998245E-14  0.12500000000E+03  0.12500000000E+03 0.  0.
        -11    1    1    0    0    0  0.89857761229E+01 -0.64899640598E+00  0.40888200558E+01  0.98936251483E+01  0.51100000000E-03 0.  1.
         11    1    1    0    0    0  0.47910341151E+02 -0.40454088332E+01  0.21347275465E+02  0.52606770399E+02  0.51100000000E-03 0. -1.
         22    1    1    0    0    0 -0.56896117274E+02  0.46944052392E+01 -0.25436095520E+02  0.62499604452E+02  0.00000000000E+00 0. -1.
</event>
<event>
 4    1  0.1977762E-002  0.9118800E+02  0.7818608E-02  0.1130116E+00
         25   -1    0    0    0    0  0.00000000000E+00  0.00000000000E+00  0.99999998245E-14  0.12500000000E+03  0.12500000000E+03 0.  0.
        -11    1    1    0    0    0 -0.23796766846E+02 -0.18599793208E+02  0.58416765294E+01  0.30763023334E+02  0.51100000000E-03 0. -1.
         11    1    1    0    0    0 -0.24549621762E+02 -0.19189724406E+02  0.60254657228E+01  0.31736976681E+02  0.51100000000E-03 0. -1.
         22    1    1    0    0    0  0.48346388608E+02  0.37789517614E+02 -0.11867142252E+02  0.62499999985E+02  0.00000000000E+00 0. -1.
</event>
<event>
 4    1  0.1977762E-002  0.9118800E+02  0.7818608E-02  0.1130116E+00
         25   -1    0    0    0    0  0.00000000000E+00  0.00000000000E+00  0.99999998245E-14  0.12500000000E+03  0.12500000000E+03 0.  0.
        -11    1    1    0    0    0  0.30980495671E+02  0.13748645185E+02 -0.41334278679E+02  0.53454082637E+02  0.51100000000E-03 0. -1.
         11    1    1    0    0    0  0.52488812255E+01  0.23034619762E+01 -0.69980125575E+01  0.90459311965E+01  0.51100000000E-03 0.  1.
         22    1    1    0    0    0 -0.36229376896E+02 -0.16052107161E+02  0.48332291237E+02  0.62499986166E+02  0.00000000000E+00 0. -1.
</event>
<event>
 4    1  0.1977762E-002  0.9118800E+02  0.7818608E-02  0.1130116E+00
         25   -1    0    0    0    0  0.00000000000E+00  0.00000000000E+00  0.99999998245E-14  0.12500000000E+03  0.12500000000E+03 0.  0.
        -11    1    1    0    0    0 -0.84889921689E+01 -0.16760830585E+01 -0.98620115818E+01  0.13119890059E+02  0.51100000000E-03 0. -1.
         11    1    1    0    0    0 -0.33544202732E+02 -0.64640540010E+01 -0.35663552470E+02  0.49385083842E+02  0.51100000000E-03 0.  1.
         22    1    1    0    0    0  0.42033194901E+02  0.81401370595E+01  0.45525564052E+02  0.62495026099E+02  0.00000000000E+00 0.  1.
</event>
<event>
 4    1  0.1977762E-002  0.9118800E+02  0.7818608E-02  0.1130116E+00
         25   -1    0    0    0    0  0.00000000000E+00  0.00000000000E+00  0.99999998245E-14  0.12500000000E+03  0.12500000000E+03 0.  0.
        -11    1    1    0    0    0  0.56165311434E+00 -0.12021759600E+00 -0.17597775810E+01  0.18511412390E+01  0.51100000000E-03 0.  1.
         11    1    1    0    0    0  0.18298750658E+02 -0.38953769160E+01 -0.57691126171E+02  0.60648860468E+02  0.51100000000E-03 0. -1.
         22    1    1    0    0    0 -0.18860403772E+02  0.40155945120E+01  0.59450903752E+02  0.62499998293E+02  0.00000000000E+00 0. -1.
</event>
<event>
 4    1  0.1977762E-002  0.9118800E+02  0.7818608E-02  0.1130116E+00
         25   -1    0    0    0    0  0.00000000000E+00  0.00000000000E+00  0.99999998245E-14  0.12500000000E+03  0.12500000000E+03 0.  0.
        -11    1    1    0    0    0 -0.13928035064E+02  0.84021080172E+01  0.56448965859E+02  0.58745819653E+02  0.51100000000E-03 0. -1.
         11    1    1    0    0    0 -0.88992071465E+00  0.53651227689E+00  0.36075013180E+01  0.37541803795E+01  0.51100000000E-03 0. -1.
         22    1    1    0    0    0  0.14817955779E+02 -0.89386202941E+01 -0.60056467177E+02  0.62499999968E+02  0.00000000000E+00 0. -1.
</event>
<event>
 4    1  0.1977762E-002  0.9118800E+02  0.7818608E-02  0.1130116E+00
         25   -1    0    0    0    0  0.00000000000E+00  0.00000000000E+00  0.99999998245E-14  0.12500000000E+03  0.12500000000E+03 0.  0.
        -11    1    1    0    0    0  0.53291159798E+01 -0.26482668138E+02  0.65058495267E+01  0.27785918505E+02  0.51100000000E-03 0.  1.
         11    1    1    0    0    0  0.66577362732E+01 -0.33086593568E+02  0.81252279788E+01  0.34714081526E+02  0.51100000000E-03 0. -1.
         22    1    1    0    0    0 -0.11986852253E+02  0.59569261706E+02 -0.14631077505E+02  0.62499999969E+02  0.00000000000E+00 0. -1.
</event>
<event>
 4    1  0.1977762E-002  0.9118800E+02  0.7818608E-02  0.1130116E+00
         25   -1    0    0    0    0  0.00000000000E+00  0.00000000000E+00  0.99999998245E-14  0.12500000000E+03  0.12500000000E+03 0.  0.
        -11    1    1    0    0    0  0.17135853361E+02  0.15907952270E+01  0.10802474446E+02  0.20318994913E+02  0.51100000000E-03 0.  1.
         11    1    1    0    0    0  0.35687911018E+02  0.28183169491E+01  0.22309408496E+02  0.42181507927E+02  0.51100000000E-03 0. -1.
         22    1    1    0    0    0 -0.52823764379E+02 -0.44091121761E+01 -0.33111882942E+02  0.62499497160E+02  0.00000000000E+00 0. -1.
</event>
<event>
 4    1  0.1977762E-002  0.9118800E+02  0.7818608E-02  0.1130116E+00
         25   -1    0    0    0    0  0.00000000000E+00  0.00000000000E+00  0.99999998245E-14  0.12500000000E+03  0.12500000000E+03 0.  0.
        -11    1    1    0    0    0 -0.28868399664E+01 -0.15371138387E+01 -0.10042169658E+01  0.34212594056E+01  0.51100000000E-03 0.  1.
         11    1    1    0    0    0 -0.49846451524E+02 -0.26552247621E+02 -0.17338022149E+02  0.59078740639E+02  0.51100000000E-03 0. -1.
         22    1    1    0    0    0  0.52733291490E+02  0.28089361460E+02  0.18342239115E+02  0.62499999955E+02  0.00000000000E+00 0. -1.
</event>
<event>
 4    1  0.1977762E-002  0.9118800E+02  0.7818608E-02  0.1130116E+00
         25   -1    0    0    0    0  0.00000000000E+00  0.00000000000E+00  0.99999998245E-14  0.12500000000E+03  0.12500000000E+03 0.  0.
        -11    1    1    0    0    0  0.11790315781E+02 -0.14261183862E+02 -0.67855987465E+01  0.19708811785E+02  0.51100000000E-03 0.  1.
         11    1    1    0    0    0  0.33496517185E+02 -0.23987909262E+02 -0.12332996376E+02  0.43006269940E+02  0.51100000000E-03 0. -1.
         22    1    1    0    0    0 -0.45286832966E+02  0.38249093125E+02  0.19118595123E+02  0.62284918274E+02  0.00000000000E+00 0. -1.
</event>
<event>
 4    1  0.1977762E-002  0.9118800E+02  0.7818608E-02  0.1130116E+00
         25   -1    0    0    0    0  0.00000000000E+00  0.00000000000E+00  0.99999998245E-14  0.12500000000E+03  0.12500000000E+03 0.  0.
        -11    1    1    0    0    0 -0.43170772017E+01 -0.10343223282E+02 -0.33538007974E+01  0.11699034296E+02  0.51100000000E-03 0. -1.
         11    1    1    0    0    0 -0.16090357534E+02 -0.48294132405E+02 -0.23075365619E+01  0.50956329887E+02  0.51100000000E-03 0.  1.
         22    1    1    0    0    0  0.20407434736E+02  0.58637355686E+02  0.56613373594E+01  0.62344635817E+02  0.00000000000E+00 0.  1.
</event>
<event>
 4    1  0.1977762E-002  0.9118800E+02  0.7818608E-02  0.1130116E+00
         25   -1    0    0    0    0  0.00000000000E+00  0.00000000000E+00  0.99999998245E-14  0.12500000000E+03  0.12500000000E+03 0.  0.
        -11    1    1    0    0    0  0.24352080641E+02 -0.32555309597E+02 -0.17113121582E+01  0.40691529881E+02  0.51100000000E-03 0. -1.
         11    1    1    0    0    0  0.12867047770E+02 -0.17598464746E+02 -0.62367854206E+00  0.21809535871E+02  0.51100000000E-03 0.  1.
         22    1    1    0    0    0 -0.37219128411E+02  0.50153774343E+02  0.23349907003E+01  0.62498934248E+02  0.00000000000E+00 0. -1.
</event>
<event>
 4    1  0.1977762E-002  0.9118800E+02  0.7818608E-02  0.1130116E+00
         25   -1    0    0    0    0  0.00000000000E+00  0.00000000000E+00  0.99999998245E-14  0.12500000000E+03  0.12500000000E+03 0.  0.
        -11    1    1    0    0    0 -0.23364033538E+02 -0.23664621360E+02 -0.12622017638E+02  0.35569758177E+02  0.51100000000E-03 0. -1.
         11    1    1    0    0    0 -0.17689189641E+02 -0.17918099127E+02 -0.95536495956E+01  0.26930241873E+02  0.51100000000E-03 0.  1.
         22    1    1    0    0    0  0.41053223179E+02  0.41582720486E+02  0.22175667234E+02  0.62499999950E+02  0.00000000000E+00 0.  1.
</event>
<event>
 4    1  0.1977762E-002  0.9118800E+02  0.7818608E-02  0.1130116E+00
         25   -1    0    0    0    0  0.00000000000E+00  0.00000000000E+00  0.99999998245E-14  0.12500000000E+03  0.12500000000E+03 0.  0.
        -11    1    1    0    0    0 -0.36115253785E+02 -0.34666886721E+02  0.50348391012E+01  0.50313558768E+02  0.51100000000E-03 0. -1.
         11    1    1    0    0    0 -0.91723122361E+01 -0.80277398597E+01  0.51218717926E+00  0.12199928483E+02  0.51100000000E-03 0.  1.
         22    1    1    0    0    0  0.45287566021E+02  0.42694626581E+02 -0.55470262805E+01  0.62486512749E+02  0.00000000000E+00 0. -1.
</event>
<event>
 4    1  0.1977762E-002  0.9118800E+02  0.7818608E-02  0.1130116E+00
         25   -1    0    0    0    0  0.00000000000E+00  0.00000000000E+00  0.99999998245E-14  0.12500000000E+03  0.12500000000E+03 0.  0.
        -11    1    1    0    0    0 -0.24069212091E+02  0.27140293965E+01 -0.53897739960E+02  0.59090263998E+02  0.51100000000E-03 0.  1.
         11    1    1    0    0    0 -0.13912949968E+01  0.15914775499E+00 -0.31089027292E+01  0.34097369717E+01  0.51100000000E-03 0. -1.
         22    1    1    0    0    0  0.25460507088E+02 -0.28731771515E+01  0.57006642689E+02  0.62499999031E+02  0.00000000000E+00 0.  1.
</event>
<event>
 4    1  0.1977762E-002  0.9118800E+02  0.7818608E-02  0.1130116E+00
         25   -1    0    0    0    0  0.00000000000E+00  0.00000000000E+00  0.99999998245E-14  0.12500000000E+03  0.12500000000E+03 0.  0.
        -11    1    1    0    0    0  0.47251647997E+01  0.13209060938E+00  0.91837225222E+01  0.10328861987E+02  0.51100000000E-03 0.  1.
         11    1    1    0    0    0  0.24017159561E+02  0.84272014573E+00  0.46306570373E+02  0.52171185443E+02  0.51100000000E-03 0. -1.
         22    1    1    0    0    0 -0.28742324361E+02 -0.97481075511E+00 -0.55490292895E+02  0.62499952570E+02  0.00000000000E+00 0. -1.
</event>
<event>
 4    1  0.1977762E-002  0.9118800E+02  0.7818608E-02  0.1130116E+00
         25   -1    0    0    0    0  0.00000000000E+00  0.00000000000E+00  0.99999998245E-14  0.12500000000E+03  0.12500000000E+03 0.  0.
        -11    1    1    0    0    0 -0.23977236498E+02  0.21465606311E+02  0.59322166197E+01  0.32724170252E+02  0.51100000000E-03 0. -1.
         11    1    1    0    0    0 -0.24978840265E+02  0.16317653382E+02  0.21275767005E+01  0.29912118878E+02  0.51100000000E-03 0.  1.
         22    1    1    0    0    0  0.48956076763E+02 -0.37783259694E+02 -0.80597933202E+01  0.62363710870E+02  0.00000000000E+00 0.  1.
</event>
<event>
 4    1  0.1977762E-002  0.9118800E+02  0.7818608E-02  0.1130116E+00
         25   -1    0    0    0    0  0.00000000000E+00  0.00000000000E+00  0.99999998245E-14  0.12500000000E+03  0.12500000000E+03 0.  0.
        -11    1    1    0    0    0  0.32078909913E+01 -0.15059262843E+02 -0.21376946814E+02  0.26344749332E+02  0.51100000000E-03 0. -1.
         11    1    1    0    0    0  0.41050347037E+02  0.28583269170E+02  0.11870611064E+02  0.51410559962E+02  0.51100000000E-03 0.  1.
         22    1    1    0    0    0 -0.44258238028E+02 -0.13524006327E+02  0.95063357505E+01  0.47244690706E+02  0.00000000000E+00 0.  1.
</event>
<event>
 4    1  0.1977762E-002  0.9118800E+02  0.7818608E-02  0.1130116E+00
         25   -1    0    0    0    0  0.00000000000E+00  0.00000000000E+00  0.99999998245E-14  0.12500000000E+03  0.12500000000E+03 0.  0.
        -11    1    1    0    0    0  0.27102410889E+02  0.28792176917E+02 -0.21549539171E+02  0.45032352441E+02  0.51100000000E-03 0.  1.
         11    1    1    0    0    0  0.10525646330E+02  0.11160567289E+02 -0.83529223506E+01  0.17467650241E+02  0.51100000000E-03 0. -1.
         22    1    1    0    0    0 -0.37628057219E+02 -0.39952744206E+02  0.29902461522E+02  0.62499997318E+02  0.00000000000E+00 0.  1.
</event>
<event>
 4    1  0.1977762E-002  0.9118800E+02  0.7818608E-02  0.1130116E+00
         25   -1    0    0    0    0  0.00000000000E+00  0.00000000000E+00  0.99999998245E-14  0.12500000000E+03  0.12500000000E+03 0.  0.
        -11    1    1    0    0    0  0.55955924262E+02  0.38689149811E+01  0.19671171777E+02  0.59438951560E+02  0.51100000000E-03 0. -1.
         11    1    1    0    0    0  0.28919023277E+01  0.32317059468E+00  0.95469965326E+00  0.30625136727E+01  0.51100000000E-03 0.  1.
         22    1    1    0    0    0 -0.58847826590E+02 -0.41920855758E+01 -0.20625871431E+02  0.62498534768E+02  0.00000000000E+00 0. -1.
</event>
<event>
 4    1  0.1977762E-002  0.9118800E+02  0.7818608E-02  0.1130116E+00
         25   -1    0    0    0    0  0.00000000000E+00  0.00000000000E+00  0.99999998245E-14  0.12500000000E+03  0.12500000000E+03 0.  0.
        -11    1    1    0    0    0 -0.65458218100E+00  0.31296572769E+01  0.12719339900E+01  0.34410825097E+01  0.51100000000E-03 0. -1.
         11    1    1    0    0    0 -0.37384589989E+02  0.44169361402E+02  0.12768998313E+02  0.59258648090E+02  0.51100000000E-03 0.  1.
         22    1    1    0    0    0  0.38039172170E+02 -0.47299018679E+02 -0.14040932303E+02  0.62300269400E+02  0.00000000000E+00 0.  1.
</event>
<event>
 4    1  0.1977762E-002  0.9118800E+02  0.7818608E-02  0.1130116E+00
         25   -1    0    0    0    0  0.00000000000E+00  0.00000000000E+00  0.99999998245E-14  0.12500000000E+03  0.12500000000E+03 0.  0.
        -11    1    1    0    0    0  0.33608218206E+02  0.41617195993E+02  0.11052378292E+02  0.54622874324E+02  0.51100000000E-03 0. -1.
         11    1    1    0    0    0  0.48348065582E+01  0.60089653833E+01  0.16019371581E+01  0.78771328764E+01  0.51100000000E-03 0.  1.
         22    1    1    0    0    0 -0.38443024764E+02 -0.47626161376E+02 -0.12654315451E+02  0.62499992799E+02  0.00000000000E+00 0. -1.
</event>
<event>
 4    1  0.1977762E-002  0.9118800E+02  0.7818608E-02  0.1130116E+00
         25   -1    0    0    0    0  0.00000000000E+00  0.00000000000E+00  0.99999998245E-14  0.12500000000E+03  0.12500000000E+03 0.  0.
        -11    1    1    0    0    0  0.91675527328E-01  0.13676698612E+00  0.42589571331E+01  0.42621386338E+01  0.51100000000E-03 0. -1.
         11    1    1    0    0    0  0.19814106657E+01  0.15949697470E+01  0.58182465152E+02  0.58238038842E+02  0.51100000000E-03 0.  1.
         22    1    1    0    0    0 -0.20730861930E+01 -0.17317367331E+01 -0.62441422286E+02  0.62499822524E+02  0.00000000000E+00 0.  1.
</event>
<event>
 4    1  0.1977762E-002  0.9118800E+02  0.7818608E-02  0.1130116E+00
         25   -1    0    0    0    0  0.00000000000E+00  0.00000000000E+00  0.99999998245E-14  0.12500000000E+03  0.12500000000E+03 0.  0.
        -11    1    1    0    0    0  0.99306628162E+01 -0.20199792419E+01  0.15927443511E+02  0.18878078217E+02  0.51100000000E-03 0.  1.
         11    1    1    0    0    0  0.23506992533E+02 -0.38514923919E+01  0.36546099076E+02  0.43623732641E+02  0.51100000000E-03 0. -1.
         22    1    1    0    0    0 -0.33437655349E+02  0.58714716338E+01 -0.52473542587E+02  0.62498189142E+02  0.00000000000E+00 0. -1.
</event>
<event>
 4    1  0.1977762E-002  0.9118800E+02  0.7818608E-02  0.1130116E+00
         25   -1    0    0    0    0  0.00000000000E+00  0.00000000000E+00  0.99999998245E-14  0.12500000000E+03  0.12500000000E+03 0.  0.
        -11    1    1    0    0    0  0.22128882901E+02 -0.61848255812E+01  0.21346842059E+01  0.23075883577E+02  0.51100000000E-03 0. -1.
         11    1    1    0    0    0  0.37852421330E+02 -0.10352181869E+02  0.37814941540E+01  0.39424271310E+02  0.51100000000E-03 0.  1.
         22    1    1    0    0    0 -0.59981304232E+02  0.16537007451E+02 -0.59161783599E+01  0.62499845113E+02  0.00000000000E+00 0.  1.
</event>
<event>
 4    1  0.1977762E-002  0.9118800E+02  0.7818608E-02  0.1130116E+00
         25   -1    0    0    0    0  0.00000000000E+00  0.00000000000E+00  0.99999998245E-14  0.12500000000E+03  0.12500000000E+03 0.  0.
        -11    1    1    0    0    0  0.24334531383E+02  0.28238772356E+02  0.27881376788E+01  0.37381431136E+02  0.51100000000E-03 0.  1.
         11    1    1    0    0    0  0.16350892291E+02  0.18975602248E+02  0.18754582712E+01  0.25118568896E+02  0.51100000000E-03 0. -1.
         22    1    1    0    0    0 -0.40685423674E+02 -0.47214374604E+02 -0.46635959501E+01  0.62499999968E+02  0.00000000000E+00 0.  1.
</event>
<event>
 4    1  0.1977762E-002  0.9118800E+02  0.7818608E-02  0.1130116E+00
         25   -1    0    0    0    0  0.00000000000E+00  0.00000000000E+00  0.99999998245E-14  0.12500000000E+03  0.12500000000E+03 0.  0.
        -11    1    1    0    0    0  0.67556405473E+01  0.44379437180E+01  0.32333964526E+01  0.87056807045E+01  0.51100000000E-03 0.  1.
         11    1    1    0    0    0 -0.10504635517E+02 -0.15064795317E+02 -0.57763077582E+02  0.60612445564E+02  0.51100000000E-03 0. -1.
         22    1    1    0    0    0  0.37489949699E+01  0.10626851599E+02  0.54529681129E+02  0.55681873731E+02  0.00000000000E+00 0. -1.
</event>
<event>
 4    1  0.1977762E-002  0.9118800E+02  0.7818608E-02  0.1130116E+00
         25   -1    0    0    0    0  0.00000000000E+00  0.00000000000E+00  0.99999998245E-14  0.12500000000E+03  0.12500000000E+03 0.  0.
        -11    1    1    0    0    0 -0.10241364551E+01 -0.28944322924E+01  0.65564260517E+00  0.31395001610E+01  0.51100000000E-03 0.  1.
         11    1    1    0    0    0 -0.19436982124E+02 -0.54925250519E+02  0.11362987393E+02  0.59360735351E+02  0.51100000000E-03 0. -1.
         22    1    1    0    0    0  0.20461118579E+02  0.57819682812E+02 -0.12018629998E+02  0.62499764488E+02  0.00000000000E+00 0. -1.
</event>
<event>
 4    1  0.1977762E-002  0.9118800E+02  0.7818608E-02  0.1130116E+00
         25   -1    0    0    0    0  0.00000000000E+00  0.00000000000E+00  0.99999998245E-14  0.12500000000E+03  0.12500000000E+03 0.  0.
        -11    1    1    0    0    0 -0.41116539411E+01 -0.17741342093E+01 -0.35501319284E+01  0.57146029866E+01  0.51100000000E-03 0. -1.
         11    1    1    0    0    0 -0.51475467896E+02 -0.10803144060E+02 -0.21766884995E+02  0.56923009401E+02  0.51100000000E-03 0.  1.
         22    1    1    0    0    0  0.55587121837E+02  0.12577278270E+02  0.25317016923E+02  0.62362387612E+02  0.00000000000E+00 0.  1.
</event>
<event>
 4    1  0.1977762E-002  0.9118800E+02  0.7818608E-02  0.1130116E+00
         25   -1    0    0    0    0  0.00000000000E+00  0.00000000000E+00  0.99999998245E-14  0.12500000000E+03  0.12500000000E+03 0.  0.
        -11    1    1    0    0    0  0.24686176177E+02 -0.22709698818E+01 -0.25053726531E+02  0.35245621172E+02  0.51100000000E-03 0.  1.
         11    1    1    0    0    0  0.19090689648E+02 -0.17565809358E+01 -0.19371658654E+02  0.27254378861E+02  0.51100000000E-03 0. -1.
         22    1    1    0    0    0 -0.43776865825E+02  0.40275508176E+01  0.44425385186E+02  0.62499999967E+02  0.00000000000E+00 0. -1.
</event>
<event>
 4    1  0.1977762E-002  0.9118800E+02  0.7818608E-02  0.1130116E+00
         25   -1    0    0    0    0  0.00000000000E+00  0.00000000000E+00  0.99999998245E-14  0.12500000000E+03  0.12500000000E+03 0.  0.
        -11    1    1    0    0    0  0.35820943337E+02 -0.30926638644E+02 -0.17481208586E+02  0.50449872282E+02  0.51100000000E-03 0.  1.
         11    1    1    0    0    0  0.85677374128E+01 -0.74249262120E+01 -0.40833789926E+01  0.12050296174E+02  0.51100000000E-03 0. -1.
         22    1    1    0    0    0 -0.44388680749E+02  0.38351564856E+02  0.21564587579E+02  0.62499831544E+02  0.00000000000E+00 0.  1.
</event>
<event>
 4    1  0.1977762E-002  0.9118800E+02  0.7818608E-02  0.1130116E+00
         25   -1    0    0    0    0  0.00000000000E+00  0.00000000000E+00  0.99999998245E-14  0.12500000000E+03  0.12500000000E+03 0.  0.
        -11    1    1    0    0    0 -0.95223298357E+01  0.30536468701E+02  0.38418075799E+00  0.31989033767E+02  0.51100000000E-03 0.  1.
         11    1    1    0    0    0 -0.14527200167E+02  0.19125797327E+02  0.22840100053E+02  0.33143714921E+02  0.51100000000E-03 0. -1.
         22    1    1    0    0    0  0.24049530003E+02 -0.49662266028E+02 -0.23224280811E+02  0.59867251312E+02  0.00000000000E+00 0. -1.
</event>
<event>
 4    1  0.1977762E-002  0.9118800E+02  0.7818608E-02  0.1130116E+00
         25   -1    0    0    0    0  0.00000000000E+00  0.00000000000E+00  0.99999998245E-14  0.12500000000E+03  0.12500000000E+03 0.  0.
        -11    1    1    0    0    0 -0.18870031314E+02  0.35128565797E+01  0.18032078555E+02  0.26335795040E+02  0.51100000000E-03 0. -1.
         11    1    1    0    0    0 -0.33736233044E+02  0.12201980778E+02 -0.24409442998E+02  0.43391734958E+02  0.51100000000E-03 0.  1.
         22    1    1    0    0    0  0.52606264358E+02 -0.15714837357E+02  0.63773644432E+01  0.55272470002E+02  0.00000000000E+00 0.  1.
</event>
<event>
 4    1  0.1977762E-002  0.9118800E+02  0.7818608E-02  0.1130116E+00
         25   -1    0    0    0    0  0.00000000000E+00  0.00000000000E+00  0.99999998245E-14  0.12500000000E+03  0.12500000000E+03 0.  0.
        -11    1    1    0    0    0  0.20290052813E+02 -0.53504633560E+01  0.37859115392E+01  0.21322448914E+02  0.51100000000E-03 0. -1.
         11    1    1    0    0    0  0.37858303194E+02  0.15683636210E+01 -0.20467728683E+02  0.43065517562E+02  0.51100000000E-03 0.  1.
         22    1    1    0    0    0 -0.58148356006E+02  0.37820997350E+01  0.16681817144E+02  0.60612033524E+02  0.00000000000E+00 0. -1.
</event>
<event>
 4    1  0.1977762E-002  0.9118800E+02  0.7818608E-02  0.1130116E+00
         25   -1    0    0    0    0  0.00000000000E+00  0.00000000000E+00  0.99999998245E-14  0.12500000000E+03  0.12500000000E+03 0.  0.
        -11    1    1    0    0    0 -0.31965460348E+02 -0.74936605903E+01 -0.28831252791E+02  0.43694241520E+02  0.51100000000E-03 0.  1.
         11    1    1    0    0    0 -0.15012185364E+02 -0.30194948214E+01 -0.10975309058E+02  0.18839863788E+02  0.51100000000E-03 0. -1.
         22    1    1    0    0    0  0.46977645712E+02  0.10513155412E+02  0.39806561849E+02  0.62465894691E+02  0.00000000000E+00 0.  1.
</event>
<event>
 4    1  0.1977762E-002  0.9118800E+02  0.7818608E-02  0.1130116E+00
         25   -1    0    0    0    0  0.00000000000E+00  0.00000000000E+00  0.99999998245E-14  0.12500000000E+03  0.12500000000E+03 0.  0.
        -11    1    1    0    0    0 -0.68012343156E+01 -0.20636591379E+02  0.12627199894E+02  0.25131093677E+02  0.51100000000E-03 0. -1.
         11    1    1    0    0    0 -0.13672665204E+02 -0.24433026453E+02  0.25121130401E+02  0.37616296313E+02  0.51100000000E-03 0.  1.
         22    1    1    0    0    0  0.20473899519E+02  0.45069617832E+02 -0.37748330295E+02  0.62252610010E+02  0.00000000000E+00 0. -1.
</event>
<event>
 4    1  0.1977762E-002  0.9118800E+02  0.7818608E-02  0.1130116E+00
         25   -1    0    0    0    0  0.00000000000E+00  0.00000000000E+00  0.99999998245E-14  0.12500000000E+03  0.12500000000E+03 0.  0.
        -11    1    1    0    0    0  0.28615307308E+02  0.31746018523E+02  0.19757166045E+02  0.47084935115E+02  0.51100000000E-03 0. -1.
         11    1    1    0    0    0 -0.11475178434E+02  0.72326216020E+01  0.16941036151E+02  0.21702286549E+02  0.51100000000E-03 0.  1.
         22    1    1    0    0    0 -0.17140128874E+02 -0.38978640125E+02 -0.36698202196E+02  0.56212778336E+02  0.00000000000E+00 0. -1.
</event>
<event>
 4    1  0.1977762E-002  0.9118800E+02  0.7818608E-02  0.1130116E+00
         25   -1    0    0    0    0  0.00000000000E+00  0.00000000000E+00  0.99999998245E-14  0.12500000000E+03  0.12500000000E+03 0.  0.
        -11    1    1    0    0    0  0.55456479762E+01 -0.19252540935E+02  0.18216830650E+00  0.20036160548E+02  0.51100000000E-03 0. -1.
         11    1    1    0    0    0  0.11754591637E+02 -0.40802715917E+02  0.38159393533E+00  0.42463839499E+02  0.51100000000E-03 0.  1.
         22    1    1    0    0    0 -0.17300239613E+02  0.60055256853E+02 -0.56376224184E+00  0.62499999953E+02  0.00000000000E+00 0.  1.
</event>
<event>
 4    1  0.1977762E-002  0.9118800E+02  0.7818608E-02  0.1130116E+00
         25   -1    0    0    0    0  0.00000000000E+00  0.00000000000E+00  0.99999998245E-14  0.12500000000E+03  0.12500000000E+03 0.  0.
        -11    1    1    0    0    0  0.75580627088E+01  0.45829935309E+01  0.16358832477E+00  0.88405261730E+01  0.51100000000E-03 0. -1.
         11    1    1    0    0    0  0.45903722215E+02  0.27771097885E+02  0.97661110331E+00  0.53659475961E+02  0.51100000000E-03 0.  1.
         22    1    1    0    0    0 -0.53461784924E+02 -0.32354091415E+02 -0.11401994281E+01  0.62499997866E+02  0.00000000000E+00 0.  1.
</event>
<event>
 4    1  0.1977762E-002  0.9118800E+02  0.7818608E-02  0.1130116E+00
         25   -1    0    0    0    0  0.00000000000E+00  0.00000000000E+00  0.99999998245E-14  0.12500000000E+03  0.12500000000E+03 0.  0.
        -11    1    1    0    0    0 -0.19767467118E+02 -0.15032382306E+02 -0.29773748537E+01  0.25011797923E+02  0.51100000000E-03 0. -1.
         11    1    1    0    0    0 -0.28990487602E+02 -0.23152700598E+02 -0.54042108221E+01  0.37492684770E+02  0.51100000000E-03 0.  1.
         22    1    1    0    0    0  0.48757954721E+02  0.38185082905E+02  0.83815856758E+01  0.62495517306E+02  0.00000000000E+00 0. -1.
</event>
<event>
 4    1  0.1977762E-002  0.9118800E+02  0.7818608E-02  0.1130116E+00
         25   -1    0    0    0    0  0.00000000000E+00  0.00000000000E+00  0.99999998245E-14  0.12500000000E+03  0.12500000000E+03 0.  0.
        -11    1    1    0    0    0  0.18460142607E+02 -0.43011015082E+02 -0.17033445132E+02  0.49808257717E+02  0.51100000000E-03 0.  1.
         11    1    1    0    0    0  0.47056367055E+01 -0.10959898350E+02 -0.43379646062E+01  0.12691742427E+02  0.51100000000E-03 0. -1.
         22    1    1    0    0    0 -0.23165779312E+02  0.53970913432E+02  0.21371409739E+02  0.62499999856E+02  0.00000000000E+00 0.  1.
</event>
<event>
 4    1  0.1977762E-002  0.9118800E+02  0.7818608E-02  0.1130116E+00
         25   -1    0    0    0    0  0.00000000000E+00  0.00000000000E+00  0.99999998245E-14  0.12500000000E+03  0.12500000000E+03 0.  0.
        -11    1    1    0    0    0 -0.27108654790E+01  0.26692749752E+02  0.25114709467E+02  0.36750514457E+02  0.51100000000E-03 0. -1.
         11    1    1    0    0    0 -0.18990943560E+01  0.18703513597E+02  0.17595682031E+02  0.25749485561E+02  0.51100000000E-03 0.  1.
         22    1    1    0    0    0  0.46099598350E+01 -0.45396263350E+02 -0.42710391498E+02  0.62499999982E+02  0.00000000000E+00 0.  1.
</event>
<event>
 4    1  0.1977762E-002  0.9118800E+02  0.7818608E-02  0.1130116E+00
         25   -1    0    0    0    0  0.00000000000E+00  0.00000000000E+00  0.99999998245E-14  0.12500000000E+03  0.12500000000E+03 0.  0.
        -11    1    1    0    0    0 -0.70313128708E+01  0.40263243272E+02  0.10018375343E+02  0.42082489996E+02  0.51100000000E-03 0. -1.
         11    1    1    0    0    0 -0.25516869420E+01  0.19634690434E+02  0.50102195654E+01  0.20423870227E+02  0.51100000000E-03 0.  1.
         22    1    1    0    0    0  0.95829998128E+01 -0.59897933706E+02 -0.15028594908E+02  0.62493639777E+02  0.00000000000E+00 0. -1.
</event>
<event>
 4    1  0.1977762E-002  0.9118800E+02  0.7818608E-02  0.1130116E+00
         25   -1    0    0    0    0  0.00000000000E+00  0.00000000000E+00  0.99999998245E-14  0.12500000000E+03  0.12500000000E+03 0.  0.
        -11    1    1    0    0    0 -0.25917527536E+02 -0.10253158739E+02  0.11321476625E+01  0.27894932449E+02  0.51100000000E-03 0. -1.
         11    1    1    0    0    0 -0.31393624462E+02 -0.14279847184E+02  0.30519846010E+01  0.34623522390E+02  0.51100000000E-03 0.  1.
         22    1    1    0    0    0  0.57311151998E+02  0.24533005923E+02 -0.41841322636E+01  0.62481545161E+02  0.00000000000E+00 0.  1.
</event>
<event>
 4    1  0.1977762E-002  0.9118800E+02  0.7818608E-02  0.1130116E+00
         25   -1    0    0    0    0  0.00000000000E+00  0.00000000000E+00  0.99999998245E-14  0.12500000000E+03  0.12500000000E+03 0.  0.
        -11    1    1    0    0    0  0.64125289175E+01  0.92349793868E+01  0.13967790799E+02  0.17930547997E+02  0.51100000000E-03 0. -1.
         11    1    1    0    0    0  0.15794567397E+02  0.23018712431E+02  0.34743492126E+02  0.44569493228E+02  0.51100000000E-03 0.  1.
         22    1    1    0    0    0 -0.22207096315E+02 -0.32253691818E+02 -0.48711282926E+02  0.62499958775E+02  0.00000000000E+00 0.  1.
</event>
<event>
 4    1  0.1977762E-002  0.9118800E+02  0.7818608E-02  0.1130116E+00
         25   -1    0    0    0    0  0.00000000000E+00  0.00000000000E+00  0.99999998245E-14  0.12500000000E+03  0.12500000000E+03 0.  0.
        -11    1    1    0    0    0 -0.54345594934E+02 -0.16504769077E+02  0.21690742331E+01  0.56837980033E+02  0.51100000000E-03 0. -1.
         11    1    1    0    0    0 -0.54292923805E+01 -0.15147004143E+01  0.60201088964E+00  0.56686815461E+01  0.51100000000E-03 0.  1.
         22    1    1    0    0    0  0.59774887314E+02  0.18019469491E+02 -0.27710851228E+01  0.62493338421E+02  0.00000000000E+00 0. -1.
</event>
<event>
 4    1  0.1977762E-002  0.9118800E+02  0.7818608E-02  0.1130116E+00
         25   -1    0    0    0    0  0.00000000000E+00  0.00000000000E+00  0.99999998245E-14  0.12500000000E+03  0.12500000000E+03 0.  0.
        -11    1    1    0    0    0 -0.19206795041E+02  0.92668897943E+01 -0.73957575030E+01  0.22571518591E+02  0.51100000000E-03 0.  1.
         11    1    1    0    0    0 -0.33184416996E+02  0.13944308273E+02 -0.17413181685E+02  0.39985849513E+02  0.51100000000E-03 0. -1.
         22    1    1    0    0    0  0.52391212037E+02 -0.23211198067E+02  0.24808939188E+02  0.62442631896E+02  0.00000000000E+00 0. -1.
</event>
<event>
 4    1  0.1977762E-002  0.9118800E+02  0.7818608E-02  0.1130116E+00
         25   -1    0    0    0    0  0.00000000000E+00  0.00000000000E+00  0.99999998245E-14  0.12500000000E+03  0.12500000000E+03 0.  0.
        -11    1    1    0    0    0 -0.10633242457E+02  0.56975354912E+02  0.17225192834E+02  0.60464569633E+02  0.51100000000E-03 0.  1.
         11    1    1    0    0    0  0.41131071025E+00  0.21267142341E+01 -0.14305557971E+00  0.21708420241E+01  0.51100000000E-03 0. -1.
         22    1    1    0    0    0  0.10221931747E+02 -0.59102069146E+02 -0.17082137254E+02  0.62364588343E+02  0.00000000000E+00 0.  1.
</event>
<event>
 4    1  0.1977762E-002  0.9118800E+02  0.7818608E-02  0.1130116E+00
         25   -1    0    0    0    0  0.00000000000E+00  0.00000000000E+00  0.99999998245E-14  0.12500000000E+03  0.12500000000E+03 0.  0.
        -11    1    1    0    0    0 -0.14458716743E+01  0.39610980145E+01 -0.55966637245E+01  0.70073880644E+01  0.51100000000E-03 0. -1.
         11    1    1    0    0    0  0.22739566572E+02  0.35724056403E+02 -0.36827260051E+02  0.56120790950E+02  0.51100000000E-03 0.  1.
         22    1    1    0    0    0 -0.21293694897E+02 -0.39685154418E+02  0.42423923775E+02  0.61871820985E+02  0.00000000000E+00 0.  1.
</event>
<event>
 4    1  0.1977762E-002  0.9118800E+02  0.7818608E-02  0.1130116E+00
         25   -1    0    0    0    0  0.00000000000E+00  0.00000000000E+00  0.99999998245E-14  0.12500000000E+03  0.12500000000E+03 0.  0.
        -11    1    1    0    0    0 -0.62667995195E+01  0.55461194481E+01  0.58855271399E+02  0.59447247109E+02  0.51100000000E-03 0.  1.
         11    1    1    0    0    0 -0.32458957990E+00  0.28241648173E+00  0.30222820855E+01  0.30527539583E+01  0.51100000000E-03 0. -1.
         22    1    1    0    0    0  0.65913890994E+01 -0.58285359299E+01 -0.61877553484E+02  0.62499998933E+02  0.00000000000E+00 0.  1.
</event>
<event>
 4    1  0.1977762E-002  0.9118800E+02  0.7818608E-02  0.1130116E+00
         25   -1    0    0    0    0  0.00000000000E+00  0.00000000000E+00  0.99999998245E-14  0.12500000000E+03  0.12500000000E+03 0.  0.
        -11    1    1    0    0    0  0.13326503824E+01  0.41408651932E+01  0.54608232661E+01  0.69816411104E+01  0.51100000000E-03 0.  1.
         11    1    1    0    0    0  0.77203655981E+01  0.32087476222E+02  0.44650461543E+02  0.55523633630E+02  0.51100000000E-03 0. -1.
         22    1    1    0    0    0 -0.90530159805E+01 -0.36228341415E+02 -0.50111284809E+02  0.62494725259E+02  0.00000000000E+00 0. -1.
</event>
<event>
 4    1  0.1977762E-002  0.9118800E+02  0.7818608E-02  0.1130116E+00
         25   -1    0    0    0    0  0.00000000000E+00  0.00000000000E+00  0.99999998245E-14  0.12500000000E+03  0.12500000000E+03 0.  0.
        -11    1    1    0    0    0 -0.17798198914E+02 -0.24061866722E+02  0.15107430765E+02  0.33525867317E+02  0.51100000000E-03 0. -1.
         11    1    1    0    0    0 -0.15649994737E+02 -0.20314053870E+02  0.13492577073E+02  0.28976417243E+02  0.51100000000E-03 0.  1.
         22    1    1    0    0    0  0.33448193651E+02  0.44375920593E+02 -0.28600007837E+02  0.62497715440E+02  0.00000000000E+00 0.  1.
</event>
<event>
 4    1  0.1977762E-002  0.9118800E+02  0.7818608E-02  0.1130116E+00
         25   -1    0    0    0    0  0.00000000000E+00  0.00000000000E+00  0.99999998245E-14  0.12500000000E+03  0.12500000000E+03 0.  0.
        -11    1    1    0    0    0  0.11043750487E+02 -0.38727033832E+01  0.10991497696E+02  0.16055381596E+02  0.51100000000E-03 0. -1.
         11    1    1    0    0    0  0.32273655099E+02 -0.60379315256E+01  0.32903741348E+02  0.46483347830E+02  0.51100000000E-03 0.  1.
         22    1    1    0    0    0 -0.43317405586E+02  0.99106349088E+01 -0.43895239044E+02  0.62461270574E+02  0.00000000000E+00 0.  1.
</event>
<event>
 4    1  0.1977762E-002  0.9118800E+02  0.7818608E-02  0.1130116E+00
         25   -1    0    0    0    0  0.00000000000E+00  0.00000000000E+00  0.99999998245E-14  0.12500000000E+03  0.12500000000E+03 0.  0.
        -11    1    1    0    0    0 -0.47825875885E-01  0.11715025933E+01  0.10690159519E+00  0.11773418589E+01  0.51100000000E-03 0.  1.
         11    1    1    0    0    0 -0.28214485263E+01  0.61028528762E+02  0.52941712413E+01  0.61322672349E+02  0.51100000000E-03 0. -1.
         22    1    1    0    0    0  0.28692744022E+01 -0.62200031355E+02 -0.54010728365E+01  0.62499985792E+02  0.00000000000E+00 0. -1.
</event>
<event>
 4    1  0.1977762E-002  0.9118800E+02  0.7818608E-02  0.1130116E+00
         25   -1    0    0    0    0  0.00000000000E+00  0.00000000000E+00  0.99999998245E-14  0.12500000000E+03  0.12500000000E+03 0.  0.
        -11    1    1    0    0    0 -0.62237227758E+01 -0.14691625057E+01  0.11403377693E+01  0.64956550207E+01  0.51100000000E-03 0. -1.
         11    1    1    0    0    0 -0.53684841810E+02 -0.12670816171E+02  0.96889590996E+01  0.56004354753E+02  0.51100000000E-03 0.  1.
         22    1    1    0    0    0  0.59908564585E+02  0.14139978676E+02 -0.10829296869E+02  0.62499990227E+02  0.00000000000E+00 0.  1.
</event>
<event>
 4    1  0.1977762E-002  0.9118800E+02  0.7818608E-02  0.1130116E+00
         25   -1    0    0    0    0  0.00000000000E+00  0.00000000000E+00  0.99999998245E-14  0.12500000000E+03  0.12500000000E+03 0.  0.
        -11    1    1    0    0    0  0.56373454375E+01 -0.96107002935E+01  0.16788730812E+02  0.20149608091E+02  0.51100000000E-03 0. -1.
         11    1    1    0    0    0  0.11543592780E+02 -0.21271891451E+02  0.34757060801E+02  0.42353290025E+02  0.51100000000E-03 0.  1.
         22    1    1    0    0    0 -0.17180938218E+02  0.30882591744E+02 -0.51545791612E+02  0.62497101884E+02  0.00000000000E+00 0.  1.
</event>
<event>
 4    1  0.1977762E-002  0.9118800E+02  0.7818608E-02  0.1130116E+00
         25   -1    0    0    0    0  0.00000000000E+00  0.00000000000E+00  0.99999998245E-14  0.12500000000E+03  0.12500000000E+03 0.  0.
        -11    1    1    0    0    0 -0.42115358509E+02 -0.18275031414E+02 -0.38325593410E+01  0.46069173065E+02  0.51100000000E-03 0. -1.
         11    1    1    0    0    0 -0.15050998733E+02 -0.64423882705E+01 -0.13920550346E+01  0.16430908282E+02  0.51100000000E-03 0.  1.
         22    1    1    0    0    0  0.57166357242E+02  0.24717419685E+02  0.52246143756E+01  0.62499918653E+02  0.00000000000E+00 0. -1.
</event>
<event>
 4    1  0.1977762E-002  0.9118800E+02  0.7818608E-02  0.1130116E+00
         25   -1    0    0    0    0  0.00000000000E+00  0.00000000000E+00  0.99999998245E-14  0.12500000000E+03  0.12500000000E+03 0.  0.
        -11    1    1    0    0    0  0.18089213575E+02  0.26640650475E+01 -0.49590028373E+01  0.18944883208E+02  0.51100000000E-03 0.  1.
         11    1    1    0    0    0  0.41587984149E+02  0.61240610603E+01 -0.11401037216E+02  0.43555116798E+02  0.51100000000E-03 0. -1.
         22    1    1    0    0    0 -0.59677197724E+02 -0.87881261078E+01  0.16360040053E+02  0.62499999994E+02  0.00000000000E+00 0. -1.
</event>
<event>
 4    1  0.1977762E-002  0.9118800E+02  0.7818608E-02  0.1130116E+00
         25   -1    0    0    0    0  0.00000000000E+00  0.00000000000E+00  0.99999998245E-14  0.12500000000E+03  0.12500000000E+03 0.  0.
        -11    1    1    0    0    0  0.10135652981E+02  0.23721832350E+02 -0.67184826184E+01  0.26656984082E+02  0.51100000000E-03 0. -1.
         11    1    1    0    0    0  0.14010374658E+02  0.31773609255E+02 -0.88830240552E+01  0.35843562319E+02  0.51100000000E-03 0.  1.
         22    1    1    0    0    0 -0.24146027639E+02 -0.55495441605E+02  0.15601506674E+02  0.62499453599E+02  0.00000000000E+00 0. -1.
</event>
<event>
 4    1  0.1977762E-002  0.9118800E+02  0.7818608E-02  0.1130116E+00
         25   -1    0    0    0    0  0.00000000000E+00  0.00000000000E+00  0.99999998245E-14  0.12500000000E+03  0.12500000000E+03 0.  0.
        -11    1    1    0    0    0 -0.94421494241E+00  0.30714972656E+00 -0.36506972613E+00  0.10579031043E+01  0.51100000000E-03 0.  1.
         11    1    1    0    0    0 -0.20080431906E+02  0.18590287443E+02 -0.55193686214E+02  0.61604914827E+02  0.51100000000E-03 0. -1.
         22    1    1    0    0    0  0.21024646849E+02 -0.18897437169E+02  0.55558755940E+02  0.62337182069E+02  0.00000000000E+00 0. -1.
</event>
<event>
 4    1  0.1977762E-002  0.9118800E+02  0.7818608E-02  0.1130116E+00
         25   -1    0    0    0    0  0.00000000000E+00  0.00000000000E+00  0.99999998245E-14  0.12500000000E+03  0.12500000000E+03 0.  0.
        -11    1    1    0    0    0  0.19549804766E+02  0.81808961378E+01 -0.95971204523E+01  0.23264278395E+02  0.51100000000E-03 0. -1.
         11    1    1    0    0    0  0.32951615058E+02  0.13380579226E+02 -0.16572666098E+02  0.39236489358E+02  0.51100000000E-03 0.  1.
         22    1    1    0    0    0 -0.52501419823E+02 -0.21561475364E+02  0.26169786550E+02  0.62499232247E+02  0.00000000000E+00 0. -1.
</event>
<event>
 4    1  0.1977762E-002  0.9118800E+02  0.7818608E-02  0.1130116E+00
         25   -1    0    0    0    0  0.00000000000E+00  0.00000000000E+00  0.99999998245E-14  0.12500000000E+03  0.12500000000E+03 0.  0.
        -11    1    1    0    0    0  0.19198905588E+02  0.40152836255E+01 -0.15395214537E+02  0.24934576581E+02  0.51100000000E-03 0. -1.
         11    1    1    0    0    0  0.10756001205E+02 -0.21914012954E+02 -0.32599297686E+02  0.40726278194E+02  0.51100000000E-03 0.  1.
         22    1    1    0    0    0 -0.29954906794E+02  0.17898729328E+02  0.47994512222E+02  0.59339145225E+02  0.00000000000E+00 0.  1.
</event>
<event>
 4    1  0.1977762E-002  0.9118800E+02  0.7818608E-02  0.1130116E+00
         25   -1    0    0    0    0  0.00000000000E+00  0.00000000000E+00  0.99999998245E-14  0.12500000000E+03  0.12500000000E+03 0.  0.
        -11    1    1    0    0    0  0.12250909815E+02 -0.99236130116E+01 -0.51389438785E+02  0.53753486449E+02  0.51100000000E-03 0.  1.
         11    1    1    0    0    0  0.19926631998E+01 -0.16174236095E+01 -0.83615032654E+01  0.87465137557E+01  0.51100000000E-03 0. -1.
         22    1    1    0    0    0 -0.14243573015E+02  0.11541036621E+02  0.59750942050E+02  0.62499999795E+02  0.00000000000E+00 0.  1.
</event>
<event>
 4    1  0.1977762E-002  0.9118800E+02  0.7818608E-02  0.1130116E+00
         25   -1    0    0    0    0  0.00000000000E+00  0.00000000000E+00  0.99999998245E-14  0.12500000000E+03  0.12500000000E+03 0.  0.
        -11    1    1    0    0    0 -0.44242637740E+02  0.21419390072E+02  0.10249952386E+02  0.50212177700E+02  0.51100000000E-03 0. -1.
         11    1    1    0    0    0 -0.10829870193E+02  0.52211631083E+01  0.25385989745E+01  0.12287844303E+02  0.51100000000E-03 0.  1.
         22    1    1    0    0    0  0.55072507933E+02 -0.26640553180E+02 -0.12788551361E+02  0.62499977997E+02  0.00000000000E+00 0. -1.
</event>
<event>
 4    1  0.1977762E-002  0.9118800E+02  0.7818608E-02  0.1130116E+00
         25   -1    0    0    0    0  0.00000000000E+00  0.00000000000E+00  0.99999998245E-14  0.12500000000E+03  0.12500000000E+03 0.  0.
        -11    1    1    0    0    0  0.16706308571E+02 -0.49394469900E+01  0.11260896034E+02  0.20743834322E+02  0.51100000000E-03 0. -1.
         11    1    1    0    0    0  0.33774440469E+02 -0.96889687083E+01  0.22561128517E+02  0.41756358364E+02  0.51100000000E-03 0.  1.
         22    1    1    0    0    0 -0.50480749040E+02  0.14628415698E+02 -0.33822024551E+02  0.62499807313E+02  0.00000000000E+00 0.  1.
</event>
<event>
 4    1  0.1977762E-002  0.9118800E+02  0.7818608E-02  0.1130116E+00
         25   -1    0    0    0    0  0.00000000000E+00  0.00000000000E+00  0.99999998245E-14  0.12500000000E+03  0.12500000000E+03 0.  0.
        -11    1    1    0    0    0  0.10945442390E+02 -0.39399002843E+02  0.20768970114E+02  0.45863212425E+02  0.51100000000E-03 0. -1.
         11    1    1    0    0    0  0.42120486517E+01 -0.14436005830E+02  0.71227899120E+01  0.16639523868E+02  0.51100000000E-03 0.  1.
         22    1    1    0    0    0 -0.15157491042E+02  0.53835008673E+02 -0.27891760026E+02  0.62497263707E+02  0.00000000000E+00 0. -1.
</event>
<event>
 4    1  0.1977762E-002  0.9118800E+02  0.7818608E-02  0.1130116E+00
         25   -1    0    0    0    0  0.00000000000E+00  0.00000000000E+00  0.99999998245E-14  0.12500000000E+03  0.12500000000E+03 0.  0.
        -11    1    1    0    0    0  0.19619764173E+02  0.70431481588E+01 -0.40387565350E+02  0.45449934184E+02  0.51100000000E-03 0.  1.
         11    1    1    0    0    0  0.63155724870E+01  0.44155480921E+01 -0.15259982576E+02  0.17095338232E+02  0.51100000000E-03 0. -1.
         22    1    1    0    0    0 -0.25935336660E+02 -0.11458696251E+02  0.55647547926E+02  0.62454727584E+02  0.00000000000E+00 0.  1.
</event>
<event>
 4    1  0.1977762E-002  0.9118800E+02  0.7818608E-02  0.1130116E+00
         25   -1    0    0    0    0  0.00000000000E+00  0.00000000000E+00  0.99999998245E-14  0.12500000000E+03  0.12500000000E+03 0.  0.
        -11    1    1    0    0    0  0.51640605926E+02  0.41702397337E-01 -0.32518917466E+02  0.61026501726E+02  0.51100000000E-03 0.  1.
         11    1    1    0    0    0  0.12588688985E+01 -0.17797863217E-01 -0.76586831237E+00  0.14736424942E+01  0.51100000000E-03 0. -1.
         22    1    1    0    0    0 -0.52899474825E+02 -0.23904534120E-01  0.33284785779E+02  0.62499855780E+02  0.00000000000E+00 0.  1.
</event>
<event>
 4    1  0.1977762E-002  0.9118800E+02  0.7818608E-02  0.1130116E+00
         25   -1    0    0    0    0  0.00000000000E+00  0.00000000000E+00  0.99999998245E-14  0.12500000000E+03  0.12500000000E+03 0.  0.
        -11    1    1    0    0    0 -0.82248217322E+01 -0.82552554216E+00 -0.45263329444E+01  0.94242705358E+01  0.51100000000E-03 0. -1.
         11    1    1    0    0    0 -0.46318685617E+02 -0.46542334631E+01 -0.25494127463E+02  0.53075729498E+02  0.51100000000E-03 0.  1.
         22    1    1    0    0    0  0.54543507349E+02  0.54797590052E+01  0.30020460408E+02  0.62499999966E+02  0.00000000000E+00 0.  1.
</event>
<event>
 4    1  0.1977762E-002  0.9118800E+02  0.7818608E-02  0.1130116E+00
         25   -1    0    0    0    0  0.00000000000E+00  0.00000000000E+00  0.99999998245E-14  0.12500000000E+03  0.12500000000E+03 0.  0.
        -11    1    1    0    0    0  0.10303648339E+02  0.46380851561E+02  0.71160286145E+01  0.48041507305E+02  0.51100000000E-03 0.  1.
         11    1    1    0    0    0  0.31015121307E+01  0.13958516104E+02  0.21420695106E+01  0.14458492708E+02  0.51100000000E-03 0. -1.
         22    1    1    0    0    0 -0.13405160469E+02 -0.60339367666E+02 -0.92580981250E+01  0.62499999987E+02  0.00000000000E+00 0.  1.
</event>
<event>
 4    1  0.1977762E-002  0.9118800E+02  0.7818608E-02  0.1130116E+00
         25   -1    0    0    0    0  0.00000000000E+00  0.00000000000E+00  0.99999998245E-14  0.12500000000E+03  0.12500000000E+03 0.  0.
        -11    1    1    0    0    0  0.10360813629E+02 -0.26730635296E+01 -0.22777049858E+01  0.10939820289E+02  0.51100000000E-03 0. -1.
         11    1    1    0    0    0  0.48831509869E+02 -0.12598137432E+02 -0.10734184158E+02  0.51560179719E+02  0.51100000000E-03 0. -1.
         22    1    1    0    0    0 -0.59192323498E+02  0.15271200961E+02  0.13011889144E+02  0.62499999992E+02  0.00000000000E+00 0. -1.
</event>
<event>
 4    1  0.1977762E-002  0.9118800E+02  0.7818608E-02  0.1130116E+00
         25   -1    0    0    0    0  0.00000000000E+00  0.00000000000E+00  0.99999998245E-14  0.12500000000E+03  0.12500000000E+03 0.  0.
        -11    1    1    0    0    0  0.49627264552E+01  0.12835398257E+02 -0.43771251509E+01  0.14440752305E+02  0.51100000000E-03 0.  1.
         11    1    1    0    0    0  0.93739520364E+01  0.39526243377E+02 -0.26115523797E+02  0.48293016842E+02  0.51100000000E-03 0. -1.
         22    1    1    0    0    0 -0.14336678492E+02 -0.52361641634E+02  0.30492648948E+02  0.62266230853E+02  0.00000000000E+00 0.  1.
</event>
<event>
 4    1  0.1977762E-002  0.9118800E+02  0.7818608E-02  0.1130116E+00
         25   -1    0    0    0    0  0.00000000000E+00  0.00000000000E+00  0.99999998245E-14  0.12500000000E+03  0.12500000000E+03 0.  0.
        -11    1    1    0    0    0 -0.64674205007E+01  0.22024870058E+02  0.16938000338E+02  0.28527500499E+02  0.51100000000E-03 0.  1.
         11    1    1    0    0    0 -0.93875111234E+01  0.26330374654E+02  0.19326930554E+02  0.33984470562E+02  0.51100000000E-03 0. -1.
         22    1    1    0    0    0  0.15854931624E+02 -0.48355244712E+02 -0.36264930893E+02  0.62488028938E+02  0.00000000000E+00 0. -1.
</event>
<event>
 4    1  0.1977762E-002  0.9118800E+02  0.7818608E-02  0.1130116E+00
         25   -1    0    0    0    0  0.00000000000E+00  0.00000000000E+00  0.99999998245E-14  0.12500000000E+03  0.12500000000E+03 0.  0.
        -11    1    1    0    0    0  0.13726035164E+02 -0.23542227651E+02 -0.25254886367E+02  0.37154404984E+02  0.51100000000E-03 0. -1.
         11    1    1    0    0    0  0.93594775037E+01 -0.16058725929E+02 -0.17231270908E+02  0.25345595179E+02  0.51100000000E-03 0.  1.
         22    1    1    0    0    0 -0.23085512668E+02  0.39600953580E+02  0.42486157275E+02  0.62499999837E+02  0.00000000000E+00 0.  1.
</event>
<event>
 4    1  0.1977762E-002  0.9118800E+02  0.7818608E-02  0.1130116E+00
         25   -1    0    0    0    0  0.00000000000E+00  0.00000000000E+00  0.99999998245E-14  0.12500000000E+03  0.12500000000E+03 0.  0.
        -11    1    1    0    0    0  0.39058532866E+02  0.47353534982E+02 -0.68065844486E+01  0.61759662054E+02  0.51100000000E-03 0.  1.
         11    1    1    0    0    0  0.46961738046E+00  0.56646363854E+00 -0.81733011146E-01  0.74033916825E+00  0.51100000000E-03 0. -1.
         22    1    1    0    0    0 -0.39528150247E+02 -0.47919998621E+02  0.68883174598E+01  0.62499998777E+02  0.00000000000E+00 0.  1.
</event>
<event>
 4    1  0.1977762E-002  0.9118800E+02  0.7818608E-02  0.1130116E+00
         25   -1    0    0    0    0  0.00000000000E+00  0.00000000000E+00  0.99999998245E-14  0.12500000000E+03  0.12500000000E+03 0.  0.
        -11    1    1    0    0    0 -0.44750320164E+01  0.19682265863E+00 -0.44253241074E+01  0.62966772526E+01  0.51100000000E-03 0. -1.
         11    1    1    0    0    0 -0.37394726647E+02  0.13136871694E+01 -0.41944730391E+02  0.56209000728E+02  0.51100000000E-03 0.  1.
         22    1    1    0    0    0  0.41869758663E+02 -0.15105098280E+01  0.46370054499E+02  0.62494322019E+02  0.00000000000E+00 0.  1.
</event>
<event>
 4    1  0.1977762E-002  0.9118800E+02  0.7818608E-02  0.1130116E+00
         25   -1    0    0    0    0  0.00000000000E+00  0.00000000000E+00  0.99999998245E-14  0.12500000000E+03  0.12500000000E+03 0.  0.
        -11    1    1    0    0    0  0.85333470481E+01  0.15645223078E+02  0.13180963380E+02  0.22165938123E+02  0.51100000000E-03 0. -1.
         11    1    1    0    0    0  0.15538671608E+02  0.28508963272E+02  0.23929607004E+02  0.40334072368E+02  0.51100000000E-03 0.  1.
         22    1    1    0    0    0 -0.24072018656E+02 -0.44154186350E+02 -0.37110570384E+02  0.62499989509E+02  0.00000000000E+00 0.  1.
</event>
<event>
 4    1  0.1977762E-002  0.9118800E+02  0.7818608E-02  0.1130116E+00
         25   -1    0    0    0    0  0.00000000000E+00  0.00000000000E+00  0.99999998245E-14  0.12500000000E+03  0.12500000000E+03 0.  0.
        -11    1    1    0    0    0  0.72682281329E+01  0.38410354118E+02 -0.32752184809E+02  0.50998902476E+02  0.51100000000E-03 0.  1.
         11    1    1    0    0    0  0.16743932157E+01  0.84935437944E+01 -0.75734928064E+01  0.11502246406E+02  0.51100000000E-03 0. -1.
         22    1    1    0    0    0 -0.89426213486E+01 -0.46903897913E+02  0.40325677616E+02  0.62498851119E+02  0.00000000000E+00 0. -1.
</event>
<event>
 4    1  0.1977762E-002  0.9118800E+02  0.7818608E-02  0.1130116E+00
         25   -1    0    0    0    0  0.00000000000E+00  0.00000000000E+00  0.99999998245E-14  0.12500000000E+03  0.12500000000E+03 0.  0.
        -11    1    1    0    0    0  0.22743717232E+02  0.16574756310E+01 -0.96788182636E+01  0.24773038212E+02  0.51100000000E-03 0.  1.
         11    1    1    0    0    0  0.34636576314E+02  0.25235725620E+01 -0.14739837470E+02  0.37726961793E+02  0.51100000000E-03 0.  1.
         22    1    1    0    0    0 -0.57380293547E+02 -0.41810481930E+01  0.24418655734E+02  0.62499999995E+02  0.00000000000E+00 0.  1.
</event>
<event>
 4    1  0.1977762E-002  0.9118800E+02  0.7818608E-02  0.1130116E+00
         25   -1    0    0    0    0  0.00000000000E+00  0.00000000000E+00  0.99999998245E-14  0.12500000000E+03  0.12500000000E+03 0.  0.
        -11    1    1    0    0    0  0.24229173867E+01 -0.27260971980E+02 -0.25237372694E+01  0.27484547877E+02  0.51100000000E-03 0. -1.
         11    1    1    0    0    0  0.31712301037E+01 -0.34726938723E+02 -0.31728346379E+01  0.35015480195E+02  0.51100000000E-03 0.  1.
         22    1    1    0    0    0 -0.55941474904E+01  0.61987910703E+02  0.56965719073E+01  0.62499971927E+02  0.00000000000E+00 0. -1.
</event>
<event>
 4    1  0.1977762E-002  0.9118800E+02  0.7818608E-02  0.1130116E+00
         25   -1    0    0    0    0  0.00000000000E+00  0.00000000000E+00  0.99999998245E-14  0.12500000000E+03  0.12500000000E+03 0.  0.
        -11    1    1    0    0    0 -0.14895061327E+01 -0.30964726965E+02 -0.34785573475E+02  0.46594732179E+02  0.51100000000E-03 0. -1.
         11    1    1    0    0    0 -0.50800870868E+00 -0.10569522436E+02 -0.11874538609E+02  0.15905267832E+02  0.51100000000E-03 0.  1.
         22    1    1    0    0    0  0.19975148414E+01  0.41534249401E+02  0.46660112085E+02  0.62499999989E+02  0.00000000000E+00 0. -1.
</event>
<event>
 4    1  0.1977762E-002  0.9118800E+02  0.7818608E-02  0.1130116E+00
         25   -1    0    0    0    0  0.00000000000E+00  0.00000000000E+00  0.99999998245E-14  0.12500000000E+03  0.12500000000E+03 0.  0.
        -11    1    1    0    0    0 -0.15834215168E+02  0.33105510918E+01 -0.10709886846E+02  0.19400613265E+02  0.51100000000E-03 0.  1.
         11    1    1    0    0    0 -0.22421595552E+02  0.33065702674E+02 -0.19841387900E+02  0.44606606175E+02  0.51100000000E-03 0. -1.
         22    1    1    0    0    0  0.38255810721E+02 -0.36376253765E+02  0.30551274746E+02  0.60992780560E+02  0.00000000000E+00 0. -1.
</event>
<event>
 4    1  0.1977762E-002  0.9118800E+02  0.7818608E-02  0.1130116E+00
         25   -1    0    0    0    0  0.00000000000E+00  0.00000000000E+00  0.99999998245E-14  0.12500000000E+03  0.12500000000E+03 0.  0.
        -11    1    1    0    0    0  0.24098876532E+02 -0.18427702096E+02  0.27602154062E+02  0.41014813955E+02  0.51100000000E-03 0.  1.
         11    1    1    0    0    0  0.12552179755E+02 -0.98697487121E+01  0.14375792939E+02  0.21485636577E+02  0.51100000000E-03 0. -1.
         22    1    1    0    0    0 -0.36651056287E+02  0.28297450808E+02 -0.41977947001E+02  0.62499549467E+02  0.00000000000E+00 0.  1.
</event>
<event>
 4    1  0.1977762E-002  0.9118800E+02  0.7818608E-02  0.1130116E+00
         25   -1    0    0    0    0  0.00000000000E+00  0.00000000000E+00  0.99999998245E-14  0.12500000000E+03  0.12500000000E+03 0.  0.
        -11    1    1    0    0    0  0.91006795496E+01  0.18902846428E+02 -0.26061943826E+02  0.33456910909E+02  0.51100000000E-03 0. -1.
         11    1    1    0    0    0  0.78993461897E+01  0.16409154346E+02 -0.22623903454E+02  0.29043089097E+02  0.51100000000E-03 0.  1.
         22    1    1    0    0    0 -0.17000025739E+02 -0.35312000774E+02  0.48685847280E+02  0.62499999993E+02  0.00000000000E+00 0. -1.
</event>
<event>
 4    1  0.1977762E-002  0.9118800E+02  0.7818608E-02  0.1130116E+00
         25   -1    0    0    0    0  0.00000000000E+00  0.00000000000E+00  0.99999998245E-14  0.12500000000E+03  0.12500000000E+03 0.  0.
        -11    1    1    0    0    0 -0.48191082358E+02 -0.12736707885E+02  0.27025092045E+02  0.56700615048E+02  0.51100000000E-03 0.  1.
         11    1    1    0    0    0 -0.47717426272E+01 -0.15838570192E+01  0.29000337724E+01  0.58041646169E+01  0.51100000000E-03 0. -1.
         22    1    1    0    0    0  0.52962824985E+02  0.14320564904E+02 -0.29925125817E+02  0.62495220335E+02  0.00000000000E+00 0.  1.
</event>
<event>
 4    1  0.1977762E-002  0.9118800E+02  0.7818608E-02  0.1130116E+00
         25   -1    0    0    0    0  0.00000000000E+00  0.00000000000E+00  0.99999998245E-14  0.12500000000E+03  0.12500000000E+03 0.  0.
        -11    1    1    0    0    0  0.41126018396E+02  0.40647884872E+02 -0.11498179933E+02  0.58955984223E+02  0.51100000000E-03 0.  1.
         11    1    1    0    0    0  0.31752325753E+01  0.18222643459E+01  0.47650495299E+00  0.36918567801E+01  0.51100000000E-03 0. -1.
         22    1    1    0    0    0 -0.44301250971E+02 -0.42470149218E+02  0.11021674980E+02  0.62352158997E+02  0.00000000000E+00 0.  1.
</event>
<event>
 4    1  0.1977762E-002  0.9118800E+02  0.7818608E-02  0.1130116E+00
         25   -1    0    0    0    0  0.00000000000E+00  0.00000000000E+00  0.99999998245E-14  0.12500000000E+03  0.12500000000E+03 0.  0.
        -11    1    1    0    0    0  0.88736811517E+01 -0.38946043259E+01  0.27662591904E+02  0.29310904986E+02  0.51100000000E-03 0.  1.
         11    1    1    0    0    0  0.12095658220E+02  0.27391187925E+01  0.30995651048E+02  0.33384698646E+02  0.51100000000E-03 0. -1.
         22    1    1    0    0    0 -0.20969339371E+02  0.11554855334E+01 -0.58658242952E+02  0.62304396367E+02  0.00000000000E+00 0. -1.
</event>
<event>
 4    1  0.1977762E-002  0.9118800E+02  0.7818608E-02  0.1130116E+00
         25   -1    0    0    0    0  0.00000000000E+00  0.00000000000E+00  0.99999998245E-14  0.12500000000E+03  0.12500000000E+03 0.  0.
        -11    1    1    0    0    0 -0.55112585899E+02  0.22734413836E+02 -0.13105285076E+02  0.61040963247E+02  0.51100000000E-03 0. -1.
         11    1    1    0    0    0 -0.13081301596E+01  0.56471612169E+00 -0.31455229932E+00  0.14591272127E+01  0.51100000000E-03 0.  1.
         22    1    1    0    0    0  0.56420716058E+02 -0.23299129958E+02  0.13419837376E+02  0.62499909540E+02  0.00000000000E+00 0. -1.
</event>
<event>
 4    1  0.1977762E-002  0.9118800E+02  0.7818608E-02  0.1130116E+00
         25   -1    0    0    0    0  0.00000000000E+00  0.00000000000E+00  0.99999998245E-14  0.12500000000E+03  0.12500000000E+03 0.  0.
        -11    1    1    0    0    0 -0.49005819955E+02 -0.17252855152E+01  0.19060238658E+02  0.52610262283E+02  0.51100000000E-03 0. -1.
         11    1    1    0    0    0 -0.97626331024E+01  0.17459446195E+01  0.17001006276E+01  0.10062190125E+02  0.51100000000E-03 0.  1.
         22    1    1    0    0    0  0.58768453057E+02 -0.20659104355E-01 -0.20760339286E+02  0.62327547592E+02  0.00000000000E+00 0. -1.
</event>
<event>
 4    1  0.1977762E-002  0.9118800E+02  0.7818608E-02  0.1130116E+00
         25   -1    0    0    0    0  0.00000000000E+00  0.00000000000E+00  0.99999998245E-14  0.12500000000E+03  0.12500000000E+03 0.  0.
        -11    1    1    0    0    0  0.50102609935E+00  0.10546256207E+01 -0.44508379585E+01  0.46014368567E+01  0.51100000000E-03 0.  1.
         11    1    1    0    0    0 -0.23243247779E+01  0.22044634501E+02 -0.53541346313E+02  0.57948633817E+02  0.51100000000E-03 0. -1.
         22    1    1    0    0    0  0.18232986785E+01 -0.23099260121E+02  0.57992184272E+02  0.62449929326E+02  0.00000000000E+00 0. -1.
</event>
<event>
 4    1  0.1977762E-002  0.9118800E+02  0.7818608E-02  0.1130116E+00
         25   -1    0    0    0    0  0.00000000000E+00  0.00000000000E+00  0.99999998245E-14  0.12500000000E+03  0.12500000000E+03 0.  0.
        -11    1    1    0    0    0  0.74442602749E+01  0.27715791887E+02  0.41952560188E+02  0.50829119976E+02  0.51100000000E-03 0.  1.
         11    1    1    0    0    0  0.17103201420E+01  0.63646268644E+01  0.96320180244E+01  0.11670880069E+02  0.51100000000E-03 0. -1.
         22    1    1    0    0    0 -0.91545804169E+01 -0.34080418751E+02 -0.51584578213E+02  0.62499999954E+02  0.00000000000E+00 0.  1.
</event>
<event>
 4    1  0.1977762E-002  0.9118800E+02  0.7818608E-02  0.1130116E+00
         25   -1    0    0    0    0  0.00000000000E+00  0.00000000000E+00  0.99999998245E-14  0.12500000000E+03  0.12500000000E+03 0.  0.
        -11    1    1    0    0    0  0.32184292970E+01 -0.10082265278E+02 -0.37320890720E+01  0.11222247965E+02  0.51100000000E-03 0. -1.
         11    1    1    0    0    0  0.27831029989E+02 -0.25457563169E+02 -0.35959506685E+02  0.52112761144E+02  0.51100000000E-03 0.  1.
         22    1    1    0    0    0 -0.31049459286E+02  0.35539828447E+02  0.39691595757E+02  0.61664990892E+02  0.00000000000E+00 0.  1.
</event>
<event>
 4    1  0.1977762E-002  0.9118800E+02  0.7818608E-02  0.1130116E+00
         25   -1    0    0    0    0  0.00000000000E+00  0.00000000000E+00  0.99999998245E-14  0.12500000000E+03  0.12500000000E+03 0.  0.
        -11    1    1    0    0    0  0.11219891739E+02  0.54740846589E+02  0.11212839139E+02  0.56992754081E+02  0.51100000000E-03 0.  1.
         11    1    1    0    0    0  0.10297126605E+01  0.53190933366E+01  0.99112794067E+00  0.55077578871E+01  0.51100000000E-03 0. -1.
         22    1    1    0    0    0 -0.12249604399E+02 -0.60059939925E+02 -0.12203967079E+02  0.62499488032E+02  0.00000000000E+00 0.  1.
</event>
<event>
 4    1  0.1977762E-002  0.9118800E+02  0.7818608E-02  0.1130116E+00
         25   -1    0    0    0    0  0.00000000000E+00  0.00000000000E+00  0.99999998245E-14  0.12500000000E+03  0.12500000000E+03 0.  0.
        -11    1    1    0    0    0  0.25488666735E+00 -0.24079001590E+01 -0.20518352011E+00  0.24300310547E+01  0.51100000000E-03 0.  1.
         11    1    1    0    0    0  0.62384011119E+01 -0.59516310710E+02 -0.52242520662E+01  0.60069973355E+02  0.51100000000E-03 0. -1.
         22    1    1    0    0    0 -0.64932877792E+01  0.61924210869E+02  0.54294355863E+01  0.62499995590E+02  0.00000000000E+00 0. -1.
</event>
<event>
 4    1  0.1977762E-002  0.9118800E+02  0.7818608E-02  0.1130116E+00
         25   -1    0    0    0    0  0.00000000000E+00  0.00000000000E+00  0.99999998245E-14  0.12500000000E+03  0.12500000000E+03 0.  0.
        -11    1    1    0    0    0 -0.56751509526E+01  0.10877115378E+02 -0.54744456591E+01  0.13434602071E+02  0.51100000000E-03 0. -1.
         11    1    1    0    0    0 -0.20718769133E+02  0.39751570596E+02 -0.19948905028E+02  0.49065400960E+02  0.51100000000E-03 0.  1.
         22    1    1    0    0    0  0.26393920086E+02 -0.50628685974E+02  0.25423350687E+02  0.62499996969E+02  0.00000000000E+00 0.  1.
</event>
<event>
 4    1  0.1977762E-002  0.9118800E+02  0.7818608E-02  0.1130116E+00
         25   -1    0    0    0    0  0.00000000000E+00  0.00000000000E+00  0.99999998245E-14  0.12500000000E+03  0.12500000000E+03 0.  0.
        -11    1    1    0    0    0 -0.47974103150E+02  0.17513570861E+02  0.82264451435E+01  0.51729238708E+02  0.51100000000E-03 0. -1.
         11    1    1    0    0    0 -0.63570422649E+01  0.10044281716E+02 -0.13203325206E+01  0.11960052666E+02  0.51100000000E-03 0.  1.
         22    1    1    0    0    0  0.54331145415E+02 -0.27557852577E+02 -0.69061126228E+01  0.61310708626E+02  0.00000000000E+00 0. -1.
</event>
<event>
 4    1  0.1977762E-002  0.9118800E+02  0.7818608E-02  0.1130116E+00
         25   -1    0    0    0    0  0.00000000000E+00  0.00000000000E+00  0.99999998245E-14  0.12500000000E+03  0.12500000000E+03 0.  0.
        -11    1    1    0    0    0  0.62399209267E+01 -0.10871633452E+02  0.10570636868E+02  0.16397176316E+02  0.51100000000E-03 0. -1.
         11    1    1    0    0    0  0.17486048995E+02 -0.30632236437E+02  0.29687971940E+02  0.46102836103E+02  0.51100000000E-03 0.  1.
         22    1    1    0    0    0 -0.23725969921E+02  0.41503869889E+02 -0.40258608807E+02  0.62499987581E+02  0.00000000000E+00 0.  1.
</event>
<event>
 4    1  0.1977762E-002  0.9118800E+02  0.7818608E-02  0.1130116E+00
         25   -1    0    0    0    0  0.00000000000E+00  0.00000000000E+00  0.99999998245E-14  0.12500000000E+03  0.12500000000E+03 0.  0.
        -11    1    1    0    0    0  0.68692052443E+01 -0.11853943152E+02  0.22366810695E+02  0.26229299835E+02  0.51100000000E-03 0. -1.
         11    1    1    0    0    0  0.19212826221E+02 -0.58226991926E+01  0.30920017241E+02  0.36865756248E+02  0.51100000000E-03 0.  1.
         22    1    1    0    0    0 -0.26082031466E+02  0.17676642345E+02 -0.53286827935E+02  0.61904943917E+02  0.00000000000E+00 0. -1.
</event>
<event>
 4    1  0.1977762E-002  0.9118800E+02  0.7818608E-02  0.1130116E+00
         25   -1    0    0    0    0  0.00000000000E+00  0.00000000000E+00  0.99999998245E-14  0.12500000000E+03  0.12500000000E+03 0.  0.
        -11    1    1    0    0    0  0.48722217732E+02 -0.78751831881E+00  0.21919299993E+02  0.53431548717E+02  0.51100000000E-03 0.  1.
         11    1    1    0    0    0  0.82669602412E+01 -0.11470493695E+00  0.37257467308E+01  0.90684606089E+01  0.51100000000E-03 0. -1.
         22    1    1    0    0    0 -0.56989177973E+02  0.90222325576E+00 -0.25645046724E+02  0.62499990674E+02  0.00000000000E+00 0.  1.
</event>
<event>
 4    1  0.1977762E-002  0.9118800E+02  0.7818608E-02  0.1130116E+00
         25   -1    0    0    0    0  0.00000000000E+00  0.00000000000E+00  0.99999998245E-14  0.12500000000E+03  0.12500000000E+03 0.  0.
        -11    1    1    0    0    0  0.87417002636E+00 -0.11983703430E+01  0.93153724276E+00  0.17515783196E+01  0.51100000000E-03 0.  1.
         11    1    1    0    0    0  0.27403717275E+02 -0.44121152388E+02  0.31511118880E+02  0.60750229809E+02  0.51100000000E-03 0. -1.
         22    1    1    0    0    0 -0.28277887301E+02  0.45319522731E+02 -0.32442656123E+02  0.62498191871E+02  0.00000000000E+00 0. -1.
</event>
<event>
 4    1  0.1977762E-002  0.9118800E+02  0.7818608E-02  0.1130116E+00
         25   -1    0    0    0    0  0.00000000000E+00  0.00000000000E+00  0.99999998245E-14  0.12500000000E+03  0.12500000000E+03 0.  0.
        -11    1    1    0    0    0 -0.14588573297E+02 -0.10384145692E+02  0.11594301313E+02  0.21332716090E+02  0.51100000000E-03 0.  1.
         11    1    1    0    0    0 -0.28175772792E+02 -0.20019279823E+02  0.22362909203E+02  0.41167286106E+02  0.51100000000E-03 0. -1.
         22    1    1    0    0    0  0.42764346089E+02  0.30403425515E+02 -0.33957210516E+02  0.62499997804E+02  0.00000000000E+00 0. -1.
</event>
<event>
 4    1  0.1977762E-002  0.9118800E+02  0.7818608E-02  0.1130116E+00
         25   -1    0    0    0    0  0.00000000000E+00  0.00000000000E+00  0.99999998245E-14  0.12500000000E+03  0.12500000000E+03 0.  0.
        -11    1    1    0    0    0  0.15695468780E+01 -0.91087312914E+00  0.51199715454E+00  0.18855525999E+01  0.51100000000E-03 0. -1.
         11    1    1    0    0    0  0.50238095443E+02 -0.29815622292E+02  0.16164157873E+02  0.60614499638E+02  0.51100000000E-03 0.  1.
         22    1    1    0    0    0 -0.51807642321E+02  0.30726495421E+02 -0.16676155028E+02  0.62499947762E+02  0.00000000000E+00 0.  1.
</event>
<event>
 4    1  0.1977762E-002  0.9118800E+02  0.7818608E-02  0.1130116E+00
         25   -1    0    0    0    0  0.00000000000E+00  0.00000000000E+00  0.99999998245E-14  0.12500000000E+03  0.12500000000E+03 0.  0.
        -11    1    1    0    0    0  0.49459683721E+02  0.41310208441E+01 -0.28401138650E+02  0.57183479466E+02  0.51100000000E-03 0. -1.
         11    1    1    0    0    0  0.46009256135E+01  0.38589306192E+00 -0.26359011272E+01  0.53165218865E+01  0.51100000000E-03 0.  1.
         22    1    1    0    0    0 -0.54060609334E+02 -0.45169139060E+01  0.31037039777E+02  0.62499998648E+02  0.00000000000E+00 0.  1.
</event>
<event>
 4    1  0.1977762E-002  0.9118800E+02  0.7818608E-02  0.1130116E+00
         25   -1    0    0    0    0  0.00000000000E+00  0.00000000000E+00  0.99999998245E-14  0.12500000000E+03  0.12500000000E+03 0.  0.
        -11    1    1    0    0    0  0.17787521307E+02  0.11125333687E+02 -0.33632022206E+01  0.21248060931E+02  0.51100000000E-03 0. -1.
         11    1    1    0    0    0  0.34541261319E+02  0.21588951061E+02 -0.65223440917E+01  0.41251939520E+02  0.51100000000E-03 0.  1.
         22    1    1    0    0    0 -0.52328782626E+02 -0.32714284748E+02  0.98855463124E+01  0.62499999549E+02  0.00000000000E+00 0.  1.
</event>
<event>
 4    1  0.1977762E-002  0.9118800E+02  0.7818608E-02  0.1130116E+00
         25   -1    0    0    0    0  0.00000000000E+00  0.00000000000E+00  0.99999998245E-14  0.12500000000E+03  0.12500000000E+03 0.  0.
        -11    1    1    0    0    0  0.35485069484E+01 -0.39368523944E+02  0.14124674922E+01  0.39553351866E+02  0.51100000000E-03 0. -1.
         11    1    1    0    0    0  0.20577999464E+01 -0.22839480160E+02  0.81991844107E+00  0.22946648145E+02  0.51100000000E-03 0.  1.
         22    1    1    0    0    0 -0.56063068948E+01  0.62208004104E+02 -0.22323859333E+01  0.62499999989E+02  0.00000000000E+00 0. -1.
</event>
<event>
 4    1  0.1977762E-002  0.9118800E+02  0.7818608E-02  0.1130116E+00
         25   -1    0    0    0    0  0.00000000000E+00  0.00000000000E+00  0.99999998245E-14  0.12500000000E+03  0.12500000000E+03 0.  0.
        -11    1    1    0    0    0 -0.41943429369E+02 -0.65959754821E+01 -0.98047650207E+01  0.43576273099E+02  0.51100000000E-03 0.  1.
         11    1    1    0    0    0 -0.18214275535E+02 -0.28653805425E+01 -0.42587793426E+01  0.18923726923E+02  0.51100000000E-03 0.  1.
         22    1    1    0    0    0  0.60157704904E+02  0.94613560246E+01  0.14063544363E+02  0.62499999978E+02  0.00000000000E+00 0.  1.
</event>
<event>
 4    1  0.1977762E-002  0.9118800E+02  0.7818608E-02  0.1130116E+00
         25   -1    0    0    0    0  0.00000000000E+00  0.00000000000E+00  0.99999998245E-14  0.12500000000E+03  0.12500000000E+03 0.  0.
        -11    1    1    0    0    0  0.51552015496E+01  0.79076743611E+01 -0.41527468025E+01  0.10312745662E+02  0.51100000000E-03 0. -1.
         11    1    1    0    0    0  0.26095296601E+02  0.40014261308E+02 -0.21009614717E+02  0.52187254417E+02  0.51100000000E-03 0. -1.
         22    1    1    0    0    0 -0.31250498151E+02 -0.47921935669E+02  0.25162361519E+02  0.62499999922E+02  0.00000000000E+00 0. -1.
</event>
<event>
 4    1  0.1977762E-002  0.9118800E+02  0.7818608E-02  0.1130116E+00
         25   -1    0    0    0    0  0.00000000000E+00  0.00000000000E+00  0.99999998245E-14  0.12500000000E+03  0.12500000000E+03 0.  0.
        -11    1    1    0    0    0  0.40482105995E+01  0.13349536193E+02  0.34794072502E+01  0.14377218114E+02  0.51100000000E-03 0. -1.
         11    1    1    0    0    0  0.13122727334E+02  0.44952306324E+02  0.11088347208E+02  0.48123458527E+02  0.51100000000E-03 0.  1.
         22    1    1    0    0    0 -0.17170937933E+02 -0.58301842517E+02 -0.14567754458E+02  0.62499323359E+02  0.00000000000E+00 0.  1.
</event>
<event>
 4    1  0.1977762E-002  0.9118800E+02  0.7818608E-02  0.1130116E+00
         25   -1    0    0    0    0  0.00000000000E+00  0.00000000000E+00  0.99999998245E-14  0.12500000000E+03  0.12500000000E+03 0.  0.
        -11    1    1    0    0    0 -0.54187274328E+01  0.19454358742E+02 -0.11181678357E+02  0.23083860427E+02  0.51100000000E-03 0. -1.
         11    1    1    0    0    0 -0.86407969438E+01  0.32968304770E+02 -0.19804895267E+02  0.39418350650E+02  0.51100000000E-03 0.  1.
         22    1    1    0    0    0  0.14059524377E+02 -0.52422663512E+02  0.30986573623E+02  0.62497788923E+02  0.00000000000E+00 0.  1.
</event>
<event>
 4    1  0.1977762E-002  0.9118800E+02  0.7818608E-02  0.1130116E+00
         25   -1    0    0    0    0  0.00000000000E+00  0.00000000000E+00  0.99999998245E-14  0.12500000000E+03  0.12500000000E+03 0.  0.
        -11    1    1    0    0    0 -0.14567866959E+01  0.17256677595E+02  0.40619955093E+02  0.44157625629E+02  0.51100000000E-03 0.  1.
         11    1    1    0    0    0 -0.42251380736E+00  0.75221682343E+01  0.16725575817E+02  0.18344111304E+02  0.51100000000E-03 0. -1.
         22    1    1    0    0    0  0.18793005033E+01 -0.24778845830E+02 -0.57345530910E+02  0.62498263067E+02  0.00000000000E+00 0.  1.
</event>
<event>
 4    1  0.1977762E-002  0.9118800E+02  0.7818608E-02  0.1130116E+00
         25   -1    0    0    0    0  0.00000000000E+00  0.00000000000E+00  0.99999998245E-14  0.12500000000E+03  0.12500000000E+03 0.  0.
        -11    1    1    0    0    0 -0.40526043743E+01  0.47088581156E+01  0.72617149624E+01  0.95566443600E+01  0.51100000000E-03 0.  1.
         11    1    1    0    0    0 -0.20598003706E+02  0.26988100441E+02  0.40628813133E+02  0.52946536987E+02  0.51100000000E-03 0. -1.
         22    1    1    0    0    0  0.24650608080E+02 -0.31696958557E+02 -0.47890528095E+02  0.62496818653E+02  0.00000000000E+00 0. -1.
</event>
<event>
 4    1  0.1977762E-002  0.9118800E+02  0.7818608E-02  0.1130116E+00
         25   -1    0    0    0    0  0.00000000000E+00  0.00000000000E+00  0.99999998245E-14  0.12500000000E+03  0.12500000000E+03 0.  0.
        -11    1    1    0    0    0 -0.70962722736E+01  0.94425983942E+00  0.68548346498E+01  0.99114814817E+01  0.51100000000E-03 0. -1.
         11    1    1    0    0    0 -0.37658976235E+02  0.50146318291E+01  0.36362168096E+02  0.52588518636E+02  0.51100000000E-03 0.  1.
         22    1    1    0    0    0  0.44755248508E+02 -0.59588916686E+01 -0.43217002746E+02  0.62499999882E+02  0.00000000000E+00 0.  1.
</event>
<event>
 4    1  0.1977762E-002  0.9118800E+02  0.7818608E-02  0.1130116E+00
         25   -1    0    0    0    0  0.00000000000E+00  0.00000000000E+00  0.99999998245E-14  0.12500000000E+03  0.12500000000E+03 0.  0.
        -11    1    1    0    0    0  0.28959282942E+02  0.74963669378E+00  0.49034341000E+01  0.29381043036E+02  0.51100000000E-03 0.  1.
         11    1    1    0    0    0  0.31965256644E+02  0.20706268474E+01  0.85696085976E+01  0.33158759320E+02  0.51100000000E-03 0. -1.
         22    1    1    0    0    0 -0.60924539586E+02 -0.28202635412E+01 -0.13473042698E+02  0.62460197644E+02  0.00000000000E+00 0. -1.
</event>
<event>
 4    1  0.1977762E-002  0.9118800E+02  0.7818608E-02  0.1130116E+00
         25   -1    0    0    0    0  0.00000000000E+00  0.00000000000E+00  0.99999998245E-14  0.12500000000E+03  0.12500000000E+03 0.  0.
        -11    1    1    0    0    0 -0.19063302040E+00 -0.23408356233E+02  0.15436821825E+02  0.28040737344E+02  0.51100000000E-03 0. -1.
         11    1    1    0    0    0 -0.24774593927E+00 -0.28768985416E+02  0.18966415803E+02  0.34459263320E+02  0.51100000000E-03 0.  1.
         22    1    1    0    0    0  0.43837895967E+00  0.52177341649E+02 -0.34403237628E+02  0.62499999336E+02  0.00000000000E+00 0. -1.
</event>
<event>
 4    1  0.1977762E-002  0.9118800E+02  0.7818608E-02  0.1130116E+00
         25   -1    0    0    0    0  0.00000000000E+00  0.00000000000E+00  0.99999998245E-14  0.12500000000E+03  0.12500000000E+03 0.  0.
        -11    1    1    0    0    0  0.22483792532E+02  0.29756892627E+02  0.36714483937E+02  0.52334949283E+02  0.51100000000E-03 0.  1.
         11    1    1    0    0    0  0.43619635642E+01  0.57825163617E+01  0.71319035859E+01  0.10165051433E+02  0.51100000000E-03 0. -1.
         22    1    1    0    0    0 -0.26845756097E+02 -0.35539408988E+02 -0.43846387523E+02  0.62499999284E+02  0.00000000000E+00 0.  1.
</event>
<event>
 4    1  0.1977762E-002  0.9118800E+02  0.7818608E-02  0.1130116E+00
         25   -1    0    0    0    0  0.00000000000E+00  0.00000000000E+00  0.99999998245E-14  0.12500000000E+03  0.12500000000E+03 0.  0.
        -11    1    1    0    0    0 -0.86816582692E+01  0.18158869275E+01  0.38223000106E+01  0.96580853832E+01  0.51100000000E-03 0.  1.
         11    1    1    0    0    0 -0.46945404691E+02  0.92731318000E+01  0.22419611441E+02  0.52844119563E+02  0.51100000000E-03 0. -1.
         22    1    1    0    0    0  0.55627062960E+02 -0.11089018728E+02 -0.26241911452E+02  0.62497795054E+02  0.00000000000E+00 0. -1.
</event>
<event>
 4    1  0.1977762E-002  0.9118800E+02  0.7818608E-02  0.1130116E+00
         25   -1    0    0    0    0  0.00000000000E+00  0.00000000000E+00  0.99999998245E-14  0.12500000000E+03  0.12500000000E+03 0.  0.
        -11    1    1    0    0    0 -0.33375268563E+00  0.46366172569E+01 -0.35567066172E+01  0.58531848309E+01  0.51100000000E-03 0.  1.
         11    1    1    0    0    0 -0.33335011138E+01  0.44862570657E+02 -0.34425277068E+02  0.56646819655E+02  0.51100000000E-03 0. -1.
         22    1    1    0    0    0  0.36672537994E+01 -0.49499187914E+02  0.37981983685E+02  0.62499995514E+02  0.00000000000E+00 0. -1.
</event>
<event>
 4    1  0.1977762E-002  0.9118800E+02  0.7818608E-02  0.1130116E+00
         25   -1    0    0    0    0  0.00000000000E+00  0.00000000000E+00  0.99999998245E-14  0.12500000000E+03  0.12500000000E+03 0.  0.
        -11    1    1    0    0    0  0.27916249128E+01  0.13278939757E+01 -0.21822270881E+01  0.37839909341E+01  0.51100000000E-03 0. -1.
         11    1    1    0    0    0  0.54074621923E+02  0.12014593883E+02 -0.19771466099E+02  0.58816035860E+02  0.51100000000E-03 0.  1.
         22    1    1    0    0    0 -0.56866246836E+02 -0.13342487859E+02  0.21953693187E+02  0.62399973206E+02  0.00000000000E+00 0.  1.
</event>
<event>
 4    1  0.1977762E-002  0.9118800E+02  0.7818608E-02  0.1130116E+00
         25   -1    0    0    0    0  0.00000000000E+00  0.00000000000E+00  0.99999998245E-14  0.12500000000E+03  0.12500000000E+03 0.  0.
        -11    1    1    0    0    0 -0.52928318063E+01  0.11832109879E+02 -0.26191613384E+02  0.29223509451E+02  0.51100000000E-03 0.  1.
         11    1    1    0    0    0 -0.57445285712E+01  0.14018390210E+02 -0.29629494803E+02  0.33277948181E+02  0.51100000000E-03 0. -1.
         22    1    1    0    0    0  0.11037360378E+02 -0.25850500089E+02  0.55821108187E+02  0.62498542368E+02  0.00000000000E+00 0. -1.
</event>
<event>
 4    1  0.1977762E-002  0.9118800E+02  0.7818608E-02  0.1130116E+00
         25   -1    0    0    0    0  0.00000000000E+00  0.00000000000E+00  0.99999998245E-14  0.12500000000E+03  0.12500000000E+03 0.  0.
        -11    1    1    0    0    0 -0.73974805906E+01  0.15930628557E+02  0.56078141038E+02  0.58764492237E+02  0.51100000000E-03 0.  1.
         11    1    1    0    0    0 -0.47143473436E+00  0.10053950480E+01  0.35666476513E+01  0.37355114297E+01  0.51100000000E-03 0. -1.
         22    1    1    0    0    0  0.78689153250E+01 -0.16936023604E+02 -0.59644788689E+02  0.62499996334E+02  0.00000000000E+00 0.  1.
</event>
<event>
 4    1  0.1977762E-002  0.9118800E+02  0.7818608E-02  0.1130116E+00
         25   -1    0    0    0    0  0.00000000000E+00  0.00000000000E+00  0.99999998245E-14  0.12500000000E+03  0.12500000000E+03 0.  0.
        -11    1    1    0    0    0 -0.12099698476E+01 -0.91424192078E+01 -0.72327970224E+01  0.11720119839E+02  0.51100000000E-03 0. -1.
         11    1    1    0    0    0  0.17554288608E+01 -0.50333595459E+02 -0.10016592720E+02  0.51350603622E+02  0.51100000000E-03 0.  1.
         22    1    1    0    0    0 -0.54545901325E+00  0.59476014667E+02  0.17249389742E+02  0.61929276540E+02  0.00000000000E+00 0.  1.
</event>
<event>
 4    1  0.1977762E-002  0.9118800E+02  0.7818608E-02  0.1130116E+00
         25   -1    0    0    0    0  0.00000000000E+00  0.00000000000E+00  0.99999998245E-14  0.12500000000E+03  0.12500000000E+03 0.  0.
        -11    1    1    0    0    0  0.12453310778E+02  0.16753251505E+02  0.32391161445E+02  0.38534967566E+02  0.51100000000E-03 0.  1.
         11    1    1    0    0    0  0.64411088142E+01  0.10484590098E+02  0.20578918491E+02  0.23977205817E+02  0.51100000000E-03 0. -1.
         22    1    1    0    0    0 -0.18894419592E+02 -0.27237841603E+02 -0.52970079935E+02  0.62487826617E+02  0.00000000000E+00 0. -1.
</event>
<event>
 4    1  0.1977762E-002  0.9118800E+02  0.7818608E-02  0.1130116E+00
         25   -1    0    0    0    0  0.00000000000E+00  0.00000000000E+00  0.99999998245E-14  0.12500000000E+03  0.12500000000E+03 0.  0.
        -11    1    1    0    0    0 -0.10801182084E+01 -0.31729164937E+01  0.24663226242E+01  0.41613461726E+01  0.51100000000E-03 0. -1.
         11    1    1    0    0    0 -0.11927445158E+02 -0.45240328442E+02  0.34854169054E+02  0.58341789193E+02  0.51100000000E-03 0.  1.
         22    1    1    0    0    0  0.13007563366E+02  0.48413244936E+02 -0.37320491678E+02  0.62496864634E+02  0.00000000000E+00 0.  1.
</event>
<event>
 4    1  0.1977762E-002  0.9118800E+02  0.7818608E-02  0.1130116E+00
         25   -1    0    0    0    0  0.00000000000E+00  0.00000000000E+00  0.99999998245E-14  0.12500000000E+03  0.12500000000E+03 0.  0.
        -11    1    1    0    0    0  0.22984990086E+01 -0.52309381794E+01 -0.65679274117E+00  0.57512771534E+01  0.51100000000E-03 0.  1.
         11    1    1    0    0    0  0.28908206557E+02 -0.47642035308E+02 -0.10879886253E+02  0.56778691952E+02  0.51100000000E-03 0. -1.
         22    1    1    0    0    0 -0.31206705566E+02  0.52872973488E+02  0.11536678994E+02  0.62470030894E+02  0.00000000000E+00 0. -1.
</event>
<event>
 4    1  0.1977762E-002  0.9118800E+02  0.7818608E-02  0.1130116E+00
         25   -1    0    0    0    0  0.00000000000E+00  0.00000000000E+00  0.99999998245E-14  0.12500000000E+03  0.12500000000E+03 0.  0.
        -11    1    1    0    0    0 -0.19373030881E+02  0.51405112555E+01  0.27114169062E+02  0.33718204960E+02  0.51100000000E-03 0. -1.
         11    1    1    0    0    0 -0.16559759000E+02  0.43833378967E+01  0.23129043859E+02  0.28781798752E+02  0.51100000000E-03 0.  1.
         22    1    1    0    0    0  0.35932789882E+02 -0.95238491522E+01 -0.50243212922E+02  0.62499996289E+02  0.00000000000E+00 0.  1.
</event>
<event>
 4    1  0.1977762E-002  0.9118800E+02  0.7818608E-02  0.1130116E+00
         25   -1    0    0    0    0  0.00000000000E+00  0.00000000000E+00  0.99999998245E-14  0.12500000000E+03  0.12500000000E+03 0.  0.
        -11    1    1    0    0    0 -0.42732449110E+02  0.14371582360E+02  0.38420379480E+02  0.59234535080E+02  0.51100000000E-03 0. -1.
         11    1    1    0    0    0 -0.23557999464E+01  0.78990478585E+00  0.21188489901E+01  0.32654653975E+01  0.51100000000E-03 0.  1.
         22    1    1    0    0    0  0.45088249056E+02 -0.15161487146E+02 -0.40539228470E+02  0.62499999523E+02  0.00000000000E+00 0. -1.
</event>
<event>
 4    1  0.1977762E-002  0.9118800E+02  0.7818608E-02  0.1130116E+00
         25   -1    0    0    0    0  0.00000000000E+00  0.00000000000E+00  0.99999998245E-14  0.12500000000E+03  0.12500000000E+03 0.  0.
        -11    1    1    0    0    0 -0.10915603391E+02 -0.36843372419E+01  0.98120333802E+00  0.11562331017E+02  0.51100000000E-03 0. -1.
         11    1    1    0    0    0 -0.22923684387E+02 -0.23328726942E+02 -0.42379425833E+02  0.53532611937E+02  0.51100000000E-03 0.  1.
         22    1    1    0    0    0  0.33839287778E+02  0.27013064184E+02  0.41398222495E+02  0.59905057046E+02  0.00000000000E+00 0.  1.
</event>
<event>
 4    1  0.1977762E-002  0.9118800E+02  0.7818608E-02  0.1130116E+00
         25   -1    0    0    0    0  0.00000000000E+00  0.00000000000E+00  0.99999998245E-14  0.12500000000E+03  0.12500000000E+03 0.  0.
        -11    1    1    0    0    0  0.28818964738E+02  0.14569954501E+02 -0.17262043199E+02  0.36616860030E+02  0.51100000000E-03 0.  1.
         11    1    1    0    0    0  0.20371136783E+02  0.10297574241E+02 -0.12203019566E+02  0.25883139993E+02  0.51100000000E-03 0. -1.
         22    1    1    0    0    0 -0.49190101521E+02 -0.24867528743E+02  0.29465062765E+02  0.62499999978E+02  0.00000000000E+00 0.  1.
</event>
<event>
 4    1  0.1977762E-002  0.9118800E+02  0.7818608E-02  0.1130116E+00
         25   -1    0    0    0    0  0.00000000000E+00  0.00000000000E+00  0.99999998245E-14  0.12500000000E+03  0.12500000000E+03 0.  0.
        -11    1    1    0    0    0 -0.10034092185E+02 -0.51233199156E+02 -0.94867492974E+01  0.53061493706E+02  0.51100000000E-03 0. -1.
         11    1    1    0    0    0 -0.15925801682E+01 -0.90931625177E+01 -0.19787265036E+01  0.94412538894E+01  0.51100000000E-03 0.  1.
         22    1    1    0    0    0  0.11626672353E+02  0.60326361674E+02  0.11465475801E+02  0.62497252405E+02  0.00000000000E+00 0. -1.
</event>
<event>
 4    1  0.1977762E-002  0.9118800E+02  0.7818608E-02  0.1130116E+00
         25   -1    0    0    0    0  0.00000000000E+00  0.00000000000E+00  0.99999998245E-14  0.12500000000E+03  0.12500000000E+03 0.  0.
        -11    1    1    0    0    0 -0.39162050343E+02 -0.21519702436E+02  0.36733759224E+02  0.57845767754E+02  0.51100000000E-03 0. -1.
         11    1    1    0    0    0  0.35418597371E+01 -0.65052973345E+01  0.18470655994E+01  0.76338270479E+01  0.51100000000E-03 0.  1.
         22    1    1    0    0    0  0.35620190606E+02  0.28024999771E+02 -0.38580824823E+02  0.59520405199E+02  0.00000000000E+00 0. -1.
</event>
<event>
 4    1  0.1977762E-002  0.9118800E+02  0.7818608E-02  0.1130116E+00
         25   -1    0    0    0    0  0.00000000000E+00  0.00000000000E+00  0.99999998245E-14  0.12500000000E+03  0.12500000000E+03 0.  0.
        -11    1    1    0    0    0  0.18837217250E+02 -0.11238115376E+02  0.25715206687E+02  0.33799524348E+02  0.51100000000E-03 0. -1.
         11    1    1    0    0    0  0.15031169027E+02 -0.10062733610E+02  0.22291328410E+02  0.28707106656E+02  0.51100000000E-03 0.  1.
         22    1    1    0    0    0 -0.33868386277E+02  0.21300848986E+02 -0.48006535096E+02  0.62493368996E+02  0.00000000000E+00 0.  1.
</event>
<event>
 4    1  0.1977762E-002  0.9118800E+02  0.7818608E-02  0.1130116E+00
         25   -1    0    0    0    0  0.00000000000E+00  0.00000000000E+00  0.99999998245E-14  0.12500000000E+03  0.12500000000E+03 0.  0.
        -11    1    1    0    0    0 -0.18856306220E+01 -0.86417116463E+01 -0.12313638420E+02  0.15161150168E+02  0.51100000000E-03 0.  1.
         11    1    1    0    0    0 -0.43595815352E+01 -0.27819369168E+02 -0.38058244729E+02  0.47342932357E+02  0.51100000000E-03 0. -1.
         22    1    1    0    0    0  0.62452121572E+01  0.36461080814E+02  0.50371883149E+02  0.62495917475E+02  0.00000000000E+00 0. -1.
</event>
<event>
 4    1  0.1977762E-002  0.9118800E+02  0.7818608E-02  0.1130116E+00
         25   -1    0    0    0    0  0.00000000000E+00  0.00000000000E+00  0.99999998245E-14  0.12500000000E+03  0.12500000000E+03 0.  0.
        -11    1    1    0    0    0 -0.57175656697E+01  0.13110145356E+02  0.23352783786E+01  0.14492066582E+02  0.51100000000E-03 0.  1.
         11    1    1    0    0    0 -0.19173133814E+02  0.43318299090E+02  0.77900981687E+01  0.48008017310E+02  0.51100000000E-03 0. -1.
         22    1    1    0    0    0  0.24890699484E+02 -0.56428444446E+02 -0.10125376547E+02  0.62499916109E+02  0.00000000000E+00 0. -1.
</event>
<event>
 4    1  0.1977762E-002  0.9118800E+02  0.7818608E-02  0.1130116E+00
         25   -1    0    0    0    0  0.00000000000E+00  0.00000000000E+00  0.99999998245E-14  0.12500000000E+03  0.12500000000E+03 0.  0.
        -11    1    1    0    0    0 -0.12866856220E+02  0.47365005737E+02 -0.24790049104E+02  0.54986782887E+02  0.51100000000E-03 0. -1.
         11    1    1    0    0    0 -0.17560167784E+01  0.64699946910E+01 -0.33917572682E+01  0.75132179427E+01  0.51100000000E-03 0.  1.
         22    1    1    0    0    0  0.14622872998E+02 -0.53835000428E+02  0.28181806372E+02  0.62499999170E+02  0.00000000000E+00 0. -1.
</event>
<event>
 4    1  0.1977762E-002  0.9118800E+02  0.7818608E-02  0.1130116E+00
         25   -1    0    0    0    0  0.00000000000E+00  0.00000000000E+00  0.99999998245E-14  0.12500000000E+03  0.12500000000E+03 0.  0.
        -11    1    1    0    0    0  0.46758005470E+00  0.53858603746E+01  0.31223832319E+01  0.62430281427E+01  0.51100000000E-03 0. -1.
         11    1    1    0    0    0  0.42050088250E+01  0.48529004929E+02  0.28144279569E+02  0.56256971935E+02  0.51100000000E-03 0.  1.
         22    1    1    0    0    0 -0.46725888797E+01 -0.53914865303E+02 -0.31266662801E+02  0.62499999922E+02  0.00000000000E+00 0.  1.
</event>
<event>
 4    1  0.1977762E-002  0.9118800E+02  0.7818608E-02  0.1130116E+00
         25   -1    0    0    0    0  0.00000000000E+00  0.00000000000E+00  0.99999998245E-14  0.12500000000E+03  0.12500000000E+03 0.  0.
        -11    1    1    0    0    0 -0.11095986034E+02  0.75365650831E+01 -0.31094148458E+01  0.13769138690E+02  0.51100000000E-03 0.  1.
         11    1    1    0    0    0 -0.39237545660E+02  0.26726902853E+02 -0.10990222022E+02  0.48730866049E+02  0.51100000000E-03 0. -1.
         22    1    1    0    0    0  0.50333531694E+02 -0.34263467936E+02  0.14099636868E+02  0.62499995261E+02  0.00000000000E+00 0. -1.
</event>
<event>
 4    1  0.1977762E-002  0.9118800E+02  0.7818608E-02  0.1130116E+00
         25   -1    0    0    0    0  0.00000000000E+00  0.00000000000E+00  0.99999998245E-14  0.12500000000E+03  0.12500000000E+03 0.  0.
        -11    1    1    0    0    0  0.42886570579E+02  0.13545338010E+02  0.16432268351E+02  0.47882706285E+02  0.51100000000E-03 0. -1.
         11    1    1    0    0    0  0.13096408789E+02  0.41366457942E+01  0.50037568355E+01  0.14617296067E+02  0.51100000000E-03 0.  1.
         22    1    1    0    0    0 -0.55982979368E+02 -0.17681983804E+02 -0.21436025186E+02  0.62499997647E+02  0.00000000000E+00 0. -1.
</event>
<event>
 4    1  0.1977762E-002  0.9118800E+02  0.7818608E-02  0.1130116E+00
         25   -1    0    0    0    0  0.00000000000E+00  0.00000000000E+00  0.99999998245E-14  0.12500000000E+03  0.12500000000E+03 0.  0.
        -11    1    1    0    0    0 -0.26723220585E+02 -0.27393734946E+02 -0.90080620272E+01  0.39315294918E+02  0.51100000000E-03 0.  1.
         11    1    1    0    0    0 -0.15960054908E+02 -0.15983577358E+02 -0.52303394405E+01  0.23185222637E+02  0.51100000000E-03 0. -1.
         22    1    1    0    0    0  0.42683275493E+02  0.43377312304E+02  0.14238401468E+02  0.62499482445E+02  0.00000000000E+00 0.  1.
</event>
<event>
 4    1  0.1977762E-002  0.9118800E+02  0.7818608E-02  0.1130116E+00
         25   -1    0    0    0    0  0.00000000000E+00  0.00000000000E+00  0.99999998245E-14  0.12500000000E+03  0.12500000000E+03 0.  0.
        -11    1    1    0    0    0  0.24811960157E+01  0.37843963096E+01  0.24914265119E+01  0.51657715224E+01  0.51100000000E-03 0. -1.
         11    1    1    0    0    0  0.81000120732E+01 -0.39946653826E+02 -0.46542552557E+02  0.61867233220E+02  0.51100000000E-03 0.  1.
         22    1    1    0    0    0 -0.10581208089E+02  0.36162257516E+02  0.44051126046E+02  0.57966995258E+02  0.00000000000E+00 0.  1.
</event>
<event>
 4    1  0.1977762E-002  0.9118800E+02  0.7818608E-02  0.1130116E+00
         25   -1    0    0    0    0  0.00000000000E+00  0.00000000000E+00  0.99999998245E-14  0.12500000000E+03  0.12500000000E+03 0.  0.
        -11    1    1    0    0    0  0.18559575961E+02  0.31046115819E+02  0.48358600893E+02  0.60389348795E+02  0.51100000000E-03 0.  1.
         11    1    1    0    0    0  0.64792972211E+00  0.10857656174E+01  0.16900144920E+01  0.21106513556E+01  0.51100000000E-03 0. -1.
         22    1    1    0    0    0 -0.19207505683E+02 -0.32131881436E+02 -0.50048615385E+02  0.62499999849E+02  0.00000000000E+00 0.  1.
</event>
<event>
 4    1  0.1977762E-002  0.9118800E+02  0.7818608E-02  0.1130116E+00
         25   -1    0    0    0    0  0.00000000000E+00  0.00000000000E+00  0.99999998245E-14  0.12500000000E+03  0.12500000000E+03 0.  0.
        -11    1    1    0    0    0  0.13294405617E+02  0.10493725034E+01  0.31907316003E+02  0.34582064978E+02  0.51100000000E-03 0.  1.
         11    1    1    0    0    0  0.10909218196E+02  0.11686280240E+01  0.25672429738E+02  0.27918638613E+02  0.51100000000E-03 0. -1.
         22    1    1    0    0    0 -0.24203623813E+02 -0.22180005274E+01 -0.57579745741E+02  0.62499296409E+02  0.00000000000E+00 0.  1.
</event>
<event>
 4    1  0.1977762E-002  0.9118800E+02  0.7818608E-02  0.1130116E+00
         25   -1    0    0    0    0  0.00000000000E+00  0.00000000000E+00  0.99999998245E-14  0.12500000000E+03  0.12500000000E+03 0.  0.
        -11    1    1    0    0    0  0.12178556076E+01 -0.22536654938E+00  0.34059011471E+00  0.12845093421E+01  0.51100000000E-03 0. -1.
         11    1    1    0    0    0  0.32373477621E+02  0.26512542975E+02  0.45010865669E+02  0.61456773564E+02  0.51100000000E-03 0.  1.
         22    1    1    0    0    0 -0.33591333228E+02 -0.26287176426E+02 -0.45351455784E+02  0.62258717094E+02  0.00000000000E+00 0.  1.
</event>
<event>
 4    1  0.1977762E-002  0.9118800E+02  0.7818608E-02  0.1130116E+00
         25   -1    0    0    0    0  0.00000000000E+00  0.00000000000E+00  0.99999998245E-14  0.12500000000E+03  0.12500000000E+03 0.  0.
        -11    1    1    0    0    0 -0.25130003936E+01 -0.17134827920E+02 -0.14801760098E+02  0.22781782219E+02  0.51100000000E-03 0. -1.
         11    1    1    0    0    0 -0.43807642595E+01 -0.29873090758E+02 -0.25805894228E+02  0.39718217786E+02  0.51100000000E-03 0. -1.
         22    1    1    0    0    0  0.68937646532E+01  0.47007918678E+02  0.40607654325E+02  0.62499999995E+02  0.00000000000E+00 0. -1.
</event>
<event>
 4    1  0.1977762E-002  0.9118800E+02  0.7818608E-02  0.1130116E+00
         25   -1    0    0    0    0  0.00000000000E+00  0.00000000000E+00  0.99999998245E-14  0.12500000000E+03  0.12500000000E+03 0.  0.
        -11    1    1    0    0    0  0.33082607264E+02 -0.10396785915E+02 -0.28748050604E+01  0.34796789581E+02  0.51100000000E-03 0.  1.
         11    1    1    0    0    0  0.11742098958E+02 -0.27860029232E+02 -0.53440005321E+01  0.30702059518E+02  0.51100000000E-03 0. -1.
         22    1    1    0    0    0 -0.44824706222E+02  0.38256815147E+02  0.82188055925E+01  0.59501150900E+02  0.00000000000E+00 0.  1.
</event>
<event>
 4    1  0.1977762E-002  0.9118800E+02  0.7818608E-02  0.1130116E+00
         25   -1    0    0    0    0  0.00000000000E+00  0.00000000000E+00  0.99999998245E-14  0.12500000000E+03  0.12500000000E+03 0.  0.
        -11    1    1    0    0    0 -0.12595498385E+02 -0.21866005934E+02  0.29510368658E+02  0.38828219811E+02  0.51100000000E-03 0.  1.
         11    1    1    0    0    0 -0.75036505343E+01 -0.13950418154E+02  0.17595784487E+02  0.23675526815E+02  0.51100000000E-03 0. -1.
         22    1    1    0    0    0  0.20099148919E+02  0.35816424088E+02 -0.47106153145E+02  0.62496253374E+02  0.00000000000E+00 0.  1.
</event>
<event>
 4    1  0.1977762E-002  0.9118800E+02  0.7818608E-02  0.1130116E+00
         25   -1    0    0    0    0  0.00000000000E+00  0.00000000000E+00  0.99999998245E-14  0.12500000000E+03  0.12500000000E+03 0.  0.
        -11    1    1    0    0    0 -0.11349079727E+02  0.32264728361E+02  0.45796955666E+02  0.57159211466E+02  0.51100000000E-03 0. -1.
         11    1    1    0    0    0 -0.11747703636E+01  0.27999901205E+01  0.43974379842E+01  0.53439209545E+01  0.51100000000E-03 0.  1.
         22    1    1    0    0    0  0.12523850090E+02 -0.35064718482E+02 -0.50194393650E+02  0.62496867579E+02  0.00000000000E+00 0. -1.
</event>
<event>
 4    1  0.1977762E-002  0.9118800E+02  0.7818608E-02  0.1130116E+00
         25   -1    0    0    0    0  0.00000000000E+00  0.00000000000E+00  0.99999998245E-14  0.12500000000E+03  0.12500000000E+03 0.  0.
        -11    1    1    0    0    0  0.31897879353E+02  0.14958394403E+01  0.25675711507E+02  0.40975046120E+02  0.51100000000E-03 0. -1.
         11    1    1    0    0    0  0.17526994534E+02  0.16797179473E+01  0.12415335113E+02  0.21544315631E+02  0.51100000000E-03 0.  1.
         22    1    1    0    0    0 -0.49424873887E+02 -0.31755573876E+01 -0.38091046620E+02  0.62480638250E+02  0.00000000000E+00 0. -1.
</event>
<event>
 4    1  0.1977762E-002  0.9118800E+02  0.7818608E-02  0.1130116E+00
         25   -1    0    0    0    0  0.00000000000E+00  0.00000000000E+00  0.99999998245E-14  0.12500000000E+03  0.12500000000E+03 0.  0.
        -11    1    1    0    0    0  0.36593408659E+02 -0.39724440264E+02  0.15945098704E+02  0.56314783889E+02  0.51100000000E-03 0. -1.
         11    1    1    0    0    0  0.40012166203E+01 -0.43671515599E+01  0.17820577922E+01  0.61852629229E+01  0.51100000000E-03 0.  1.
         22    1    1    0    0    0 -0.40594625279E+02  0.44091591824E+02 -0.17727156496E+02  0.62499953188E+02  0.00000000000E+00 0. -1.
</event>
<event>
 4    1  0.1977762E-002  0.9118800E+02  0.7818608E-02  0.1130116E+00
         25   -1    0    0    0    0  0.00000000000E+00  0.00000000000E+00  0.99999998245E-14  0.12500000000E+03  0.12500000000E+03 0.  0.
        -11    1    1    0    0    0 -0.15560768477E+02 -0.36842737091E+02  0.34656196877E+02  0.52920475944E+02  0.51100000000E-03 0. -1.
         11    1    1    0    0    0 -0.28198208548E+01 -0.66786831172E+01  0.62618832076E+01  0.95795291847E+01  0.51100000000E-03 0.  1.
         22    1    1    0    0    0  0.18380589332E+02  0.43521420208E+02 -0.40918080084E+02  0.62499994871E+02  0.00000000000E+00 0. -1.
</event>
<event>
 4    1  0.1977762E-002  0.9118800E+02  0.7818608E-02  0.1130116E+00
         25   -1    0    0    0    0  0.00000000000E+00  0.00000000000E+00  0.99999998245E-14  0.12500000000E+03  0.12500000000E+03 0.  0.
        -11    1    1    0    0    0 -0.92475056729E+01 -0.30512202967E+02 -0.21131419623E+02  0.38249807668E+02  0.51100000000E-03 0. -1.
         11    1    1    0    0    0 -0.58650500360E+01 -0.19341882126E+02 -0.13400172326E+02  0.24250192468E+02  0.51100000000E-03 0.  1.
         22    1    1    0    0    0  0.15112555709E+02  0.49854085093E+02  0.34531591949E+02  0.62499999864E+02  0.00000000000E+00 0. -1.
</event>
<event>
 4    1  0.1977762E-002  0.9118800E+02  0.7818608E-02  0.1130116E+00
         25   -1    0    0    0    0  0.00000000000E+00  0.00000000000E+00  0.99999998245E-14  0.12500000000E+03  0.12500000000E+03 0.  0.
        -11    1    1    0    0    0 -0.24819271236E+01  0.20385088070E+01 -0.32098170352E+00  0.32277716645E+01  0.51100000000E-03 0. -1.
         11    1    1    0    0    0 -0.49619723977E+01  0.59223574338E+02 -0.60172671650E+01  0.59734918029E+02  0.51100000000E-03 0.  1.
         22    1    1    0    0    0  0.74438995213E+01 -0.61262083145E+02  0.63382488685E+01  0.62037310307E+02  0.00000000000E+00 0.  1.
</event>
<event>
 4    1  0.1977762E-002  0.9118800E+02  0.7818608E-02  0.1130116E+00
         25   -1    0    0    0    0  0.00000000000E+00  0.00000000000E+00  0.99999998245E-14  0.12500000000E+03  0.12500000000E+03 0.  0.
        -11    1    1    0    0    0  0.16904527931E+01  0.23098079143E+02  0.16994506390E+02  0.28726157739E+02  0.51100000000E-03 0. -1.
         11    1    1    0    0    0  0.19882588068E+01  0.27156005701E+02  0.19981756752E+02  0.33773842273E+02  0.51100000000E-03 0. -1.
         22    1    1    0    0    0 -0.36787115999E+01 -0.50254084844E+02 -0.36976263142E+02  0.62499999988E+02  0.00000000000E+00 0. -1.
</event>
<event>
 4    1  0.1977762E-002  0.9118800E+02  0.7818608E-02  0.1130116E+00
         25   -1    0    0    0    0  0.00000000000E+00  0.00000000000E+00  0.99999998245E-14  0.12500000000E+03  0.12500000000E+03 0.  0.
        -11    1    1    0    0    0  0.19418808959E+00  0.37734086267E+02  0.73167078914E+01  0.38437393122E+02  0.51100000000E-03 0.  1.
         11    1    1    0    0    0  0.13949178195E+00  0.23616193848E+02  0.46114408091E+01  0.24062615328E+02  0.51100000000E-03 0. -1.
         22    1    1    0    0    0 -0.33367987154E+00 -0.61350280114E+02 -0.11928148701E+02  0.62499991550E+02  0.00000000000E+00 0.  1.
</event>
<event>
 4    1  0.1977762E-002  0.9118800E+02  0.7818608E-02  0.1130116E+00
         25   -1    0    0    0    0  0.00000000000E+00  0.00000000000E+00  0.99999998245E-14  0.12500000000E+03  0.12500000000E+03 0.  0.
        -11    1    1    0    0    0 -0.48348121387E+01 -0.14334905712E+02  0.75116584197E+01  0.16890528194E+02  0.51100000000E-03 0.  1.
         11    1    1    0    0    0 -0.14065301049E+02 -0.39125137189E+02  0.18764013831E+02  0.45614660680E+02  0.51100000000E-03 0. -1.
         22    1    1    0    0    0  0.18900113187E+02  0.53460042901E+02 -0.26275672251E+02  0.62494811126E+02  0.00000000000E+00 0. -1.
</event>
<event>
 4    1  0.1977762E-002  0.9118800E+02  0.7818608E-02  0.1130116E+00
         25   -1    0    0    0    0  0.00000000000E+00  0.00000000000E+00  0.99999998245E-14  0.12500000000E+03  0.12500000000E+03 0.  0.
        -11    1    1    0    0    0 -0.87744086111E+01  0.17550127464E+02 -0.88001106765E+01  0.21504398822E+02  0.51100000000E-03 0.  1.
         11    1    1    0    0    0 -0.16464720489E+02  0.33241113856E+02 -0.17455079420E+02  0.40996810473E+02  0.51100000000E-03 0. -1.
         22    1    1    0    0    0  0.25239129100E+02 -0.50791241320E+02  0.26255190097E+02  0.62498790705E+02  0.00000000000E+00 0. -1.
</event>
<event>
 4    1  0.1977762E-002  0.9118800E+02  0.7818608E-02  0.1130116E+00
         25   -1    0    0    0    0  0.00000000000E+00  0.00000000000E+00  0.99999998245E-14  0.12500000000E+03  0.12500000000E+03 0.  0.
        -11    1    1    0    0    0 -0.43668756287E+02  0.21671878598E+02 -0.73026044566E+01  0.49294610554E+02  0.51100000000E-03 0.  1.
         11    1    1    0    0    0 -0.11698320557E+02  0.58049589036E+01 -0.19580755968E+01  0.13205389507E+02  0.51100000000E-03 0.  1.
         22    1    1    0    0    0  0.55367076844E+02 -0.27476837502E+02  0.92606800534E+01  0.62499999939E+02  0.00000000000E+00 0.  1.
</event>
<event>
 4    1  0.1977762E-002  0.9118800E+02  0.7818608E-02  0.1130116E+00
         25   -1    0    0    0    0  0.00000000000E+00  0.00000000000E+00  0.99999998245E-14  0.12500000000E+03  0.12500000000E+03 0.  0.
        -11    1    1    0    0    0  0.33396899767E+01 -0.20239392600E+01  0.10716250397E+02  0.11405607485E+02  0.51100000000E-03 0. -1.
         11    1    1    0    0    0  0.14965807468E+02 -0.89938002583E+01  0.48018471573E+02  0.51094397430E+02  0.51100000000E-03 0.  1.
         22    1    1    0    0    0 -0.18305497445E+02  0.11017739518E+02 -0.58734721970E+02  0.62499995085E+02  0.00000000000E+00 0.  1.
</event>
<event>
 4    1  0.1977762E-002  0.9118800E+02  0.7818608E-02  0.1130116E+00
         25   -1    0    0    0    0  0.00000000000E+00  0.00000000000E+00  0.99999998245E-14  0.12500000000E+03  0.12500000000E+03 0.  0.
        -11    1    1    0    0    0 -0.17035336069E+01  0.27926547757E+01  0.42130169970E+01  0.53338972548E+01  0.51100000000E-03 0.  1.
         11    1    1    0    0    0 -0.14890382984E+02  0.22008611515E+01  0.55491952731E+02  0.57497166134E+02  0.51100000000E-03 0. -1.
         22    1    1    0    0    0  0.16593916591E+02 -0.49935159272E+01 -0.59704969728E+02  0.62168936611E+02  0.00000000000E+00 0. -1.
</event>
<event>
 4    1  0.1977762E-002  0.9118800E+02  0.7818608E-02  0.1130116E+00
         25   -1    0    0    0    0  0.00000000000E+00  0.00000000000E+00  0.99999998245E-14  0.12500000000E+03  0.12500000000E+03 0.  0.
        -11    1    1    0    0    0 -0.75895731150E+01  0.37939855523E+01 -0.13368744349E+02  0.15834117348E+02  0.51100000000E-03 0. -1.
         11    1    1    0    0    0 -0.20148708049E+02  0.15124679832E+02 -0.39313778549E+02  0.46693677946E+02  0.51100000000E-03 0.  1.
         22    1    1    0    0    0  0.27738281164E+02 -0.18918665384E+02  0.52682522898E+02  0.62472204706E+02  0.00000000000E+00 0.  1.
</event>
<event>
 4    1  0.1977762E-002  0.9118800E+02  0.7818608E-02  0.1130116E+00
         25   -1    0    0    0    0  0.00000000000E+00  0.00000000000E+00  0.99999998245E-14  0.12500000000E+03  0.12500000000E+03 0.  0.
        -11    1    1    0    0    0 -0.24765295163E+01  0.30954294313E+01 -0.79903944093E+01  0.89197132738E+01  0.51100000000E-03 0. -1.
         11    1    1    0    0    0 -0.10482611530E+02  0.53648013276E+02  0.16860656371E+02  0.57203812866E+02  0.51100000000E-03 0.  1.
         22    1    1    0    0    0  0.12959141046E+02 -0.56743442707E+02 -0.88702619619E+01  0.58876473860E+02  0.00000000000E+00 0.  1.
</event>
<event>
 4    1  0.1977762E-002  0.9118800E+02  0.7818608E-02  0.1130116E+00
         25   -1    0    0    0    0  0.00000000000E+00  0.00000000000E+00  0.99999998245E-14  0.12500000000E+03  0.12500000000E+03 0.  0.
        -11    1    1    0    0    0 -0.39002946824E+01  0.13143257003E+01  0.18818105214E+01  0.45255896583E+01  0.51100000000E-03 0. -1.
         11    1    1    0    0    0 -0.49338712872E+02  0.20128859881E+02  0.22847681794E+02  0.57978411082E+02  0.51100000000E-03 0.  1.
         22    1    1    0    0    0  0.53239007555E+02 -0.21443185581E+02 -0.24729492315E+02  0.62495999260E+02  0.00000000000E+00 0.  1.
</event>
<event>
 4    1  0.1977762E-002  0.9118800E+02  0.7818608E-02  0.1130116E+00
         25   -1    0    0    0    0  0.00000000000E+00  0.00000000000E+00  0.99999998245E-14  0.12500000000E+03  0.12500000000E+03 0.  0.
        -11    1    1    0    0    0 -0.92025399081E+01  0.28871643139E+02 -0.23892879298E+02  0.38589223881E+02  0.51100000000E-03 0. -1.
         11    1    1    0    0    0 -0.59579647658E+01  0.18183399121E+02 -0.14342408486E+02  0.23913135076E+02  0.51100000000E-03 0.  1.
         22    1    1    0    0    0  0.15160504674E+02 -0.47055042259E+02  0.38235287784E+02  0.62497641043E+02  0.00000000000E+00 0.  1.
</event>
<event>
 4    1  0.1977762E-002  0.9118800E+02  0.7818608E-02  0.1130116E+00
         25   -1    0    0    0    0  0.00000000000E+00  0.00000000000E+00  0.99999998245E-14  0.12500000000E+03  0.12500000000E+03 0.  0.
        -11    1    1    0    0    0  0.25789262363E+02  0.62797290975E+01  0.18939932812E+02  0.32607393424E+02  0.51100000000E-03 0.  1.
         11    1    1    0    0    0  0.23578936027E+02  0.57157096338E+01  0.17462429027E+02  0.29892674496E+02  0.51100000000E-03 0. -1.
         22    1    1    0    0    0 -0.49368198389E+02 -0.11995438731E+02 -0.36402361838E+02  0.62499932080E+02  0.00000000000E+00 0.  1.
</event>
<event>
 4    1  0.1977762E-002  0.9118800E+02  0.7818608E-02  0.1130116E+00
         25   -1    0    0    0    0  0.00000000000E+00  0.00000000000E+00  0.99999998245E-14  0.12500000000E+03  0.12500000000E+03 0.  0.
        -11    1    1    0    0    0  0.28223722451E+02  0.18134548964E+02 -0.31124690927E+02  0.45762285353E+02  0.51100000000E-03 0.  1.
         11    1    1    0    0    0  0.10322597819E+02  0.66339630064E+01 -0.11383567159E+02  0.16737714671E+02  0.51100000000E-03 0. -1.
         22    1    1    0    0    0 -0.38546320269E+02 -0.24768511971E+02  0.42508258086E+02  0.62499999976E+02  0.00000000000E+00 0.  1.
</event>
<event>
 4    1  0.1977762E-002  0.9118800E+02  0.7818608E-02  0.1130116E+00
         25   -1    0    0    0    0  0.00000000000E+00  0.00000000000E+00  0.99999998245E-14  0.12500000000E+03  0.12500000000E+03 0.  0.
        -11    1    1    0    0    0  0.88870842162E+01  0.12254149787E+02  0.74722966898E+01  0.16881340911E+02  0.51100000000E-03 0. -1.
         11    1    1    0    0    0  0.24020534077E+02  0.33114809848E+02  0.20186267041E+02  0.45618659186E+02  0.51100000000E-03 0.  1.
         22    1    1    0    0    0 -0.32907618294E+02 -0.45368959636E+02 -0.27658563730E+02  0.62499999903E+02  0.00000000000E+00 0.  1.
</event>
<event>
 4    1  0.1977762E-002  0.9118800E+02  0.7818608E-02  0.1130116E+00
         25   -1    0    0    0    0  0.00000000000E+00  0.00000000000E+00  0.99999998245E-14  0.12500000000E+03  0.12500000000E+03 0.  0.
        -11    1    1    0    0    0 -0.50857209810E+01  0.15307719485E+02  0.40065983208E+02  0.43191131548E+02  0.51100000000E-03 0.  1.
         11    1    1    0    0    0 -0.16658128764E+00  0.40671301161E+01  0.18996746828E+02  0.19427961474E+02  0.51100000000E-03 0. -1.
         22    1    1    0    0    0  0.52523022686E+01 -0.19374849601E+02 -0.59062730036E+02  0.62380906979E+02  0.00000000000E+00 0.  1.
</event>
<event>
 4    1  0.1977762E-002  0.9118800E+02  0.7818608E-02  0.1130116E+00
         25   -1    0    0    0    0  0.00000000000E+00  0.00000000000E+00  0.99999998245E-14  0.12500000000E+03  0.12500000000E+03 0.  0.
        -11    1    1    0    0    0 -0.19483059454E+02 -0.53199205870E+02  0.10083673531E+02  0.57544987471E+02  0.51100000000E-03 0.  1.
         11    1    1    0    0    0 -0.15292465924E+01 -0.46324894263E+01  0.87463106308E+00  0.49561611337E+01  0.51100000000E-03 0. -1.
         22    1    1    0    0    0  0.21012306046E+02  0.57831695296E+02 -0.10958304594E+02  0.62498851396E+02  0.00000000000E+00 0.  1.
</event>
<event>
 4    1  0.1977762E-002  0.9118800E+02  0.7818608E-02  0.1130116E+00
         25   -1    0    0    0    0  0.00000000000E+00  0.00000000000E+00  0.99999998245E-14  0.12500000000E+03  0.12500000000E+03 0.  0.
        -11    1    1    0    0    0 -0.82252169352E+01  0.53303531472E+01  0.13053227855E+02  0.16323406998E+02  0.51100000000E-03 0. -1.
         11    1    1    0    0    0 -0.35408406671E+01  0.38644460819E+02  0.27619479075E+02  0.47631581217E+02  0.51100000000E-03 0.  1.
         22    1    1    0    0    0  0.11766057602E+02 -0.43974813966E+02 -0.40672706930E+02  0.61045011785E+02  0.00000000000E+00 0.  1.
</event>
<event>
 4    1  0.1977762E-002  0.9118800E+02  0.7818608E-02  0.1130116E+00
         25   -1    0    0    0    0  0.00000000000E+00  0.00000000000E+00  0.99999998245E-14  0.12500000000E+03  0.12500000000E+03 0.  0.
        -11    1    1    0    0    0 -0.13684065758E+02 -0.26967135736E+02  0.27458944224E+02  0.40846954398E+02  0.51100000000E-03 0.  1.
         11    1    1    0    0    0 -0.72130886977E+01 -0.14450034461E+02  0.14423465225E+02  0.21653371420E+02  0.51100000000E-03 0. -1.
         22    1    1    0    0    0  0.20897154456E+02  0.41417170197E+02 -0.41882409449E+02  0.62499674181E+02  0.00000000000E+00 0. -1.
</event>
<event>
 4    1  0.1977762E-002  0.9118800E+02  0.7818608E-02  0.1130116E+00
         25   -1    0    0    0    0  0.00000000000E+00  0.00000000000E+00  0.99999998245E-14  0.12500000000E+03  0.12500000000E+03 0.  0.
        -11    1    1    0    0    0  0.46668024376E+02 -0.11654743029E+02  0.35273681297E+02  0.59648722759E+02  0.51100000000E-03 0.  1.
         11    1    1    0    0    0  0.22268792597E+01 -0.56443806888E+00  0.16888566201E+01  0.28512836609E+01  0.51100000000E-03 0. -1.
         22    1    1    0    0    0 -0.48894903636E+02  0.12219181098E+02 -0.36962537917E+02  0.62499993580E+02  0.00000000000E+00 0.  1.
</event>
<event>
 4    1  0.1977762E-002  0.9118800E+02  0.7818608E-02  0.1130116E+00
         25   -1    0    0    0    0  0.00000000000E+00  0.00000000000E+00  0.99999998245E-14  0.12500000000E+03  0.12500000000E+03 0.  0.
        -11    1    1    0    0    0  0.13694409981E+02 -0.15939297133E+02  0.41758568757E+02  0.46748006617E+02  0.51100000000E-03 0.  1.
         11    1    1    0    0    0  0.46178370917E+01 -0.53286012883E+01  0.14085724664E+02  0.15752017352E+02  0.51100000000E-03 0. -1.
         22    1    1    0    0    0 -0.18312247072E+02  0.21267898421E+02 -0.55844293421E+02  0.62499976030E+02  0.00000000000E+00 0.  1.
</event>
<event>
 4    1  0.1977762E-002  0.9118800E+02  0.7818608E-02  0.1130116E+00
         25   -1    0    0    0    0  0.00000000000E+00  0.00000000000E+00  0.99999998245E-14  0.12500000000E+03  0.12500000000E+03 0.  0.
        -11    1    1    0    0    0  0.20719450985E+02 -0.39908813386E+02 -0.13465495300E+02  0.46939627171E+02  0.51100000000E-03 0.  1.
         11    1    1    0    0    0  0.68678693967E+01 -0.13230150927E+02 -0.44632588117E+01  0.15560372845E+02  0.51100000000E-03 0. -1.
         22    1    1    0    0    0 -0.27587320382E+02  0.53138964312E+02  0.17928754112E+02  0.62499999984E+02  0.00000000000E+00 0.  1.
</event>
<event>
 4    1  0.1977762E-002  0.9118800E+02  0.7818608E-02  0.1130116E+00
         25   -1    0    0    0    0  0.00000000000E+00  0.00000000000E+00  0.99999998245E-14  0.12500000000E+03  0.12500000000E+03 0.  0.
        -11    1    1    0    0    0 -0.75584948431E+01 -0.25836072636E+01 -0.20349107593E+01  0.82429808228E+01  0.51100000000E-03 0.  1.
         11    1    1    0    0    0 -0.49783987877E+02 -0.16975466399E+02 -0.13312129679E+02  0.54257024479E+02  0.51100000000E-03 0. -1.
         22    1    1    0    0    0  0.57342482720E+02  0.19559073663E+02  0.15347040438E+02  0.62499994698E+02  0.00000000000E+00 0. -1.
</event>
<event>
 4    1  0.1977762E-002  0.9118800E+02  0.7818608E-02  0.1130116E+00
         25   -1    0    0    0    0  0.00000000000E+00  0.00000000000E+00  0.99999998245E-14  0.12500000000E+03  0.12500000000E+03 0.  0.
        -11    1    1    0    0    0 -0.18510511195E+02 -0.22487667041E+02  0.28159001369E+02  0.40512511055E+02  0.51100000000E-03 0. -1.
         11    1    1    0    0    0 -0.10044665693E+02 -0.12208652215E+02  0.15280810816E+02  0.21987489107E+02  0.51100000000E-03 0.  1.
         22    1    1    0    0    0  0.28555176888E+02  0.34696319256E+02 -0.43439812185E+02  0.62499999837E+02  0.00000000000E+00 0. -1.
</event>
<event>
 4    1  0.1977762E-002  0.9118800E+02  0.7818608E-02  0.1130116E+00
         25   -1    0    0    0    0  0.00000000000E+00  0.00000000000E+00  0.99999998245E-14  0.12500000000E+03  0.12500000000E+03 0.  0.
        -11    1    1    0    0    0 -0.30991888856E+02 -0.30270396916E+02  0.20645154350E+02  0.47989754143E+02  0.51100000000E-03 0.  1.
         11    1    1    0    0    0 -0.93790902957E+01 -0.91497606843E+01  0.62339262170E+01  0.14510247817E+02  0.51100000000E-03 0. -1.
         22    1    1    0    0    0  0.40370979152E+02  0.39420157601E+02 -0.26879080567E+02  0.62499998040E+02  0.00000000000E+00 0.  1.
</event>
<event>
 4    1  0.1977762E-002  0.9118800E+02  0.7818608E-02  0.1130116E+00
         25   -1    0    0    0    0  0.00000000000E+00  0.00000000000E+00  0.99999998245E-14  0.12500000000E+03  0.12500000000E+03 0.  0.
        -11    1    1    0    0    0 -0.17737626241E+02 -0.40410098730E+02  0.87281796344E+01  0.44986448893E+02  0.51100000000E-03 0.  1.
         11    1    1    0    0    0  0.90738254900E+01 -0.49896069702E+01 -0.28063582496E+02  0.29913126709E+02  0.51100000000E-03 0. -1.
         22    1    1    0    0    0  0.86638007506E+01  0.45399705700E+02  0.19335402862E+02  0.50100424398E+02  0.00000000000E+00 0. -1.
</event>
<event>
 4    1  0.1977762E-002  0.9118800E+02  0.7818608E-02  0.1130116E+00
         25   -1    0    0    0    0  0.00000000000E+00  0.00000000000E+00  0.99999998245E-14  0.12500000000E+03  0.12500000000E+03 0.  0.
        -11    1    1    0    0    0 -0.47252126632E+02  0.90376002047E+01  0.87363597896E+01  0.48895456551E+02  0.51100000000E-03 0. -1.
         11    1    1    0    0    0 -0.13101337882E+02  0.30878917071E+01  0.20242388370E+01  0.13611674130E+02  0.51100000000E-03 0.  1.
         22    1    1    0    0    0  0.60353464514E+02 -0.12125491912E+02 -0.10760598627E+02  0.62492869319E+02  0.00000000000E+00 0. -1.
</event>
<event>
 4    1  0.1977762E-002  0.9118800E+02  0.7818608E-02  0.1130116E+00
         25   -1    0    0    0    0  0.00000000000E+00  0.00000000000E+00  0.99999998245E-14  0.12500000000E+03  0.12500000000E+03 0.  0.
        -11    1    1    0    0    0  0.11943065642E+02 -0.82201674144E+01  0.70080612115E+01  0.16103443466E+02  0.51100000000E-03 0.  1.
         11    1    1    0    0    0  0.34217801079E+02 -0.23922913496E+02  0.20235838081E+02  0.46396690011E+02  0.51100000000E-03 0. -1.
         22    1    1    0    0    0 -0.46160866721E+02  0.32143080910E+02 -0.27243899293E+02  0.62499866524E+02  0.00000000000E+00 0. -1.
</event>
<event>
 4    1  0.1977762E-002  0.9118800E+02  0.7818608E-02  0.1130116E+00
         25   -1    0    0    0    0  0.00000000000E+00  0.00000000000E+00  0.99999998245E-14  0.12500000000E+03  0.12500000000E+03 0.  0.
        -11    1    1    0    0    0  0.55049263438E+01  0.59023457920E+02  0.15326430635E+02  0.61228851656E+02  0.51100000000E-03 0. -1.
         11    1    1    0    0    0  0.44676199501E+00  0.12102209661E+01  0.14474742410E+00  0.12981460414E+01  0.51100000000E-03 0.  1.
         22    1    1    0    0    0 -0.59516883389E+01 -0.60233678886E+02 -0.15471178059E+02  0.62473002303E+02  0.00000000000E+00 0. -1.
</event>
<event>
 4    1  0.1977762E-002  0.9118800E+02  0.7818608E-02  0.1130116E+00
         25   -1    0    0    0    0  0.00000000000E+00  0.00000000000E+00  0.99999998245E-14  0.12500000000E+03  0.12500000000E+03 0.  0.
        -11    1    1    0    0    0 -0.83165417752E+01  0.51274157195E+01  0.40742574785E+02  0.41897645035E+02  0.51100000000E-03 0.  1.
         11    1    1    0    0    0  0.11237352269E+02 -0.16467138480E+02  0.15751309544E+02  0.25407646258E+02  0.51100000000E-03 0. -1.
         22    1    1    0    0    0 -0.29208104938E+01  0.11339722761E+02 -0.56493884329E+02  0.57694708708E+02  0.00000000000E+00 0. -1.
</event>
<event>
 4    1  0.1977762E-002  0.9118800E+02  0.7818608E-02  0.1130116E+00
         25   -1    0    0    0    0  0.00000000000E+00  0.00000000000E+00  0.99999998245E-14  0.12500000000E+03  0.12500000000E+03 0.  0.
        -11    1    1    0    0    0 -0.39899579247E+02  0.22755396716E+01  0.27452285638E+02  0.48484868690E+02  0.51100000000E-03 0. -1.
         11    1    1    0    0    0 -0.11533196300E+02  0.65656493257E+00  0.79358812881E+01  0.14015131340E+02  0.51100000000E-03 0. -1.
         22    1    1    0    0    0  0.51432775547E+02 -0.29321046041E+01 -0.35388166926E+02  0.62499999970E+02  0.00000000000E+00 0. -1.
</event>
<event>
 4    1  0.1977762E-002  0.9118800E+02  0.7818608E-02  0.1130116E+00
         25   -1    0    0    0    0  0.00000000000E+00  0.00000000000E+00  0.99999998245E-14  0.12500000000E+03  0.12500000000E+03 0.  0.
        -11    1    1    0    0    0  0.30811767442E+02 -0.29564274321E+02  0.16606729198E+02  0.45816970480E+02  0.51100000000E-03 0.  1.
         11    1    1    0    0    0  0.11448688500E+02 -0.12723990897E+02  0.66671369870E-01  0.17116566772E+02  0.51100000000E-03 0. -1.
         22    1    1    0    0    0 -0.42260455942E+02  0.42288265219E+02 -0.16673400568E+02  0.62066462748E+02  0.00000000000E+00 0. -1.
</event>
<event>
 4    1  0.1977762E-002  0.9118800E+02  0.7818608E-02  0.1130116E+00
         25   -1    0    0    0    0  0.00000000000E+00  0.00000000000E+00  0.99999998245E-14  0.12500000000E+03  0.12500000000E+03 0.  0.
        -11    1    1    0    0    0  0.21509400905E+02 -0.25543417443E+02  0.86370541943E+01  0.34492306496E+02  0.51100000000E-03 0. -1.
         11    1    1    0    0    0  0.17466879895E+02 -0.20740216306E+02  0.70130186424E+01  0.28007693522E+02  0.51100000000E-03 0. -1.
         22    1    1    0    0    0 -0.38976280800E+02  0.46283633749E+02 -0.15650072837E+02  0.62499999982E+02  0.00000000000E+00 0. -1.
</event>
<event>
 4    1  0.1977762E-002  0.9118800E+02  0.7818608E-02  0.1130116E+00
         25   -1    0    0    0    0  0.00000000000E+00  0.00000000000E+00  0.99999998245E-14  0.12500000000E+03  0.12500000000E+03 0.  0.
        -11    1    1    0    0    0 -0.25599784305E+02 -0.31636639277E+02 -0.36461199021E+02  0.54641055403E+02  0.51100000000E-03 0.  1.
         11    1    1    0    0    0 -0.36769534477E+01 -0.45542370065E+01 -0.52442317543E+01  0.78589457513E+01  0.51100000000E-03 0. -1.
         22    1    1    0    0    0  0.29276737753E+02  0.36190876284E+02  0.41705430775E+02  0.62499998846E+02  0.00000000000E+00 0.  1.
</event>
<event>
 4    1  0.1977762E-002  0.9118800E+02  0.7818608E-02  0.1130116E+00
         25   -1    0    0    0    0  0.00000000000E+00  0.00000000000E+00  0.99999998245E-14  0.12500000000E+03  0.12500000000E+03 0.  0.
        -11    1    1    0    0    0 -0.19269347429E+02 -0.16142565159E+02 -0.14652104226E+00  0.25137852512E+02  0.51100000000E-03 0.  1.
         11    1    1    0    0    0 -0.95308042678E+01 -0.34607483232E+02 -0.16024618001E+02  0.39310335893E+02  0.51100000000E-03 0. -1.
         22    1    1    0    0    0  0.28800151697E+02  0.50750048391E+02  0.16171139043E+02  0.60551811595E+02  0.00000000000E+00 0. -1.
</event>
<event>
 4    1  0.1977762E-002  0.9118800E+02  0.7818608E-02  0.1130116E+00
         25   -1    0    0    0    0  0.00000000000E+00  0.00000000000E+00  0.99999998245E-14  0.12500000000E+03  0.12500000000E+03 0.  0.
        -11    1    1    0    0    0  0.18291229324E+01 -0.48906184197E+01 -0.12896611597E+02  0.13913534065E+02  0.51100000000E-03 0. -1.
         11    1    1    0    0    0  0.20987793538E+01 -0.16040516294E+02 -0.45838640332E+02  0.48609505094E+02  0.51100000000E-03 0.  1.
         22    1    1    0    0    0 -0.39279022862E+01  0.20931134714E+02  0.58735251929E+02  0.62476960841E+02  0.00000000000E+00 0.  1.
</event>
<event>
 4    1  0.1977762E-002  0.9118800E+02  0.7818608E-02  0.1130116E+00
         25   -1    0    0    0    0  0.00000000000E+00  0.00000000000E+00  0.99999998245E-14  0.12500000000E+03  0.12500000000E+03 0.  0.
        -11    1    1    0    0    0  0.16665754433E+02 -0.24429769368E+01 -0.21756977020E+01  0.16983791328E+02  0.51100000000E-03 0. -1.
         11    1    1    0    0    0 -0.52436828162E+02 -0.23297683306E+02 -0.17160996992E+02  0.59890757327E+02  0.51100000000E-03 0.  1.
         22    1    1    0    0    0  0.35771073729E+02  0.25740660243E+02  0.19336694694E+02  0.48125451345E+02  0.00000000000E+00 0.  1.
</event>
<event>
 4    1  0.1977762E-002  0.9118800E+02  0.7818608E-02  0.1130116E+00
         25   -1    0    0    0    0  0.00000000000E+00  0.00000000000E+00  0.99999998245E-14  0.12500000000E+03  0.12500000000E+03 0.  0.
        -11    1    1    0    0    0  0.24850038942E+02  0.18660822700E+01 -0.38596105221E+02  0.45941985557E+02  0.51100000000E-03 0.  1.
         11    1    1    0    0    0  0.89566668552E+01  0.68736015466E+00 -0.13909477993E+02  0.16558016893E+02  0.51100000000E-03 0. -1.
         22    1    1    0    0    0 -0.33806705797E+02 -0.25534424246E+01  0.52505583214E+02  0.62499997550E+02  0.00000000000E+00 0.  1.
</event>
<event>
 4    1  0.1977762E-002  0.9118800E+02  0.7818608E-02  0.1130116E+00
         25   -1    0    0    0    0  0.00000000000E+00  0.00000000000E+00  0.99999998245E-14  0.12500000000E+03  0.12500000000E+03 0.  0.
        -11    1    1    0    0    0 -0.70858160703E+01  0.12101208503E+02 -0.21781120594E+02  0.25904927161E+02  0.51100000000E-03 0. -1.
         11    1    1    0    0    0 -0.97218173042E+01  0.16441105864E+02 -0.31217351608E+02  0.36597086433E+02  0.51100000000E-03 0.  1.
         22    1    1    0    0    0  0.16807633375E+02 -0.28542314367E+02  0.52998472202E+02  0.62497986406E+02  0.00000000000E+00 0.  1.
</event>
<event>
 4    1  0.1977762E-002  0.9118800E+02  0.7818608E-02  0.1130116E+00
         25   -1    0    0    0    0  0.00000000000E+00  0.00000000000E+00  0.99999998245E-14  0.12500000000E+03  0.12500000000E+03 0.  0.
        -11    1    1    0    0    0 -0.37284760242E+02 -0.52355263488E+01 -0.23685366321E+02  0.44481014607E+02  0.51100000000E-03 0.  1.
         11    1    1    0    0    0 -0.33303251918E+01 -0.25658412440E+02  0.93900539946E+01  0.27524867104E+02  0.51100000000E-03 0. -1.
         22    1    1    0    0    0  0.40615085434E+02  0.30893938788E+02  0.14295312327E+02  0.52994118289E+02  0.00000000000E+00 0.  1.
</event>
<event>
 4    1  0.1977762E-002  0.9118800E+02  0.7818608E-02  0.1130116E+00
         25   -1    0    0    0    0  0.00000000000E+00  0.00000000000E+00  0.99999998245E-14  0.12500000000E+03  0.12500000000E+03 0.  0.
        -11    1    1    0    0    0  0.33334355658E+02 -0.24773603555E+01  0.29462461985E+02  0.44557302970E+02  0.51100000000E-03 0. -1.
         11    1    1    0    0    0  0.12734897690E+02 -0.29900987700E+01  0.12348734773E+02  0.17989151191E+02  0.51100000000E-03 0.  1.
         22    1    1    0    0    0 -0.46069253348E+02  0.54674591255E+01 -0.41811196759E+02  0.62453545838E+02  0.00000000000E+00 0. -1.
</event>
<event>
 4    1  0.1977762E-002  0.9118800E+02  0.7818608E-02  0.1130116E+00
         25   -1    0    0    0    0  0.00000000000E+00  0.00000000000E+00  0.99999998245E-14  0.12500000000E+03  0.12500000000E+03 0.  0.
        -11    1    1    0    0    0 -0.31214667308E+02 -0.35630957749E+02 -0.30477639677E+02  0.56327676375E+02  0.51100000000E-03 0. -1.
         11    1    1    0    0    0 -0.34197792983E+01 -0.39063312549E+01 -0.33381533026E+01  0.61723238780E+01  0.51100000000E-03 0.  1.
         22    1    1    0    0    0  0.34634446606E+02  0.39537289004E+02  0.33815792980E+02  0.62499999747E+02  0.00000000000E+00 0. -1.
</event>
<event>
 4    1  0.1977762E-002  0.9118800E+02  0.7818608E-02  0.1130116E+00
         25   -1    0    0    0    0  0.00000000000E+00  0.00000000000E+00  0.99999998245E-14  0.12500000000E+03  0.12500000000E+03 0.  0.
        -11    1    1    0    0    0 -0.50104898118E+02 -0.11853278805E+02 -0.72555242603E+01  0.51996573602E+02  0.51100000000E-03 0. -1.
         11    1    1    0    0    0 -0.10121119803E+02 -0.23950734444E+01 -0.14657842072E+01  0.10503426416E+02  0.51100000000E-03 0. -1.
         22    1    1    0    0    0  0.60226017921E+02  0.14248352249E+02  0.87213084675E+01  0.62499999982E+02  0.00000000000E+00 0. -1.
</event>
<event>
 4    1  0.1977762E-002  0.9118800E+02  0.7818608E-02  0.1130116E+00
         25   -1    0    0    0    0  0.00000000000E+00  0.00000000000E+00  0.99999998245E-14  0.12500000000E+03  0.12500000000E+03 0.  0.
        -11    1    1    0    0    0  0.10163098910E+02 -0.52224982133E+01 -0.48024112702E+02  0.49364749246E+02  0.51100000000E-03 0.  1.
         11    1    1    0    0    0  0.27273926173E+01 -0.14841961533E+01 -0.12763116403E+02  0.13135396807E+02  0.51100000000E-03 0. -1.
         22    1    1    0    0    0 -0.12890491527E+02  0.67066943666E+01  0.60787229105E+02  0.62499853947E+02  0.00000000000E+00 0.  1.
</event>
<event>
 4    1  0.1977762E-002  0.9118800E+02  0.7818608E-02  0.1130116E+00
         25   -1    0    0    0    0  0.00000000000E+00  0.00000000000E+00  0.99999998245E-14  0.12500000000E+03  0.12500000000E+03 0.  0.
        -11    1    1    0    0    0 -0.69776669564E+01 -0.20974597478E+01  0.54541308926E+01  0.91013580087E+01  0.51100000000E-03 0. -1.
         11    1    1    0    0    0 -0.40947276179E+02 -0.12305539187E+02  0.31989205363E+02  0.53398642129E+02  0.51100000000E-03 0.  1.
         22    1    1    0    0    0  0.47924943136E+02  0.14402998935E+02 -0.37443336255E+02  0.62499999863E+02  0.00000000000E+00 0.  1.
</event>
<event>
 4    1  0.1977762E-002  0.9118800E+02  0.7818608E-02  0.1130116E+00
         25   -1    0    0    0    0  0.00000000000E+00  0.00000000000E+00  0.99999998245E-14  0.12500000000E+03  0.12500000000E+03 0.  0.
        -11    1    1    0    0    0 -0.23464181789E+02  0.41939769843E+02  0.87289967031E+00  0.48065310522E+02  0.51100000000E-03 0.  1.
         11    1    1    0    0    0 -0.70267178262E+01  0.12606245863E+02  0.26127087784E+00  0.14434696426E+02  0.51100000000E-03 0. -1.
         22    1    1    0    0    0  0.30490899615E+02 -0.54546015706E+02 -0.11341705482E+01  0.62499993052E+02  0.00000000000E+00 0.  1.
</event>
<event>
 4    1  0.1977762E-002  0.9118800E+02  0.7818608E-02  0.1130116E+00
         25   -1    0    0    0    0  0.00000000000E+00  0.00000000000E+00  0.99999998245E-14  0.12500000000E+03  0.12500000000E+03 0.  0.
        -11    1    1    0    0    0 -0.11816763880E+02  0.26952701466E+02 -0.14025883216E+02  0.32600758046E+02  0.51100000000E-03 0. -1.
         11    1    1    0    0    0 -0.10872307534E+02  0.24716549497E+02 -0.12839402204E+02  0.29899249813E+02  0.51100000000E-03 0.  1.
         22    1    1    0    0    0  0.22689071415E+02 -0.51669250964E+02  0.26865285420E+02  0.62499992140E+02  0.00000000000E+00 0. -1.
</event>
<event>
 4    1  0.1977762E-002  0.9118800E+02  0.7818608E-02  0.1130116E+00
         25   -1    0    0    0    0  0.00000000000E+00  0.00000000000E+00  0.99999998245E-14  0.12500000000E+03  0.12500000000E+03 0.  0.
        -11    1    1    0    0    0 -0.27901688275E+02  0.53689672131E+01  0.53077494657E+02  0.60204239526E+02  0.51100000000E-03 0. -1.
         11    1    1    0    0    0  0.60524138194E+01 -0.75295253281E+01 -0.29984479242E+01  0.10115144830E+02  0.51100000000E-03 0.  1.
         22    1    1    0    0    0  0.21849274456E+02  0.21605581150E+01 -0.50079046733E+02  0.54680615645E+02  0.00000000000E+00 0. -1.
</event>
<event>
 4    1  0.1977762E-002  0.9118800E+02  0.7818608E-02  0.1130116E+00
         25   -1    0    0    0    0  0.00000000000E+00  0.00000000000E+00  0.99999998245E-14  0.12500000000E+03  0.12500000000E+03 0.  0.
        -11    1    1    0    0    0  0.46616696359E+01 -0.28740582618E+01  0.10344454846E+02  0.11704662362E+02  0.51100000000E-03 0.  1.
         11    1    1    0    0    0  0.20169614859E+02 -0.13535660352E+02  0.44612244470E+02  0.50796454814E+02  0.51100000000E-03 0. -1.
         22    1    1    0    0    0 -0.24831284494E+02  0.16409718614E+02 -0.54956699316E+02  0.62498882825E+02  0.00000000000E+00 0. -1.
</event>
<event>
 4    1  0.1977762E-002  0.9118800E+02  0.7818608E-02  0.1130116E+00
         25   -1    0    0    0    0  0.00000000000E+00  0.00000000000E+00  0.99999998245E-14  0.12500000000E+03  0.12500000000E+03 0.  0.
        -11    1    1    0    0    0 -0.18731140245E+00  0.54913657986E+01 -0.96272261716E+00  0.55782630804E+01  0.51100000000E-03 0. -1.
         11    1    1    0    0    0 -0.19099742282E+01  0.56027591027E+02 -0.98663701894E+01  0.56921737665E+02  0.51100000000E-03 0.  1.
         22    1    1    0    0    0  0.20972856307E+01 -0.61518956825E+02  0.10829092807E+02  0.62499999255E+02  0.00000000000E+00 0.  1.
</event>
<event>
 4    1  0.1977762E-002  0.9118800E+02  0.7818608E-02  0.1130116E+00
         25   -1    0    0    0    0  0.00000000000E+00  0.00000000000E+00  0.99999998245E-14  0.12500000000E+03  0.12500000000E+03 0.  0.
        -11    1    1    0    0    0  0.11607063514E+01  0.11179976700E+02 -0.17764076298E+01  0.11379575676E+02  0.51100000000E-03 0.  1.
         11    1    1    0    0    0  0.52152428466E+01  0.50221846501E+02 -0.79915688018E+01  0.51120424451E+02  0.51100000000E-03 0. -1.
         22    1    1    0    0    0 -0.63759491979E+01 -0.61401823200E+02  0.97679764316E+01  0.62499999873E+02  0.00000000000E+00 0. -1.
</event>
<event>
 4    1  0.1977762E-002  0.9118800E+02  0.7818608E-02  0.1130116E+00
         25   -1    0    0    0    0  0.00000000000E+00  0.00000000000E+00  0.99999998245E-14  0.12500000000E+03  0.12500000000E+03 0.  0.
        -11    1    1    0    0    0 -0.11993948978E+02  0.21339150635E+01 -0.52065115089E+01  0.13248251505E+02  0.51100000000E-03 0.  1.
         11    1    1    0    0    0 -0.44483297625E+02  0.79484644703E+01 -0.19590812522E+02  0.49251820175E+02  0.51100000000E-03 0. -1.
         22    1    1    0    0    0  0.56477246603E+02 -0.10082379534E+02  0.24797324031E+02  0.62499928320E+02  0.00000000000E+00 0. -1.
</event>
<event>
 4    1  0.1977762E-002  0.9118800E+02  0.7818608E-02  0.1130116E+00
         25   -1    0    0    0    0  0.00000000000E+00  0.00000000000E+00  0.99999998245E-14  0.12500000000E+03  0.12500000000E+03 0.  0.
        -11    1    1    0    0    0  0.70837988800E+01 -0.13989372375E+02 -0.97547697487E+01  0.18467221749E+02  0.51100000000E-03 0.  1.
         11    1    1    0    0    0  0.16878450745E+02 -0.33360082367E+02 -0.23261736616E+02  0.44032778538E+02  0.51100000000E-03 0. -1.
         22    1    1    0    0    0 -0.23962249625E+02  0.47349454743E+02  0.33016506365E+02  0.62499999713E+02  0.00000000000E+00 0. -1.
</event>
<event>
 4    1  0.1977762E-002  0.9118800E+02  0.7818608E-02  0.1130116E+00
         25   -1    0    0    0    0  0.00000000000E+00  0.00000000000E+00  0.99999998245E-14  0.12500000000E+03  0.12500000000E+03 0.  0.
        -11    1    1    0    0    0 -0.23198224128E+02  0.47143545506E+02  0.16127290279E+02  0.54961449922E+02  0.51100000000E-03 0.  1.
         11    1    1    0    0    0 -0.31877430324E+01  0.64691349225E+01  0.21951012884E+01  0.75385596910E+01  0.51100000000E-03 0. -1.
         22    1    1    0    0    0  0.26385967160E+02 -0.53612680428E+02 -0.18322391567E+02  0.62499990387E+02  0.00000000000E+00 0.  1.
</event>
<event>
 4    1  0.1977762E-002  0.9118800E+02  0.7818608E-02  0.1130116E+00
         25   -1    0    0    0    0  0.00000000000E+00  0.00000000000E+00  0.99999998245E-14  0.12500000000E+03  0.12500000000E+03 0.  0.
        -11    1    1    0    0    0  0.12368178552E+02 -0.53660308549E+01  0.29324182499E+02  0.32274971841E+02  0.51100000000E-03 0.  1.
         11    1    1    0    0    0  0.11544472462E+02 -0.58502563855E+01  0.27317274862E+02  0.30228030871E+02  0.51100000000E-03 0. -1.
         22    1    1    0    0    0 -0.23912651013E+02  0.11216287240E+02 -0.56641457361E+02  0.62496997288E+02  0.00000000000E+00 0.  1.
</event>
<event>
 4    1  0.1977762E-002  0.9118800E+02  0.7818608E-02  0.1130116E+00
         25   -1    0    0    0    0  0.00000000000E+00  0.00000000000E+00  0.99999998245E-14  0.12500000000E+03  0.12500000000E+03 0.  0.
        -11    1    1    0    0    0  0.46126096311E+02  0.19498948094E+02 -0.32229969728E+02  0.59553309619E+02  0.51100000000E-03 0. -1.
         11    1    1    0    0    0 -0.56664500581E+00  0.38467765376E+00 -0.39220050586E+01  0.39813549704E+01  0.51100000000E-03 0.  1.
         22    1    1    0    0    0 -0.45559451306E+02 -0.19883625748E+02  0.36151974786E+02  0.61465335410E+02  0.00000000000E+00 0. -1.
</event>
<event>
 4    1  0.1977762E-002  0.9118800E+02  0.7818608E-02  0.1130116E+00
         25   -1    0    0    0    0  0.00000000000E+00  0.00000000000E+00  0.99999998245E-14  0.12500000000E+03  0.12500000000E+03 0.  0.
        -11    1    1    0    0    0  0.13801434570E+01 -0.12391007365E+01 -0.24402275085E+01  0.30651063850E+01  0.51100000000E-03 0.  1.
         11    1    1    0    0    0  0.26730558099E+02 -0.24033003846E+02 -0.47332849079E+02  0.59434893895E+02  0.51100000000E-03 0. -1.
         22    1    1    0    0    0 -0.28110701556E+02  0.25272104582E+02  0.49773076587E+02  0.62499999720E+02  0.00000000000E+00 0. -1.
</event>
<event>
 4    1  0.1977762E-002  0.9118800E+02  0.7818608E-02  0.1130116E+00
         25   -1    0    0    0    0  0.00000000000E+00  0.00000000000E+00  0.99999998245E-14  0.12500000000E+03  0.12500000000E+03 0.  0.
        -11    1    1    0    0    0  0.65859843771E+01  0.47352053256E+02  0.19088702861E+02  0.51477866263E+02  0.51100000000E-03 0. -1.
         11    1    1    0    0    0  0.15962619891E+01  0.10113549004E+02  0.40828959845E+01  0.11022793007E+02  0.51100000000E-03 0.  1.
         22    1    1    0    0    0 -0.81822463663E+01 -0.57465602260E+02 -0.23171598845E+02  0.62499340730E+02  0.00000000000E+00 0. -1.
</event>
<event>
 4    1  0.1977762E-002  0.9118800E+02  0.7818608E-02  0.1130116E+00
         25   -1    0    0    0    0  0.00000000000E+00  0.00000000000E+00  0.99999998245E-14  0.12500000000E+03  0.12500000000E+03 0.  0.
        -11    1    1    0    0    0 -0.43811211066E+01  0.34850830116E+01 -0.64753747664E+01  0.85598191789E+01  0.51100000000E-03 0.  1.
         11    1    1    0    0    0 -0.34501500683E+02  0.16396994176E+02 -0.38159985466E+02  0.53994439144E+02  0.51100000000E-03 0. -1.
         22    1    1    0    0    0  0.38882621790E+02 -0.19882077188E+02  0.44635360232E+02  0.62445741677E+02  0.00000000000E+00 0. -1.
</event>
<event>
 4    1  0.1977762E-002  0.9118800E+02  0.7818608E-02  0.1130116E+00
         25   -1    0    0    0    0  0.00000000000E+00  0.00000000000E+00  0.99999998245E-14  0.12500000000E+03  0.12500000000E+03 0.  0.
        -11    1    1    0    0    0  0.29741296757E+02  0.75336170747E+01  0.78840638524E+01  0.31677414385E+02  0.51100000000E-03 0. -1.
         11    1    1    0    0    0  0.28938581708E+02  0.73306736197E+01  0.76714729362E+01  0.30822585620E+02  0.51100000000E-03 0. -1.
         22    1    1    0    0    0 -0.58679878466E+02 -0.14864290694E+02 -0.15555536789E+02  0.62499999995E+02  0.00000000000E+00 0. -1.
</event>
<event>
 4    1  0.1977762E-002  0.9118800E+02  0.7818608E-02  0.1130116E+00
         25   -1    0    0    0    0  0.00000000000E+00  0.00000000000E+00  0.99999998245E-14  0.12500000000E+03  0.12500000000E+03 0.  0.
        -11    1    1    0    0    0 -0.63669369783E+01 -0.41411337117E+00 -0.18805003017E+01  0.66517409763E+01  0.51100000000E-03 0. -1.
         11    1    1    0    0    0 -0.53459253810E+02 -0.34921163785E+01 -0.15777875685E+02  0.55848259203E+02  0.51100000000E-03 0.  1.
         22    1    1    0    0    0  0.59826190788E+02  0.39062297497E+01  0.17658375987E+02  0.62499999820E+02  0.00000000000E+00 0.  1.
</event>
<event>
 4    1  0.1977762E-002  0.9118800E+02  0.7818608E-02  0.1130116E+00
         25   -1    0    0    0    0  0.00000000000E+00  0.00000000000E+00  0.99999998245E-14  0.12500000000E+03  0.12500000000E+03 0.  0.
        -11    1    1    0    0    0  0.47717677927E+01 -0.18497399605E+02  0.44576549290E+01  0.19616173116E+02  0.51100000000E-03 0.  1.
         11    1    1    0    0    0  0.10421480025E+02 -0.40438260150E+02  0.97551274193E+01  0.42883827267E+02  0.51100000000E-03 0. -1.
         22    1    1    0    0    0 -0.15193247817E+02  0.58935659755E+02 -0.14212782348E+02  0.62499999616E+02  0.00000000000E+00 0. -1.
</event>
<event>
 4    1  0.1977762E-002  0.9118800E+02  0.7818608E-02  0.1130116E+00
         25   -1    0    0    0    0  0.00000000000E+00  0.00000000000E+00  0.99999998245E-14  0.12500000000E+03  0.12500000000E+03 0.  0.
        -11    1    1    0    0    0  0.33491783136E+01  0.52761628698E+01 -0.52053649946E+01  0.81333089817E+01  0.51100000000E-03 0.  1.
         11    1    1    0    0    0  0.22410136155E+02  0.35310926702E+02 -0.34737036671E+02  0.54366694437E+02  0.51100000000E-03 0. -1.
         22    1    1    0    0    0 -0.25759314468E+02 -0.40587089572E+02  0.39942401666E+02  0.62499996581E+02  0.00000000000E+00 0. -1.
</event>
<event>
 4    1  0.1977762E-002  0.9118800E+02  0.7818608E-02  0.1130116E+00
         25   -1    0    0    0    0  0.00000000000E+00  0.00000000000E+00  0.99999998245E-14  0.12500000000E+03  0.12500000000E+03 0.  0.
        -11    1    1    0    0    0 -0.11159646300E+02  0.12320794431E+02 -0.97054041196E+00  0.16651775578E+02  0.51100000000E-03 0. -1.
         11    1    1    0    0    0 -0.31383023302E+02  0.32713067245E+02 -0.70596358481E+01  0.45878942650E+02  0.51100000000E-03 0.  1.
         22    1    1    0    0    0  0.42542669602E+02 -0.45033861676E+02  0.80301762601E+01  0.62469281772E+02  0.00000000000E+00 0.  1.
</event>
<event>
 4    1  0.1977762E-002  0.9118800E+02  0.7818608E-02  0.1130116E+00
         25   -1    0    0    0    0  0.00000000000E+00  0.00000000000E+00  0.99999998245E-14  0.12500000000E+03  0.12500000000E+03 0.  0.
        -11    1    1    0    0    0  0.15566390387E+02 -0.51125279070E+01  0.26822894957E+01  0.16602563913E+02  0.51100000000E-03 0.  1.
         11    1    1    0    0    0  0.43032838070E+02 -0.14133162128E+02  0.74164152925E+01  0.45897436095E+02  0.51100000000E-03 0. -1.
         22    1    1    0    0    0 -0.58599228456E+02  0.19245690035E+02 -0.10098704788E+02  0.62499999992E+02  0.00000000000E+00 0. -1.
</event>
<event>
 4    1  0.1977762E-002  0.9118800E+02  0.7818608E-02  0.1130116E+00
         25   -1    0    0    0    0  0.00000000000E+00  0.00000000000E+00  0.99999998245E-14  0.12500000000E+03  0.12500000000E+03 0.  0.
        -11    1    1    0    0    0 -0.91292237652E+01  0.93194376497E+01 -0.14941810175E+02  0.19835632993E+02  0.51100000000E-03 0. -1.
         11    1    1    0    0    0 -0.19717764157E+02  0.19968969136E+02 -0.32135653767E+02  0.42664390245E+02  0.51100000000E-03 0.  1.
         22    1    1    0    0    0  0.28846987922E+02 -0.29288406786E+02  0.47077463941E+02  0.62499976763E+02  0.00000000000E+00 0. -1.
</event>
<event>
 4    1  0.1977762E-002  0.9118800E+02  0.7818608E-02  0.1130116E+00
         25   -1    0    0    0    0  0.00000000000E+00  0.00000000000E+00  0.99999998245E-14  0.12500000000E+03  0.12500000000E+03 0.  0.
        -11    1    1    0    0    0 -0.17431575537E+02 -0.49714573431E+01 -0.21551117668E+02  0.28160715311E+02  0.51100000000E-03 0.  1.
         11    1    1    0    0    0 -0.21254740486E+02 -0.60626274610E+01 -0.26280544683E+02  0.34339284703E+02  0.51100000000E-03 0. -1.
         22    1    1    0    0    0  0.38686316023E+02  0.11034084804E+02  0.47831662351E+02  0.62499999985E+02  0.00000000000E+00 0.  1.
</event>
<event>
 4    1  0.1977762E-002  0.9118800E+02  0.7818608E-02  0.1130116E+00
         25   -1    0    0    0    0  0.00000000000E+00  0.00000000000E+00  0.99999998245E-14  0.12500000000E+03  0.12500000000E+03 0.  0.
        -11    1    1    0    0    0 -0.11704205193E+02  0.22536310036E+01  0.40842939134E+01  0.12599552727E+02  0.51100000000E-03 0.  1.
         11    1    1    0    0    0 -0.46433647284E+02  0.87251899848E+01  0.16057651822E+02  0.49900508241E+02  0.51100000000E-03 0. -1.
         22    1    1    0    0    0  0.58137852477E+02 -0.10978820988E+02 -0.20141945736E+02  0.62499939032E+02  0.00000000000E+00 0. -1.
</event>
<event>
 4    1  0.1977762E-002  0.9118800E+02  0.7818608E-02  0.1130116E+00
         25   -1    0    0    0    0  0.00000000000E+00  0.00000000000E+00  0.99999998245E-14  0.12500000000E+03  0.12500000000E+03 0.  0.
        -11    1    1    0    0    0 -0.57028363053E+00 -0.72654464420E+00  0.68541337573E+00  0.11501662036E+01  0.51100000000E-03 0. -1.
         11    1    1    0    0    0  0.13331910904E+02 -0.53789855716E+02  0.26708190787E+02  0.61517606274E+02  0.51100000000E-03 0.  1.
         22    1    1    0    0    0 -0.12761627274E+02  0.54516400360E+02 -0.27393604162E+02  0.62332227522E+02  0.00000000000E+00 0.  1.
</event>
<event>
 4    1  0.1977762E-002  0.9118800E+02  0.7818608E-02  0.1130116E+00
         25   -1    0    0    0    0  0.00000000000E+00  0.00000000000E+00  0.99999998245E-14  0.12500000000E+03  0.12500000000E+03 0.  0.
        -11    1    1    0    0    0 -0.20656790750E+02  0.58663167395E+01 -0.24891122949E+02  0.32873768845E+02  0.51100000000E-03 0.  1.
         11    1    1    0    0    0 -0.17872923568E+02  0.55752442196E+01 -0.22965863735E+02  0.29630316272E+02  0.51100000000E-03 0. -1.
         22    1    1    0    0    0  0.38529714318E+02 -0.11441560959E+02  0.47856986684E+02  0.62495914883E+02  0.00000000000E+00 0. -1.
</event>
<event>
 4    1  0.1977762E-002  0.9118800E+02  0.7818608E-02  0.1130116E+00
         25   -1    0    0    0    0  0.00000000000E+00  0.00000000000E+00  0.99999998245E-14  0.12500000000E+03  0.12500000000E+03 0.  0.
        -11    1    1    0    0    0  0.27204310666E+00 -0.28416970474E+00 -0.41437470987E-01  0.39557198852E+00  0.51100000000E-03 0. -1.
         11    1    1    0    0    0  0.20687456362E+02 -0.31088578343E+02 -0.49704254295E+02  0.62168991060E+02  0.51100000000E-03 0.  1.
         22    1    1    0    0    0 -0.20959499468E+02  0.31372748047E+02  0.49745691766E+02  0.62435436952E+02  0.00000000000E+00 0.  1.
</event>
<event>
 4    1  0.1977762E-002  0.9118800E+02  0.7818608E-02  0.1130116E+00
         25   -1    0    0    0    0  0.00000000000E+00  0.00000000000E+00  0.99999998245E-14  0.12500000000E+03  0.12500000000E+03 0.  0.
        -11    1    1    0    0    0 -0.42403820873E+02 -0.47664211387E+01  0.39788899089E+02  0.58343459669E+02  0.51100000000E-03 0.  1.
         11    1    1    0    0    0 -0.36584370877E+01  0.55466138947E+00  0.20989610428E+01  0.42541096486E+01  0.51100000000E-03 0. -1.
         22    1    1    0    0    0  0.46062257961E+02  0.42117597493E+01 -0.41887860132E+02  0.62402430683E+02  0.00000000000E+00 0.  1.
</event>
<event>
 4    1  0.1977762E-002  0.9118800E+02  0.7818608E-02  0.1130116E+00
         25   -1    0    0    0    0  0.00000000000E+00  0.00000000000E+00  0.99999998245E-14  0.12500000000E+03  0.12500000000E+03 0.  0.
        -11    1    1    0    0    0  0.25054251618E+02  0.19836768744E+02  0.15257727135E+02  0.35412019936E+02  0.51100000000E-03 0. -1.
         11    1    1    0    0    0  0.25840665401E+02  0.67814924800E+01  0.75932072377E+01  0.27773826259E+02  0.51100000000E-03 0.  1.
         22    1    1    0    0    0 -0.50894917019E+02 -0.26618261224E+02 -0.22850934373E+02  0.61814153806E+02  0.00000000000E+00 0.  1.
</event>
<event>
 4    1  0.1977762E-002  0.9118800E+02  0.7818608E-02  0.1130116E+00
         25   -1    0    0    0    0  0.00000000000E+00  0.00000000000E+00  0.99999998245E-14  0.12500000000E+03  0.12500000000E+03 0.  0.
        -11    1    1    0    0    0  0.36718833858E+02 -0.20651911344E+02 -0.38289607356E+02  0.56928624029E+02  0.51100000000E-03 0.  1.
         11    1    1    0    0    0  0.30276866742E+01 -0.25054529896E+01 -0.39842977974E+01  0.55963211559E+01  0.51100000000E-03 0. -1.
         22    1    1    0    0    0 -0.39746520532E+02  0.23157364334E+02  0.42273905154E+02  0.62475054816E+02  0.00000000000E+00 0.  1.
</event>
<event>
 4    1  0.1977762E-002  0.9118800E+02  0.7818608E-02  0.1130116E+00
         25   -1    0    0    0    0  0.00000000000E+00  0.00000000000E+00  0.99999998245E-14  0.12500000000E+03  0.12500000000E+03 0.  0.
        -11    1    1    0    0    0  0.45859952566E+01  0.51848481848E+02  0.29626651942E+02  0.59891860282E+02  0.51100000000E-03 0.  1.
         11    1    1    0    0    0  0.22004943551E+00  0.22466742933E+01  0.13064497260E+01  0.26082136189E+01  0.51100000000E-03 0. -1.
         22    1    1    0    0    0 -0.48060446922E+01 -0.54095156141E+02 -0.30933101669E+02  0.62499926099E+02  0.00000000000E+00 0.  1.
</event>
<event>
 4    1  0.1977762E-002  0.9118800E+02  0.7818608E-02  0.1130116E+00
         25   -1    0    0    0    0  0.00000000000E+00  0.00000000000E+00  0.99999998245E-14  0.12500000000E+03  0.12500000000E+03 0.  0.
        -11    1    1    0    0    0 -0.27743171880E+00  0.14660563867E+01  0.13878037030E+01  0.20377166306E+01  0.51100000000E-03 0.  1.
         11    1    1    0    0    0 -0.81339923942E+01  0.43491058146E+02  0.41207449742E+02  0.60462284819E+02  0.51100000000E-03 0. -1.
         22    1    1    0    0    0  0.84114241130E+01 -0.44957114533E+02 -0.42595253445E+02  0.62499998551E+02  0.00000000000E+00 0. -1.
</event>
<event>
 4    1  0.1977762E-002  0.9118800E+02  0.7818608E-02  0.1130116E+00
         25   -1    0    0    0    0  0.00000000000E+00  0.00000000000E+00  0.99999998245E-14  0.12500000000E+03  0.12500000000E+03 0.  0.
        -11    1    1    0    0    0  0.18892621835E+02 -0.48806616716E+00  0.70086037819E+00  0.18911916188E+02  0.51100000000E-03 0. -1.
         11    1    1    0    0    0  0.37892465061E+02  0.24545854066E+01  0.23143085450E+02  0.44468711498E+02  0.51100000000E-03 0.  1.
         22    1    1    0    0    0 -0.56785086896E+02 -0.19665192394E+01 -0.23843945828E+02  0.61619372314E+02  0.00000000000E+00 0.  1.
</event>
<event>
 4    1  0.1977762E-002  0.9118800E+02  0.7818608E-02  0.1130116E+00
         25   -1    0    0    0    0  0.00000000000E+00  0.00000000000E+00  0.99999998245E-14  0.12500000000E+03  0.12500000000E+03 0.  0.
        -11    1    1    0    0    0  0.24844280995E+01  0.14787217916E+02 -0.65864028457E+01  0.16377267763E+02  0.51100000000E-03 0. -1.
         11    1    1    0    0    0  0.70417287838E+01  0.41639772031E+02 -0.18543196658E+02  0.46122735192E+02  0.51100000000E-03 0.  1.
         22    1    1    0    0    0 -0.95261568834E+01 -0.56426989947E+02  0.25129599504E+02  0.62499997045E+02  0.00000000000E+00 0.  1.
</event>
<event>
 4    1  0.1977762E-002  0.9118800E+02  0.7818608E-02  0.1130116E+00
         25   -1    0    0    0    0  0.00000000000E+00  0.00000000000E+00  0.99999998245E-14  0.12500000000E+03  0.12500000000E+03 0.  0.
        -11    1    1    0    0    0  0.49057251741E+01 -0.94606128767E+01  0.91407625339E+01  0.14040045422E+02  0.51100000000E-03 0. -1.
         11    1    1    0    0    0  0.16951567983E+02 -0.32508781480E+02  0.31689039875E+02  0.48460001845E+02  0.51100000000E-03 0.  1.
         22    1    1    0    0    0 -0.21857293157E+02  0.41969394357E+02 -0.40829802409E+02  0.62499952733E+02  0.00000000000E+00 0.  1.
</event>
<event>
 4    1  0.1977762E-002  0.9118800E+02  0.7818608E-02  0.1130116E+00
         25   -1    0    0    0    0  0.00000000000E+00  0.00000000000E+00  0.99999998245E-14  0.12500000000E+03  0.12500000000E+03 0.  0.
        -11    1    1    0    0    0 -0.37634517840E+01  0.57964179471E+01  0.80265415403E+01  0.10591855348E+02  0.51100000000E-03 0.  1.
         11    1    1    0    0    0 -0.18428498789E+02  0.28420748324E+02  0.39333281272E+02  0.51908145014E+02  0.51100000000E-03 0. -1.
         22    1    1    0    0    0  0.22191950573E+02 -0.34217166271E+02 -0.47359822813E+02  0.62499999638E+02  0.00000000000E+00 0. -1.
</event>
<event>
 4    1  0.1977762E-002  0.9118800E+02  0.7818608E-02  0.1130116E+00
         25   -1    0    0    0    0  0.00000000000E+00  0.00000000000E+00  0.99999998245E-14  0.12500000000E+03  0.12500000000E+03 0.  0.
        -11    1    1    0    0    0  0.17594322525E+02 -0.23857816385E+02 -0.30967423214E+02  0.42868833534E+02  0.51100000000E-03 0.  1.
         11    1    1    0    0    0 -0.23547355922E+01 -0.10738972836E+02 -0.17497927650E+02  0.20665134638E+02  0.51100000000E-03 0. -1.
         22    1    1    0    0    0 -0.15239586933E+02  0.34596789221E+02  0.48465350865E+02  0.61466031828E+02  0.00000000000E+00 0.  1.
</event>
<event>
 4    1  0.1977762E-002  0.9118800E+02  0.7818608E-02  0.1130116E+00
         25   -1    0    0    0    0  0.00000000000E+00  0.00000000000E+00  0.99999998245E-14  0.12500000000E+03  0.12500000000E+03 0.  0.
        -11    1    1    0    0    0  0.64871348168E+01 -0.15835924377E+02  0.12986251559E+02  0.21482601072E+02  0.51100000000E-03 0.  1.
         11    1    1    0    0    0  0.14208492221E+02 -0.30198770213E+02  0.23860037111E+02  0.41026190961E+02  0.51100000000E-03 0. -1.
         22    1    1    0    0    0 -0.20695627038E+02  0.46034694590E+02 -0.36846288670E+02  0.62491207967E+02  0.00000000000E+00 0. -1.
</event>
<event>
 4    1  0.1977762E-002  0.9118800E+02  0.7818608E-02  0.1130116E+00
         25   -1    0    0    0    0  0.00000000000E+00  0.00000000000E+00  0.99999998245E-14  0.12500000000E+03  0.12500000000E+03 0.  0.
        -11    1    1    0    0    0  0.30273048692E+01  0.49350165797E+00  0.94565862683E+00  0.32097335025E+01  0.51100000000E-03 0. -1.
         11    1    1    0    0    0  0.56069151436E+02  0.90147867113E+01  0.17038930262E+02  0.59290313433E+02  0.51100000000E-03 0.  1.
         22    1    1    0    0    0 -0.59096456306E+02 -0.95082883693E+01 -0.17984588889E+02  0.62499953065E+02  0.00000000000E+00 0.  1.
</event>
<event>
 4    1  0.1977762E-002  0.9118800E+02  0.7818608E-02  0.1130116E+00
         25   -1    0    0    0    0  0.00000000000E+00  0.00000000000E+00  0.99999998245E-14  0.12500000000E+03  0.12500000000E+03 0.  0.
        -11    1    1    0    0    0  0.23720490056E+01  0.42613309068E+01 -0.33721817556E+01  0.59293479942E+01  0.51100000000E-03 0.  1.
         11    1    1    0    0    0  0.22562545260E+02  0.40785481418E+02 -0.32058015688E+02  0.56570666544E+02  0.51100000000E-03 0. -1.
         22    1    1    0    0    0 -0.24934594265E+02 -0.45046812325E+02  0.35430197444E+02  0.62499985462E+02  0.00000000000E+00 0. -1.
</event>
<event>
 4    1  0.1977762E-002  0.9118800E+02  0.7818608E-02  0.1130116E+00
         25   -1    0    0    0    0  0.00000000000E+00  0.00000000000E+00  0.99999998245E-14  0.12500000000E+03  0.12500000000E+03 0.  0.
        -11    1    1    0    0    0  0.25960113876E+00 -0.39379193563E+01 -0.42636356268E+00  0.39694316667E+01  0.51100000000E-03 0. -1.
         11    1    1    0    0    0  0.34186908949E+01 -0.58052616601E+02 -0.66364820613E+01  0.58530646982E+02  0.51100000000E-03 0.  1.
         22    1    1    0    0    0 -0.36782920337E+01  0.61990535958E+02  0.70628456240E+01  0.62499921351E+02  0.00000000000E+00 0.  1.
</event>
<event>
 4    1  0.1977762E-002  0.9118800E+02  0.7818608E-02  0.1130116E+00
         25   -1    0    0    0    0  0.00000000000E+00  0.00000000000E+00  0.99999998245E-14  0.12500000000E+03  0.12500000000E+03 0.  0.
        -11    1    1    0    0    0  0.30314533675E+02  0.45802894677E+01  0.34086873267E+01  0.30847514537E+02  0.51100000000E-03 0.  1.
         11    1    1    0    0    0  0.17998702189E+02  0.27367335622E+02  0.10843990306E+02  0.34503861604E+02  0.51100000000E-03 0. -1.
         22    1    1    0    0    0 -0.48313235864E+02 -0.31947625090E+02 -0.14252677633E+02  0.59648623859E+02  0.00000000000E+00 0.  1.
</event>
<event>
 4    1  0.1977762E-002  0.9118800E+02  0.7818608E-02  0.1130116E+00
         25   -1    0    0    0    0  0.00000000000E+00  0.00000000000E+00  0.99999998245E-14  0.12500000000E+03  0.12500000000E+03 0.  0.
        -11    1    1    0    0    0 -0.32531739796E+02 -0.23828057785E+02  0.21482929218E+02  0.45690334645E+02  0.51100000000E-03 0.  1.
         11    1    1    0    0    0 -0.11971170125E+02 -0.87646045930E+01  0.79017495834E+01  0.16809665510E+02  0.51100000000E-03 0. -1.
         22    1    1    0    0    0  0.44502909921E+02  0.32592662378E+02 -0.29384678801E+02  0.62499999844E+02  0.00000000000E+00 0.  1.
</event>
<event>
 4    1  0.1977762E-002  0.9118800E+02  0.7818608E-02  0.1130116E+00
         25   -1    0    0    0    0  0.00000000000E+00  0.00000000000E+00  0.99999998245E-14  0.12500000000E+03  0.12500000000E+03 0.  0.
        -11    1    1    0    0    0 -0.24406257412E+02  0.15965410223E+02 -0.31279615544E+02  0.42766506442E+02  0.51100000000E-03 0. -1.
         11    1    1    0    0    0 -0.11266081758E+02  0.73636453227E+01 -0.14431316944E+02  0.19733493852E+02  0.51100000000E-03 0.  1.
         22    1    1    0    0    0  0.35672339169E+02 -0.23329055545E+02  0.45710932487E+02  0.62499999706E+02  0.00000000000E+00 0. -1.
</event>
<event>
 4    1  0.1977762E-002  0.9118800E+02  0.7818608E-02  0.1130116E+00
         25   -1    0    0    0    0  0.00000000000E+00  0.00000000000E+00  0.99999998245E-14  0.12500000000E+03  0.12500000000E+03 0.  0.
        -11    1    1    0    0    0 -0.12068197742E+00 -0.41202456128E+00  0.34596836012E+01  0.34862213442E+01  0.51100000000E-03 0.  1.
         11    1    1    0    0    0 -0.20544674612E+01 -0.75989409566E+01  0.58486514488E+02  0.59013872246E+02  0.51100000000E-03 0. -1.
         22    1    1    0    0    0  0.21751494386E+01  0.80109655178E+01 -0.61946198089E+02  0.62499906410E+02  0.00000000000E+00 0. -1.
</event>
<event>
 4    1  0.1977762E-002  0.9118800E+02  0.7818608E-02  0.1130116E+00
         25   -1    0    0    0    0  0.00000000000E+00  0.00000000000E+00  0.99999998245E-14  0.12500000000E+03  0.12500000000E+03 0.  0.
        -11    1    1    0    0    0 -0.32527027041E+02  0.44118208129E+01 -0.46177986543E+00  0.32828111306E+02  0.51100000000E-03 0.  1.
         11    1    1    0    0    0 -0.29400643155E+02  0.39809884468E+01 -0.41821496382E+00  0.29671888901E+02  0.51100000000E-03 0. -1.
         22    1    1    0    0    0  0.61927670196E+02 -0.83928092597E+01  0.87999482924E+00  0.62499999793E+02  0.00000000000E+00 0.  1.
</event>
<event>
 4    1  0.1977762E-002  0.9118800E+02  0.7818608E-02  0.1130116E+00
         25   -1    0    0    0    0  0.00000000000E+00  0.00000000000E+00  0.99999998245E-14  0.12500000000E+03  0.12500000000E+03 0.  0.
        -11    1    1    0    0    0  0.84927341550E+01 -0.18867973279E+02  0.49200189630E+01  0.21268134284E+02  0.51100000000E-03 0. -1.
         11    1    1    0    0    0 -0.13008531144E+02 -0.40588243240E+02 -0.10341121458E+02  0.43858478828E+02  0.51100000000E-03 0.  1.
         22    1    1    0    0    0  0.45157969891E+01  0.59456216519E+02  0.54211024951E+01  0.59873386888E+02  0.00000000000E+00 0. -1.
</event>
<event>
 4    1  0.1977762E-002  0.9118800E+02  0.7818608E-02  0.1130116E+00
         25   -1    0    0    0    0  0.00000000000E+00  0.00000000000E+00  0.99999998245E-14  0.12500000000E+03  0.12500000000E+03 0.  0.
        -11    1    1    0    0    0 -0.27860336142E+01 -0.20823827779E+02 -0.29198059965E+02  0.35971106359E+02  0.51100000000E-03 0. -1.
         11    1    1    0    0    0 -0.39009597446E+01 -0.14715813192E+02 -0.21751389743E+02  0.26549870072E+02  0.51100000000E-03 0.  1.
         22    1    1    0    0    0  0.66869933588E+01  0.35539640972E+02  0.50949449708E+02  0.62479023569E+02  0.00000000000E+00 0. -1.
</event>
<event>
 4    1  0.1977762E-002  0.9118800E+02  0.7818608E-02  0.1130116E+00
         25   -1    0    0    0    0  0.00000000000E+00  0.00000000000E+00  0.99999998245E-14  0.12500000000E+03  0.12500000000E+03 0.  0.
        -11    1    1    0    0    0 -0.20049574396E+02 -0.13099130392E+02 -0.60784150054E+01  0.24708698463E+02  0.51100000000E-03 0. -1.
         11    1    1    0    0    0 -0.28368911349E+02 -0.22428627043E+02 -0.11097813760E+02  0.37828559485E+02  0.51100000000E-03 0.  1.
         22    1    1    0    0    0  0.48418485745E+02  0.35527757435E+02  0.17176228765E+02  0.62462742053E+02  0.00000000000E+00 0.  1.
</event>
<event>
 4    1  0.1977762E-002  0.9118800E+02  0.7818608E-02  0.1130116E+00
         25   -1    0    0    0    0  0.00000000000E+00  0.00000000000E+00  0.99999998245E-14  0.12500000000E+03  0.12500000000E+03 0.  0.
        -11    1    1    0    0    0  0.13810072665E+02  0.87897890395E+01  0.13224862104E+02  0.21044606822E+02  0.51100000000E-03 0.  1.
         11    1    1    0    0    0  0.34573259647E+02  0.15041950493E+02  0.17843444573E+02  0.41712816637E+02  0.51100000000E-03 0. -1.
         22    1    1    0    0    0 -0.48383332312E+02 -0.23831739532E+02 -0.31068306677E+02  0.62242576541E+02  0.00000000000E+00 0. -1.
</event>
<event>
 4    1  0.1977762E-002  0.9118800E+02  0.7818608E-02  0.1130116E+00
         25   -1    0    0    0    0  0.00000000000E+00  0.00000000000E+00  0.99999998245E-14  0.12500000000E+03  0.12500000000E+03 0.  0.
        -11    1    1    0    0    0  0.12672867244E+02 -0.43511949325E+01  0.54068256529E+01  0.14448813980E+02  0.51100000000E-03 0. -1.
         11    1    1    0    0    0 -0.35436080484E+02 -0.41791185403E+02  0.12266359807E+02  0.56148753865E+02  0.51100000000E-03 0.  1.
         22    1    1    0    0    0  0.22763213240E+02  0.46142380336E+02 -0.17673185460E+02  0.54402432155E+02  0.00000000000E+00 0.  1.
</event>
<event>
 4    1  0.1977762E-002  0.9118800E+02  0.7818608E-02  0.1130116E+00
         25   -1    0    0    0    0  0.00000000000E+00  0.00000000000E+00  0.99999998245E-14  0.12500000000E+03  0.12500000000E+03 0.  0.
        -11    1    1    0    0    0  0.80039759566E+01 -0.57698791271E+01  0.28815918375E+02  0.30458369758E+02  0.51100000000E-03 0. -1.
         11    1    1    0    0    0  0.89791821386E+01 -0.64521643137E+01  0.30075497987E+02  0.32043590867E+02  0.51100000000E-03 0.  1.
         22    1    1    0    0    0 -0.16983158095E+02  0.12222043441E+02 -0.58891416362E+02  0.62498039376E+02  0.00000000000E+00 0. -1.
</event>
<event>
 4    1  0.1977762E-002  0.9118800E+02  0.7818608E-02  0.1130116E+00
         25   -1    0    0    0    0  0.00000000000E+00  0.00000000000E+00  0.99999998245E-14  0.12500000000E+03  0.12500000000E+03 0.  0.
        -11    1    1    0    0    0 -0.30905652508E+02 -0.10765012083E+02  0.58666439118E+00  0.32732079333E+02  0.51100000000E-03 0.  1.
         11    1    1    0    0    0 -0.27956992088E+02 -0.10159402119E+02  0.12194377360E+01  0.29770688381E+02  0.51100000000E-03 0. -1.
         22    1    1    0    0    0  0.58862644596E+02  0.20924414202E+02 -0.18061021272E+01  0.62497232286E+02  0.00000000000E+00 0.  1.
</event>
<event>
 4    1  0.1977762E-002  0.9118800E+02  0.7818608E-02  0.1130116E+00
         25   -1    0    0    0    0  0.00000000000E+00  0.00000000000E+00  0.99999998245E-14  0.12500000000E+03  0.12500000000E+03 0.  0.
        -11    1    1    0    0    0  0.19218562114E+02 -0.28377557827E+01  0.20554813182E+01  0.19535377941E+02  0.51100000000E-03 0. -1.
         11    1    1    0    0    0  0.42146273851E+02 -0.66697894736E+01  0.50234236595E+01  0.42965442820E+02  0.51100000000E-03 0.  1.
         22    1    1    0    0    0 -0.61364835965E+02  0.95075452562E+01 -0.70789049777E+01  0.62499179239E+02  0.00000000000E+00 0. -1.
</event>
<event>
 4    1  0.1977762E-002  0.9118800E+02  0.7818608E-02  0.1130116E+00
         25   -1    0    0    0    0  0.00000000000E+00  0.00000000000E+00  0.99999998245E-14  0.12500000000E+03  0.12500000000E+03 0.  0.
        -11    1    1    0    0    0  0.23793823071E+02 -0.55660638213E+02  0.97146928064E+01  0.61307649760E+02  0.51100000000E-03 0.  1.
         11    1    1    0    0    0  0.45464499016E+00 -0.10878180660E+01  0.17818934149E+00  0.11923933556E+01  0.51100000000E-03 0. -1.
         22    1    1    0    0    0 -0.24248468061E+02  0.56748456279E+02 -0.98928821479E+01  0.62499956884E+02  0.00000000000E+00 0.  1.
</event>
<event>
 4    1  0.1977762E-002  0.9118800E+02  0.7818608E-02  0.1130116E+00
         25   -1    0    0    0    0  0.00000000000E+00  0.00000000000E+00  0.99999998245E-14  0.12500000000E+03  0.12500000000E+03 0.  0.
        -11    1    1    0    0    0  0.22684581616E+02  0.90554506657E+01  0.32117890603E+01  0.24635482927E+02  0.51100000000E-03 0. -1.
         11    1    1    0    0    0  0.34777895911E+02  0.14098961575E+02  0.50447173784E+01  0.37864652846E+02  0.51100000000E-03 0.  1.
         22    1    1    0    0    0 -0.57462477527E+02 -0.23154412241E+02 -0.82565064386E+01  0.62499864226E+02  0.00000000000E+00 0. -1.
</event>
<event>
 4    1  0.1977762E-002  0.9118800E+02  0.7818608E-02  0.1130116E+00
         25   -1    0    0    0    0  0.00000000000E+00  0.00000000000E+00  0.99999998245E-14  0.12500000000E+03  0.12500000000E+03 0.  0.
        -11    1    1    0    0    0 -0.10692338303E+02 -0.37352558946E+02  0.42414985372E+02  0.57520176830E+02  0.51100000000E-03 0. -1.
         11    1    1    0    0    0 -0.55783095530E+01 -0.47585730486E+01 -0.55775637677E+01  0.92125334611E+01  0.51100000000E-03 0.  1.
         22    1    1    0    0    0  0.16270647856E+02  0.42111131995E+02 -0.36837421604E+02  0.58267289709E+02  0.00000000000E+00 0. -1.
</event>
<event>
 4    1  0.1977762E-002  0.9118800E+02  0.7818608E-02  0.1130116E+00
         25   -1    0    0    0    0  0.00000000000E+00  0.00000000000E+00  0.99999998245E-14  0.12500000000E+03  0.12500000000E+03 0.  0.
        -11    1    1    0    0    0 -0.14844997045E+02 -0.84835298049E+01  0.31802047860E+02  0.36106986354E+02  0.51100000000E-03 0.  1.
         11    1    1    0    0    0 -0.20245008512E+02 -0.47870683871E+01  0.17329876077E+02  0.27075837909E+02  0.51100000000E-03 0. -1.
         22    1    1    0    0    0  0.35090005557E+02  0.13270598192E+02 -0.49131923937E+02  0.61817175737E+02  0.00000000000E+00 0.  1.
</event>
<event>
 4    1  0.1977762E-002  0.9118800E+02  0.7818608E-02  0.1130116E+00
         25   -1    0    0    0    0  0.00000000000E+00  0.00000000000E+00  0.99999998245E-14  0.12500000000E+03  0.12500000000E+03 0.  0.
        -11    1    1    0    0    0 -0.17409448727E+02  0.45690263768E+01  0.23797615579E+01  0.18155665020E+02  0.51100000000E-03 0.  1.
         11    1    1    0    0    0 -0.42553098277E+02  0.11104267613E+02  0.56878778828E+01  0.44344367029E+02  0.51100000000E-03 0. -1.
         22    1    1    0    0    0  0.59962547004E+02 -0.15673293989E+02 -0.80676394407E+01  0.62499967950E+02  0.00000000000E+00 0. -1.
</event>
<event>
 4    1  0.1977762E-002  0.9118800E+02  0.7818608E-02  0.1130116E+00
         25   -1    0    0    0    0  0.00000000000E+00  0.00000000000E+00  0.99999998245E-14  0.12500000000E+03  0.12500000000E+03 0.  0.
        -11    1    1    0    0    0 -0.15707105252E+02 -0.35180731741E+02 -0.34171324855E+02  0.51498315350E+02  0.51100000000E-03 0. -1.
         11    1    1    0    0    0  0.66856254883E+01 -0.42203943536E+01 -0.10573749238E+02  0.13202783414E+02  0.51100000000E-03 0.  1.
         22    1    1    0    0    0  0.90214797640E+01  0.39401126095E+02  0.44745074093E+02  0.60298901236E+02  0.00000000000E+00 0. -1.
</event>
<event>
 4    1  0.1977762E-002  0.9118800E+02  0.7818608E-02  0.1130116E+00
         25   -1    0    0    0    0  0.00000000000E+00  0.00000000000E+00  0.99999998245E-14  0.12500000000E+03  0.12500000000E+03 0.  0.
        -11    1    1    0    0    0 -0.88392184306E+01 -0.30588882514E+01 -0.33063042444E+01  0.99206969421E+01  0.51100000000E-03 0.  1.
         11    1    1    0    0    0 -0.38883840532E+02 -0.36173594057E+02  0.44018609813E+01  0.53290321278E+02  0.51100000000E-03 0. -1.
         22    1    1    0    0    0  0.47723058963E+02  0.39232482309E+02 -0.10955567370E+01  0.61788981780E+02  0.00000000000E+00 0. -1.
</event>
<event>
 4    1  0.1977762E-002  0.9118800E+02  0.7818608E-02  0.1130116E+00
         25   -1    0    0    0    0  0.00000000000E+00  0.00000000000E+00  0.99999998245E-14  0.12500000000E+03  0.12500000000E+03 0.  0.
        -11    1    1    0    0    0 -0.38458882194E+00 -0.13127599258E+02 -0.18874933968E+02  0.22994453753E+02  0.51100000000E-03 0.  1.
         11    1    1    0    0    0 -0.66681468057E+00 -0.22537752573E+02 -0.32439071015E+02  0.39505547223E+02  0.51100000000E-03 0. -1.
         22    1    1    0    0    0  0.10514035025E+01  0.35665351831E+02  0.51314004983E+02  0.62499999023E+02  0.00000000000E+00 0. -1.
</event>
<event>
 4    1  0.1977762E-002  0.9118800E+02  0.7818608E-02  0.1130116E+00
         25   -1    0    0    0    0  0.00000000000E+00  0.00000000000E+00  0.99999998245E-14  0.12500000000E+03  0.12500000000E+03 0.  0.
        -11    1    1    0    0    0  0.28869319888E+02  0.22817618043E+01 -0.17043742599E+02  0.33602577725E+02  0.51100000000E-03 0. -1.
         11    1    1    0    0    0  0.24825037166E+02  0.19444056483E+01 -0.14662807562E+02  0.28897423925E+02  0.51100000000E-03 0.  1.
         22    1    1    0    0    0 -0.53694357054E+02 -0.42261674525E+01  0.31706550160E+02  0.62499998351E+02  0.00000000000E+00 0. -1.
</event>
<event>
 4    1  0.1977762E-002  0.9118800E+02  0.7818608E-02  0.1130116E+00
         25   -1    0    0    0    0  0.00000000000E+00  0.00000000000E+00  0.99999998245E-14  0.12500000000E+03  0.12500000000E+03 0.  0.
        -11    1    1    0    0    0 -0.24991645130E+02 -0.17750986469E+02 -0.48928790997E+02  0.57738257989E+02  0.51100000000E-03 0.  1.
         11    1    1    0    0    0 -0.20618660032E+01 -0.16275544481E+01 -0.39734231400E+01  0.47632254416E+01  0.51100000000E-03 0. -1.
         22    1    1    0    0    0  0.27053511133E+02  0.19378540917E+02  0.52902214138E+02  0.62498516569E+02  0.00000000000E+00 0.  1.
</event>
<event>
 4    1  0.1977762E-002  0.9118800E+02  0.7818608E-02  0.1130116E+00
         25   -1    0    0    0    0  0.00000000000E+00  0.00000000000E+00  0.99999998245E-14  0.12500000000E+03  0.12500000000E+03 0.  0.
        -11    1    1    0    0    0 -0.26042134973E+01 -0.13643999117E+02  0.33020868410E+02  0.35823433541E+02  0.51100000000E-03 0. -1.
         11    1    1    0    0    0 -0.19748847006E+01 -0.10174761391E+02  0.24580758840E+02  0.26676574824E+02  0.51100000000E-03 0.  1.
         22    1    1    0    0    0  0.45790981979E+01  0.23818760508E+02 -0.57601627250E+02  0.62499991635E+02  0.00000000000E+00 0.  1.
</event>
<event>
 4    1  0.1977762E-002  0.9118800E+02  0.7818608E-02  0.1130116E+00
         25   -1    0    0    0    0  0.00000000000E+00  0.00000000000E+00  0.99999998245E-14  0.12500000000E+03  0.12500000000E+03 0.  0.
        -11    1    1    0    0    0 -0.39370739086E+00 -0.49394620732E+00 -0.28721735410E+01  0.29408110235E+01  0.51100000000E-03 0. -1.
         11    1    1    0    0    0 -0.79627150986E+01 -0.98907596325E+01 -0.58189907625E+02  0.59559191629E+02  0.51100000000E-03 0.  1.
         22    1    1    0    0    0  0.83564224895E+01  0.10384705840E+02  0.61062081166E+02  0.62499997348E+02  0.00000000000E+00 0.  1.
</event>
<event>
 4    1  0.1977762E-002  0.9118800E+02  0.7818608E-02  0.1130116E+00
         25   -1    0    0    0    0  0.00000000000E+00  0.00000000000E+00  0.99999998245E-14  0.12500000000E+03  0.12500000000E+03 0.  0.
        -11    1    1    0    0    0 -0.21199678785E+02 -0.50825482686E+02  0.62592249448E+01  0.55424128031E+02  0.51100000000E-03 0. -1.
         11    1    1    0    0    0 -0.32722883542E+01 -0.61950818953E+01  0.10956007625E+01  0.70913505099E+01  0.51100000000E-03 0.  1.
         22    1    1    0    0    0  0.24471967139E+02  0.57020564581E+02 -0.73548257073E+01  0.62484521459E+02  0.00000000000E+00 0. -1.
</event>
<event>
 4    1  0.1977762E-002  0.9118800E+02  0.7818608E-02  0.1130116E+00
         25   -1    0    0    0    0  0.00000000000E+00  0.00000000000E+00  0.99999998245E-14  0.12500000000E+03  0.12500000000E+03 0.  0.
        -11    1    1    0    0    0  0.48737554987E+01 -0.11357089261E+02  0.27065098035E+02  0.29753260343E+02  0.51100000000E-03 0.  1.
         11    1    1    0    0    0  0.54374597632E+01 -0.12508772234E+02  0.29771042582E+02  0.32746760575E+02  0.51100000000E-03 0. -1.
         22    1    1    0    0    0 -0.10311215262E+02  0.23865861495E+02 -0.56836140617E+02  0.62499979082E+02  0.00000000000E+00 0. -1.
</event>
<event>
 4    1  0.1977762E-002  0.9118800E+02  0.7818608E-02  0.1130116E+00
         25   -1    0    0    0    0  0.00000000000E+00  0.00000000000E+00  0.99999998245E-14  0.12500000000E+03  0.12500000000E+03 0.  0.
        -11    1    1    0    0    0 -0.32812583107E+01  0.31010649145E+01  0.50363668116E+01  0.67637453107E+01  0.51100000000E-03 0. -1.
         11    1    1    0    0    0 -0.30248402392E+02  0.14432120905E+02  0.44621295036E+02  0.55806020572E+02  0.51100000000E-03 0.  1.
         22    1    1    0    0    0  0.33529660702E+02 -0.17533185820E+02 -0.49657661848E+02  0.62430234118E+02  0.00000000000E+00 0.  1.
</event>
<event>
 4    1  0.1977762E-002  0.9118800E+02  0.7818608E-02  0.1130116E+00
         25   -1    0    0    0    0  0.00000000000E+00  0.00000000000E+00  0.99999998245E-14  0.12500000000E+03  0.12500000000E+03 0.  0.
        -11    1    1    0    0    0  0.10568198705E+02  0.17689516988E+02  0.43729560340E+02  0.48341289628E+02  0.51100000000E-03 0.  1.
         11    1    1    0    0    0  0.32336359252E+01  0.51460859037E+01  0.12788217267E+02  0.14158993699E+02  0.51100000000E-03 0. -1.
         22    1    1    0    0    0 -0.13801834630E+02 -0.22835602892E+02 -0.56517777607E+02  0.62499716673E+02  0.00000000000E+00 0.  1.
</event>
<event>
 4    1  0.1977762E-002  0.9118800E+02  0.7818608E-02  0.1130116E+00
         25   -1    0    0    0    0  0.00000000000E+00  0.00000000000E+00  0.99999998245E-14  0.12500000000E+03  0.12500000000E+03 0.  0.
        -11    1    1    0    0    0 -0.25647693926E+02 -0.11904331356E+02  0.34012755179E+02  0.44231039146E+02  0.51100000000E-03 0. -1.
         11    1    1    0    0    0 -0.10593231661E+02 -0.49172960029E+01  0.14048436699E+02  0.18268960861E+02  0.51100000000E-03 0. -1.
         22    1    1    0    0    0  0.36240925587E+02  0.16821627359E+02 -0.48061191878E+02  0.62499999993E+02  0.00000000000E+00 0. -1.
</event>
<event>
 4    1  0.1977762E-002  0.9118800E+02  0.7818608E-02  0.1130116E+00
         25   -1    0    0    0    0  0.00000000000E+00  0.00000000000E+00  0.99999998245E-14  0.12500000000E+03  0.12500000000E+03 0.  0.
        -11    1    1    0    0    0 -0.28621823115E+02 -0.34186509030E+02 -0.17793690138E+02  0.48005640992E+02  0.51100000000E-03 0. -1.
         11    1    1    0    0    0 -0.86412380999E+01 -0.10320807903E+02 -0.53755349063E+01  0.14494359160E+02  0.51100000000E-03 0. -1.
         22    1    1    0    0    0  0.37263061215E+02  0.44507316934E+02  0.23169225044E+02  0.62499999847E+02  0.00000000000E+00 0. -1.
</event>
<event>
 4    1  0.1977762E-002  0.9118800E+02  0.7818608E-02  0.1130116E+00
         25   -1    0    0    0    0  0.00000000000E+00  0.00000000000E+00  0.99999998245E-14  0.12500000000E+03  0.12500000000E+03 0.  0.
        -11    1    1    0    0    0  0.30037535147E+02  0.61738019817E+01  0.20299465100E+02  0.36775503154E+02  0.51100000000E-03 0.  1.
         11    1    1    0    0    0  0.21001990808E+02  0.43263025735E+01  0.14210886925E+02  0.25724498427E+02  0.51100000000E-03 0. -1.
         22    1    1    0    0    0 -0.51039525955E+02 -0.10500104555E+02 -0.34510352025E+02  0.62499998419E+02  0.00000000000E+00 0. -1.
</event>
<event>
 4    1  0.1977762E-002  0.9118800E+02  0.7818608E-02  0.1130116E+00
         25   -1    0    0    0    0  0.00000000000E+00  0.00000000000E+00  0.99999998245E-14  0.12500000000E+03  0.12500000000E+03 0.  0.
        -11    1    1    0    0    0  0.59510488780E+01 -0.27984688157E+02  0.12849557316E+02  0.31363495938E+02  0.51100000000E-03 0.  1.
         11    1    1    0    0    0  0.58714212616E+01 -0.27780016549E+02  0.12778084004E+02  0.31136511336E+02  0.51100000000E-03 0. -1.
         22    1    1    0    0    0 -0.11822470140E+02  0.55764704706E+02 -0.25627641320E+02  0.62499992726E+02  0.00000000000E+00 0.  1.
</event>
<event>
 4    1  0.1977762E-002  0.9118800E+02  0.7818608E-02  0.1130116E+00
         25   -1    0    0    0    0  0.00000000000E+00  0.00000000000E+00  0.99999998245E-14  0.12500000000E+03  0.12500000000E+03 0.  0.
        -11    1    1    0    0    0 -0.27956219390E+02 -0.32637361266E+02 -0.15431612331E+01  0.43001498809E+02  0.51100000000E-03 0.  1.
         11    1    1    0    0    0 -0.12687873839E+02 -0.14785160183E+02 -0.78157547251E+00  0.19498563144E+02  0.51100000000E-03 0. -1.
         22    1    1    0    0    0  0.40644093229E+02  0.47422521449E+02  0.23247367056E+01  0.62499938046E+02  0.00000000000E+00 0.  1.
</event>
<event>
 4    1  0.1977762E-002  0.9118800E+02  0.7818608E-02  0.1130116E+00
         25   -1    0    0    0    0  0.00000000000E+00  0.00000000000E+00  0.99999998245E-14  0.12500000000E+03  0.12500000000E+03 0.  0.
        -11    1    1    0    0    0  0.59601748831E+00  0.72892782332E+00 -0.97627197825E+00  0.13563479843E+01  0.51100000000E-03 0. -1.
         11    1    1    0    0    0  0.26819573052E+02  0.32873589920E+02 -0.44029351648E+02  0.61143652325E+02  0.51100000000E-03 0.  1.
         22    1    1    0    0    0 -0.27415590540E+02 -0.33602517743E+02  0.45005623626E+02  0.62499999690E+02  0.00000000000E+00 0.  1.
</event>
<event>
 4    1  0.1977762E-002  0.9118800E+02  0.7818608E-02  0.1130116E+00
         25   -1    0    0    0    0  0.00000000000E+00  0.00000000000E+00  0.99999998245E-14  0.12500000000E+03  0.12500000000E+03 0.  0.
        -11    1    1    0    0    0 -0.92065728325E-01  0.26507075532E+00 -0.38137401057E+00  0.47348178499E+00  0.51100000000E-03 0. -1.
         11    1    1    0    0    0 -0.11153437085E+02  0.34507927898E+02 -0.50319941549E+02  0.62026548868E+02  0.51100000000E-03 0.  1.
         22    1    1    0    0    0  0.11245502813E+02 -0.34772998654E+02  0.50701315560E+02  0.62499969347E+02  0.00000000000E+00 0.  1.
</event>
<event>
 4    1  0.1977762E-002  0.9118800E+02  0.7818608E-02  0.1130116E+00
         25   -1    0    0    0    0  0.00000000000E+00  0.00000000000E+00  0.99999998245E-14  0.12500000000E+03  0.12500000000E+03 0.  0.
        -11    1    1    0    0    0 -0.12878857239E+01 -0.72623960259E+00 -0.51117394206E+00  0.15644080856E+01  0.51100000000E-03 0.  1.
         11    1    1    0    0    0 -0.50037270176E+02 -0.27337019433E+02 -0.21497636165E+02  0.60935945050E+02  0.51100000000E-03 0. -1.
         22    1    1    0    0    0  0.51325155900E+02  0.28063259036E+02  0.22008810107E+02  0.62499646865E+02  0.00000000000E+00 0. -1.
</event>
<event>
 4    1  0.1977762E-002  0.9118800E+02  0.7818608E-02  0.1130116E+00
         25   -1    0    0    0    0  0.00000000000E+00  0.00000000000E+00  0.99999998245E-14  0.12500000000E+03  0.12500000000E+03 0.  0.
        -11    1    1    0    0    0  0.51663947878E+01 -0.10768762146E+02  0.56938164791E+02  0.58177422453E+02  0.51100000000E-03 0.  1.
         11    1    1    0    0    0  0.32273144527E+00 -0.50328541605E+00  0.42861905395E+01  0.43276877658E+01  0.51100000000E-03 0. -1.
         22    1    1    0    0    0 -0.54891262330E+01  0.11272047563E+02 -0.61224355331E+02  0.62494889781E+02  0.00000000000E+00 0.  1.
</event>
<event>
 4    1  0.1977762E-002  0.9118800E+02  0.7818608E-02  0.1130116E+00
         25   -1    0    0    0    0  0.00000000000E+00  0.00000000000E+00  0.99999998245E-14  0.12500000000E+03  0.12500000000E+03 0.  0.
        -11    1    1    0    0    0 -0.22006792784E+02  0.33386251639E+02 -0.11793137102E+02  0.41689552769E+02  0.51100000000E-03 0.  1.
         11    1    1    0    0    0  0.11170843676E+02  0.15888604307E+02  0.24517378495E+02  0.31278384610E+02  0.51100000000E-03 0. -1.
         22    1    1    0    0    0  0.10835949108E+02 -0.49274855946E+02 -0.12724241394E+02  0.52032062621E+02  0.00000000000E+00 0. -1.
</event>
<event>
 4    1  0.1977762E-002  0.9118800E+02  0.7818608E-02  0.1130116E+00
         25   -1    0    0    0    0  0.00000000000E+00  0.00000000000E+00  0.99999998245E-14  0.12500000000E+03  0.12500000000E+03 0.  0.
        -11    1    1    0    0    0  0.35144836033E+01  0.35029553194E+00 -0.79320337831E+01  0.86828257011E+01  0.51100000000E-03 0.  1.
         11    1    1    0    0    0  0.21775117640E+02  0.21788469028E+01 -0.49166911002E+02  0.53817174394E+02  0.51100000000E-03 0.  1.
         22    1    1    0    0    0 -0.25289601243E+02 -0.25291424347E+01  0.57098944785E+02  0.62499999905E+02  0.00000000000E+00 0.  1.
</event>
<event>
 4    1  0.1977762E-002  0.9118800E+02  0.7818608E-02  0.1130116E+00
         25   -1    0    0    0    0  0.00000000000E+00  0.00000000000E+00  0.99999998245E-14  0.12500000000E+03  0.12500000000E+03 0.  0.
        -11    1    1    0    0    0 -0.18501629118E+02 -0.35159337576E+02  0.25636076166E+02  0.47283165083E+02  0.51100000000E-03 0. -1.
         11    1    1    0    0    0 -0.75500133182E+01 -0.95645189512E+01  0.92506487233E+01  0.15298928915E+02  0.51100000000E-03 0.  1.
         22    1    1    0    0    0  0.26051642436E+02  0.44723856527E+02 -0.34886724889E+02  0.62417906003E+02  0.00000000000E+00 0. -1.
</event>
<event>
 4    1  0.1977762E-002  0.9118800E+02  0.7818608E-02  0.1130116E+00
         25   -1    0    0    0    0  0.00000000000E+00  0.00000000000E+00  0.99999998245E-14  0.12500000000E+03  0.12500000000E+03 0.  0.
        -11    1    1    0    0    0 -0.11796480551E+02 -0.53984908733E+02  0.14609036417E+02  0.57157250368E+02  0.51100000000E-03 0.  1.
         11    1    1    0    0    0  0.11415829660E+01 -0.50110313534E+01 -0.49194038428E+01  0.71143644356E+01  0.51100000000E-03 0. -1.
         22    1    1    0    0    0  0.10654897585E+02  0.58995940086E+02 -0.96896325739E+01  0.60728385197E+02  0.00000000000E+00 0.  1.
</event>
<event>
 4    1  0.1977762E-002  0.9118800E+02  0.7818608E-02  0.1130116E+00
         25   -1    0    0    0    0  0.00000000000E+00  0.00000000000E+00  0.99999998245E-14  0.12500000000E+03  0.12500000000E+03 0.  0.
        -11    1    1    0    0    0 -0.21183338571E+02  0.22895867846E+02 -0.14390596456E+02  0.34351766535E+02  0.51100000000E-03 0. -1.
         11    1    1    0    0    0 -0.17582980830E+02  0.18260564946E+02 -0.12241402622E+02  0.28150690674E+02  0.51100000000E-03 0.  1.
         22    1    1    0    0    0  0.38766319401E+02 -0.41156432792E+02  0.26631999078E+02  0.62497542791E+02  0.00000000000E+00 0.  1.
</event>
<event>
 4    1  0.1977762E-002  0.9118800E+02  0.7818608E-02  0.1130116E+00
         25   -1    0    0    0    0  0.00000000000E+00  0.00000000000E+00  0.99999998245E-14  0.12500000000E+03  0.12500000000E+03 0.  0.
        -11    1    1    0    0    0  0.18713146977E+02 -0.41458102269E+02  0.20194445778E+02  0.49767175468E+02  0.51100000000E-03 0. -1.
         11    1    1    0    0    0  0.47904249134E+01 -0.10606063340E+02  0.51660500816E+01  0.12732824672E+02  0.51100000000E-03 0.  1.
         22    1    1    0    0    0 -0.23503571890E+02  0.52064165609E+02 -0.25360495860E+02  0.62499999860E+02  0.00000000000E+00 0. -1.
</event>
<event>
 4    1  0.1977762E-002  0.9118800E+02  0.7818608E-02  0.1130116E+00
         25   -1    0    0    0    0  0.00000000000E+00  0.00000000000E+00  0.99999998245E-14  0.12500000000E+03  0.12500000000E+03 0.  0.
        -11    1    1    0    0    0 -0.25273536970E+01  0.51538982834E+00  0.10724037460E+02  0.11029874120E+02  0.51100000000E-03 0.  1.
         11    1    1    0    0    0 -0.11794918833E+02  0.24044123976E+01  0.50042707256E+02  0.51470125889E+02  0.51100000000E-03 0.  1.
         22    1    1    0    0    0  0.14322272530E+02 -0.29198022259E+01 -0.60766744717E+02  0.62499999991E+02  0.00000000000E+00 0.  1.
</event>
<event>
 4    1  0.1977762E-002  0.9118800E+02  0.7818608E-02  0.1130116E+00
         25   -1    0    0    0    0  0.00000000000E+00  0.00000000000E+00  0.99999998245E-14  0.12500000000E+03  0.12500000000E+03 0.  0.
        -11    1    1    0    0    0 -0.13941683419E+02  0.23894847803E+02 -0.51300900749E+01  0.28136313058E+02  0.51100000000E-03 0. -1.
         11    1    1    0    0    0 -0.17030833041E+02  0.29183312042E+02 -0.62568381875E+01  0.34363687232E+02  0.51100000000E-03 0.  1.
         22    1    1    0    0    0  0.30972516461E+02 -0.53078159845E+02  0.11386928262E+02  0.62499999709E+02  0.00000000000E+00 0.  1.
</event>
<event>
 4    1  0.1977762E-002  0.9118800E+02  0.7818608E-02  0.1130116E+00
         25   -1    0    0    0    0  0.00000000000E+00  0.00000000000E+00  0.99999998245E-14  0.12500000000E+03  0.12500000000E+03 0.  0.
        -11    1    1    0    0    0 -0.43636029869E+02  0.20697487286E+02 -0.36874263415E+02  0.60763479043E+02  0.51100000000E-03 0.  1.
         11    1    1    0    0    0 -0.12533963689E+01  0.10959738237E+01 -0.66498014810E+00  0.17928636140E+01  0.51100000000E-03 0. -1.
         22    1    1    0    0    0  0.44889426238E+02 -0.21793461110E+02  0.37539243563E+02  0.62443657343E+02  0.00000000000E+00 0.  1.
</event>
<event>
 4    1  0.1977762E-002  0.9118800E+02  0.7818608E-02  0.1130116E+00
         25   -1    0    0    0    0  0.00000000000E+00  0.00000000000E+00  0.99999998245E-14  0.12500000000E+03  0.12500000000E+03 0.  0.
        -11    1    1    0    0    0 -0.46492109291E+02 -0.19750580752E+02 -0.13662966309E+02  0.52328561179E+02  0.51100000000E-03 0. -1.
         11    1    1    0    0    0 -0.90079873353E+01 -0.39091267394E+01 -0.26524464333E+01  0.10171557405E+02  0.51100000000E-03 0.  1.
         22    1    1    0    0    0  0.55500096627E+02  0.23659707491E+02  0.16315412742E+02  0.62499881417E+02  0.00000000000E+00 0. -1.
</event>
<event>
 4    1  0.1977762E-002  0.9118800E+02  0.7818608E-02  0.1130116E+00
         25   -1    0    0    0    0  0.00000000000E+00  0.00000000000E+00  0.99999998245E-14  0.12500000000E+03  0.12500000000E+03 0.  0.
        -11    1    1    0    0    0 -0.38978031084E+02  0.11466498972E+01 -0.12772638536E+02  0.41033425504E+02  0.51100000000E-03 0. -1.
         11    1    1    0    0    0 -0.20385360581E+02  0.62298153641E+00 -0.66979892128E+01  0.21466580813E+02  0.51100000000E-03 0.  1.
         22    1    1    0    0    0  0.59363391665E+02 -0.17696314336E+01  0.19470627749E+02  0.62499993683E+02  0.00000000000E+00 0. -1.
</event>
<event>
 4    1  0.1977762E-002  0.9118800E+02  0.7818608E-02  0.1130116E+00
         25   -1    0    0    0    0  0.00000000000E+00  0.00000000000E+00  0.99999998245E-14  0.12500000000E+03  0.12500000000E+03 0.  0.
        -11    1    1    0    0    0 -0.82619676315E+01 -0.25397162144E+02 -0.44750393317E+02  0.52114044714E+02  0.51100000000E-03 0. -1.
         11    1    1    0    0    0  0.30675551614E+01 -0.37142386013E+01 -0.97527103059E+01  0.10877537480E+02  0.51100000000E-03 0.  1.
         22    1    1    0    0    0  0.51944124701E+01  0.29111400745E+02  0.54503103623E+02  0.62008417806E+02  0.00000000000E+00 0.  1.
</event>
<event>
 4    1  0.1977762E-002  0.9118800E+02  0.7818608E-02  0.1130116E+00
         25   -1    0    0    0    0  0.00000000000E+00  0.00000000000E+00  0.99999998245E-14  0.12500000000E+03  0.12500000000E+03 0.  0.
        -11    1    1    0    0    0  0.34389986681E+01  0.53216480337E+01 -0.28831512009E+01  0.69612650245E+01  0.51100000000E-03 0.  1.
         11    1    1    0    0    0  0.27508551064E+02  0.42401722572E+02 -0.23020102055E+02  0.55538739251E+02  0.51100000000E-03 0. -1.
         22    1    1    0    0    0 -0.30947549732E+02 -0.47723370605E+02  0.25903253256E+02  0.62499995725E+02  0.00000000000E+00 0. -1.
</event>
<event>
 4    1  0.1977762E-002  0.9118800E+02  0.7818608E-02  0.1130116E+00
         25   -1    0    0    0    0  0.00000000000E+00  0.00000000000E+00  0.99999998245E-14  0.12500000000E+03  0.12500000000E+03 0.  0.
        -11    1    1    0    0    0 -0.58198075063E+01  0.83659412565E+01 -0.77815989435E+01  0.12822340461E+02  0.51100000000E-03 0. -1.
         11    1    1    0    0    0 -0.22552836515E+02  0.32409327776E+02 -0.30147552131E+02  0.49677659582E+02  0.51100000000E-03 0.  1.
         22    1    1    0    0    0  0.28372644022E+02 -0.40775269032E+02  0.37929151075E+02  0.62499999957E+02  0.00000000000E+00 0.  1.
</event>
<event>
 4    1  0.1977762E-002  0.9118800E+02  0.7818608E-02  0.1130116E+00
         25   -1    0    0    0    0  0.00000000000E+00  0.00000000000E+00  0.99999998245E-14  0.12500000000E+03  0.12500000000E+03 0.  0.
        -11    1    1    0    0    0  0.33655375131E+02 -0.21211780568E+02  0.13416836859E+02  0.41983751877E+02  0.51100000000E-03 0.  1.
         11    1    1    0    0    0  0.14386451886E+02 -0.12409000364E+02  0.79663891708E+01  0.20601374823E+02  0.51100000000E-03 0. -1.
         22    1    1    0    0    0 -0.48041827017E+02  0.33620780933E+02 -0.21383226030E+02  0.62414873300E+02  0.00000000000E+00 0.  1.
</event>
<event>
 4    1  0.1977762E-002  0.9118800E+02  0.7818608E-02  0.1130116E+00
         25   -1    0    0    0    0  0.00000000000E+00  0.00000000000E+00  0.99999998245E-14  0.12500000000E+03  0.12500000000E+03 0.  0.
        -11    1    1    0    0    0 -0.18241435384E+02 -0.42231672693E+02  0.16284206033E+02  0.48799994976E+02  0.51100000000E-03 0. -1.
         11    1    1    0    0    0 -0.56503115777E+01 -0.11671609605E+02  0.44348161331E+01  0.13704746845E+02  0.51100000000E-03 0.  1.
         22    1    1    0    0    0  0.23891746961E+02  0.53903282298E+02 -0.20719022166E+02  0.62495258179E+02  0.00000000000E+00 0. -1.
</event>
<event>
 4    1  0.1977762E-002  0.9118800E+02  0.7818608E-02  0.1130116E+00
         25   -1    0    0    0    0  0.00000000000E+00  0.00000000000E+00  0.99999998245E-14  0.12500000000E+03  0.12500000000E+03 0.  0.
        -11    1    1    0    0    0  0.41943514388E+02  0.23079453601E+02 -0.12486359034E+02  0.49475536782E+02  0.51100000000E-03 0. -1.
         11    1    1    0    0    0  0.11042100442E+02  0.60730981056E+01 -0.32903109575E+01  0.13024463491E+02  0.51100000000E-03 0.  1.
         22    1    1    0    0    0 -0.52985614829E+02 -0.29152551707E+02  0.15776669992E+02  0.62499999727E+02  0.00000000000E+00 0. -1.
</event>
<event>
 4    1  0.1977762E-002  0.9118800E+02  0.7818608E-02  0.1130116E+00
         25   -1    0    0    0    0  0.00000000000E+00  0.00000000000E+00  0.99999998245E-14  0.12500000000E+03  0.12500000000E+03 0.  0.
        -11    1    1    0    0    0 -0.10901177045E+02 -0.39151928879E+01  0.24219263237E+02  0.26846547419E+02  0.51100000000E-03 0. -1.
         11    1    1    0    0    0 -0.14452146383E+02 -0.52074091930E+01  0.32174325257E+02  0.35653454974E+02  0.51100000000E-03 0.  1.
         22    1    1    0    0    0  0.25353323428E+02  0.91226020809E+01 -0.56393588494E+02  0.62499997607E+02  0.00000000000E+00 0.  1.
</event>
<event>
 4    1  0.1977762E-002  0.9118800E+02  0.7818608E-02  0.1130116E+00
         25   -1    0    0    0    0  0.00000000000E+00  0.00000000000E+00  0.99999998245E-14  0.12500000000E+03  0.12500000000E+03 0.  0.
        -11    1    1    0    0    0  0.26420140140E+02  0.19915124017E+02 -0.43565461795E+02  0.54704528435E+02  0.51100000000E-03 0. -1.
         11    1    1    0    0    0  0.36872189621E+01  0.27949043340E+01 -0.62743664258E+01  0.77958160713E+01  0.51100000000E-03 0.  1.
         22    1    1    0    0    0 -0.30107359102E+02 -0.22710028351E+02  0.49839828221E+02  0.62499655494E+02  0.00000000000E+00 0. -1.
</event>
<event>
 4    1  0.1977762E-002  0.9118800E+02  0.7818608E-02  0.1130116E+00
         25   -1    0    0    0    0  0.00000000000E+00  0.00000000000E+00  0.99999998245E-14  0.12500000000E+03  0.12500000000E+03 0.  0.
        -11    1    1    0    0    0 -0.56936162473E+01 -0.48086070152E+02 -0.20739042415E+00  0.48422416500E+02  0.51100000000E-03 0. -1.
         11    1    1    0    0    0 -0.17647241597E+01 -0.13966357731E+02 -0.10163779766E+00  0.14077774331E+02  0.51100000000E-03 0.  1.
         22    1    1    0    0    0  0.74583404070E+01  0.62052427882E+02  0.30902822181E+00  0.62499809169E+02  0.00000000000E+00 0. -1.
</event>
<event>
 4    1  0.1977762E-002  0.9118800E+02  0.7818608E-02  0.1130116E+00
         25   -1    0    0    0    0  0.00000000000E+00  0.00000000000E+00  0.99999998245E-14  0.12500000000E+03  0.12500000000E+03 0.  0.
        -11    1    1    0    0    0  0.24631654327E+02 -0.47912425712E+02  0.15773303777E+02  0.56134802438E+02  0.51100000000E-03 0.  1.
         11    1    1    0    0    0  0.27917645631E+01 -0.54353222092E+01  0.17829975621E+01  0.63651989334E+01  0.51100000000E-03 0. -1.
         22    1    1    0    0    0 -0.27423418890E+02  0.53347747921E+02 -0.17556301339E+02  0.62499998629E+02  0.00000000000E+00 0.  1.
</event>
<event>
 4    1  0.1977762E-002  0.9118800E+02  0.7818608E-02  0.1130116E+00
         25   -1    0    0    0    0  0.00000000000E+00  0.00000000000E+00  0.99999998245E-14  0.12500000000E+03  0.12500000000E+03 0.  0.
        -11    1    1    0    0    0  0.11168331559E+02 -0.32124329650E+02 -0.47456635836E+01  0.34339853063E+02  0.51100000000E-03 0. -1.
         11    1    1    0    0    0  0.15804107504E+01  0.17512814947E+02 -0.39015575618E+02  0.42794994176E+02  0.51100000000E-03 0.  1.
         22    1    1    0    0    0 -0.12748742309E+02  0.14611514704E+02  0.43761239201E+02  0.47865152761E+02  0.00000000000E+00 0.  1.
</event>
<event>
 4    1  0.1977762E-002  0.9118800E+02  0.7818608E-02  0.1130116E+00
         25   -1    0    0    0    0  0.00000000000E+00  0.00000000000E+00  0.99999998245E-14  0.12500000000E+03  0.12500000000E+03 0.  0.
        -11    1    1    0    0    0  0.12472071761E+02  0.88605346018E+01 -0.25779454082E+01  0.15514749441E+02  0.51100000000E-03 0. -1.
         11    1    1    0    0    0  0.37601159258E+02  0.27033382751E+02 -0.79355773472E+01  0.46985363132E+02  0.51100000000E-03 0.  1.
         22    1    1    0    0    0 -0.50073231019E+02 -0.35893917353E+02  0.10513522755E+02  0.62499887427E+02  0.00000000000E+00 0.  1.
</event>
<event>
 4    1  0.1977762E-002  0.9118800E+02  0.7818608E-02  0.1130116E+00
         25   -1    0    0    0    0  0.00000000000E+00  0.00000000000E+00  0.99999998245E-14  0.12500000000E+03  0.12500000000E+03 0.  0.
        -11    1    1    0    0    0  0.19679102443E+02 -0.19244642337E+02 -0.30007661163E+01  0.27688046684E+02  0.51100000000E-03 0. -1.
         11    1    1    0    0    0  0.23523651009E+02 -0.25344205028E+02 -0.41019785362E+01  0.34821216428E+02  0.51100000000E-03 0.  1.
         22    1    1    0    0    0 -0.43202753453E+02  0.44588847365E+02  0.71027446525E+01  0.62490736888E+02  0.00000000000E+00 0. -1.
</event>
<event>
 4    1  0.1977762E-002  0.9118800E+02  0.7818608E-02  0.1130116E+00
         25   -1    0    0    0    0  0.00000000000E+00  0.00000000000E+00  0.99999998245E-14  0.12500000000E+03  0.12500000000E+03 0.  0.
        -11    1    1    0    0    0 -0.32095103181E+01 -0.67577513452E+01  0.48345642392E+01  0.89073661298E+01  0.51100000000E-03 0. -1.
         11    1    1    0    0    0 -0.22746706325E+02 -0.42583074985E+02  0.23343037915E+02  0.53624885484E+02  0.51100000000E-03 0.  1.
         22    1    1    0    0    0  0.25956216643E+02  0.49340826330E+02 -0.28177602154E+02  0.62467748387E+02  0.00000000000E+00 0.  1.
</event>
<event>
 4    1  0.1977762E-002  0.9118800E+02  0.7818608E-02  0.1130116E+00
         25   -1    0    0    0    0  0.00000000000E+00  0.00000000000E+00  0.99999998245E-14  0.12500000000E+03  0.12500000000E+03 0.  0.
        -11    1    1    0    0    0 -0.11004157001E+02 -0.41452263219E+01 -0.53846034328E+01  0.12933225698E+02  0.51100000000E-03 0.  1.
         11    1    1    0    0    0 -0.39890564054E+02 -0.22080715578E+02 -0.19562216295E+02  0.49613459944E+02  0.51100000000E-03 0. -1.
         22    1    1    0    0    0  0.50894721055E+02  0.26225941900E+02  0.24946819728E+02  0.62453314358E+02  0.00000000000E+00 0. -1.
</event>
<event>
 4    1  0.1977762E-002  0.9118800E+02  0.7818608E-02  0.1130116E+00
         25   -1    0    0    0    0  0.00000000000E+00  0.00000000000E+00  0.99999998245E-14  0.12500000000E+03  0.12500000000E+03 0.  0.
        -11    1    1    0    0    0 -0.43606313448E+01 -0.42294006545E+01 -0.81764149285E+01  0.10186103130E+02  0.51100000000E-03 0. -1.
         11    1    1    0    0    0 -0.44876473369E+01 -0.41394959813E+02 -0.32682549647E+02  0.52932322150E+02  0.51100000000E-03 0.  1.
         22    1    1    0    0    0  0.88482786818E+01  0.45624360467E+02  0.40858964575E+02  0.61881574720E+02  0.00000000000E+00 0.  1.
</event>
<event>
 4    1  0.1977762E-002  0.9118800E+02  0.7818608E-02  0.1130116E+00
         25   -1    0    0    0    0  0.00000000000E+00  0.00000000000E+00  0.99999998245E-14  0.12500000000E+03  0.12500000000E+03 0.  0.
        -11    1    1    0    0    0 -0.27348253728E+02  0.10376983392E+02 -0.53520409905E+02  0.60992155585E+02  0.51100000000E-03 0. -1.
         11    1    1    0    0    0 -0.67652473125E+00  0.25634148325E+00 -0.13229505306E+01  0.15078444998E+01  0.51100000000E-03 0. -1.
         22    1    1    0    0    0  0.28024778459E+02 -0.10633324875E+02  0.54843360435E+02  0.62499999915E+02  0.00000000000E+00 0. -1.
</event>
<event>
 4    1  0.1977762E-002  0.9118800E+02  0.7818608E-02  0.1130116E+00
         25   -1    0    0    0    0  0.00000000000E+00  0.00000000000E+00  0.99999998245E-14  0.12500000000E+03  0.12500000000E+03 0.  0.
        -11    1    1    0    0    0 -0.20222238414E+02  0.83124273369E+00  0.51020049788E+02  0.54887843568E+02  0.51100000000E-03 0. -1.
         11    1    1    0    0    0 -0.11557064736E+01  0.35527423318E+01  0.71039542581E+01  0.80264439132E+01  0.51100000000E-03 0.  1.
         22    1    1    0    0    0  0.21377944887E+02 -0.43839850655E+01 -0.58124004046E+02  0.62085712519E+02  0.00000000000E+00 0. -1.
</event>
<event>
 4    1  0.1977762E-002  0.9118800E+02  0.7818608E-02  0.1130116E+00
         25   -1    0    0    0    0  0.00000000000E+00  0.00000000000E+00  0.99999998245E-14  0.12500000000E+03  0.12500000000E+03 0.  0.
        -11    1    1    0    0    0  0.90932589324E+01 -0.43795691309E+01  0.47813204886E+01  0.11168214256E+02  0.51100000000E-03 0. -1.
         11    1    1    0    0    0  0.40775249119E+02 -0.19653373591E+02  0.24220641519E+02  0.51337272133E+02  0.51100000000E-03 0.  1.
         22    1    1    0    0    0 -0.49868508052E+02  0.24032942722E+02 -0.29001962007E+02  0.62494513611E+02  0.00000000000E+00 0.  1.
</event>
<event>
 4    1  0.1977762E-002  0.9118800E+02  0.7818608E-02  0.1130116E+00
         25   -1    0    0    0    0  0.00000000000E+00  0.00000000000E+00  0.99999998245E-14  0.12500000000E+03  0.12500000000E+03 0.  0.
        -11    1    1    0    0    0 -0.25634989641E+01 -0.49434895849E+01 -0.57254847670E+01  0.79869138153E+01  0.51100000000E-03 0.  1.
         11    1    1    0    0    0 -0.17529691930E+02 -0.33765928394E+02 -0.39041628322E+02  0.54513087986E+02  0.51100000000E-03 0. -1.
         22    1    1    0    0    0  0.20093190894E+02  0.38709417979E+02  0.44767113089E+02  0.62499998199E+02  0.00000000000E+00 0. -1.
</event>
<event>
 4    1  0.1977762E-002  0.9118800E+02  0.7818608E-02  0.1130116E+00
         25   -1    0    0    0    0  0.00000000000E+00  0.00000000000E+00  0.99999998245E-14  0.12500000000E+03  0.12500000000E+03 0.  0.
        -11    1    1    0    0    0 -0.73169564132E+00 -0.10480890769E+00  0.81172400943E+01  0.81508251379E+01  0.51100000000E-03 0. -1.
         11    1    1    0    0    0  0.14094132818E+02  0.14189927391E+02  0.50917096062E+02  0.54704198111E+02  0.51100000000E-03 0.  1.
         22    1    1    0    0    0 -0.13362437177E+02 -0.14085118483E+02 -0.59034336157E+02  0.62144976751E+02  0.00000000000E+00 0.  1.
</event>
<event>
 4    1  0.1977762E-002  0.9118800E+02  0.7818608E-02  0.1130116E+00
         25   -1    0    0    0    0  0.00000000000E+00  0.00000000000E+00  0.99999998245E-14  0.12500000000E+03  0.12500000000E+03 0.  0.
        -11    1    1    0    0    0  0.10923168733E+02 -0.39502192647E+02 -0.10288386939E+00  0.40984746241E+02  0.51100000000E-03 0.  1.
         11    1    1    0    0    0  0.57339534629E+01 -0.20737056888E+02 -0.49008026880E-01  0.21515253955E+02  0.51100000000E-03 0. -1.
         22    1    1    0    0    0 -0.16657122196E+02  0.60239249535E+02  0.15189189627E+00  0.62499999804E+02  0.00000000000E+00 0.  1.
</event>
<event>
 4    1  0.1977762E-002  0.9118800E+02  0.7818608E-02  0.1130116E+00
         25   -1    0    0    0    0  0.00000000000E+00  0.00000000000E+00  0.99999998245E-14  0.12500000000E+03  0.12500000000E+03 0.  0.
        -11    1    1    0    0    0  0.26893326755E+02 -0.34328138463E+01  0.13903318986E+02  0.30468631639E+02  0.51100000000E-03 0.  1.
         11    1    1    0    0    0  0.29293336357E+02  0.92462210883E+01  0.11229060275E+02  0.32706023211E+02  0.51100000000E-03 0. -1.
         22    1    1    0    0    0 -0.56186663113E+02 -0.58134072419E+01 -0.25132379261E+02  0.61825345150E+02  0.00000000000E+00 0. -1.
</event>
<event>
 4    1  0.1977762E-002  0.9118800E+02  0.7818608E-02  0.1130116E+00
         25   -1    0    0    0    0  0.00000000000E+00  0.00000000000E+00  0.99999998245E-14  0.12500000000E+03  0.12500000000E+03 0.  0.
        -11    1    1    0    0    0 -0.56822698323E+02 -0.89653058099E+01 -0.14994073157E+02  0.59447607043E+02  0.51100000000E-03 0.  1.
         11    1    1    0    0    0 -0.29320201935E+01 -0.53231805409E+00 -0.66679523661E+00  0.30536406263E+01  0.51100000000E-03 0. -1.
         22    1    1    0    0    0  0.59754718517E+02  0.94976238640E+01  0.15660868394E+02  0.62498752331E+02  0.00000000000E+00 0.  1.
</event>
<event>
 4    1  0.1977762E-002  0.9118800E+02  0.7818608E-02  0.1130116E+00
         25   -1    0    0    0    0  0.00000000000E+00  0.00000000000E+00  0.99999998245E-14  0.12500000000E+03  0.12500000000E+03 0.  0.
        -11    1    1    0    0    0 -0.35713898857E+02  0.20715423441E+02 -0.32448710582E+02  0.52512190571E+02  0.51100000000E-03 0. -1.
         11    1    1    0    0    0 -0.67249890885E+01  0.48395447203E+01 -0.56195969633E+01  0.10011320674E+02  0.51100000000E-03 0.  1.
         22    1    1    0    0    0  0.42438887945E+02 -0.25554968161E+02  0.38068307546E+02  0.62476488755E+02  0.00000000000E+00 0. -1.
</event>
<event>
 4    1  0.1977762E-002  0.9118800E+02  0.7818608E-02  0.1130116E+00
         25   -1    0    0    0    0  0.00000000000E+00  0.00000000000E+00  0.99999998245E-14  0.12500000000E+03  0.12500000000E+03 0.  0.
        -11    1    1    0    0    0  0.66214600336E+01 -0.17862932325E+02 -0.27180995985E+02  0.33192388091E+02  0.51100000000E-03 0. -1.
         11    1    1    0    0    0  0.58481409571E+01 -0.15770313640E+02 -0.24000678591E+02  0.29307611947E+02  0.51100000000E-03 0. -1.
         22    1    1    0    0    0 -0.12469600991E+02  0.33633245964E+02  0.51181674575E+02  0.62499999962E+02  0.00000000000E+00 0. -1.
</event>
<event>
 4    1  0.1977762E-002  0.9118800E+02  0.7818608E-02  0.1130116E+00
         25   -1    0    0    0    0  0.00000000000E+00  0.00000000000E+00  0.99999998245E-14  0.12500000000E+03  0.12500000000E+03 0.  0.
        -11    1    1    0    0    0  0.59092134622E+01  0.55408790718E+01 -0.11007421027E+02  0.13666874645E+02  0.51100000000E-03 0.  1.
         11    1    1    0    0    0  0.21823758379E+02 -0.46440854953E+02 -0.17583658970E+02  0.54242183783E+02  0.51100000000E-03 0. -1.
         22    1    1    0    0    0 -0.27732971841E+02  0.40899975881E+02  0.28591079997E+02  0.57090941572E+02  0.00000000000E+00 0. -1.
</event>
<event>
 4    1  0.1977762E-002  0.9118800E+02  0.7818608E-02  0.1130116E+00
         25   -1    0    0    0    0  0.00000000000E+00  0.00000000000E+00  0.99999998245E-14  0.12500000000E+03  0.12500000000E+03 0.  0.
        -11    1    1    0    0    0 -0.66676539664E+00 -0.11905692332E+02  0.66835805692E+01  0.13669686737E+02  0.51100000000E-03 0.  1.
         11    1    1    0    0    0 -0.22634617687E+01 -0.42931005255E+02  0.23157729969E+02  0.48831085682E+02  0.51100000000E-03 0. -1.
         22    1    1    0    0    0  0.29302271653E+01  0.54836697587E+02 -0.29841310538E+02  0.62499227580E+02  0.00000000000E+00 0. -1.
</event>
<event>
 4    1  0.1977762E-002  0.9118800E+02  0.7818608E-02  0.1130116E+00
         25   -1    0    0    0    0  0.00000000000E+00  0.00000000000E+00  0.99999998245E-14  0.12500000000E+03  0.12500000000E+03 0.  0.
        -11    1    1    0    0    0 -0.20829115217E+02 -0.72392829551E+01  0.99183416915E+01  0.24179180313E+02  0.51100000000E-03 0.  1.
         11    1    1    0    0    0  0.12413812724E+02 -0.34164577664E+02  0.26545744846E+02  0.45011084002E+02  0.51100000000E-03 0. -1.
         22    1    1    0    0    0  0.84153024930E+01  0.41403860620E+02 -0.36464086537E+02  0.55809735685E+02  0.00000000000E+00 0. -1.
</event>
<event>
 4    1  0.1977762E-002  0.9118800E+02  0.7818608E-02  0.1130116E+00
         25   -1    0    0    0    0  0.00000000000E+00  0.00000000000E+00  0.99999998245E-14  0.12500000000E+03  0.12500000000E+03 0.  0.
        -11    1    1    0    0    0  0.16879998053E+02 -0.12327423911E+01 -0.18771861792E+02  0.25275220740E+02  0.51100000000E-03 0. -1.
         11    1    1    0    0    0  0.24836587557E+02 -0.18722760075E+01 -0.27664481225E+02  0.37224790404E+02  0.51100000000E-03 0.  1.
         22    1    1    0    0    0 -0.41716585609E+02  0.31050183986E+01  0.46436343017E+02  0.62499988856E+02  0.00000000000E+00 0.  1.
</event>
<event>
 4    1  0.1977762E-002  0.9118800E+02  0.7818608E-02  0.1130116E+00
         25   -1    0    0    0    0  0.00000000000E+00  0.00000000000E+00  0.99999998245E-14  0.12500000000E+03  0.12500000000E+03 0.  0.
        -11    1    1    0    0    0 -0.43431676309E+02  0.19137859793E+02  0.37233833207E+01  0.47607055865E+02  0.51100000000E-03 0. -1.
         11    1    1    0    0    0 -0.13607571120E+02  0.59401429368E+01  0.11616783688E+01  0.14892977768E+02  0.51100000000E-03 0.  1.
         22    1    1    0    0    0  0.57039247429E+02 -0.25078002730E+02 -0.48850616895E+01  0.62499966367E+02  0.00000000000E+00 0. -1.
</event>
<event>
 4    1  0.1977762E-002  0.9118800E+02  0.7818608E-02  0.1130116E+00
         25   -1    0    0    0    0  0.00000000000E+00  0.00000000000E+00  0.99999998245E-14  0.12500000000E+03  0.12500000000E+03 0.  0.
        -11    1    1    0    0    0 -0.34880024965E+02 -0.31786208251E+02 -0.38185137500E+02  0.60704891917E+02  0.51100000000E-03 0. -1.
         11    1    1    0    0    0  0.79683391996E+00 -0.19980742911E+01 -0.96867908576E+00  0.23591491265E+01  0.51100000000E-03 0.  1.
         22    1    1    0    0    0  0.34083191045E+02  0.33784282542E+02  0.39153816586E+02  0.61935958957E+02  0.00000000000E+00 0. -1.
</event>
<event>
 4    1  0.1977762E-002  0.9118800E+02  0.7818608E-02  0.1130116E+00
         25   -1    0    0    0    0  0.00000000000E+00  0.00000000000E+00  0.99999998245E-14  0.12500000000E+03  0.12500000000E+03 0.  0.
        -11    1    1    0    0    0  0.18963268110E+02  0.16642881536E+01 -0.18680322231E+02  0.26670767356E+02  0.51100000000E-03 0. -1.
         11    1    1    0    0    0  0.25821303359E+02  0.33917677034E+01 -0.24614024149E+02  0.35834257078E+02  0.51100000000E-03 0.  1.
         22    1    1    0    0    0 -0.44784571469E+02 -0.50560558570E+01  0.43294346380E+02  0.62494975565E+02  0.00000000000E+00 0.  1.
</event>
<event>
 4    1  0.1977762E-002  0.9118800E+02  0.7818608E-02  0.1130116E+00
         25   -1    0    0    0    0  0.00000000000E+00  0.00000000000E+00  0.99999998245E-14  0.12500000000E+03  0.12500000000E+03 0.  0.
        -11    1    1    0    0    0 -0.39783821498E+02 -0.38690005179E+02  0.23271668909E+02  0.60176735769E+02  0.51100000000E-03 0. -1.
         11    1    1    0    0    0 -0.15672622809E+01 -0.14638535236E+01  0.89402979518E+00  0.23234602926E+01  0.51100000000E-03 0.  1.
         22    1    1    0    0    0  0.41351083779E+02  0.40153858703E+02 -0.24165698704E+02  0.62499803938E+02  0.00000000000E+00 0. -1.
</event>
<event>
 4    1  0.1977762E-002  0.9118800E+02  0.7818608E-02  0.1130116E+00
         25   -1    0    0    0    0  0.00000000000E+00  0.00000000000E+00  0.99999998245E-14  0.12500000000E+03  0.12500000000E+03 0.  0.
        -11    1    1    0    0    0 -0.50724189520E+02  0.14550444848E+02  0.49473248518E+00  0.52772185933E+02  0.51100000000E-03 0. -1.
         11    1    1    0    0    0 -0.92288200941E+01  0.30872177411E+01  0.64337997170E-01  0.97317096827E+01  0.51100000000E-03 0.  1.
         22    1    1    0    0    0  0.59953009614E+02 -0.17637662589E+02 -0.55907048235E+00  0.62496104384E+02  0.00000000000E+00 0. -1.
</event>
<event>
 4    1  0.1977762E-002  0.9118800E+02  0.7818608E-02  0.1130116E+00
         25   -1    0    0    0    0  0.00000000000E+00  0.00000000000E+00  0.99999998245E-14  0.12500000000E+03  0.12500000000E+03 0.  0.
        -11    1    1    0    0    0 -0.29598521546E+01  0.15993791422E+01  0.98142357545E+00  0.35045585904E+01  0.51100000000E-03 0.  1.
         11    1    1    0    0    0 -0.50088818719E+02  0.26149769279E+02  0.16964261101E+02  0.58995646865E+02  0.51100000000E-03 0. -1.
         22    1    1    0    0    0  0.53048670874E+02 -0.27749148421E+02 -0.17945684676E+02  0.62499794545E+02  0.00000000000E+00 0. -1.
</event>
<event>
 4    1  0.1977762E-002  0.9118800E+02  0.7818608E-02  0.1130116E+00
         25   -1    0    0    0    0  0.00000000000E+00  0.00000000000E+00  0.99999998245E-14  0.12500000000E+03  0.12500000000E+03 0.  0.
        -11    1    1    0    0    0  0.44306197980E+02  0.28593070385E+02 -0.64616600012E+01  0.53125849675E+02  0.51100000000E-03 0.  1.
         11    1    1    0    0    0  0.78270701388E+01  0.50331155346E+01 -0.11311712756E+01  0.93741574372E+01  0.51100000000E-03 0. -1.
         22    1    1    0    0    0 -0.52133268119E+02 -0.33626185919E+02  0.75928312767E+01  0.62499992888E+02  0.00000000000E+00 0.  1.
</event>
<event>
 4    1  0.1977762E-002  0.9118800E+02  0.7818608E-02  0.1130116E+00
         25   -1    0    0    0    0  0.00000000000E+00  0.00000000000E+00  0.99999998245E-14  0.12500000000E+03  0.12500000000E+03 0.  0.
        -11    1    1    0    0    0 -0.18405809705E+01  0.24009771975E+02 -0.12706925850E+02  0.27227244690E+02  0.51100000000E-03 0. -1.
         11    1    1    0    0    0 -0.23846482864E+01  0.31105837970E+02 -0.16459269902E+02  0.35272755339E+02  0.51100000000E-03 0. -1.
         22    1    1    0    0    0  0.42252292569E+01 -0.55115609944E+02  0.29166195752E+02  0.62499999971E+02  0.00000000000E+00 0. -1.
</event>
<event>
 4    1  0.1977762E-002  0.9118800E+02  0.7818608E-02  0.1130116E+00
         25   -1    0    0    0    0  0.00000000000E+00  0.00000000000E+00  0.99999998245E-14  0.12500000000E+03  0.12500000000E+03 0.  0.
        -11    1    1    0    0    0 -0.27379745709E+02 -0.87812111089E+01  0.84427741867E+01  0.29967325203E+02  0.51100000000E-03 0. -1.
         11    1    1    0    0    0 -0.30188828538E+02 -0.94078073789E+01  0.76865354519E+01  0.32541589323E+02  0.51100000000E-03 0.  1.
         22    1    1    0    0    0  0.57568574246E+02  0.18189018488E+02 -0.16129309639E+02  0.62491085474E+02  0.00000000000E+00 0.  1.
</event>
<event>
 4    1  0.1977762E-002  0.9118800E+02  0.7818608E-02  0.1130116E+00
         25   -1    0    0    0    0  0.00000000000E+00  0.00000000000E+00  0.99999998245E-14  0.12500000000E+03  0.12500000000E+03 0.  0.
        -11    1    1    0    0    0  0.65469505982E+01  0.15475680293E+02  0.39714796625E+01  0.17266496275E+02  0.51100000000E-03 0. -1.
         11    1    1    0    0    0  0.17060513017E+02  0.40618060004E+02  0.10256067559E+02  0.45233558614E+02  0.51100000000E-03 0.  1.
         22    1    1    0    0    0 -0.23607463615E+02 -0.56093740297E+02 -0.14227547222E+02  0.62499945110E+02  0.00000000000E+00 0.  1.
</event>
<event>
 4    1  0.1977762E-002  0.9118800E+02  0.7818608E-02  0.1130116E+00
         25   -1    0    0    0    0  0.00000000000E+00  0.00000000000E+00  0.99999998245E-14  0.12500000000E+03  0.12500000000E+03 0.  0.
        -11    1    1    0    0    0 -0.61120413821E+01 -0.13964747355E+02  0.16949312078E+01  0.15337666400E+02  0.51100000000E-03 0.  1.
         11    1    1    0    0    0 -0.18784370032E+02 -0.42948025900E+02  0.51865519566E+01  0.47162334629E+02  0.51100000000E-03 0. -1.
         22    1    1    0    0    0  0.24896411414E+02  0.56912773255E+02 -0.68814831644E+01  0.62499998971E+02  0.00000000000E+00 0. -1.
</event>
<event>
 4    1  0.1977762E-002  0.9118800E+02  0.7818608E-02  0.1130116E+00
         25   -1    0    0    0    0  0.00000000000E+00  0.00000000000E+00  0.99999998245E-14  0.12500000000E+03  0.12500000000E+03 0.  0.
        -11    1    1    0    0    0 -0.62957250308E+01  0.30553379394E+02  0.48105727279E+02  0.57335034171E+02  0.51100000000E-03 0.  1.
         11    1    1    0    0    0 -0.55133377830E+00  0.27665408697E+01  0.43265902964E+01  0.51649880129E+01  0.51100000000E-03 0. -1.
         22    1    1    0    0    0  0.68470588091E+01 -0.33319920264E+02 -0.52432317576E+02  0.62499977816E+02  0.00000000000E+00 0.  1.
</event>
<event>
 4    1  0.1977762E-002  0.9118800E+02  0.7818608E-02  0.1130116E+00
         25   -1    0    0    0    0  0.00000000000E+00  0.00000000000E+00  0.99999998245E-14  0.12500000000E+03  0.12500000000E+03 0.  0.
        -11    1    1    0    0    0 -0.49794890818E+02 -0.13728177614E+01 -0.89073003791E+01  0.50603910724E+02  0.51100000000E-03 0. -1.
         11    1    1    0    0    0 -0.11671763489E+02 -0.31810604831E-01 -0.23107643707E+01  0.11898348923E+02  0.51100000000E-03 0.  1.
         22    1    1    0    0    0  0.61466654307E+02  0.14046283662E+01  0.11218064750E+02  0.62497740353E+02  0.00000000000E+00 0.  1.
</event>
<event>
 4    1  0.1977762E-002  0.9118800E+02  0.7818608E-02  0.1130116E+00
         25   -1    0    0    0    0  0.00000000000E+00  0.00000000000E+00  0.99999998245E-14  0.12500000000E+03  0.12500000000E+03 0.  0.
        -11    1    1    0    0    0  0.53907828694E+01  0.71178511344E+00  0.35665200931E+02  0.36077329941E+02  0.51100000000E-03 0.  1.
         11    1    1    0    0    0  0.10748665576E+02  0.40906893844E+01  0.24168134148E+02  0.26765019330E+02  0.51100000000E-03 0. -1.
         22    1    1    0    0    0 -0.16139448445E+02 -0.48024744978E+01 -0.59833335079E+02  0.62157650728E+02  0.00000000000E+00 0. -1.
</event>
<event>
 4    1  0.1977762E-002  0.9118800E+02  0.7818608E-02  0.1130116E+00
         25   -1    0    0    0    0  0.00000000000E+00  0.00000000000E+00  0.99999998245E-14  0.12500000000E+03  0.12500000000E+03 0.  0.
        -11    1    1    0    0    0  0.11735863467E+02  0.31525103601E+02 -0.35030733940E+02  0.48566603433E+02  0.51100000000E-03 0. -1.
         11    1    1    0    0    0  0.41918190576E+01  0.90240994605E+01 -0.97687849965E+01  0.13943990772E+02  0.51100000000E-03 0.  1.
         22    1    1    0    0    0 -0.15927682525E+02 -0.40549203062E+02  0.44799518937E+02  0.62489405794E+02  0.00000000000E+00 0. -1.
</event>
<event>
 4    1  0.1977762E-002  0.9118800E+02  0.7818608E-02  0.1130116E+00
         25   -1    0    0    0    0  0.00000000000E+00  0.00000000000E+00  0.99999998245E-14  0.12500000000E+03  0.12500000000E+03 0.  0.
        -11    1    1    0    0    0 -0.80992939951E+01 -0.10646623373E+01  0.31551890696E+01  0.87571278076E+01  0.51100000000E-03 0.  1.
         11    1    1    0    0    0 -0.33908856935E+02  0.14961616432E+01 -0.45386792915E+02  0.56674597922E+02  0.51100000000E-03 0. -1.
         22    1    1    0    0    0  0.42008150930E+02 -0.43149930586E+00  0.42231603845E+02  0.59568274270E+02  0.00000000000E+00 0. -1.
</event>
<event>
 4    1  0.1977762E-002  0.9118800E+02  0.7818608E-02  0.1130116E+00
         25   -1    0    0    0    0  0.00000000000E+00  0.00000000000E+00  0.99999998245E-14  0.12500000000E+03  0.12500000000E+03 0.  0.
        -11    1    1    0    0    0 -0.13974800472E+02 -0.16563448318E+02  0.42720560977E+02  0.47902914305E+02  0.51100000000E-03 0.  1.
         11    1    1    0    0    0 -0.42598270925E+01 -0.50443124403E+01  0.13018590557E+02  0.14597085846E+02  0.51100000000E-03 0. -1.
         22    1    1    0    0    0  0.18234627565E+02  0.21607760758E+02 -0.55739151534E+02  0.62499999849E+02  0.00000000000E+00 0.  1.
</event>
<event>
 4    1  0.1977762E-002  0.9118800E+02  0.7818608E-02  0.1130116E+00
         25   -1    0    0    0    0  0.00000000000E+00  0.00000000000E+00  0.99999998245E-14  0.12500000000E+03  0.12500000000E+03 0.  0.
        -11    1    1    0    0    0 -0.55370892992E+01 -0.15137987333E+02 -0.13440833510E+02  0.20987473028E+02  0.51100000000E-03 0.  1.
         11    1    1    0    0    0  0.55712720786E+00 -0.36060639388E+02 -0.21351065793E+02  0.41911193189E+02  0.51100000000E-03 0. -1.
         22    1    1    0    0    0  0.49799620913E+01  0.51198626721E+02  0.34791899302E+02  0.62101333783E+02  0.00000000000E+00 0.  1.
</event>
<event>
 4    1  0.1977762E-002  0.9118800E+02  0.7818608E-02  0.1130116E+00
         25   -1    0    0    0    0  0.00000000000E+00  0.00000000000E+00  0.99999998245E-14  0.12500000000E+03  0.12500000000E+03 0.  0.
        -11    1    1    0    0    0 -0.40541942023E+00  0.82264148598E+00  0.49576669230E+00  0.10425395892E+01  0.51100000000E-03 0.  1.
         11    1    1    0    0    0 -0.28333207342E+02  0.45518759155E+02  0.30042216289E+02  0.61459440553E+02  0.51100000000E-03 0. -1.
         22    1    1    0    0    0  0.28738626762E+02 -0.46341400641E+02 -0.30537982982E+02  0.62498019858E+02  0.00000000000E+00 0. -1.
</event>
<event>
 4    1  0.1977762E-002  0.9118800E+02  0.7818608E-02  0.1130116E+00
         25   -1    0    0    0    0  0.00000000000E+00  0.00000000000E+00  0.99999998245E-14  0.12500000000E+03  0.12500000000E+03 0.  0.
        -11    1    1    0    0    0  0.26240510366E+02  0.54095337517E+01 -0.51364434485E+01  0.27280221613E+02  0.51100000000E-03 0. -1.
         11    1    1    0    0    0  0.33874315204E+02  0.69811686519E+01 -0.66503327657E+01  0.35219779563E+02  0.51100000000E-03 0.  1.
         22    1    1    0    0    0 -0.60114825571E+02 -0.12390702404E+02  0.11786776214E+02  0.62499998824E+02  0.00000000000E+00 0. -1.
</event>
<event>
 4    1  0.1977762E-002  0.9118800E+02  0.7818608E-02  0.1130116E+00
         25   -1    0    0    0    0  0.00000000000E+00  0.00000000000E+00  0.99999998245E-14  0.12500000000E+03  0.12500000000E+03 0.  0.
        -11    1    1    0    0    0  0.47672282924E+01  0.11329809015E+02 -0.92942922822E+01  0.15410220868E+02  0.51100000000E-03 0. -1.
         11    1    1    0    0    0  0.19375791975E+02  0.29834936413E+02 -0.30957824856E+02  0.47158579978E+02  0.51100000000E-03 0.  1.
         22    1    1    0    0    0 -0.24143020267E+02 -0.41164745428E+02  0.40252117138E+02  0.62431199155E+02  0.00000000000E+00 0.  1.
</event>
<event>
 4    1  0.1977762E-002  0.9118800E+02  0.7818608E-02  0.1130116E+00
         25   -1    0    0    0    0  0.00000000000E+00  0.00000000000E+00  0.99999998245E-14  0.12500000000E+03  0.12500000000E+03 0.  0.
        -11    1    1    0    0    0  0.15648076234E+02 -0.34424372178E+02 -0.28429653151E+02  0.47309035798E+02  0.51100000000E-03 0.  1.
         11    1    1    0    0    0  0.50202416545E+01 -0.11049789953E+02 -0.91359039613E+01  0.15190965266E+02  0.51100000000E-03 0. -1.
         22    1    1    0    0    0 -0.20668317888E+02  0.45474162130E+02  0.37565557112E+02  0.62499998935E+02  0.00000000000E+00 0.  1.
</event>
<event>
 4    1  0.1977762E-002  0.9118800E+02  0.7818608E-02  0.1130116E+00
         25   -1    0    0    0    0  0.00000000000E+00  0.00000000000E+00  0.99999998245E-14  0.12500000000E+03  0.12500000000E+03 0.  0.
        -11    1    1    0    0    0 -0.40473328182E+02  0.58740216813E+01 -0.88322126292E+01  0.41840200825E+02  0.51100000000E-03 0.  1.
         11    1    1    0    0    0 -0.19983751489E+02  0.28999844305E+01 -0.43665866518E+01  0.20659799431E+02  0.51100000000E-03 0. -1.
         22    1    1    0    0    0  0.60457079671E+02 -0.87740061118E+01  0.13198799281E+02  0.62499999745E+02  0.00000000000E+00 0.  1.
</event>
<event>
 4    1  0.1977762E-002  0.9118800E+02  0.7818608E-02  0.1130116E+00
         25   -1    0    0    0    0  0.00000000000E+00  0.00000000000E+00  0.99999998245E-14  0.12500000000E+03  0.12500000000E+03 0.  0.
        -11    1    1    0    0    0 -0.55682121367E+01 -0.28306645133E+02 -0.10292564604E+02  0.30630181708E+02  0.51100000000E-03 0.  1.
         11    1    1    0    0    0 -0.55660128411E+01 -0.29462850162E+02 -0.10800928693E+02  0.31870050196E+02  0.51100000000E-03 0. -1.
         22    1    1    0    0    0  0.11134224978E+02  0.57769495295E+02  0.21093493297E+02  0.62499768095E+02  0.00000000000E+00 0.  1.
</event>
<event>
 4    1  0.1977762E-002  0.9118800E+02  0.7818608E-02  0.1130116E+00
         25   -1    0    0    0    0  0.00000000000E+00  0.00000000000E+00  0.99999998245E-14  0.12500000000E+03  0.12500000000E+03 0.  0.
        -11    1    1    0    0    0 -0.43256851169E+01 -0.30125432742E+01 -0.16466905205E+01  0.55225500125E+01  0.51100000000E-03 0.  1.
         11    1    1    0    0    0 -0.43805167564E+02 -0.31848110780E+02 -0.17700657723E+02  0.56978137471E+02  0.51100000000E-03 0. -1.
         22    1    1    0    0    0  0.48130852681E+02  0.34860654054E+02  0.19347348243E+02  0.62499312516E+02  0.00000000000E+00 0. -1.
</event>
<event>
 4    1  0.1977762E-002  0.9118800E+02  0.7818608E-02  0.1130116E+00
         25   -1    0    0    0    0  0.00000000000E+00  0.00000000000E+00  0.99999998245E-14  0.12500000000E+03  0.12500000000E+03 0.  0.
        -11    1    1    0    0    0  0.73439326956E+01 -0.27826987792E+02  0.12837760557E+02  0.31513214583E+02  0.51100000000E-03 0. -1.
         11    1    1    0    0    0  0.34693009941E+02 -0.76900517167E+01 -0.14621125133E+02  0.38425501097E+02  0.51100000000E-03 0.  1.
         22    1    1    0    0    0 -0.42036942636E+02  0.35517039509E+02  0.17833645760E+01  0.55061284319E+02  0.00000000000E+00 0. -1.
</event>
<event>
 4    1  0.1977762E-002  0.9118800E+02  0.7818608E-02  0.1130116E+00
         25   -1    0    0    0    0  0.00000000000E+00  0.00000000000E+00  0.99999998245E-14  0.12500000000E+03  0.12500000000E+03 0.  0.
        -11    1    1    0    0    0  0.60843505130E+01  0.20098354233E+02  0.17304949601E+01  0.21070305577E+02  0.51100000000E-03 0.  1.
         11    1    1    0    0    0  0.40086933821E+01  0.38033509528E+02  0.17244180382E+02  0.41952106347E+02  0.51100000000E-03 0. -1.
         22    1    1    0    0    0 -0.10093043895E+02 -0.58131863761E+02 -0.18974675342E+02  0.61977588076E+02  0.00000000000E+00 0. -1.
</event>
<event>
 4    1  0.1977762E-002  0.9118800E+02  0.7818608E-02  0.1130116E+00
         25   -1    0    0    0    0  0.00000000000E+00  0.00000000000E+00  0.99999998245E-14  0.12500000000E+03  0.12500000000E+03 0.  0.
        -11    1    1    0    0    0  0.75860006618E+00 -0.10111796278E+01 -0.10095023794E+01  0.16177310083E+01  0.51100000000E-03 0.  1.
         11    1    1    0    0    0  0.28938440091E+02 -0.38808827440E+02 -0.36920406982E+02  0.60882467543E+02  0.51100000000E-03 0. -1.
         22    1    1    0    0    0 -0.29697040157E+02  0.39820007068E+02  0.37929909362E+02  0.62499801449E+02  0.00000000000E+00 0. -1.
</event>
<event>
 4    1  0.1977762E-002  0.9118800E+02  0.7818608E-02  0.1130116E+00
         25   -1    0    0    0    0  0.00000000000E+00  0.00000000000E+00  0.99999998245E-14  0.12500000000E+03  0.12500000000E+03 0.  0.
        -11    1    1    0    0    0  0.40571837320E+01 -0.28113570858E+01  0.60736026008E+01  0.78264370766E+01  0.51100000000E-03 0.  1.
         11    1    1    0    0    0  0.18052766044E+02 -0.47363954927E+01  0.51640716715E+02  0.54909921027E+02  0.51100000000E-03 0. -1.
         22    1    1    0    0    0 -0.22109949776E+02  0.75477525785E+01 -0.57714319316E+02  0.62263641896E+02  0.00000000000E+00 0. -1.
</event>
<event>
 4    1  0.1977762E-002  0.9118800E+02  0.7818608E-02  0.1130116E+00
         25   -1    0    0    0    0  0.00000000000E+00  0.00000000000E+00  0.99999998245E-14  0.12500000000E+03  0.12500000000E+03 0.  0.
        -11    1    1    0    0    0 -0.76789709645E+01 -0.43232681354E+02  0.30822525683E+01  0.44017401255E+02  0.51100000000E-03 0.  1.
         11    1    1    0    0    0 -0.32251681675E+01 -0.18152807868E+02  0.12962695887E+01  0.18482598797E+02  0.51100000000E-03 0. -1.
         22    1    1    0    0    0  0.10904139132E+02  0.61385489221E+02 -0.43785221570E+01  0.62499999948E+02  0.00000000000E+00 0. -1.
</event>
<event>
 4    1  0.1977762E-002  0.9118800E+02  0.7818608E-02  0.1130116E+00
         25   -1    0    0    0    0  0.00000000000E+00  0.00000000000E+00  0.99999998245E-14  0.12500000000E+03  0.12500000000E+03 0.  0.
        -11    1    1    0    0    0 -0.38538016315E+02  0.92788187263E+01  0.26041468396E+02  0.47428190508E+02  0.51100000000E-03 0.  1.
         11    1    1    0    0    0 -0.99476100527E+01 -0.10057556953E+01  0.11834117923E+02  0.15492347710E+02  0.51100000000E-03 0. -1.
         22    1    1    0    0    0  0.48485626367E+02 -0.82730630310E+01 -0.37875586319E+02  0.62079461782E+02  0.00000000000E+00 0.  1.
</event>
<event>
 4    1  0.1977762E-002  0.9118800E+02  0.7818608E-02  0.1130116E+00
         25   -1    0    0    0    0  0.00000000000E+00  0.00000000000E+00  0.99999998245E-14  0.12500000000E+03  0.12500000000E+03 0.  0.
        -11    1    1    0    0    0  0.31851350071E+01 -0.32059672531E+01  0.10230638768E+00  0.45203736460E+01  0.51100000000E-03 0. -1.
         11    1    1    0    0    0  0.40847059318E+02 -0.41121326221E+02  0.14806675170E+01  0.57979635232E+02  0.51100000000E-03 0.  1.
         22    1    1    0    0    0 -0.44032194325E+02  0.44327293475E+02 -0.15829739046E+01  0.62499991122E+02  0.00000000000E+00 0.  1.
</event>
<event>
 4    1  0.1977762E-002  0.9118800E+02  0.7818608E-02  0.1130116E+00
         25   -1    0    0    0    0  0.00000000000E+00  0.00000000000E+00  0.99999998245E-14  0.12500000000E+03  0.12500000000E+03 0.  0.
        -11    1    1    0    0    0 -0.70020179437E+01 -0.73801822277E+01  0.49548076173E+01  0.11315717555E+02  0.51100000000E-03 0.  1.
         11    1    1    0    0    0 -0.31669766858E+02 -0.33382952010E+02  0.22415065325E+02  0.51184282465E+02  0.51100000000E-03 0.  1.
         22    1    1    0    0    0  0.38671784802E+02  0.40763134237E+02 -0.27369872942E+02  0.62499999980E+02  0.00000000000E+00 0.  1.
</event>
<event>
 4    1  0.1977762E-002  0.9118800E+02  0.7818608E-02  0.1130116E+00
         25   -1    0    0    0    0  0.00000000000E+00  0.00000000000E+00  0.99999998245E-14  0.12500000000E+03  0.12500000000E+03 0.  0.
        -11    1    1    0    0    0  0.13136779319E+02  0.20818565165E+02  0.17040727291E+02  0.29939505895E+02  0.51100000000E-03 0.  1.
         11    1    1    0    0    0  0.14289507318E+02  0.22638759051E+02  0.18533276795E+02  0.32560494158E+02  0.51100000000E-03 0. -1.
         22    1    1    0    0    0 -0.27426286636E+02 -0.43457324216E+02 -0.35574004086E+02  0.62499999947E+02  0.00000000000E+00 0. -1.
</event>
<event>
 4    1  0.1977762E-002  0.9118800E+02  0.7818608E-02  0.1130116E+00
         25   -1    0    0    0    0  0.00000000000E+00  0.00000000000E+00  0.99999998245E-14  0.12500000000E+03  0.12500000000E+03 0.  0.
        -11    1    1    0    0    0 -0.56862553778E+02 -0.23811933475E+02  0.37535262268E+00  0.61648188033E+02  0.51100000000E-03 0.  1.
         11    1    1    0    0    0 -0.78742890413E+00  0.10002319837E+01  0.44122079073E+00  0.13472877746E+01  0.51100000000E-03 0. -1.
         22    1    1    0    0    0  0.57649982682E+02  0.22811701491E+02 -0.81657341341E+00  0.62004524192E+02  0.00000000000E+00 0.  1.
</event>
<event>
 4    1  0.1977762E-002  0.9118800E+02  0.7818608E-02  0.1130116E+00
         25   -1    0    0    0    0  0.00000000000E+00  0.00000000000E+00  0.99999998245E-14  0.12500000000E+03  0.12500000000E+03 0.  0.
        -11    1    1    0    0    0 -0.25406673150E+02  0.48679613547E+02 -0.19734215919E+02  0.58349319566E+02  0.51100000000E-03 0.  1.
         11    1    1    0    0    0 -0.18075166229E+01  0.34703252842E+01 -0.13849426658E+01  0.41507035993E+01  0.51100000000E-03 0. -1.
         22    1    1    0    0    0  0.27214189773E+02 -0.52149938831E+02  0.21119158585E+02  0.62499976835E+02  0.00000000000E+00 0.  1.
</event>
<event>
 4    1  0.1977762E-002  0.9118800E+02  0.7818608E-02  0.1130116E+00
         25   -1    0    0    0    0  0.00000000000E+00  0.00000000000E+00  0.99999998245E-14  0.12500000000E+03  0.12500000000E+03 0.  0.
        -11    1    1    0    0    0  0.40194624954E+01 -0.93494977055E+00 -0.36296086156E+01  0.54958410447E+01  0.51100000000E-03 0.  1.
         11    1    1    0    0    0  0.41692656611E+02 -0.96934595167E+01 -0.37646160065E+02  0.57004158976E+02  0.51100000000E-03 0.  1.
         22    1    1    0    0    0 -0.45712119107E+02  0.10628409287E+02  0.41275768680E+02  0.62499999979E+02  0.00000000000E+00 0.  1.
</event>
<event>
 4    1  0.1977762E-002  0.9118800E+02  0.7818608E-02  0.1130116E+00
         25   -1    0    0    0    0  0.00000000000E+00  0.00000000000E+00  0.99999998245E-14  0.12500000000E+03  0.12500000000E+03 0.  0.
        -11    1    1    0    0    0 -0.61985200647E+01 -0.52779092151E+02 -0.87829299690E+01  0.53862733670E+02  0.51100000000E-03 0.  1.
         11    1    1    0    0    0 -0.79190741231E+00 -0.85793070037E+01 -0.75892248824E+00  0.86491380852E+01  0.51100000000E-03 0. -1.
         22    1    1    0    0    0  0.69904274770E+01  0.61358399155E+02  0.95418524572E+01  0.62488128245E+02  0.00000000000E+00 0.  1.
</event>
<event>
 4    1  0.1977762E-002  0.9118800E+02  0.7818608E-02  0.1130116E+00
         25   -1    0    0    0    0  0.00000000000E+00  0.00000000000E+00  0.99999998245E-14  0.12500000000E+03  0.12500000000E+03 0.  0.
        -11    1    1    0    0    0 -0.29267979525E+02  0.37759513106E+02  0.14956533653E+02  0.50060896463E+02  0.51100000000E-03 0. -1.
         11    1    1    0    0    0 -0.72066481603E+01  0.90057386736E+01  0.47056207921E+01  0.12457205709E+02  0.51100000000E-03 0.  1.
         22    1    1    0    0    0  0.36474627685E+02 -0.46765251780E+02 -0.19662154446E+02  0.62481897828E+02  0.00000000000E+00 0. -1.
</event>
<event>
 4    1  0.1977762E-002  0.9118800E+02  0.7818608E-02  0.1130116E+00
         25   -1    0    0    0    0  0.00000000000E+00  0.00000000000E+00  0.99999998245E-14  0.12500000000E+03  0.12500000000E+03 0.  0.
        -11    1    1    0    0    0  0.40266555587E+02 -0.12756119032E+02  0.29466692422E+02  0.51501456622E+02  0.51100000000E-03 0. -1.
         11    1    1    0    0    0  0.85919701815E+01 -0.27256402369E+01  0.63021383904E+01  0.10998546034E+02  0.51100000000E-03 0.  1.
         22    1    1    0    0    0 -0.48858525769E+02  0.15481759269E+02 -0.35768830813E+02  0.62499997344E+02  0.00000000000E+00 0. -1.
</event>
<event>
 4    1  0.1977762E-002  0.9118800E+02  0.7818608E-02  0.1130116E+00
         25   -1    0    0    0    0  0.00000000000E+00  0.00000000000E+00  0.99999998245E-14  0.12500000000E+03  0.12500000000E+03 0.  0.
        -11    1    1    0    0    0  0.17338172219E+02  0.44381408401E+02 -0.24217747288E+02  0.53449236773E+02  0.51100000000E-03 0. -1.
         11    1    1    0    0    0  0.30239087338E+01  0.75089477539E+01 -0.40487630495E+01  0.90510111530E+01  0.51100000000E-03 0.  1.
         22    1    1    0    0    0 -0.20362080953E+02 -0.51890356155E+02  0.28266510338E+02  0.62499752074E+02  0.00000000000E+00 0. -1.
</event>
<event>
 4    1  0.1977762E-002  0.9118800E+02  0.7818608E-02  0.1130116E+00
         25   -1    0    0    0    0  0.00000000000E+00  0.00000000000E+00  0.99999998245E-14  0.12500000000E+03  0.12500000000E+03 0.  0.
        -11    1    1    0    0    0  0.26948589064E+02 -0.21412056950E+02  0.29323682066E+02  0.45217042866E+02  0.51100000000E-03 0. -1.
         11    1    1    0    0    0  0.64148729024E+01 -0.22933521369E+01  0.16794118371E+02  0.18123257723E+02  0.51100000000E-03 0.  1.
         22    1    1    0    0    0 -0.33363461966E+02  0.23705409087E+02 -0.46117800437E+02  0.61659699411E+02  0.00000000000E+00 0. -1.
</event>
<event>
 4    1  0.1977762E-002  0.9118800E+02  0.7818608E-02  0.1130116E+00
         25   -1    0    0    0    0  0.00000000000E+00  0.00000000000E+00  0.99999998245E-14  0.12500000000E+03  0.12500000000E+03 0.  0.
        -11    1    1    0    0    0 -0.10867816553E+02  0.41847945244E+02 -0.45027884139E+02  0.62424917365E+02  0.51100000000E-03 0. -1.
         11    1    1    0    0    0 -0.23896079468E+00 -0.38561919775E+01  0.43311946016E+01  0.58040129021E+01  0.51100000000E-03 0.  1.
         22    1    1    0    0    0  0.11106777347E+02 -0.37991753267E+02  0.40696689537E+02  0.56771069733E+02  0.00000000000E+00 0. -1.
</event>
<event>
 4    1  0.1977762E-002  0.9118800E+02  0.7818608E-02  0.1130116E+00
         25   -1    0    0    0    0  0.00000000000E+00  0.00000000000E+00  0.99999998245E-14  0.12500000000E+03  0.12500000000E+03 0.  0.
        -11    1    1    0    0    0 -0.58727120195E+01  0.87394852339E+01  0.14427244657E+02  0.17860927671E+02  0.51100000000E-03 0. -1.
         11    1    1    0    0    0 -0.14480913473E+02  0.21242353347E+02  0.36493787062E+02  0.44640014842E+02  0.51100000000E-03 0.  1.
         22    1    1    0    0    0  0.20353625492E+02 -0.29981838581E+02 -0.50921031719E+02  0.62499057487E+02  0.00000000000E+00 0. -1.
</event>
<event>
 4    1  0.1977762E-002  0.9118800E+02  0.7818608E-02  0.1130116E+00
         25   -1    0    0    0    0  0.00000000000E+00  0.00000000000E+00  0.99999998245E-14  0.12500000000E+03  0.12500000000E+03 0.  0.
        -11    1    1    0    0    0 -0.23886832201E+02 -0.39554058113E+01  0.94647102697E+01  0.25996282974E+02  0.51100000000E-03 0.  1.
         11    1    1    0    0    0 -0.36499761802E+02  0.32271662012E+01  0.47880034119E+01  0.36953649214E+02  0.51100000000E-03 0. -1.
         22    1    1    0    0    0  0.60386594003E+02  0.72823961007E+00 -0.14252713682E+02  0.62050067812E+02  0.00000000000E+00 0. -1.
</event>
<event>
 4    1  0.1977762E-002  0.9118800E+02  0.7818608E-02  0.1130116E+00
         25   -1    0    0    0    0  0.00000000000E+00  0.00000000000E+00  0.99999998245E-14  0.12500000000E+03  0.12500000000E+03 0.  0.
        -11    1    1    0    0    0  0.40451286490E+01  0.12698273488E+02 -0.74158475701E+01  0.15251360950E+02  0.51100000000E-03 0. -1.
         11    1    1    0    0    0  0.12530922495E+02  0.39341707017E+02 -0.22970415004E+02  0.47248639084E+02  0.51100000000E-03 0. -1.
         22    1    1    0    0    0 -0.16576051144E+02 -0.52039980506E+02  0.30386262574E+02  0.62499999966E+02  0.00000000000E+00 0. -1.
</event>
<event>
 4    1  0.1977762E-002  0.9118800E+02  0.7818608E-02  0.1130116E+00
         25   -1    0    0    0    0  0.00000000000E+00  0.00000000000E+00  0.99999998245E-14  0.12500000000E+03  0.12500000000E+03 0.  0.
        -11    1    1    0    0    0 -0.67677513945E+00 -0.62286460614E+00 -0.88196605617E+00  0.12743034538E+01  0.51100000000E-03 0.  1.
         11    1    1    0    0    0 -0.32511921653E+02 -0.29836543221E+02 -0.42442215905E+02  0.61225697645E+02  0.51100000000E-03 0. -1.
         22    1    1    0    0    0  0.33188696792E+02  0.30459407827E+02  0.43324181961E+02  0.62499998901E+02  0.00000000000E+00 0. -1.
</event>
<event>
 4    1  0.1977762E-002  0.9118800E+02  0.7818608E-02  0.1130116E+00
         25   -1    0    0    0    0  0.00000000000E+00  0.00000000000E+00  0.99999998245E-14  0.12500000000E+03  0.12500000000E+03 0.  0.
        -11    1    1    0    0    0 -0.20982778820E+02  0.11096501013E+02  0.75298953258E+00  0.23748185936E+02  0.51100000000E-03 0.  1.
         11    1    1    0    0    0  0.74781499525E+00  0.38833314849E+02  0.19792598799E+02  0.43592803729E+02  0.51100000000E-03 0. -1.
         22    1    1    0    0    0  0.20234963825E+02 -0.49929815862E+02 -0.20545588332E+02  0.57659010336E+02  0.00000000000E+00 0. -1.
</event>
<event>
 4    1  0.1977762E-002  0.9118800E+02  0.7818608E-02  0.1130116E+00
         25   -1    0    0    0    0  0.00000000000E+00  0.00000000000E+00  0.99999998245E-14  0.12500000000E+03  0.12500000000E+03 0.  0.
        -11    1    1    0    0    0 -0.14696497292E+02 -0.13772625108E+02  0.20677871447E+01  0.20247172122E+02  0.51100000000E-03 0. -1.
         11    1    1    0    0    0 -0.29782528283E+02 -0.29576767380E+02  0.48794803062E+01  0.42256283413E+02  0.51100000000E-03 0.  1.
         22    1    1    0    0    0  0.44479025574E+02  0.43349392487E+02 -0.69472674509E+01  0.62496544465E+02  0.00000000000E+00 0.  1.
</event>
<event>
 4    1  0.1977762E-002  0.9118800E+02  0.7818608E-02  0.1130116E+00
         25   -1    0    0    0    0  0.00000000000E+00  0.00000000000E+00  0.99999998245E-14  0.12500000000E+03  0.12500000000E+03 0.  0.
        -11    1    1    0    0    0 -0.59613338298E+00  0.53216625457E+01 -0.23858898803E+01  0.58624174231E+01  0.51100000000E-03 0. -1.
         11    1    1    0    0    0 -0.58407688062E+01  0.51377570391E+02 -0.23109456424E+02  0.56637587308E+02  0.51100000000E-03 0.  1.
         22    1    1    0    0    0  0.64369021892E+01 -0.56699232937E+02  0.25495346304E+02  0.62499995269E+02  0.00000000000E+00 0.  1.
</event>
<event>
 4    1  0.1977762E-002  0.9118800E+02  0.7818608E-02  0.1130116E+00
         25   -1    0    0    0    0  0.00000000000E+00  0.00000000000E+00  0.99999998245E-14  0.12500000000E+03  0.12500000000E+03 0.  0.
        -11    1    1    0    0    0  0.59892690519E+01  0.60404177359E+01 -0.16264289823E+01  0.86604423499E+01  0.51100000000E-03 0.  1.
         11    1    1    0    0    0  0.37216085604E+02  0.37495028553E+02 -0.10382153424E+02  0.53839607203E+02  0.51100000000E-03 0. -1.
         22    1    1    0    0    0 -0.43205354656E+02 -0.43535446288E+02  0.12008582406E+02  0.62499950447E+02  0.00000000000E+00 0. -1.
</event>
<event>
 4    1  0.1977762E-002  0.9118800E+02  0.7818608E-02  0.1130116E+00
         25   -1    0    0    0    0  0.00000000000E+00  0.00000000000E+00  0.99999998245E-14  0.12500000000E+03  0.12500000000E+03 0.  0.
        -11    1    1    0    0    0 -0.30186453270E+00  0.11519288966E+02 -0.70009976869E+01  0.13483290005E+02  0.51100000000E-03 0.  1.
         11    1    1    0    0    0 -0.29326141483E+02  0.34342239358E+02 -0.21398404715E+02  0.49973029756E+02  0.51100000000E-03 0. -1.
         22    1    1    0    0    0  0.29628006015E+02 -0.45861528324E+02  0.28399402401E+02  0.61543680239E+02  0.00000000000E+00 0. -1.
</event>
<event>
 4    1  0.1977762E-002  0.9118800E+02  0.7818608E-02  0.1130116E+00
         25   -1    0    0    0    0  0.00000000000E+00  0.00000000000E+00  0.99999998245E-14  0.12500000000E+03  0.12500000000E+03 0.  0.
        -11    1    1    0    0    0 -0.20258016933E+01  0.32580306806E+01  0.16292106095E+01  0.41680887571E+01  0.51100000000E-03 0. -1.
         11    1    1    0    0    0 -0.24450416863E+02  0.48071010718E+02  0.22241604216E+02  0.58338100026E+02  0.51100000000E-03 0.  1.
         22    1    1    0    0    0  0.26476218556E+02 -0.51329041399E+02 -0.23870814826E+02  0.62493811217E+02  0.00000000000E+00 0.  1.
</event>
<event>
 4    1  0.1977762E-002  0.9118800E+02  0.7818608E-02  0.1130116E+00
         25   -1    0    0    0    0  0.00000000000E+00  0.00000000000E+00  0.99999998245E-14  0.12500000000E+03  0.12500000000E+03 0.  0.
        -11    1    1    0    0    0  0.53172709642E+01  0.44772305611E+01 -0.38508994936E+00  0.69618430415E+01  0.51100000000E-03 0.  1.
         11    1    1    0    0    0  0.42428299748E+02  0.35704616333E+02 -0.30832861190E+01  0.55538157158E+02  0.51100000000E-03 0.  1.
         22    1    1    0    0    0 -0.47745570712E+02 -0.40181846895E+02  0.34683760683E+01  0.62499999800E+02  0.00000000000E+00 0.  1.
</event>
<event>
 4    1  0.1977762E-002  0.9118800E+02  0.7818608E-02  0.1130116E+00
         25   -1    0    0    0    0  0.00000000000E+00  0.00000000000E+00  0.99999998245E-14  0.12500000000E+03  0.12500000000E+03 0.  0.
        -11    1    1    0    0    0  0.16085488377E+01 -0.44275761660E+00  0.19333795516E+01  0.25537071919E+01  0.51100000000E-03 0. -1.
         11    1    1    0    0    0  0.37693648765E+02 -0.10379538086E+02  0.45442405492E+02  0.59946294175E+02  0.51100000000E-03 0.  1.
         22    1    1    0    0    0 -0.39302197603E+02  0.10822295703E+02 -0.47375785044E+02  0.62499998633E+02  0.00000000000E+00 0.  1.
</event>
<event>
 4    1  0.1977762E-002  0.9118800E+02  0.7818608E-02  0.1130116E+00
         25   -1    0    0    0    0  0.00000000000E+00  0.00000000000E+00  0.99999998245E-14  0.12500000000E+03  0.12500000000E+03 0.  0.
        -11    1    1    0    0    0 -0.25753796065E-01  0.14743042703E+01 -0.46152159539E+01  0.48450443653E+01  0.51100000000E-03 0.  1.
         11    1    1    0    0    0 -0.34197450828E+00  0.17284650049E+02 -0.55002006791E+02  0.57654980922E+02  0.51100000000E-03 0. -1.
         22    1    1    0    0    0  0.36772830435E+00 -0.18758954319E+02  0.59617222745E+02  0.62499974712E+02  0.00000000000E+00 0. -1.
</event>
<event>
 4    1  0.1977762E-002  0.9118800E+02  0.7818608E-02  0.1130116E+00
         25   -1    0    0    0    0  0.00000000000E+00  0.00000000000E+00  0.99999998245E-14  0.12500000000E+03  0.12500000000E+03 0.  0.
        -11    1    1    0    0    0 -0.17120371243E+02 -0.19873515218E+01 -0.36540680096E+00  0.17239205317E+02  0.51100000000E-03 0. -1.
         11    1    1    0    0    0 -0.44949280230E+02 -0.52129642207E+01 -0.96267907875E+00  0.45260794740E+02  0.51100000000E-03 0.  1.
         22    1    1    0    0    0  0.62069651473E+02  0.72003157426E+01  0.13280858797E+01  0.62499999943E+02  0.00000000000E+00 0.  1.
</event>
<event>
 4    1  0.1977762E-002  0.9118800E+02  0.7818608E-02  0.1130116E+00
         25   -1    0    0    0    0  0.00000000000E+00  0.00000000000E+00  0.99999998245E-14  0.12500000000E+03  0.12500000000E+03 0.  0.
        -11    1    1    0    0    0  0.37237428569E+02 -0.15860748287E+02 -0.42742402500E+02  0.58865120355E+02  0.51100000000E-03 0.  1.
         11    1    1    0    0    0  0.95585326554E+00 -0.16653734484E+01 -0.32879800182E+01  0.38076156646E+01  0.51100000000E-03 0. -1.
         22    1    1    0    0    0 -0.38193281835E+02  0.17526121736E+02  0.46030382519E+02  0.62327263980E+02  0.00000000000E+00 0.  1.
</event>
<event>
 4    1  0.1977762E-002  0.9118800E+02  0.7818608E-02  0.1130116E+00
         25   -1    0    0    0    0  0.00000000000E+00  0.00000000000E+00  0.99999998245E-14  0.12500000000E+03  0.12500000000E+03 0.  0.
        -11    1    1    0    0    0 -0.27909333398E+02  0.12590448228E+02  0.15207459958E+02  0.34186504881E+02  0.51100000000E-03 0. -1.
         11    1    1    0    0    0 -0.23111671799E+02  0.10431075437E+02  0.12597511881E+02  0.28313495262E+02  0.51100000000E-03 0.  1.
         22    1    1    0    0    0  0.51021005197E+02 -0.23021523665E+02 -0.27804971839E+02  0.62499999857E+02  0.00000000000E+00 0. -1.
</event>
<event>
 4    1  0.1977762E-002  0.9118800E+02  0.7818608E-02  0.1130116E+00
         25   -1    0    0    0    0  0.00000000000E+00  0.00000000000E+00  0.99999998245E-14  0.12500000000E+03  0.12500000000E+03 0.  0.
        -11    1    1    0    0    0  0.41348734154E+01 -0.12525971185E+02 -0.17310969506E+02  0.21763887470E+02  0.51100000000E-03 0. -1.
         11    1    1    0    0    0  0.77345482248E+01 -0.23437915477E+02 -0.32407896670E+02  0.40736112787E+02  0.51100000000E-03 0.  1.
         22    1    1    0    0    0 -0.11869421640E+02  0.35963886662E+02  0.49718866177E+02  0.62499999743E+02  0.00000000000E+00 0.  1.
</event>
<event>
 4    1  0.1977762E-002  0.9118800E+02  0.7818608E-02  0.1130116E+00
         25   -1    0    0    0    0  0.00000000000E+00  0.00000000000E+00  0.99999998245E-14  0.12500000000E+03  0.12500000000E+03 0.  0.
        -11    1    1    0    0    0 -0.21762693338E+02  0.29313013104E+02 -0.42224915349E+02  0.55819450329E+02  0.51100000000E-03 0. -1.
         11    1    1    0    0    0 -0.25804315129E+01  0.35196168864E+01 -0.50580373283E+01  0.66805742040E+01  0.51100000000E-03 0.  1.
         22    1    1    0    0    0  0.24343124851E+02 -0.32832629990E+02  0.47282952677E+02  0.62499975467E+02  0.00000000000E+00 0. -1.
</event>
<event>
 4    1  0.1977762E-002  0.9118800E+02  0.7818608E-02  0.1130116E+00
         25   -1    0    0    0    0  0.00000000000E+00  0.00000000000E+00  0.99999998245E-14  0.12500000000E+03  0.12500000000E+03 0.  0.
        -11    1    1    0    0    0  0.52965116847E+01 -0.17628086453E+02 -0.15684429349E+00  0.18407255863E+02  0.51100000000E-03 0. -1.
         11    1    1    0    0    0  0.13316809408E+02 -0.41964362341E+02  0.26992707113E+01  0.44109309472E+02  0.51100000000E-03 0.  1.
         22    1    1    0    0    0 -0.18613321092E+02  0.59592448794E+02 -0.25424264178E+01  0.62483434664E+02  0.00000000000E+00 0. -1.
</event>
<event>
 4    1  0.1977762E-002  0.9118800E+02  0.7818608E-02  0.1130116E+00
         25   -1    0    0    0    0  0.00000000000E+00  0.00000000000E+00  0.99999998245E-14  0.12500000000E+03  0.12500000000E+03 0.  0.
        -11    1    1    0    0    0  0.34464420530E+02  0.30341938010E+02 -0.15466830322E+02  0.48452578106E+02  0.51100000000E-03 0. -1.
         11    1    1    0    0    0  0.10002219550E+02  0.87909109647E+01 -0.44727681179E+01  0.14047425615E+02  0.51100000000E-03 0.  1.
         22    1    1    0    0    0 -0.44466640080E+02 -0.39132848975E+02  0.19939598440E+02  0.62499996279E+02  0.00000000000E+00 0. -1.
</event>
<event>
 4    1  0.1977762E-002  0.9118800E+02  0.7818608E-02  0.1130116E+00
         25   -1    0    0    0    0  0.00000000000E+00  0.00000000000E+00  0.99999998245E-14  0.12500000000E+03  0.12500000000E+03 0.  0.
        -11    1    1    0    0    0  0.25464528916E+02  0.30231171684E+01 -0.33100344135E+02  0.41871401367E+02  0.51100000000E-03 0. -1.
         11    1    1    0    0    0  0.12547356445E+02  0.14892235829E+01 -0.16305984873E+02  0.20628598682E+02  0.51100000000E-03 0. -1.
         22    1    1    0    0    0 -0.38011885362E+02 -0.45123407513E+01  0.49406329008E+02  0.62499999951E+02  0.00000000000E+00 0. -1.
</event>
<event>
 4    1  0.1977762E-002  0.9118800E+02  0.7818608E-02  0.1130116E+00
         25   -1    0    0    0    0  0.00000000000E+00  0.00000000000E+00  0.99999998245E-14  0.12500000000E+03  0.12500000000E+03 0.  0.
        -11    1    1    0    0    0 -0.29273977818E+02  0.48882113444E+01 -0.40698934968E+02  0.50371258622E+02  0.51100000000E-03 0. -1.
         11    1    1    0    0    0 -0.70472797234E+01  0.11725533257E+01 -0.98013950292E+01  0.12128741797E+02  0.51100000000E-03 0.  1.
         22    1    1    0    0    0  0.36321257541E+02 -0.60607646701E+01  0.50500329997E+02  0.62499999581E+02  0.00000000000E+00 0. -1.
</event>
<event>
 4    1  0.1977762E-002  0.9118800E+02  0.7818608E-02  0.1130116E+00
         25   -1    0    0    0    0  0.00000000000E+00  0.00000000000E+00  0.99999998245E-14  0.12500000000E+03  0.12500000000E+03 0.  0.
        -11    1    1    0    0    0 -0.12016711360E+01  0.12328634702E+01 -0.20005504470E+01  0.26393499593E+01  0.51100000000E-03 0. -1.
         11    1    1    0    0    0 -0.27206191640E+02  0.28116045479E+02 -0.45305730285E+02  0.59860655475E+02  0.51100000000E-03 0.  1.
         22    1    1    0    0    0  0.28407862776E+02 -0.29348908950E+02  0.47306280732E+02  0.62499994566E+02  0.00000000000E+00 0.  1.
</event>
<event>
 4    1  0.1977762E-002  0.9118800E+02  0.7818608E-02  0.1130116E+00
         25   -1    0    0    0    0  0.00000000000E+00  0.00000000000E+00  0.99999998245E-14  0.12500000000E+03  0.12500000000E+03 0.  0.
        -11    1    1    0    0    0 -0.19363462010E+02 -0.35493646543E+02  0.16713104135E+02  0.43750090926E+02  0.51100000000E-03 0. -1.
         11    1    1    0    0    0 -0.79566624075E+01 -0.15458627770E+02  0.70249825670E+01  0.18751747373E+02  0.51100000000E-03 0.  1.
         22    1    1    0    0    0  0.27320124417E+02  0.50952274313E+02 -0.23738086702E+02  0.62498161702E+02  0.00000000000E+00 0. -1.
</event>
<event>
 4    1  0.1977762E-002  0.9118800E+02  0.7818608E-02  0.1130116E+00
         25   -1    0    0    0    0  0.00000000000E+00  0.00000000000E+00  0.99999998245E-14  0.12500000000E+03  0.12500000000E+03 0.  0.
        -11    1    1    0    0    0  0.26911152872E+01  0.50754486382E-01 -0.39070241724E-01  0.26918774585E+01  0.51100000000E-03 0.  1.
         11    1    1    0    0    0  0.59788206301E+02  0.13695191484E+01 -0.71281710686E+00  0.59808137438E+02  0.51100000000E-03 0. -1.
         22    1    1    0    0    0 -0.62479321588E+02 -0.14202736348E+01  0.75188734859E+00  0.62499985103E+02  0.00000000000E+00 0. -1.
</event>
<event>
 4    1  0.1977762E-002  0.9118800E+02  0.7818608E-02  0.1130116E+00
         25   -1    0    0    0    0  0.00000000000E+00  0.00000000000E+00  0.99999998245E-14  0.12500000000E+03  0.12500000000E+03 0.  0.
        -11    1    1    0    0    0 -0.10509862413E+02  0.78252022563E+01  0.41123145871E+01  0.13733249063E+02  0.51100000000E-03 0.  1.
         11    1    1    0    0    0 -0.37266878417E+02  0.27673652177E+02  0.14951918581E+02  0.48766906004E+02  0.51100000000E-03 0. -1.
         22    1    1    0    0    0  0.47776740830E+02 -0.35498854433E+02 -0.19064233168E+02  0.62499844933E+02  0.00000000000E+00 0.  1.
</event>
<event>
 4    1  0.1977762E-002  0.9118800E+02  0.7818608E-02  0.1130116E+00
         25   -1    0    0    0    0  0.00000000000E+00  0.00000000000E+00  0.99999998245E-14  0.12500000000E+03  0.12500000000E+03 0.  0.
        -11    1    1    0    0    0  0.29665782871E+02  0.28174357326E+02 -0.26920518181E+02  0.48975171092E+02  0.51100000000E-03 0. -1.
         11    1    1    0    0    0  0.81918430969E+01  0.77808257581E+01 -0.74346119127E+01  0.13524828922E+02  0.51100000000E-03 0. -1.
         22    1    1    0    0    0 -0.37857625968E+02 -0.35955183084E+02  0.34355130094E+02  0.62499999986E+02  0.00000000000E+00 0. -1.
</event>
<event>
 4    1  0.1977762E-002  0.9118800E+02  0.7818608E-02  0.1130116E+00
         25   -1    0    0    0    0  0.00000000000E+00  0.00000000000E+00  0.99999998245E-14  0.12500000000E+03  0.12500000000E+03 0.  0.
        -11    1    1    0    0    0 -0.35038726434E+02 -0.56037023129E+01  0.48849296501E+02  0.60376879670E+02  0.51100000000E-03 0.  1.
         11    1    1    0    0    0 -0.12336417426E+01 -0.18990320346E+00  0.17174779395E+01  0.21231264469E+01  0.51100000000E-03 0. -1.
         22    1    1    0    0    0  0.36272368177E+02  0.57936055163E+01 -0.50566774441E+02  0.62499993883E+02  0.00000000000E+00 0.  1.
</event>
<event>
 4    1  0.1977762E-002  0.9118800E+02  0.7818608E-02  0.1130116E+00
         25   -1    0    0    0    0  0.00000000000E+00  0.00000000000E+00  0.99999998245E-14  0.12500000000E+03  0.12500000000E+03 0.  0.
        -11    1    1    0    0    0 -0.63539490451E+01 -0.13326979410E+02  0.26843854573E+01  0.15006231179E+02  0.51100000000E-03 0.  1.
         11    1    1    0    0    0 -0.20115858623E+02 -0.42176659381E+02  0.84935103550E+01  0.47493768887E+02  0.51100000000E-03 0. -1.
         22    1    1    0    0    0  0.26469807668E+02  0.55503638791E+02 -0.11177895812E+02  0.62499999934E+02  0.00000000000E+00 0. -1.
</event>
<event>
 4    1  0.1977762E-002  0.9118800E+02  0.7818608E-02  0.1130116E+00
         25   -1    0    0    0    0  0.00000000000E+00  0.00000000000E+00  0.99999998245E-14  0.12500000000E+03  0.12500000000E+03 0.  0.
        -11    1    1    0    0    0 -0.29074570246E+01 -0.27548978688E+01  0.36592352089E+02  0.36810908713E+02  0.51100000000E-03 0.  1.
         11    1    1    0    0    0 -0.20289501507E+01 -0.17341835772E+01  0.25550261916E+02  0.25689295740E+02  0.51100000000E-03 0. -1.
         22    1    1    0    0    0  0.49364071753E+01  0.44890814461E+01 -0.62142614005E+02  0.62499795547E+02  0.00000000000E+00 0. -1.
</event>
<event>
 4    1  0.1977762E-002  0.9118800E+02  0.7818608E-02  0.1130116E+00
         25   -1    0    0    0    0  0.00000000000E+00  0.00000000000E+00  0.99999998245E-14  0.12500000000E+03  0.12500000000E+03 0.  0.
        -11    1    1    0    0    0  0.12635928215E+02 -0.14718820437E+01  0.21939092844E+02  0.25360538513E+02  0.51100000000E-03 0.  1.
         11    1    1    0    0    0  0.39070745355E+02 -0.45907605523E+01 -0.26417169082E+02  0.47386338196E+02  0.51100000000E-03 0. -1.
         22    1    1    0    0    0 -0.51706673570E+02  0.60626425961E+01  0.44780762379E+01  0.52253123291E+02  0.00000000000E+00 0. -1.
</event>
<event>
 4    1  0.1977762E-002  0.9118800E+02  0.7818608E-02  0.1130116E+00
         25   -1    0    0    0    0  0.00000000000E+00  0.00000000000E+00  0.99999998245E-14  0.12500000000E+03  0.12500000000E+03 0.  0.
        -11    1    1    0    0    0 -0.12693340841E+02  0.17322019194E+01 -0.56524187058E+02  0.57957787639E+02  0.51100000000E-03 0. -1.
         11    1    1    0    0    0  0.62131129257E+00  0.61665869814E+01 -0.21963561224E+01  0.65754698083E+01  0.51100000000E-03 0.  1.
         22    1    1    0    0    0  0.12072029548E+02 -0.78987889009E+01  0.58720543180E+02  0.60466742553E+02  0.00000000000E+00 0. -1.
</event>
<event>
 4    1  0.1977762E-002  0.9118800E+02  0.7818608E-02  0.1130116E+00
         25   -1    0    0    0    0  0.00000000000E+00  0.00000000000E+00  0.99999998245E-14  0.12500000000E+03  0.12500000000E+03 0.  0.
        -11    1    1    0    0    0 -0.33437848951E+02 -0.17540779951E+02 -0.30914403738E+00  0.37760618031E+02  0.51100000000E-03 0. -1.
         11    1    1    0    0    0 -0.21830510690E+02 -0.11639135677E+02 -0.91533956845E-01  0.24739625199E+02  0.51100000000E-03 0.  1.
         22    1    1    0    0    0  0.55268359641E+02  0.29179915628E+02  0.40067799422E+00  0.62499756770E+02  0.00000000000E+00 0. -1.
</event>
<event>
 4    1  0.1977762E-002  0.9118800E+02  0.7818608E-02  0.1130116E+00
         25   -1    0    0    0    0  0.00000000000E+00  0.00000000000E+00  0.99999998245E-14  0.12500000000E+03  0.12500000000E+03 0.  0.
        -11    1    1    0    0    0 -0.21731487486E+02 -0.50727789660E+02  0.22887109542E+02  0.59744338439E+02  0.51100000000E-03 0.  1.
         11    1    1    0    0    0 -0.10115337530E+01 -0.23353245050E+01  0.10567780565E+01  0.27556707349E+01  0.51100000000E-03 0. -1.
         22    1    1    0    0    0  0.22743021239E+02  0.53063114165E+02 -0.23943887598E+02  0.62499990826E+02  0.00000000000E+00 0.  1.
</event>
<event>
 4    1  0.1977762E-002  0.9118800E+02  0.7818608E-02  0.1130116E+00
         25   -1    0    0    0    0  0.00000000000E+00  0.00000000000E+00  0.99999998245E-14  0.12500000000E+03  0.12500000000E+03 0.  0.
        -11    1    1    0    0    0  0.71041156789E+00 -0.74084651668E+00 -0.33190988847E+01  0.34741841955E+01  0.51100000000E-03 0. -1.
         11    1    1    0    0    0  0.11846963805E+02 -0.12635957633E+02 -0.56427213649E+02  0.59025828390E+02  0.51100000000E-03 0.  1.
         22    1    1    0    0    0 -0.12557375373E+02  0.13376804149E+02  0.59746312533E+02  0.62499987415E+02  0.00000000000E+00 0.  1.
</event>
<event>
 4    1  0.1977762E-002  0.9118800E+02  0.7818608E-02  0.1130116E+00
         25   -1    0    0    0    0  0.00000000000E+00  0.00000000000E+00  0.99999998245E-14  0.12500000000E+03  0.12500000000E+03 0.  0.
        -11    1    1    0    0    0  0.28485420996E+02  0.11179033248E+02 -0.54149051167E+02  0.62197345090E+02  0.51100000000E-03 0. -1.
         11    1    1    0    0    0  0.14075981934E+00  0.51111497950E-01 -0.26302458378E+00  0.30266797776E+00  0.51100000000E-03 0.  1.
         22    1    1    0    0    0 -0.28626180816E+02 -0.11230144746E+02  0.54412075750E+02  0.62499986933E+02  0.00000000000E+00 0. -1.
</event>
<event>
 4    1  0.1977762E-002  0.9118800E+02  0.7818608E-02  0.1130116E+00
         25   -1    0    0    0    0  0.00000000000E+00  0.00000000000E+00  0.99999998245E-14  0.12500000000E+03  0.12500000000E+03 0.  0.
        -11    1    1    0    0    0 -0.20673407252E+01 -0.29231911291E+02 -0.50173275047E+02  0.58104527058E+02  0.51100000000E-03 0.  1.
         11    1    1    0    0    0 -0.15647688367E+00 -0.22165938850E+01 -0.37924169201E+01  0.43954749257E+01  0.51100000000E-03 0. -1.
         22    1    1    0    0    0  0.22238176089E+01  0.31448505176E+02  0.53965691967E+02  0.62499998016E+02  0.00000000000E+00 0.  1.
</event>
<event>
 4    1  0.1977762E-002  0.9118800E+02  0.7818608E-02  0.1130116E+00
         25   -1    0    0    0    0  0.00000000000E+00  0.00000000000E+00  0.99999998245E-14  0.12500000000E+03  0.12500000000E+03 0.  0.
        -11    1    1    0    0    0 -0.15735112694E+02 -0.38238454700E+01  0.53659252725E+02  0.56049361895E+02  0.51100000000E-03 0. -1.
         11    1    1    0    0    0 -0.18107049012E+01 -0.44000047145E+00  0.61756359360E+01  0.64506381180E+01  0.51100000000E-03 0. -1.
         22    1    1    0    0    0  0.17545817595E+02  0.42638459415E+01 -0.59834888661E+02  0.62499999987E+02  0.00000000000E+00 0. -1.
</event>
<event>
 4    1  0.1977762E-002  0.9118800E+02  0.7818608E-02  0.1130116E+00
         25   -1    0    0    0    0  0.00000000000E+00  0.00000000000E+00  0.99999998245E-14  0.12500000000E+03  0.12500000000E+03 0.  0.
        -11    1    1    0    0    0  0.57628125067E+01 -0.17417422478E+02  0.77463811529E+01  0.19914392659E+02  0.51100000000E-03 0. -1.
         11    1    1    0    0    0  0.12282955825E+02 -0.37261786965E+02  0.16559664429E+02  0.42585610926E+02  0.51100000000E-03 0.  1.
         22    1    1    0    0    0 -0.18045768332E+02  0.54679209443E+02 -0.24306045582E+02  0.62499996415E+02  0.00000000000E+00 0.  1.
</event>
<event>
 4    1  0.1977762E-002  0.9118800E+02  0.7818608E-02  0.1130116E+00
         25   -1    0    0    0    0  0.00000000000E+00  0.00000000000E+00  0.99999998245E-14  0.12500000000E+03  0.12500000000E+03 0.  0.
        -11    1    1    0    0    0 -0.45812411290E+02 -0.33361866121E+02 -0.20211963023E+02  0.60169050091E+02  0.51100000000E-03 0.  1.
         11    1    1    0    0    0 -0.17561753783E+01 -0.12694777159E+01 -0.86077467447E+00  0.23316644123E+01  0.51100000000E-03 0. -1.
         22    1    1    0    0    0  0.47568586669E+02  0.34631343837E+02  0.21072737698E+02  0.62499285497E+02  0.00000000000E+00 0.  1.
</event>
<event>
 4    1  0.1977762E-002  0.9118800E+02  0.7818608E-02  0.1130116E+00
         25   -1    0    0    0    0  0.00000000000E+00  0.00000000000E+00  0.99999998245E-14  0.12500000000E+03  0.12500000000E+03 0.  0.
        -11    1    1    0    0    0 -0.18041635401E+02  0.89047800469E+01 -0.58477695850E+02  0.61842029622E+02  0.51100000000E-03 0.  1.
         11    1    1    0    0    0 -0.40448564322E+00 -0.15410701813E+00 -0.54957544092E+00  0.69956488977E+00  0.51100000000E-03 0. -1.
         22    1    1    0    0    0  0.18446121045E+02 -0.87506730288E+01  0.59027271291E+02  0.62458405488E+02  0.00000000000E+00 0.  1.
</event>
<event>
 4    1  0.1977762E-002  0.9118800E+02  0.7818608E-02  0.1130116E+00
         25   -1    0    0    0    0  0.00000000000E+00  0.00000000000E+00  0.99999998245E-14  0.12500000000E+03  0.12500000000E+03 0.  0.
        -11    1    1    0    0    0 -0.31839613718E+02  0.25953374019E+01  0.39340506129E+02  0.50677136864E+02  0.51100000000E-03 0.  1.
         11    1    1    0    0    0 -0.75041088077E+01  0.12964086912E+01  0.90548243949E+01  0.11831406069E+02  0.51100000000E-03 0. -1.
         22    1    1    0    0    0  0.39343722526E+02 -0.38917460930E+01 -0.48395330524E+02  0.62491457067E+02  0.00000000000E+00 0.  1.
</event>
<event>
 4    1  0.1977762E-002  0.9118800E+02  0.7818608E-02  0.1130116E+00
         25   -1    0    0    0    0  0.00000000000E+00  0.00000000000E+00  0.99999998245E-14  0.12500000000E+03  0.12500000000E+03 0.  0.
        -11    1    1    0    0    0  0.17701756937E+02  0.14268593788E+02 -0.34061131700E+01  0.22990140811E+02  0.51100000000E-03 0.  1.
         11    1    1    0    0    0  0.30424129994E+02  0.24518898153E+02 -0.58502072827E+01  0.39509859251E+02  0.51100000000E-03 0. -1.
         22    1    1    0    0    0 -0.48125886931E+02 -0.38787491941E+02  0.92563204526E+01  0.62499999938E+02  0.00000000000E+00 0. -1.
</event>
<event>
 4    1  0.1977762E-002  0.9118800E+02  0.7818608E-02  0.1130116E+00
         25   -1    0    0    0    0  0.00000000000E+00  0.00000000000E+00  0.99999998245E-14  0.12500000000E+03  0.12500000000E+03 0.  0.
        -11    1    1    0    0    0  0.27511036880E+02 -0.39159402918E+02 -0.24448293748E+02  0.53740441518E+02  0.51100000000E-03 0.  1.
         11    1    1    0    0    0  0.44820469300E+01 -0.63746145825E+01 -0.40006932044E+01  0.87595663212E+01  0.51100000000E-03 0. -1.
         22    1    1    0    0    0 -0.31993083810E+02  0.45534017501E+02  0.28448986953E+02  0.62499992160E+02  0.00000000000E+00 0.  1.
</event>
<event>
 4    1  0.1977762E-002  0.9118800E+02  0.7818608E-02  0.1130116E+00
         25   -1    0    0    0    0  0.00000000000E+00  0.00000000000E+00  0.99999998245E-14  0.12500000000E+03  0.12500000000E+03 0.  0.
        -11    1    1    0    0    0  0.13720177973E+02 -0.17690817884E+02 -0.10299264161E+02  0.24643115946E+02  0.51100000000E-03 0. -1.
         11    1    1    0    0    0 -0.30538956512E+02  0.19309208109E+02  0.47393658057E+02  0.59595572041E+02  0.51100000000E-03 0.  1.
         22    1    1    0    0    0  0.16818778539E+02 -0.16183902248E+01 -0.37094393896E+02  0.40761312013E+02  0.00000000000E+00 0.  1.
</event>
<event>
 4    1  0.1977762E-002  0.9118800E+02  0.7818608E-02  0.1130116E+00
         25   -1    0    0    0    0  0.00000000000E+00  0.00000000000E+00  0.99999998245E-14  0.12500000000E+03  0.12500000000E+03 0.  0.
        -11    1    1    0    0    0  0.10789055934E+01  0.46509244447E-01 -0.10330634096E+00  0.10848377070E+01  0.51100000000E-03 0. -1.
         11    1    1    0    0    0  0.58147866038E+02  0.48124327893E+01 -0.19213394618E+02  0.61428725912E+02  0.51100000000E-03 0.  1.
         22    1    1    0    0    0 -0.59226771632E+02 -0.48589420338E+01  0.19316700959E+02  0.62486436381E+02  0.00000000000E+00 0.  1.
</event>
<event>
 4    1  0.1977762E-002  0.9118800E+02  0.7818608E-02  0.1130116E+00
         25   -1    0    0    0    0  0.00000000000E+00  0.00000000000E+00  0.99999998245E-14  0.12500000000E+03  0.12500000000E+03 0.  0.
        -11    1    1    0    0    0  0.35087657435E+02  0.24537276968E+02  0.17867711052E+01  0.42853403791E+02  0.51100000000E-03 0.  1.
         11    1    1    0    0    0  0.12831656625E+02  0.13258965151E+02 -0.92860793701E+01  0.20656302644E+02  0.51100000000E-03 0. -1.
         22    1    1    0    0    0 -0.47919314059E+02 -0.37796242119E+02  0.74993082648E+01  0.61490293565E+02  0.00000000000E+00 0.  1.
</event>
<event>
 4    1  0.1977762E-002  0.9118800E+02  0.7818608E-02  0.1130116E+00
         25   -1    0    0    0    0  0.00000000000E+00  0.00000000000E+00  0.99999998245E-14  0.12500000000E+03  0.12500000000E+03 0.  0.
        -11    1    1    0    0    0  0.34013742002E+02 -0.41084304445E+02 -0.15821291609E+02  0.55634233931E+02  0.51100000000E-03 0.  1.
         11    1    1    0    0    0  0.39997670453E+01 -0.35760073905E+01 -0.47991595227E+01  0.71984649515E+01  0.51100000000E-03 0. -1.
         22    1    1    0    0    0 -0.38013509047E+02  0.44660311836E+02  0.20620451132E+02  0.62167301117E+02  0.00000000000E+00 0.  1.
</event>
<event>
 4    1  0.1977762E-002  0.9118800E+02  0.7818608E-02  0.1130116E+00
         25   -1    0    0    0    0  0.00000000000E+00  0.00000000000E+00  0.99999998245E-14  0.12500000000E+03  0.12500000000E+03 0.  0.
        -11    1    1    0    0    0 -0.86933057290E+01 -0.38866270706E+01 -0.19460180037E+02  0.21665134244E+02  0.51100000000E-03 0.  1.
         11    1    1    0    0    0 -0.16383704339E+02 -0.73249488890E+01 -0.36679771236E+02  0.40834865768E+02  0.51100000000E-03 0. -1.
         22    1    1    0    0    0  0.25077010068E+02  0.11211575960E+02  0.56139951274E+02  0.62499999988E+02  0.00000000000E+00 0. -1.
</event>
<event>
 4    1  0.1977762E-002  0.9118800E+02  0.7818608E-02  0.1130116E+00
         25   -1    0    0    0    0  0.00000000000E+00  0.00000000000E+00  0.99999998245E-14  0.12500000000E+03  0.12500000000E+03 0.  0.
        -11    1    1    0    0    0  0.19788852039E+02  0.21601305002E+02 -0.44109052062E+01  0.29625514811E+02  0.51100000000E-03 0. -1.
         11    1    1    0    0    0  0.21962897002E+02  0.23963280587E+02 -0.49116391198E+01  0.32874486465E+02  0.51100000000E-03 0.  1.
         22    1    1    0    0    0 -0.41751749041E+02 -0.45564585589E+02  0.93225443260E+01  0.62499998725E+02  0.00000000000E+00 0.  1.
</event>
<event>
 4    1  0.1977762E-002  0.9118800E+02  0.7818608E-02  0.1130116E+00
         25   -1    0    0    0    0  0.00000000000E+00  0.00000000000E+00  0.99999998245E-14  0.12500000000E+03  0.12500000000E+03 0.  0.
        -11    1    1    0    0    0 -0.54616346686E+01  0.11124078243E+02  0.13792005913E+02  0.18541682701E+02  0.51100000000E-03 0.  1.
         11    1    1    0    0    0 -0.12951700489E+02  0.26373303896E+02  0.32696115337E+02  0.43958317329E+02  0.51100000000E-03 0. -1.
         22    1    1    0    0    0  0.18413335158E+02 -0.37497382139E+02 -0.46488121251E+02  0.62499999970E+02  0.00000000000E+00 0. -1.
</event>
<event>
 4    1  0.1977762E-002  0.9118800E+02  0.7818608E-02  0.1130116E+00
         25   -1    0    0    0    0  0.00000000000E+00  0.00000000000E+00  0.99999998245E-14  0.12500000000E+03  0.12500000000E+03 0.  0.
        -11    1    1    0    0    0 -0.40087831437E+02  0.14129138049E+01  0.20437152094E+02  0.45018970898E+02  0.51100000000E-03 0.  1.
         11    1    1    0    0    0 -0.15318045194E+02  0.14432213820E+01  0.83201354127E+01  0.17491427902E+02  0.51100000000E-03 0. -1.
         22    1    1    0    0    0  0.55405876630E+02 -0.28561351869E+01 -0.28757287507E+02  0.62489601200E+02  0.00000000000E+00 0.  1.
</event>
<event>
 4    1  0.1977762E-002  0.9118800E+02  0.7818608E-02  0.1130116E+00
         25   -1    0    0    0    0  0.00000000000E+00  0.00000000000E+00  0.99999998245E-14  0.12500000000E+03  0.12500000000E+03 0.  0.
        -11    1    1    0    0    0  0.22980944242E+02 -0.11953401528E+02 -0.26080487488E+02  0.36758664750E+02  0.51100000000E-03 0. -1.
         11    1    1    0    0    0  0.10855426607E+01 -0.31118214712E+02 -0.24735812099E+01  0.31235241219E+02  0.51100000000E-03 0.  1.
         22    1    1    0    0    0 -0.24066486903E+02  0.43071616241E+02  0.28554068698E+02  0.57006094031E+02  0.00000000000E+00 0. -1.
</event>
<event>
 4    1  0.1977762E-002  0.9118800E+02  0.7818608E-02  0.1130116E+00
         25   -1    0    0    0    0  0.00000000000E+00  0.00000000000E+00  0.99999998245E-14  0.12500000000E+03  0.12500000000E+03 0.  0.
        -11    1    1    0    0    0  0.78847524984E+01  0.17650353173E+02  0.33662901122E+02  0.38818748065E+02  0.51100000000E-03 0.  1.
         11    1    1    0    0    0  0.48155359969E+01  0.10775200922E+02  0.20530645084E+02  0.23681252705E+02  0.51100000000E-03 0. -1.
         22    1    1    0    0    0 -0.12700288495E+02 -0.28425554095E+02 -0.54193546206E+02  0.62499999231E+02  0.00000000000E+00 0.  1.
</event>
<event>
 4    1  0.1977762E-002  0.9118800E+02  0.7818608E-02  0.1130116E+00
         25   -1    0    0    0    0  0.00000000000E+00  0.00000000000E+00  0.99999998245E-14  0.12500000000E+03  0.12500000000E+03 0.  0.
        -11    1    1    0    0    0 -0.38380903133E+02  0.41245245570E+02  0.20939085525E+02  0.60105817608E+02  0.51100000000E-03 0. -1.
         11    1    1    0    0    0 -0.12040269441E+01  0.19828617669E+01  0.68417311177E+00  0.24185770148E+01  0.51100000000E-03 0.  1.
         22    1    1    0    0    0  0.39584930077E+02 -0.43228107337E+02 -0.21623258637E+02  0.62475605377E+02  0.00000000000E+00 0. -1.
</event>
<event>
 4    1  0.1977762E-002  0.9118800E+02  0.7818608E-02  0.1130116E+00
         25   -1    0    0    0    0  0.00000000000E+00  0.00000000000E+00  0.99999998245E-14  0.12500000000E+03  0.12500000000E+03 0.  0.
        -11    1    1    0    0    0 -0.50704224086E+01  0.31425753903E+01 -0.47966948157E+01  0.76546224532E+01  0.51100000000E-03 0. -1.
         11    1    1    0    0    0 -0.36373934482E+02  0.22409776275E+02 -0.34391206833E+02  0.54845385312E+02  0.51100000000E-03 0.  1.
         22    1    1    0    0    0  0.41444356890E+02 -0.25552351665E+02  0.39187901649E+02  0.62499992234E+02  0.00000000000E+00 0.  1.
</event>
<event>
 4    1  0.1977762E-002  0.9118800E+02  0.7818608E-02  0.1130116E+00
         25   -1    0    0    0    0  0.00000000000E+00  0.00000000000E+00  0.99999998245E-14  0.12500000000E+03  0.12500000000E+03 0.  0.
        -11    1    1    0    0    0  0.90582852502E+01  0.22550187908E+02 -0.55422800015E+02  0.60516528884E+02  0.51100000000E-03 0.  1.
         11    1    1    0    0    0 -0.21904295659E+01 -0.47864206730E+01 -0.61320089451E+00  0.52994169623E+01  0.51100000000E-03 0. -1.
         22    1    1    0    0    0 -0.68678556843E+01 -0.17763767235E+02  0.56036000910E+02  0.59184054154E+02  0.00000000000E+00 0.  1.
</event>
<event>
 4    1  0.1977762E-002  0.9118800E+02  0.7818608E-02  0.1130116E+00
         25   -1    0    0    0    0  0.00000000000E+00  0.00000000000E+00  0.99999998245E-14  0.12500000000E+03  0.12500000000E+03 0.  0.
        -11    1    1    0    0    0 -0.12543655254E+01 -0.69179426238E+01  0.19274429018E+01  0.72901577088E+01  0.51100000000E-03 0.  1.
         11    1    1    0    0    0 -0.10525624630E+02 -0.53525102970E+02  0.86376618563E+01  0.55229834550E+02  0.51100000000E-03 0. -1.
         22    1    1    0    0    0  0.11779990155E+02  0.60443045594E+02 -0.10565104758E+02  0.62480007741E+02  0.00000000000E+00 0. -1.
</event>
<event>
 4    1  0.1977762E-002  0.9118800E+02  0.7818608E-02  0.1130116E+00
         25   -1    0    0    0    0  0.00000000000E+00  0.00000000000E+00  0.99999998245E-14  0.12500000000E+03  0.12500000000E+03 0.  0.
        -11    1    1    0    0    0  0.23764908850E+02 -0.48016580095E+01 -0.38145273646E+02  0.45198326452E+02  0.51100000000E-03 0. -1.
         11    1    1    0    0    0  0.94502079671E+01 -0.11559642448E+00 -0.14530948280E+02  0.17334020057E+02  0.51100000000E-03 0.  1.
         22    1    1    0    0    0 -0.33215116817E+02  0.49172544340E+01  0.52676221926E+02  0.62467653491E+02  0.00000000000E+00 0.  1.
</event>
<event>
 4    1  0.1977762E-002  0.9118800E+02  0.7818608E-02  0.1130116E+00
         25   -1    0    0    0    0  0.00000000000E+00  0.00000000000E+00  0.99999998245E-14  0.12500000000E+03  0.12500000000E+03 0.  0.
        -11    1    1    0    0    0  0.63246455107E+01  0.54886228689E+01  0.38214790504E+01  0.92048804569E+01  0.51100000000E-03 0.  1.
         11    1    1    0    0    0  0.37857916984E+02  0.30610949105E+02  0.21687444837E+02  0.53297254594E+02  0.51100000000E-03 0. -1.
         22    1    1    0    0    0 -0.44182562495E+02 -0.36099571974E+02 -0.25508923888E+02  0.62497864949E+02  0.00000000000E+00 0. -1.
</event>
<event>
 4    1  0.1977762E-002  0.9118800E+02  0.7818608E-02  0.1130116E+00
         25   -1    0    0    0    0  0.00000000000E+00  0.00000000000E+00  0.99999998245E-14  0.12500000000E+03  0.12500000000E+03 0.  0.
        -11    1    1    0    0    0 -0.51757603408E+01  0.44074266825E+01  0.12222382308E+02  0.13985726102E+02  0.51100000000E-03 0. -1.
         11    1    1    0    0    0 -0.22676949548E+02  0.15517795983E+02  0.40021532091E+02  0.48546565935E+02  0.51100000000E-03 0.  1.
         22    1    1    0    0    0  0.27852709889E+02 -0.19925222665E+02 -0.52243914398E+02  0.62467707962E+02  0.00000000000E+00 0.  1.
</event>
<event>
 4    1  0.1977762E-002  0.9118800E+02  0.7818608E-02  0.1130116E+00
         25   -1    0    0    0    0  0.00000000000E+00  0.00000000000E+00  0.99999998245E-14  0.12500000000E+03  0.12500000000E+03 0.  0.
        -11    1    1    0    0    0  0.66401799884E+01 -0.88254222932E+01 -0.71788190701E+01  0.13172528703E+02  0.51100000000E-03 0. -1.
         11    1    1    0    0    0  0.24817591872E+02 -0.32622262827E+02 -0.27443160201E+02  0.49328003612E+02  0.51100000000E-03 0.  1.
         22    1    1    0    0    0 -0.31457771861E+02  0.41447685120E+02  0.34621979271E+02  0.62499467685E+02  0.00000000000E+00 0.  1.
</event>
<event>
 4    1  0.1977762E-002  0.9118800E+02  0.7818608E-02  0.1130116E+00
         25   -1    0    0    0    0  0.00000000000E+00  0.00000000000E+00  0.99999998245E-14  0.12500000000E+03  0.12500000000E+03 0.  0.
        -11    1    1    0    0    0 -0.15092759932E+02  0.12466138342E+02 -0.48748772878E+02  0.52532264989E+02  0.51100000000E-03 0.  1.
         11    1    1    0    0    0 -0.29427878924E+01  0.23418564455E+01 -0.92311674110E+01  0.99678856445E+01  0.51100000000E-03 0. -1.
         22    1    1    0    0    0  0.18035547824E+02 -0.14807994787E+02  0.57979940289E+02  0.62499849367E+02  0.00000000000E+00 0.  1.
</event>
<event>
 4    1  0.1977762E-002  0.9118800E+02  0.7818608E-02  0.1130116E+00
         25   -1    0    0    0    0  0.00000000000E+00  0.00000000000E+00  0.99999998245E-14  0.12500000000E+03  0.12500000000E+03 0.  0.
        -11    1    1    0    0    0 -0.25306657847E+01  0.12627279065E+01  0.58119807554E+01  0.64635804042E+01  0.51100000000E-03 0.  1.
         11    1    1    0    0    0  0.58467161931E+02  0.64258323319E+00 -0.18151536043E+02  0.61223363175E+02  0.51100000000E-03 0. -1.
         22    1    1    0    0    0 -0.55936496146E+02 -0.19053111397E+01  0.12339555287E+02  0.57313056421E+02  0.00000000000E+00 0. -1.
</event>
<event>
 4    1  0.1977762E-002  0.9118800E+02  0.7818608E-02  0.1130116E+00
         25   -1    0    0    0    0  0.00000000000E+00  0.00000000000E+00  0.99999998245E-14  0.12500000000E+03  0.12500000000E+03 0.  0.
        -11    1    1    0    0    0  0.43250921001E+01 -0.22010192337E+01 -0.37893331423E+01  0.61571059164E+01  0.51100000000E-03 0.  1.
         11    1    1    0    0    0  0.39648247143E+02 -0.20066609141E+02 -0.34639139591E+02  0.56342899249E+02  0.51100000000E-03 0. -1.
         22    1    1    0    0    0 -0.43973339243E+02  0.22267628375E+02  0.38428472734E+02  0.62499994834E+02  0.00000000000E+00 0. -1.
</event>
<event>
 4    1  0.1977762E-002  0.9118800E+02  0.7818608E-02  0.1130116E+00
         25   -1    0    0    0    0  0.00000000000E+00  0.00000000000E+00  0.99999998245E-14  0.12500000000E+03  0.12500000000E+03 0.  0.
        -11    1    1    0    0    0 -0.28882291508E+02  0.46780420722E+02  0.76101606844E+01  0.55502333929E+02  0.51100000000E-03 0. -1.
         11    1    1    0    0    0 -0.36615835977E+01  0.58814197829E+01  0.98469382969E+00  0.69977078608E+01  0.51100000000E-03 0.  1.
         22    1    1    0    0    0  0.32543875106E+02 -0.52661840504E+02 -0.85948545141E+01  0.62499958211E+02  0.00000000000E+00 0. -1.
</event>
<event>
 4    1  0.1977762E-002  0.9118800E+02  0.7818608E-02  0.1130116E+00
         25   -1    0    0    0    0  0.00000000000E+00  0.00000000000E+00  0.99999998245E-14  0.12500000000E+03  0.12500000000E+03 0.  0.
        -11    1    1    0    0    0 -0.16046589460E+02 -0.16585696398E+02 -0.44878979695E+02  0.50464850906E+02  0.51100000000E-03 0. -1.
         11    1    1    0    0    0 -0.38423201299E+01 -0.39701622807E+01 -0.10692026620E+02  0.12035158745E+02  0.51100000000E-03 0.  1.
         22    1    1    0    0    0  0.19888909590E+02  0.20555858679E+02  0.55571006315E+02  0.62499990348E+02  0.00000000000E+00 0. -1.
</event>
<event>
 4    1  0.1977762E-002  0.9118800E+02  0.7818608E-02  0.1130116E+00
         25   -1    0    0    0    0  0.00000000000E+00  0.00000000000E+00  0.99999998245E-14  0.12500000000E+03  0.12500000000E+03 0.  0.
        -11    1    1    0    0    0  0.29413867803E+02 -0.50664826979E+02  0.35251919714E+01  0.58690095337E+02  0.51100000000E-03 0. -1.
         11    1    1    0    0    0  0.19090601235E+01 -0.32891588353E+01  0.22868562099E+00  0.38099046935E+01  0.51100000000E-03 0. -1.
         22    1    1    0    0    0 -0.31322927927E+02  0.53953985815E+02 -0.37538775924E+01  0.62499999969E+02  0.00000000000E+00 0. -1.
</event>
<event>
 4    1  0.1977762E-002  0.9118800E+02  0.7818608E-02  0.1130116E+00
         25   -1    0    0    0    0  0.00000000000E+00  0.00000000000E+00  0.99999998245E-14  0.12500000000E+03  0.12500000000E+03 0.  0.
        -11    1    1    0    0    0 -0.22711042322E+01  0.80236822503E+01 -0.92347441148E+01  0.12442583752E+02  0.51100000000E-03 0.  1.
         11    1    1    0    0    0 -0.91282402883E+01  0.32286294107E+02 -0.37148558203E+02  0.50057416381E+02  0.51100000000E-03 0. -1.
         22    1    1    0    0    0  0.11399344520E+02 -0.40309976358E+02  0.46383302318E+02  0.62499999867E+02  0.00000000000E+00 0. -1.
</event>
<event>
 4    1  0.1977762E-002  0.9118800E+02  0.7818608E-02  0.1130116E+00
         25   -1    0    0    0    0  0.00000000000E+00  0.00000000000E+00  0.99999998245E-14  0.12500000000E+03  0.12500000000E+03 0.  0.
        -11    1    1    0    0    0  0.42277983304E+02  0.38729208670E+02 -0.11735997160E+02  0.58524465876E+02  0.51100000000E-03 0.  1.
         11    1    1    0    0    0  0.30330074572E+01  0.24172832726E+01 -0.89467442978E+00  0.39803059245E+01  0.51100000000E-03 0. -1.
         22    1    1    0    0    0 -0.45310990761E+02 -0.41146491943E+02  0.12630671590E+02  0.62495228200E+02  0.00000000000E+00 0.  1.
</event>
<event>
 4    1  0.1977762E-002  0.9118800E+02  0.7818608E-02  0.1130116E+00
         25   -1    0    0    0    0  0.00000000000E+00  0.00000000000E+00  0.99999998245E-14  0.12500000000E+03  0.12500000000E+03 0.  0.
        -11    1    1    0    0    0  0.38885387294E+02 -0.24785219229E+02 -0.28914351106E+02  0.54428118995E+02  0.51100000000E-03 0. -1.
         11    1    1    0    0    0  0.58296083086E+01 -0.36329920612E+01 -0.42397907669E+01  0.80720995011E+01  0.51100000000E-03 0.  1.
         22    1    1    0    0    0 -0.44714995603E+02  0.28418211290E+02  0.33154141873E+02  0.62499781504E+02  0.00000000000E+00 0. -1.
</event>
<event>
 4    1  0.1977762E-002  0.9118800E+02  0.7818608E-02  0.1130116E+00
         25   -1    0    0    0    0  0.00000000000E+00  0.00000000000E+00  0.99999998245E-14  0.12500000000E+03  0.12500000000E+03 0.  0.
        -11    1    1    0    0    0 -0.79888892646E+01 -0.21116793187E+01  0.19234226034E+02  0.20934110744E+02  0.51100000000E-03 0.  1.
         11    1    1    0    0    0 -0.12992277564E+02 -0.41208404106E+01  0.39287718841E+02  0.41584918588E+02  0.51100000000E-03 0. -1.
         22    1    1    0    0    0  0.20981166828E+02  0.62325197293E+01 -0.58521944875E+02  0.62480970668E+02  0.00000000000E+00 0.  1.
</event>
<event>
 4    1  0.1977762E-002  0.9118800E+02  0.7818608E-02  0.1130116E+00
         25   -1    0    0    0    0  0.00000000000E+00  0.00000000000E+00  0.99999998245E-14  0.12500000000E+03  0.12500000000E+03 0.  0.
        -11    1    1    0    0    0 -0.12532511688E+02 -0.70997379172E+01 -0.10687131260E+02  0.17935576448E+02  0.51100000000E-03 0. -1.
         11    1    1    0    0    0 -0.31139556149E+02 -0.17642420695E+02 -0.26552982549E+02  0.44564423564E+02  0.51100000000E-03 0.  1.
         22    1    1    0    0    0  0.43672067836E+02  0.24742158612E+02  0.37240113809E+02  0.62499999987E+02  0.00000000000E+00 0.  1.
</event>
<event>
 4    1  0.1977762E-002  0.9118800E+02  0.7818608E-02  0.1130116E+00
         25   -1    0    0    0    0  0.00000000000E+00  0.00000000000E+00  0.99999998245E-14  0.12500000000E+03  0.12500000000E+03 0.  0.
        -11    1    1    0    0    0  0.21312416908E+01 -0.52255107357E+01  0.41546462500E+01  0.70077984643E+01  0.51100000000E-03 0.  1.
         11    1    1    0    0    0  0.34058406185E+02 -0.13594480281E+02 -0.46483803806E+02  0.59207507485E+02  0.51100000000E-03 0. -1.
         22    1    1    0    0    0 -0.36189647876E+02  0.18819991016E+02  0.42329157556E+02  0.58784694051E+02  0.00000000000E+00 0. -1.
</event>
<event>
 4    1  0.1977762E-002  0.9118800E+02  0.7818608E-02  0.1130116E+00
         25   -1    0    0    0    0  0.00000000000E+00  0.00000000000E+00  0.99999998245E-14  0.12500000000E+03  0.12500000000E+03 0.  0.
        -11    1    1    0    0    0  0.21416807136E+02 -0.51412324897E+02 -0.15620790601E+02  0.57843892318E+02  0.51100000000E-03 0.  1.
         11    1    1    0    0    0  0.17231006270E+01 -0.41389029113E+01 -0.12568795079E+01  0.46561077563E+01  0.51100000000E-03 0. -1.
         22    1    1    0    0    0 -0.23139907763E+02  0.55551227809E+02  0.16877670109E+02  0.62499999925E+02  0.00000000000E+00 0.  1.
</event>
<event>
 4    1  0.1977762E-002  0.9118800E+02  0.7818608E-02  0.1130116E+00
         25   -1    0    0    0    0  0.00000000000E+00  0.00000000000E+00  0.99999998245E-14  0.12500000000E+03  0.12500000000E+03 0.  0.
        -11    1    1    0    0    0  0.17967095643E+02 -0.13389642893E+02  0.37307198402E+02  0.43519261431E+02  0.51100000000E-03 0. -1.
         11    1    1    0    0    0  0.78343819317E+01 -0.58401167087E+01  0.16272182847E+02  0.18980738613E+02  0.51100000000E-03 0.  1.
         22    1    1    0    0    0 -0.25801477575E+02  0.19229759601E+02 -0.53579381249E+02  0.62499999956E+02  0.00000000000E+00 0. -1.
</event>
<event>
 4    1  0.1977762E-002  0.9118800E+02  0.7818608E-02  0.1130116E+00
         25   -1    0    0    0    0  0.00000000000E+00  0.00000000000E+00  0.99999998245E-14  0.12500000000E+03  0.12500000000E+03 0.  0.
        -11    1    1    0    0    0 -0.52560779458E+01 -0.38256976714E+01  0.31115827793E+02  0.31787687200E+02  0.51100000000E-03 0.  1.
         11    1    1    0    0    0 -0.50775213393E+01 -0.37011196419E+01  0.30062712022E+02  0.30712312904E+02  0.51100000000E-03 0. -1.
         22    1    1    0    0    0  0.10333599285E+02  0.75268173134E+01 -0.61178539815E+02  0.62499999895E+02  0.00000000000E+00 0. -1.
</event>
<event>
 4    1  0.1977762E-002  0.9118800E+02  0.7818608E-02  0.1130116E+00
         25   -1    0    0    0    0  0.00000000000E+00  0.00000000000E+00  0.99999998245E-14  0.12500000000E+03  0.12500000000E+03 0.  0.
        -11    1    1    0    0    0  0.10003585088E+02 -0.39446757934E+01  0.34966715661E+02  0.36582829115E+02  0.51100000000E-03 0.  1.
         11    1    1    0    0    0  0.70897257242E+01 -0.27960739478E+01  0.24771304148E+02  0.25917170946E+02  0.51100000000E-03 0. -1.
         22    1    1    0    0    0 -0.17093310812E+02  0.67407497412E+01 -0.59738019809E+02  0.62499999939E+02  0.00000000000E+00 0. -1.
</event>
<event>
 4    1  0.1977762E-002  0.9118800E+02  0.7818608E-02  0.1130116E+00
         25   -1    0    0    0    0  0.00000000000E+00  0.00000000000E+00  0.99999998245E-14  0.12500000000E+03  0.12500000000E+03 0.  0.
        -11    1    1    0    0    0 -0.41798265195E-01  0.12775939196E+01  0.38625154059E+01  0.40685401362E+01  0.51100000000E-03 0. -1.
         11    1    1    0    0    0 -0.59843552335E+00  0.18353853398E+02  0.55470834184E+02  0.58431459891E+02  0.51100000000E-03 0. -1.
         22    1    1    0    0    0  0.64023378855E+00 -0.19631447317E+02 -0.59333349590E+02  0.62499999973E+02  0.00000000000E+00 0. -1.
</event>
<event>
 4    1  0.1977762E-002  0.9118800E+02  0.7818608E-02  0.1130116E+00
         25   -1    0    0    0    0  0.00000000000E+00  0.00000000000E+00  0.99999998245E-14  0.12500000000E+03  0.12500000000E+03 0.  0.
        -11    1    1    0    0    0 -0.10165294443E+02 -0.23571643334E+02 -0.44451991660E+02  0.51331619334E+02  0.51100000000E-03 0. -1.
         11    1    1    0    0    0 -0.14347713780E+01 -0.49986378906E+01 -0.98976596004E+01  0.11180725178E+02  0.51100000000E-03 0.  1.
         22    1    1    0    0    0  0.11600065821E+02  0.28570281225E+02  0.54349651261E+02  0.62487655489E+02  0.00000000000E+00 0.  1.
</event>
<event>
 4    1  0.1977762E-002  0.9118800E+02  0.7818608E-02  0.1130116E+00
         25   -1    0    0    0    0  0.00000000000E+00  0.00000000000E+00  0.99999998245E-14  0.12500000000E+03  0.12500000000E+03 0.  0.
        -11    1    1    0    0    0  0.37902034411E+02  0.29445424873E+02  0.25616012719E+02  0.54403835952E+02  0.51100000000E-03 0.  1.
         11    1    1    0    0    0  0.52126721531E+01  0.45021795253E+01  0.42762204721E+01  0.81072580594E+01  0.51100000000E-03 0. -1.
         22    1    1    0    0    0 -0.43114706564E+02 -0.33947604398E+02 -0.29892233191E+02  0.62488905988E+02  0.00000000000E+00 0.  1.
</event>
<event>
 4    1  0.1977762E-002  0.9118800E+02  0.7818608E-02  0.1130116E+00
         25   -1    0    0    0    0  0.00000000000E+00  0.00000000000E+00  0.99999998245E-14  0.12500000000E+03  0.12500000000E+03 0.  0.
        -11    1    1    0    0    0  0.16311017284E+00 -0.15833566212E+01  0.49357688896E+01  0.51860811709E+01  0.51100000000E-03 0. -1.
         11    1    1    0    0    0  0.29590905710E+01 -0.16530310902E+02  0.54799406060E+02  0.57314765116E+02  0.51100000000E-03 0.  1.
         22    1    1    0    0    0 -0.31222007439E+01  0.18113667523E+02 -0.59735174949E+02  0.62499153713E+02  0.00000000000E+00 0.  1.
</event>
<event>
 4    1  0.1977762E-002  0.9118800E+02  0.7818608E-02  0.1130116E+00
         25   -1    0    0    0    0  0.00000000000E+00  0.00000000000E+00  0.99999998245E-14  0.12500000000E+03  0.12500000000E+03 0.  0.
        -11    1    1    0    0    0  0.41710613620E+01 -0.44216702667E+01 -0.56279038818E+01  0.82838531613E+01  0.51100000000E-03 0.  1.
         11    1    1    0    0    0  0.26286550920E+02 -0.29326146937E+02 -0.37262245537E+02  0.54216977011E+02  0.51100000000E-03 0. -1.
         22    1    1    0    0    0 -0.30457612282E+02  0.33747817204E+02  0.42890149419E+02  0.62499169828E+02  0.00000000000E+00 0. -1.
</event>
<event>
 4    1  0.1977762E-002  0.9118800E+02  0.7818608E-02  0.1130116E+00
         25   -1    0    0    0    0  0.00000000000E+00  0.00000000000E+00  0.99999998245E-14  0.12500000000E+03  0.12500000000E+03 0.  0.
        -11    1    1    0    0    0 -0.29950840267E+01  0.72955524055E+01 -0.34423084868E+01  0.86049463222E+01  0.51100000000E-03 0.  1.
         11    1    1    0    0    0 -0.18777958969E+02  0.45683714772E+02 -0.21565326500E+02  0.53895054001E+02  0.51100000000E-03 0. -1.
         22    1    1    0    0    0  0.21773042996E+02 -0.52979267178E+02  0.25007634987E+02  0.62499999677E+02  0.00000000000E+00 0. -1.
</event>
<event>
 4    1  0.1977762E-002  0.9118800E+02  0.7818608E-02  0.1130116E+00
         25   -1    0    0    0    0  0.00000000000E+00  0.00000000000E+00  0.99999998245E-14  0.12500000000E+03  0.12500000000E+03 0.  0.
        -11    1    1    0    0    0  0.34367443020E+02  0.33758661499E+02 -0.15842569248E+02  0.50712477425E+02  0.51100000000E-03 0. -1.
         11    1    1    0    0    0  0.79907389638E+01  0.78467608368E+01 -0.36772458175E+01  0.11787523144E+02  0.51100000000E-03 0.  1.
         22    1    1    0    0    0 -0.42358181984E+02 -0.41605422335E+02  0.19519815065E+02  0.62499999431E+02  0.00000000000E+00 0. -1.
</event>
<event>
 4    1  0.1977762E-002  0.9118800E+02  0.7818608E-02  0.1130116E+00
         25   -1    0    0    0    0  0.00000000000E+00  0.00000000000E+00  0.99999998245E-14  0.12500000000E+03  0.12500000000E+03 0.  0.
        -11    1    1    0    0    0 -0.26332693139E+01 -0.16844060593E+02 -0.18075860955E+02  0.24847398940E+02  0.51100000000E-03 0. -1.
         11    1    1    0    0    0 -0.39456784914E+01 -0.25537018851E+02 -0.27386330305E+02  0.37652606794E+02  0.51100000000E-03 0.  1.
         22    1    1    0    0    0  0.65789478053E+01  0.42381079445E+02  0.45462191260E+02  0.62499994266E+02  0.00000000000E+00 0. -1.
</event>
<event>
 4    1  0.1977762E-002  0.9118800E+02  0.7818608E-02  0.1130116E+00
         25   -1    0    0    0    0  0.00000000000E+00  0.00000000000E+00  0.99999998245E-14  0.12500000000E+03  0.12500000000E+03 0.  0.
        -11    1    1    0    0    0  0.29339369782E+02  0.67315493579E+01  0.51143140570E+02  0.59344192669E+02  0.51100000000E-03 0.  1.
         11    1    1    0    0    0  0.16671569157E+01  0.15202712162E+00  0.26800959769E+01  0.31599745463E+01  0.51100000000E-03 0. -1.
         22    1    1    0    0    0 -0.31006526698E+02 -0.68835764795E+01 -0.53823236547E+02  0.62495832784E+02  0.00000000000E+00 0.  1.
</event>
<event>
 4    1  0.1977762E-002  0.9118800E+02  0.7818608E-02  0.1130116E+00
         25   -1    0    0    0    0  0.00000000000E+00  0.00000000000E+00  0.99999998245E-14  0.12500000000E+03  0.12500000000E+03 0.  0.
        -11    1    1    0    0    0 -0.35364470730E+01 -0.91474423666E+01  0.13344278550E+02  0.16560553434E+02  0.51100000000E-03 0. -1.
         11    1    1    0    0    0 -0.98058544176E+01 -0.25381366346E+02  0.37014378575E+02  0.45939446666E+02  0.51100000000E-03 0.  1.
         22    1    1    0    0    0  0.13342301491E+02  0.34528808713E+02 -0.50358657124E+02  0.62499999900E+02  0.00000000000E+00 0.  1.
</event>
<event>
 4    1  0.1977762E-002  0.9118800E+02  0.7818608E-02  0.1130116E+00
         25   -1    0    0    0    0  0.00000000000E+00  0.00000000000E+00  0.99999998245E-14  0.12500000000E+03  0.12500000000E+03 0.  0.
        -11    1    1    0    0    0  0.23649328430E+02 -0.49454453960E+02  0.10745871089E+02  0.55861502820E+02  0.51100000000E-03 0.  1.
         11    1    1    0    0    0  0.26644183954E+01 -0.60433130635E+01  0.76638786532E+00  0.66489178661E+01  0.51100000000E-03 0. -1.
         22    1    1    0    0    0 -0.26313746825E+02  0.55497767023E+02 -0.11512258954E+02  0.62489579313E+02  0.00000000000E+00 0.  1.
</event>
<event>
 4    1  0.1977762E-002  0.9118800E+02  0.7818608E-02  0.1130116E+00
         25   -1    0    0    0    0  0.00000000000E+00  0.00000000000E+00  0.99999998245E-14  0.12500000000E+03  0.12500000000E+03 0.  0.
        -11    1    1    0    0    0  0.11597458209E+02  0.42541912320E+02 -0.33100349271E+02  0.55135727645E+02  0.51100000000E-03 0.  1.
         11    1    1    0    0    0  0.16090193299E+01  0.55856997463E+01 -0.45225831174E+01  0.73649672894E+01  0.51100000000E-03 0. -1.
         22    1    1    0    0    0 -0.13206477539E+02 -0.48127612066E+02  0.37622932389E+02  0.62499305066E+02  0.00000000000E+00 0.  1.
</event>
<event>
 4    1  0.1977762E-002  0.9118800E+02  0.7818608E-02  0.1130116E+00
         25   -1    0    0    0    0  0.00000000000E+00  0.00000000000E+00  0.99999998245E-14  0.12500000000E+03  0.12500000000E+03 0.  0.
        -11    1    1    0    0    0 -0.32987972910E+01  0.16636289310E+02  0.82451393530E+01  0.18858168224E+02  0.51100000000E-03 0.  1.
         11    1    1    0    0    0 -0.75836870283E+01  0.38512931259E+02  0.19074897449E+02  0.43641836534E+02  0.51100000000E-03 0. -1.
         22    1    1    0    0    0  0.10882484319E+02 -0.55149220569E+02 -0.27320036802E+02  0.62499995242E+02  0.00000000000E+00 0. -1.
</event>
<event>
 4    1  0.1977762E-002  0.9118800E+02  0.7818608E-02  0.1130116E+00
         25   -1    0    0    0    0  0.00000000000E+00  0.00000000000E+00  0.99999998245E-14  0.12500000000E+03  0.12500000000E+03 0.  0.
        -11    1    1    0    0    0  0.25356048137E+02 -0.13202563353E+02  0.13491365595E+02  0.31610975975E+02  0.51100000000E-03 0. -1.
         11    1    1    0    0    0  0.24776188237E+02 -0.12901026594E+02  0.13184681078E+02  0.30889024040E+02  0.51100000000E-03 0.  1.
         22    1    1    0    0    0 -0.50132236374E+02  0.26103589947E+02 -0.26676046673E+02  0.62499999985E+02  0.00000000000E+00 0.  1.
</event>
<event>
 4    1  0.1977762E-002  0.9118800E+02  0.7818608E-02  0.1130116E+00
         25   -1    0    0    0    0  0.00000000000E+00  0.00000000000E+00  0.99999998245E-14  0.12500000000E+03  0.12500000000E+03 0.  0.
        -11    1    1    0    0    0 -0.19983602100E+02 -0.90233026603E+01  0.42231767235E+02  0.47584519624E+02  0.51100000000E-03 0.  1.
         11    1    1    0    0    0 -0.62634462628E+01 -0.28284190691E+01  0.13237856372E+02  0.14915480385E+02  0.51100000000E-03 0.  1.
         22    1    1    0    0    0  0.26247048362E+02  0.11851721729E+02 -0.55469623608E+02  0.62499999991E+02  0.00000000000E+00 0.  1.
</event>
<event>
 4    1  0.1977762E-002  0.9118800E+02  0.7818608E-02  0.1130116E+00
         25   -1    0    0    0    0  0.00000000000E+00  0.00000000000E+00  0.99999998245E-14  0.12500000000E+03  0.12500000000E+03 0.  0.
        -11    1    1    0    0    0 -0.35553946475E+02  0.21674068754E+02  0.11626925340E+02  0.43232323086E+02  0.51100000000E-03 0.  1.
         11    1    1    0    0    0 -0.15930692806E+02  0.94004439870E+01  0.53972061350E+01  0.19268761111E+02  0.51100000000E-03 0. -1.
         22    1    1    0    0    0  0.51484639281E+02 -0.31074512741E+02 -0.17024131476E+02  0.62498915803E+02  0.00000000000E+00 0.  1.
</event>
<event>
 4    1  0.1977762E-002  0.9118800E+02  0.7818608E-02  0.1130116E+00
         25   -1    0    0    0    0  0.00000000000E+00  0.00000000000E+00  0.99999998245E-14  0.12500000000E+03  0.12500000000E+03 0.  0.
        -11    1    1    0    0    0  0.64599327458E+01  0.25566863755E+02 -0.11967629964E+02  0.28958926440E+02  0.51100000000E-03 0.  1.
         11    1    1    0    0    0  0.74832640524E+01  0.29614398379E+02 -0.13856110234E+02  0.33541073676E+02  0.51100000000E-03 0. -1.
         22    1    1    0    0    0 -0.13943196798E+02 -0.55181262134E+02  0.25823740198E+02  0.62499999884E+02  0.00000000000E+00 0. -1.
</event>
<event>
 4    1  0.1977762E-002  0.9118800E+02  0.7818608E-02  0.1130116E+00
         25   -1    0    0    0    0  0.00000000000E+00  0.00000000000E+00  0.99999998245E-14  0.12500000000E+03  0.12500000000E+03 0.  0.
        -11    1    1    0    0    0  0.17593404839E+01  0.15851140668E+01 -0.30033380395E+00  0.23870622527E+01  0.51100000000E-03 0.  1.
         11    1    1    0    0    0  0.36140023938E+02  0.12036337672E+02 -0.46995145623E+02  0.60493953972E+02  0.51100000000E-03 0. -1.
         22    1    1    0    0    0 -0.37899364422E+02 -0.13621451739E+02  0.47295479427E+02  0.62118983775E+02  0.00000000000E+00 0. -1.
</event>
<event>
 4    1  0.1977762E-002  0.9118800E+02  0.7818608E-02  0.1130116E+00
         25   -1    0    0    0    0  0.00000000000E+00  0.00000000000E+00  0.99999998245E-14  0.12500000000E+03  0.12500000000E+03 0.  0.
        -11    1    1    0    0    0  0.18834213737E+02  0.35323603919E+02  0.76244789046E+01  0.40750672139E+02  0.51100000000E-03 0.  1.
         11    1    1    0    0    0  0.10068185367E+02  0.18839937810E+02  0.40892440017E+01  0.21749334014E+02  0.51100000000E-03 0. -1.
         22    1    1    0    0    0 -0.28902399104E+02 -0.54163541729E+02 -0.11713722906E+02  0.62499993848E+02  0.00000000000E+00 0.  1.
</event>
<event>
 4    1  0.1977762E-002  0.9118800E+02  0.7818608E-02  0.1130116E+00
         25   -1    0    0    0    0  0.00000000000E+00  0.00000000000E+00  0.99999998245E-14  0.12500000000E+03  0.12500000000E+03 0.  0.
        -11    1    1    0    0    0 -0.41862054770E+02  0.21153517477E+02 -0.11286938459E+02  0.48242076150E+02  0.51100000000E-03 0.  1.
         11    1    1    0    0    0 -0.12372295298E+02  0.62519042420E+01 -0.33359248859E+01  0.14257923856E+02  0.51100000000E-03 0.  1.
         22    1    1    0    0    0  0.54234350068E+02 -0.27405421719E+02  0.14622863344E+02  0.62499999994E+02  0.00000000000E+00 0.  1.
</event>
<event>
 4    1  0.1977762E-002  0.9118800E+02  0.7818608E-02  0.1130116E+00
         25   -1    0    0    0    0  0.00000000000E+00  0.00000000000E+00  0.99999998245E-14  0.12500000000E+03  0.12500000000E+03 0.  0.
        -11    1    1    0    0    0 -0.99776037163E+01  0.12530797650E+02  0.16693342761E+02  0.23135279520E+02  0.51100000000E-03 0.  1.
         11    1    1    0    0    0 -0.16976165028E+02  0.21321435630E+02  0.28404003631E+02  0.39364720486E+02  0.51100000000E-03 0.  1.
         22    1    1    0    0    0  0.26953768744E+02 -0.33852233281E+02 -0.45097346393E+02  0.62499999994E+02  0.00000000000E+00 0.  1.
</event>
<event>
 4    1  0.1977762E-002  0.9118800E+02  0.7818608E-02  0.1130116E+00
         25   -1    0    0    0    0  0.00000000000E+00  0.00000000000E+00  0.99999998245E-14  0.12500000000E+03  0.12500000000E+03 0.  0.
        -11    1    1    0    0    0 -0.23623045182E+02 -0.72400469908E+00  0.18323556666E+02  0.29905270031E+02  0.51100000000E-03 0.  1.
         11    1    1    0    0    0 -0.31717194730E+02 -0.10334149642E+01  0.95044423708E+01  0.33126768829E+02  0.51100000000E-03 0. -1.
         22    1    1    0    0    0  0.55340239912E+02  0.17574196633E+01 -0.27827999037E+02  0.61967961140E+02  0.00000000000E+00 0. -1.
</event>
<event>
 4    1  0.1977762E-002  0.9118800E+02  0.7818608E-02  0.1130116E+00
         25   -1    0    0    0    0  0.00000000000E+00  0.00000000000E+00  0.99999998245E-14  0.12500000000E+03  0.12500000000E+03 0.  0.
        -11    1    1    0    0    0 -0.38784895659E+01  0.86419094359E+00 -0.46031802171E+00  0.40001750265E+01  0.51100000000E-03 0.  1.
         11    1    1    0    0    0 -0.57116690866E+02  0.11854037456E+02 -0.44260362208E+01  0.58501490377E+02  0.51100000000E-03 0. -1.
         22    1    1    0    0    0  0.60995180432E+02 -0.12718228400E+02  0.48863542425E+01  0.62498334596E+02  0.00000000000E+00 0. -1.
</event>
<event>
 4    1  0.1977762E-002  0.9118800E+02  0.7818608E-02  0.1130116E+00
         25   -1    0    0    0    0  0.00000000000E+00  0.00000000000E+00  0.99999998245E-14  0.12500000000E+03  0.12500000000E+03 0.  0.
        -11    1    1    0    0    0 -0.22257086211E+02 -0.10453843774E+02  0.36865011710E+01  0.24864654178E+02  0.51100000000E-03 0.  1.
         11    1    1    0    0    0 -0.34534075273E+02 -0.13988280014E+02  0.53818819439E+01  0.37646234688E+02  0.51100000000E-03 0. -1.
         22    1    1    0    0    0  0.56791161484E+02  0.24442123787E+02 -0.90683831149E+01  0.62489111133E+02  0.00000000000E+00 0. -1.
</event>
<event>
 4    1  0.1977762E-002  0.9118800E+02  0.7818608E-02  0.1130116E+00
         25   -1    0    0    0    0  0.00000000000E+00  0.00000000000E+00  0.99999998245E-14  0.12500000000E+03  0.12500000000E+03 0.  0.
        -11    1    1    0    0    0 -0.77062862723E-02 -0.28625476350E+01  0.10073084060E+01  0.30346184003E+01  0.51100000000E-03 0.  1.
         11    1    1    0    0    0 -0.40158412746E+01 -0.56450041941E+02  0.18270617167E+02  0.59468896646E+02  0.51100000000E-03 0. -1.
         22    1    1    0    0    0  0.40235475608E+01  0.59312589576E+02 -0.19277925573E+02  0.62496484954E+02  0.00000000000E+00 0. -1.
</event>
<event>
 4    1  0.1977762E-002  0.9118800E+02  0.7818608E-02  0.1130116E+00
         25   -1    0    0    0    0  0.00000000000E+00  0.00000000000E+00  0.99999998245E-14  0.12500000000E+03  0.12500000000E+03 0.  0.
        -11    1    1    0    0    0 -0.15058246225E+02 -0.17778754096E+02  0.14415130541E+02  0.27397643427E+02  0.51100000000E-03 0.  1.
         11    1    1    0    0    0 -0.18676827772E+02 -0.24870709383E+02  0.16335253442E+02  0.35131418789E+02  0.51100000000E-03 0. -1.
         22    1    1    0    0    0  0.33735073997E+02  0.42649463479E+02 -0.30750383983E+02  0.62470937785E+02  0.00000000000E+00 0.  1.
</event>
<event>
 4    1  0.1977762E-002  0.9118800E+02  0.7818608E-02  0.1130116E+00
         25   -1    0    0    0    0  0.00000000000E+00  0.00000000000E+00  0.99999998245E-14  0.12500000000E+03  0.12500000000E+03 0.  0.
        -11    1    1    0    0    0 -0.10948512136E+02 -0.10411330083E+02  0.24919482751E+02  0.29141831324E+02  0.51100000000E-03 0.  1.
         11    1    1    0    0    0 -0.12528913506E+02 -0.11918444703E+02  0.28526205904E+02  0.33358168735E+02  0.51100000000E-03 0. -1.
         22    1    1    0    0    0  0.23477425643E+02  0.22329774786E+02 -0.53445688655E+02  0.62499999941E+02  0.00000000000E+00 0.  1.
</event>
<event>
 4    1  0.1977762E-002  0.9118800E+02  0.7818608E-02  0.1130116E+00
         25   -1    0    0    0    0  0.00000000000E+00  0.00000000000E+00  0.99999998245E-14  0.12500000000E+03  0.12500000000E+03 0.  0.
        -11    1    1    0    0    0 -0.10030949841E+01  0.36019180560E+02 -0.41287721754E+02  0.54800214741E+02  0.51100000000E-03 0.  1.
         11    1    1    0    0    0 -0.14354329186E+00  0.50626801667E+01 -0.57996002624E+01  0.76997856211E+01  0.51100000000E-03 0. -1.
         22    1    1    0    0    0  0.11466382760E+01 -0.41081860727E+02  0.47087322016E+02  0.62499999638E+02  0.00000000000E+00 0.  1.
</event>
<event>
 4    1  0.1977762E-002  0.9118800E+02  0.7818608E-02  0.1130116E+00
         25   -1    0    0    0    0  0.00000000000E+00  0.00000000000E+00  0.99999998245E-14  0.12500000000E+03  0.12500000000E+03 0.  0.
        -11    1    1    0    0    0 -0.14137528747E+01 -0.68990859627E+01  0.36915324731E+02  0.37581076149E+02  0.51100000000E-03 0. -1.
         11    1    1    0    0    0 -0.29667386581E+01 -0.43633603934E+01  0.24379646449E+02  0.24944089750E+02  0.51100000000E-03 0.  1.
         22    1    1    0    0    0  0.43804915327E+01  0.11262446356E+02 -0.61294971180E+02  0.62474834101E+02  0.00000000000E+00 0. -1.
</event>
<event>
 4    1  0.1977762E-002  0.9118800E+02  0.7818608E-02  0.1130116E+00
         25   -1    0    0    0    0  0.00000000000E+00  0.00000000000E+00  0.99999998245E-14  0.12500000000E+03  0.12500000000E+03 0.  0.
        -11    1    1    0    0    0  0.23170349099E+01  0.97299988070E+01 -0.38175426288E+00  0.10009358827E+02  0.51100000000E-03 0.  1.
         11    1    1    0    0    0  0.12425622751E+02  0.50964190160E+02 -0.18788803309E+01  0.52490713188E+02  0.51100000000E-03 0. -1.
         22    1    1    0    0    0 -0.14742657661E+02 -0.60694188967E+02  0.22606345937E+01  0.62499927984E+02  0.00000000000E+00 0. -1.
</event>
<event>
 4    1  0.1977762E-002  0.9118800E+02  0.7818608E-02  0.1130116E+00
         25   -1    0    0    0    0  0.00000000000E+00  0.00000000000E+00  0.99999998245E-14  0.12500000000E+03  0.12500000000E+03 0.  0.
        -11    1    1    0    0    0  0.57612177569E+00  0.10095118091E+02 -0.43034949416E+01  0.10989239944E+02  0.51100000000E-03 0.  1.
         11    1    1    0    0    0  0.30229164028E+01  0.46263030859E+02 -0.22461533057E+02  0.51516274277E+02  0.51100000000E-03 0. -1.
         22    1    1    0    0    0 -0.35990381785E+01 -0.56358148951E+02  0.26765027998E+02  0.62494485779E+02  0.00000000000E+00 0. -1.
</event>
<event>
 4    1  0.1977762E-002  0.9118800E+02  0.7818608E-02  0.1130116E+00
         25   -1    0    0    0    0  0.00000000000E+00  0.00000000000E+00  0.99999998245E-14  0.12500000000E+03  0.12500000000E+03 0.  0.
        -11    1    1    0    0    0 -0.19019415179E+02  0.47986978882E+01 -0.35063954048E+02  0.40177686953E+02  0.51100000000E-03 0. -1.
         11    1    1    0    0    0 -0.78848918487E+01 -0.13582180494E+01 -0.21037805864E+02  0.22507899759E+02  0.51100000000E-03 0.  1.
         22    1    1    0    0    0  0.26904307028E+02 -0.34404798388E+01  0.56101759912E+02  0.62314413288E+02  0.00000000000E+00 0. -1.
</event>
<event>
 4    1  0.1977762E-002  0.9118800E+02  0.7818608E-02  0.1130116E+00
         25   -1    0    0    0    0  0.00000000000E+00  0.00000000000E+00  0.99999998245E-14  0.12500000000E+03  0.12500000000E+03 0.  0.
        -11    1    1    0    0    0  0.19970799025E+02 -0.24647257762E+02  0.19507614112E+02  0.37240665105E+02  0.51100000000E-03 0.  1.
         11    1    1    0    0    0  0.13546539466E+02 -0.16717368361E+02  0.13230830027E+02  0.25259334906E+02  0.51100000000E-03 0. -1.
         22    1    1    0    0    0 -0.33517338492E+02  0.41364626123E+02 -0.32738444139E+02  0.62499999988E+02  0.00000000000E+00 0.  1.
</event>
<event>
 4    1  0.1977762E-002  0.9118800E+02  0.7818608E-02  0.1130116E+00
         25   -1    0    0    0    0  0.00000000000E+00  0.00000000000E+00  0.99999998245E-14  0.12500000000E+03  0.12500000000E+03 0.  0.
        -11    1    1    0    0    0  0.38220821469E+02 -0.28197295514E+02  0.39019866721E+02  0.61469249770E+02  0.51100000000E-03 0. -1.
         11    1    1    0    0    0  0.50887902812E+00 -0.53788305105E+00  0.72621385854E+00  0.10371416833E+01  0.51100000000E-03 0.  1.
         22    1    1    0    0    0 -0.38729700498E+02  0.28735178565E+02 -0.39746080580E+02  0.62493608547E+02  0.00000000000E+00 0. -1.
</event>
<event>
 4    1  0.1977762E-002  0.9118800E+02  0.7818608E-02  0.1130116E+00
         25   -1    0    0    0    0  0.00000000000E+00  0.00000000000E+00  0.99999998245E-14  0.12500000000E+03  0.12500000000E+03 0.  0.
        -11    1    1    0    0    0  0.56229252287E+02 -0.38147013756E+01  0.21911004818E+02  0.60467949293E+02  0.51100000000E-03 0. -1.
         11    1    1    0    0    0  0.18213877316E+01 -0.86212643066E-01  0.90633209535E+00  0.20362524443E+01  0.51100000000E-03 0.  1.
         22    1    1    0    0    0 -0.58050640018E+02  0.39009140187E+01 -0.22817336913E+02  0.62495798263E+02  0.00000000000E+00 0. -1.
</event>
<event>
 4    1  0.1977762E-002  0.9118800E+02  0.7818608E-02  0.1130116E+00
         25   -1    0    0    0    0  0.00000000000E+00  0.00000000000E+00  0.99999998245E-14  0.12500000000E+03  0.12500000000E+03 0.  0.
        -11    1    1    0    0    0 -0.81967845358E+01 -0.92224407881E+01 -0.69122795709E+01  0.14142853317E+02  0.51100000000E-03 0. -1.
         11    1    1    0    0    0 -0.28028381719E+02 -0.31545292636E+02 -0.23616054311E+02  0.48357147256E+02  0.51100000000E-03 0.  1.
         22    1    1    0    0    0  0.36225166255E+02  0.40767733424E+02  0.30528333882E+02  0.62499999427E+02  0.00000000000E+00 0.  1.
</event>
<event>
 4    1  0.1977762E-002  0.9118800E+02  0.7818608E-02  0.1130116E+00
         25   -1    0    0    0    0  0.00000000000E+00  0.00000000000E+00  0.99999998245E-14  0.12500000000E+03  0.12500000000E+03 0.  0.
        -11    1    1    0    0    0 -0.28382262746E+02  0.23566908338E+01 -0.13434346753E+02  0.31489498301E+02  0.51100000000E-03 0. -1.
         11    1    1    0    0    0 -0.27907836891E+02  0.26699969803E+01 -0.13255425492E+02  0.31011006901E+02  0.51100000000E-03 0.  1.
         22    1    1    0    0    0  0.56290099637E+02 -0.50266878141E+01  0.26689772245E+02  0.62499494798E+02  0.00000000000E+00 0. -1.
</event>
<event>
 4    1  0.1977762E-002  0.9118800E+02  0.7818608E-02  0.1130116E+00
         25   -1    0    0    0    0  0.00000000000E+00  0.00000000000E+00  0.99999998245E-14  0.12500000000E+03  0.12500000000E+03 0.  0.
        -11    1    1    0    0    0 -0.11582656034E+00  0.11844946908E+00 -0.41109235901E+00  0.44321919810E+00  0.51100000000E-03 0.  1.
         11    1    1    0    0    0 -0.16288527761E+02  0.16623717618E+02 -0.57527210644E+02  0.62056781167E+02  0.51100000000E-03 0.  1.
         22    1    1    0    0    0  0.16404354322E+02 -0.16742167087E+02  0.57938303003E+02  0.62499999635E+02  0.00000000000E+00 0.  1.
</event>
<event>
 4    1  0.1977762E-002  0.9118800E+02  0.7818608E-02  0.1130116E+00
         25   -1    0    0    0    0  0.00000000000E+00  0.00000000000E+00  0.99999998245E-14  0.12500000000E+03  0.12500000000E+03 0.  0.
        -11    1    1    0    0    0  0.14346485036E+02 -0.12342948020E+01  0.43185541041E+02  0.45522918094E+02  0.51100000000E-03 0. -1.
         11    1    1    0    0    0  0.76995966868E+01 -0.28276805429E+02 -0.13993073187E+02  0.32475646443E+02  0.51100000000E-03 0.  1.
         22    1    1    0    0    0 -0.22046081722E+02  0.29511100231E+02 -0.29192467854E+02  0.47001435463E+02  0.00000000000E+00 0.  1.
</event>
<event>
 4    1  0.1977762E-002  0.9118800E+02  0.7818608E-02  0.1130116E+00
         25   -1    0    0    0    0  0.00000000000E+00  0.00000000000E+00  0.99999998245E-14  0.12500000000E+03  0.12500000000E+03 0.  0.
        -11    1    1    0    0    0 -0.38375475683E+02  0.90578112312E+01 -0.90895867545E+01  0.40464078709E+02  0.51100000000E-03 0. -1.
         11    1    1    0    0    0 -0.21259205139E+02  0.33605848144E+01 -0.48148565998E+01  0.22055162157E+02  0.51100000000E-03 0.  1.
         22    1    1    0    0    0  0.59634680821E+02 -0.12418396046E+02  0.13904443354E+02  0.62480759134E+02  0.00000000000E+00 0. -1.
</event>
<event>
 4    1  0.1977762E-002  0.9118800E+02  0.7818608E-02  0.1130116E+00
         25   -1    0    0    0    0  0.00000000000E+00  0.00000000000E+00  0.99999998245E-14  0.12500000000E+03  0.12500000000E+03 0.  0.
        -11    1    1    0    0    0  0.57469718629E+01 -0.55912525328E+01 -0.68884279957E+00  0.80476266776E+01  0.51100000000E-03 0. -1.
         11    1    1    0    0    0  0.38650544621E+02 -0.38266400798E+02 -0.26737378510E+01  0.54454851977E+02  0.51100000000E-03 0.  1.
         22    1    1    0    0    0 -0.44397516484E+02  0.43857653331E+02  0.33625806506E+01  0.62497521345E+02  0.00000000000E+00 0.  1.
</event>
<event>
 4    1  0.1977762E-002  0.9118800E+02  0.7818608E-02  0.1130116E+00
         25   -1    0    0    0    0  0.00000000000E+00  0.00000000000E+00  0.99999998245E-14  0.12500000000E+03  0.12500000000E+03 0.  0.
        -11    1    1    0    0    0 -0.11878617421E+00 -0.17908864458E+02  0.24579351515E+00  0.17910945007E+02  0.51100000000E-03 0. -1.
         11    1    1    0    0    0 -0.27878132563E+00 -0.44583759441E+02  0.62815553065E+00  0.44589055883E+02  0.51100000000E-03 0.  1.
         22    1    1    0    0    0  0.39756749985E+00  0.62492623899E+02 -0.87394904580E+00  0.62499999109E+02  0.00000000000E+00 0.  1.
</event>
<event>
 4    1  0.1977762E-002  0.9118800E+02  0.7818608E-02  0.1130116E+00
         25   -1    0    0    0    0  0.00000000000E+00  0.00000000000E+00  0.99999998245E-14  0.12500000000E+03  0.12500000000E+03 0.  0.
        -11    1    1    0    0    0 -0.22041748046E+00  0.31922990680E+01 -0.20614889058E+01  0.38064542523E+01  0.51100000000E-03 0. -1.
         11    1    1    0    0    0  0.15931864625E+02 -0.12211176857E+02 -0.56465267589E+02  0.59927152401E+02  0.51100000000E-03 0.  1.
         22    1    1    0    0    0 -0.15711447144E+02  0.90188777886E+01  0.58526756495E+02  0.61266393347E+02  0.00000000000E+00 0.  1.
</event>
<event>
 4    1  0.1977762E-002  0.9118800E+02  0.7818608E-02  0.1130116E+00
         25   -1    0    0    0    0  0.00000000000E+00  0.00000000000E+00  0.99999998245E-14  0.12500000000E+03  0.12500000000E+03 0.  0.
        -11    1    1    0    0    0 -0.15069446834E+01 -0.67416415765E+00  0.49214035480E+01  0.51909144410E+01  0.51100000000E-03 0.  1.
         11    1    1    0    0    0 -0.16671427841E+02 -0.74482310783E+01  0.54322359042E+02  0.57309086056E+02  0.51100000000E-03 0. -1.
         22    1    1    0    0    0  0.18178372525E+02  0.81223952359E+01 -0.59243762590E+02  0.62499999503E+02  0.00000000000E+00 0. -1.
</event>
<event>
 4    1  0.1977762E-002  0.9118800E+02  0.7818608E-02  0.1130116E+00
         25   -1    0    0    0    0  0.00000000000E+00  0.00000000000E+00  0.99999998245E-14  0.12500000000E+03  0.12500000000E+03 0.  0.
        -11    1    1    0    0    0 -0.72553633053E+01  0.77219618992E+01  0.59023843328E+02  0.59967350064E+02  0.51100000000E-03 0. -1.
         11    1    1    0    0    0 -0.30631268229E+00  0.32661093577E+00  0.24927521994E+01  0.25326499860E+01  0.51100000000E-03 0.  1.
         22    1    1    0    0    0  0.75616759876E+01 -0.80485728350E+01 -0.61516595527E+02  0.62499999950E+02  0.00000000000E+00 0. -1.
</event>
<event>
 4    1  0.1977762E-002  0.9118800E+02  0.7818608E-02  0.1130116E+00
         25   -1    0    0    0    0  0.00000000000E+00  0.00000000000E+00  0.99999998245E-14  0.12500000000E+03  0.12500000000E+03 0.  0.
        -11    1    1    0    0    0  0.26549557204E+01  0.12003993246E+02 -0.40138287998E+02  0.41978885257E+02  0.51100000000E-03 0.  1.
         11    1    1    0    0    0 -0.78085370829E+01  0.10691014954E+02 -0.16870511356E+02  0.21444934269E+02  0.51100000000E-03 0. -1.
         22    1    1    0    0    0  0.51535813626E+01 -0.22695008200E+02  0.57008799354E+02  0.61576180475E+02  0.00000000000E+00 0.  1.
</event>
<event>
 4    1  0.1977762E-002  0.9118800E+02  0.7818608E-02  0.1130116E+00
         25   -1    0    0    0    0  0.00000000000E+00  0.00000000000E+00  0.99999998245E-14  0.12500000000E+03  0.12500000000E+03 0.  0.
        -11    1    1    0    0    0 -0.51736816836E+02 -0.20998733524E+02 -0.17101840357E+01  0.55862060074E+02  0.51100000000E-03 0.  1.
         11    1    1    0    0    0 -0.54318942515E+01 -0.39625185216E+01  0.55920442305E+00  0.67468317039E+01  0.51100000000E-03 0. -1.
         22    1    1    0    0    0  0.57168711088E+02  0.24961252046E+02  0.11509796126E+01  0.62391108222E+02  0.00000000000E+00 0.  1.
</event>
<event>
 4    1  0.1977762E-002  0.9118800E+02  0.7818608E-02  0.1130116E+00
         25   -1    0    0    0    0  0.00000000000E+00  0.00000000000E+00  0.99999998245E-14  0.12500000000E+03  0.12500000000E+03 0.  0.
        -11    1    1    0    0    0 -0.80539780252E+01  0.16327504800E+01  0.28739967798E+01  0.87058769755E+01  0.51100000000E-03 0. -1.
         11    1    1    0    0    0 -0.31063671198E+02 -0.11874765896E+01  0.44859646115E+02  0.54577922448E+02  0.51100000000E-03 0.  1.
         22    1    1    0    0    0  0.39117649223E+02 -0.44527389043E+00 -0.47733642895E+02  0.61716200576E+02  0.00000000000E+00 0.  1.
</event>
<event>
 4    1  0.1977762E-002  0.9118800E+02  0.7818608E-02  0.1130116E+00
         25   -1    0    0    0    0  0.00000000000E+00  0.00000000000E+00  0.99999998245E-14  0.12500000000E+03  0.12500000000E+03 0.  0.
        -11    1    1    0    0    0  0.15979678299E+02 -0.44861120283E+01 -0.12947805955E+02  0.21050439400E+02  0.51100000000E-03 0. -1.
         11    1    1    0    0    0 -0.58634090824E+02  0.11824566275E+02  0.90168709357E+01  0.60490337543E+02  0.51100000000E-03 0.  1.
         22    1    1    0    0    0  0.42654412525E+02 -0.73384542465E+01  0.39309350188E+01  0.43459223057E+02  0.00000000000E+00 0.  1.
</event>
<event>
 4    1  0.1977762E-002  0.9118800E+02  0.7818608E-02  0.1130116E+00
         25   -1    0    0    0    0  0.00000000000E+00  0.00000000000E+00  0.99999998245E-14  0.12500000000E+03  0.12500000000E+03 0.  0.
        -11    1    1    0    0    0  0.69215917855E+01 -0.63093226086E+01  0.20703977700E+01  0.95917950255E+01  0.51100000000E-03 0.  1.
         11    1    1    0    0    0  0.38720185353E+02 -0.34185105116E+02  0.11465417590E+02  0.52908694620E+02  0.51100000000E-03 0. -1.
         22    1    1    0    0    0 -0.45641777139E+02  0.40494427725E+02 -0.13535815359E+02  0.62499510355E+02  0.00000000000E+00 0. -1.
</event>
<event>
 4    1  0.1977762E-002  0.9118800E+02  0.7818608E-02  0.1130116E+00
         25   -1    0    0    0    0  0.00000000000E+00  0.00000000000E+00  0.99999998245E-14  0.12500000000E+03  0.12500000000E+03 0.  0.
        -11    1    1    0    0    0 -0.44627787273E+01  0.25184363058E+01 -0.38326915104E+01  0.63990968011E+01  0.51100000000E-03 0. -1.
         11    1    1    0    0    0 -0.39088189276E+02  0.21994672834E+02 -0.33699556336E+02  0.56100911502E+02  0.51100000000E-03 0.  1.
         22    1    1    0    0    0  0.43550968003E+02 -0.24513109139E+02  0.37532247846E+02  0.62499991696E+02  0.00000000000E+00 0.  1.
</event>
<event>
 4    1  0.1977762E-002  0.9118800E+02  0.7818608E-02  0.1130116E+00
         25   -1    0    0    0    0  0.00000000000E+00  0.00000000000E+00  0.99999998245E-14  0.12500000000E+03  0.12500000000E+03 0.  0.
        -11    1    1    0    0    0  0.28324803522E-01 -0.77210386125E+00  0.10427861100E+00  0.77962873016E+00  0.51100000000E-03 0.  1.
         11    1    1    0    0    0  0.11135725600E+02 -0.60602210025E+02  0.36604242901E+01  0.61725448162E+02  0.51100000000E-03 0. -1.
         22    1    1    0    0    0 -0.11164050404E+02  0.61374313886E+02 -0.37647029011E+01  0.62494923108E+02  0.00000000000E+00 0. -1.
</event>
<event>
 4    1  0.1977762E-002  0.9118800E+02  0.7818608E-02  0.1130116E+00
         25   -1    0    0    0    0  0.00000000000E+00  0.00000000000E+00  0.99999998245E-14  0.12500000000E+03  0.12500000000E+03 0.  0.
        -11    1    1    0    0    0  0.16981298995E+02  0.21225608332E+02 -0.52589871745E+02  0.59199540328E+02  0.51100000000E-03 0. -1.
         11    1    1    0    0    0 -0.99367669833E+01  0.26008684171E+01  0.36248466743E+01  0.10892353661E+02  0.51100000000E-03 0.  1.
         22    1    1    0    0    0 -0.70445320116E+01 -0.23826476750E+02  0.48965025071E+02  0.54908106011E+02  0.00000000000E+00 0. -1.
</event>
<event>
 4    1  0.1977762E-002  0.9118800E+02  0.7818608E-02  0.1130116E+00
         25   -1    0    0    0    0  0.00000000000E+00  0.00000000000E+00  0.99999998245E-14  0.12500000000E+03  0.12500000000E+03 0.  0.
        -11    1    1    0    0    0 -0.28815895279E+02 -0.26398822378E+02 -0.41434242266E+02  0.56956563064E+02  0.51100000000E-03 0. -1.
         11    1    1    0    0    0 -0.28071299282E+01 -0.25684281719E+01 -0.40314879678E+01  0.55434373094E+01  0.51100000000E-03 0.  1.
         22    1    1    0    0    0  0.31623025207E+02  0.28967250550E+02  0.45465730234E+02  0.62499999627E+02  0.00000000000E+00 0. -1.
</event>
<event>
 4    1  0.1977762E-002  0.9118800E+02  0.7818608E-02  0.1130116E+00
         25   -1    0    0    0    0  0.00000000000E+00  0.00000000000E+00  0.99999998245E-14  0.12500000000E+03  0.12500000000E+03 0.  0.
        -11    1    1    0    0    0 -0.23281706405E+01  0.16368906709E+02  0.53080870440E+02  0.55596225523E+02  0.51100000000E-03 0.  1.
         11    1    1    0    0    0 -0.38054722142E+01  0.64131134036E+01  0.33981467686E+01  0.81949401476E+01  0.51100000000E-03 0. -1.
         22    1    1    0    0    0  0.61336428547E+01 -0.22782020113E+02 -0.56479017209E+02  0.61208834330E+02  0.00000000000E+00 0.  1.
</event>
<event>
 4    1  0.1977762E-002  0.9118800E+02  0.7818608E-02  0.1130116E+00
         25   -1    0    0    0    0  0.00000000000E+00  0.00000000000E+00  0.99999998245E-14  0.12500000000E+03  0.12500000000E+03 0.  0.
        -11    1    1    0    0    0  0.25092877931E+01  0.55591828954E+02 -0.13771292850E+02  0.57327100735E+02  0.51100000000E-03 0.  1.
         11    1    1    0    0    0  0.22693091767E+00  0.50162004068E+01 -0.12430296507E+01  0.51728992969E+01  0.51100000000E-03 0. -1.
         22    1    1    0    0    0 -0.27362187108E+01 -0.60608029361E+02  0.15014322501E+02  0.62499999968E+02  0.00000000000E+00 0.  1.
</event>
<event>
 4    1  0.1977762E-002  0.9118800E+02  0.7818608E-02  0.1130116E+00
         25   -1    0    0    0    0  0.00000000000E+00  0.00000000000E+00  0.99999998245E-14  0.12500000000E+03  0.12500000000E+03 0.  0.
        -11    1    1    0    0    0 -0.11471509730E+01 -0.64810984593E+00  0.23702126765E+01  0.27118093813E+01  0.51100000000E-03 0. -1.
         11    1    1    0    0    0 -0.25257351367E+02 -0.14264157805E+02  0.52280281131E+02  0.59788191069E+02  0.51100000000E-03 0.  1.
         22    1    1    0    0    0  0.26404502340E+02  0.14912267651E+02 -0.54650493807E+02  0.62499999550E+02  0.00000000000E+00 0.  1.
</event>
<event>
 4    1  0.1977762E-002  0.9118800E+02  0.7818608E-02  0.1130116E+00
         25   -1    0    0    0    0  0.00000000000E+00  0.00000000000E+00  0.99999998245E-14  0.12500000000E+03  0.12500000000E+03 0.  0.
        -11    1    1    0    0    0 -0.10193076070E+02  0.48117006841E+02  0.30790427217E+02  0.58027541354E+02  0.51100000000E-03 0.  1.
         11    1    1    0    0    0 -0.72896816290E+00 -0.47086462457E+00  0.58302461741E+01  0.58944786698E+01  0.51100000000E-03 0. -1.
         22    1    1    0    0    0  0.10922044233E+02 -0.47646142216E+02 -0.36620673392E+02  0.61077979976E+02  0.00000000000E+00 0.  1.
</event>
<event>
 4    1  0.1977762E-002  0.9118800E+02  0.7818608E-02  0.1130116E+00
         25   -1    0    0    0    0  0.00000000000E+00  0.00000000000E+00  0.99999998245E-14  0.12500000000E+03  0.12500000000E+03 0.  0.
        -11    1    1    0    0    0 -0.35652656230E+00  0.48665558830E+00  0.15318002596E+01  0.16463162356E+01  0.51100000000E-03 0.  1.
         11    1    1    0    0    0  0.47405007046E+02  0.29201297256E+02  0.25806639139E+02  0.61367198716E+02  0.51100000000E-03 0. -1.
         22    1    1    0    0    0 -0.47048480483E+02 -0.29687952844E+02 -0.27338439398E+02  0.61986485048E+02  0.00000000000E+00 0. -1.
</event>
<event>
 4    1  0.1977762E-002  0.9118800E+02  0.7818608E-02  0.1130116E+00
         25   -1    0    0    0    0  0.00000000000E+00  0.00000000000E+00  0.99999998245E-14  0.12500000000E+03  0.12500000000E+03 0.  0.
        -11    1    1    0    0    0 -0.61931364721E+00 -0.93689906680E+00 -0.20314867459E+01  0.23212642923E+01  0.51100000000E-03 0. -1.
         11    1    1    0    0    0 -0.16126930584E+02 -0.24254019006E+02 -0.52660659171E+02  0.60178736714E+02  0.51100000000E-03 0.  1.
         22    1    1    0    0    0  0.16746244231E+02  0.25190918072E+02  0.54692145917E+02  0.62499998993E+02  0.00000000000E+00 0.  1.
</event>
<event>
 4    1  0.1977762E-002  0.9118800E+02  0.7818608E-02  0.1130116E+00
         25   -1    0    0    0    0  0.00000000000E+00  0.00000000000E+00  0.99999998245E-14  0.12500000000E+03  0.12500000000E+03 0.  0.
        -11    1    1    0    0    0  0.29798296813E+02 -0.28953792371E+01  0.33354076727E+02  0.44819818702E+02  0.51100000000E-03 0.  1.
         11    1    1    0    0    0  0.11754188759E+02 -0.11429215840E+01  0.13157567702E+02  0.17680181312E+02  0.51100000000E-03 0.  1.
         22    1    1    0    0    0 -0.41552485573E+02  0.40383008212E+01 -0.46511644429E+02  0.62499999986E+02  0.00000000000E+00 0.  1.
</event>
<event>
 4    1  0.1977762E-002  0.9118800E+02  0.7818608E-02  0.1130116E+00
         25   -1    0    0    0    0  0.00000000000E+00  0.00000000000E+00  0.99999998245E-14  0.12500000000E+03  0.12500000000E+03 0.  0.
        -11    1    1    0    0    0  0.23586791246E+02 -0.12866895723E+02 -0.23916079451E+02  0.35970440411E+02  0.51100000000E-03 0. -1.
         11    1    1    0    0    0  0.16496791827E+02 -0.13252583601E+02 -0.16155160514E+02  0.26622628048E+02  0.51100000000E-03 0.  1.
         22    1    1    0    0    0 -0.40083583072E+02  0.26119479324E+02  0.40071239965E+02  0.62406931541E+02  0.00000000000E+00 0. -1.
</event>
<event>
 4    1  0.1977762E-002  0.9118800E+02  0.7818608E-02  0.1130116E+00
         25   -1    0    0    0    0  0.00000000000E+00  0.00000000000E+00  0.99999998245E-14  0.12500000000E+03  0.12500000000E+03 0.  0.
        -11    1    1    0    0    0  0.62549442259E+01  0.78649947941E+01  0.34547704043E+02  0.35979526474E+02  0.51100000000E-03 0.  1.
         11    1    1    0    0    0 -0.13780287473E+02 -0.97271750836E+01  0.24346254304E+02  0.29618479989E+02  0.51100000000E-03 0. -1.
         22    1    1    0    0    0  0.75253432474E+01  0.18621802894E+01 -0.58893958347E+02  0.59401993537E+02  0.00000000000E+00 0. -1.
</event>
<event>
 4    1  0.1977762E-002  0.9118800E+02  0.7818608E-02  0.1130116E+00
         25   -1    0    0    0    0  0.00000000000E+00  0.00000000000E+00  0.99999998245E-14  0.12500000000E+03  0.12500000000E+03 0.  0.
        -11    1    1    0    0    0  0.18471773804E+01 -0.19538548243E+01 -0.44400412470E+00  0.27252069413E+01  0.51100000000E-03 0. -1.
         11    1    1    0    0    0  0.40547093995E+02 -0.42811655318E+02 -0.98041512772E+01  0.59774794396E+02  0.51100000000E-03 0.  1.
         22    1    1    0    0    0 -0.42394271375E+02  0.44765510142E+02  0.10248155402E+02  0.62499998663E+02  0.00000000000E+00 0.  1.
</event>
<event>
 4    1  0.1977762E-002  0.9118800E+02  0.7818608E-02  0.1130116E+00
         25   -1    0    0    0    0  0.00000000000E+00  0.00000000000E+00  0.99999998245E-14  0.12500000000E+03  0.12500000000E+03 0.  0.
        -11    1    1    0    0    0  0.58069467944E+01 -0.41220923615E+02 -0.43027106277E+02  0.59868330940E+02  0.51100000000E-03 0. -1.
         11    1    1    0    0    0  0.25559029378E+00 -0.18138341764E+01 -0.18895407932E+01  0.26316697149E+01  0.51100000000E-03 0.  1.
         22    1    1    0    0    0 -0.60625370882E+01  0.43034757791E+02  0.44916647070E+02  0.62499999345E+02  0.00000000000E+00 0. -1.
</event>
<event>
 4    1  0.1977762E-002  0.9118800E+02  0.7818608E-02  0.1130116E+00
         25   -1    0    0    0    0  0.00000000000E+00  0.00000000000E+00  0.99999998245E-14  0.12500000000E+03  0.12500000000E+03 0.  0.
        -11    1    1    0    0    0  0.50722050296E+01 -0.59094411674E+00 -0.13052866975E+01  0.52706975284E+01  0.51100000000E-03 0.  1.
         11    1    1    0    0    0  0.55094944497E+02 -0.62947524855E+01 -0.14146268681E+02  0.57229308364E+02  0.51100000000E-03 0. -1.
         22    1    1    0    0    0 -0.60167149527E+02  0.68856966022E+01  0.15451555378E+02  0.62499994108E+02  0.00000000000E+00 0. -1.
</event>
<event>
 4    1  0.1977762E-002  0.9118800E+02  0.7818608E-02  0.1130116E+00
         25   -1    0    0    0    0  0.00000000000E+00  0.00000000000E+00  0.99999998245E-14  0.12500000000E+03  0.12500000000E+03 0.  0.
        -11    1    1    0    0    0  0.60782863396E+02  0.22284023972E+00  0.91109442695E+01  0.61462309151E+02  0.51100000000E-03 0. -1.
         11    1    1    0    0    0 -0.10250493766E+02 -0.56155093675E+01  0.97037625589E+00  0.11728094399E+02  0.51100000000E-03 0.  1.
         22    1    1    0    0    0 -0.50532369630E+02  0.53926691278E+01 -0.10081320525E+02  0.51809596450E+02  0.00000000000E+00 0. -1.
</event>
<event>
 4    1  0.1977762E-002  0.9118800E+02  0.7818608E-02  0.1130116E+00
         25   -1    0    0    0    0  0.00000000000E+00  0.00000000000E+00  0.99999998245E-14  0.12500000000E+03  0.12500000000E+03 0.  0.
        -11    1    1    0    0    0 -0.38677662250E+02 -0.72237888791E+01  0.27684336550E+02  0.48109948798E+02  0.51100000000E-03 0.  1.
         11    1    1    0    0    0 -0.11442004475E+02 -0.10830839537E+01  0.86889901168E+01  0.14408021612E+02  0.51100000000E-03 0. -1.
         22    1    1    0    0    0  0.50119666725E+02  0.83068728328E+01 -0.36373326667E+02  0.62482029590E+02  0.00000000000E+00 0.  1.
</event>
<event>
 4    1  0.1977762E-002  0.9118800E+02  0.7818608E-02  0.1130116E+00
         25   -1    0    0    0    0  0.00000000000E+00  0.00000000000E+00  0.99999998245E-14  0.12500000000E+03  0.12500000000E+03 0.  0.
        -11    1    1    0    0    0 -0.14834019117E+02 -0.51939349857E+02 -0.19476247723E+02  0.57420104601E+02  0.51100000000E-03 0. -1.
         11    1    1    0    0    0 -0.12954384782E+01 -0.46067704476E+01 -0.17044634690E+01  0.50799301950E+01  0.51100000000E-03 0.  1.
         22    1    1    0    0    0  0.16129457596E+02  0.56546120305E+02  0.21180711192E+02  0.62499965204E+02  0.00000000000E+00 0. -1.
</event>
<event>
 4    1  0.1977762E-002  0.9118800E+02  0.7818608E-02  0.1130116E+00
         25   -1    0    0    0    0  0.00000000000E+00  0.00000000000E+00  0.99999998245E-14  0.12500000000E+03  0.12500000000E+03 0.  0.
        -11    1    1    0    0    0  0.12238332653E+02 -0.32437658640E+02  0.16123424782E+02  0.38235367281E+02  0.51100000000E-03 0. -1.
         11    1    1    0    0    0  0.50767059435E+01 -0.19563104328E+02  0.13653135257E+02  0.24390491934E+02  0.51100000000E-03 0.  1.
         22    1    1    0    0    0 -0.17315038596E+02  0.52000762968E+02 -0.29776560039E+02  0.62374140785E+02  0.00000000000E+00 0. -1.
</event>
<event>
 4    1  0.1977762E-002  0.9118800E+02  0.7818608E-02  0.1130116E+00
         25   -1    0    0    0    0  0.00000000000E+00  0.00000000000E+00  0.99999998245E-14  0.12500000000E+03  0.12500000000E+03 0.  0.
        -11    1    1    0    0    0 -0.10030642308E+02  0.91955926781E+01  0.17815444092E+01  0.13723942967E+02  0.51100000000E-03 0. -1.
         11    1    1    0    0    0 -0.37298968199E+02  0.31390398996E+02  0.22094314875E+01  0.48800120549E+02  0.51100000000E-03 0.  1.
         22    1    1    0    0    0  0.47329610507E+02 -0.40585991674E+02 -0.39909758967E+01  0.62475936484E+02  0.00000000000E+00 0.  1.
</event>
<event>
 4    1  0.1977762E-002  0.9118800E+02  0.7818608E-02  0.1130116E+00
         25   -1    0    0    0    0  0.00000000000E+00  0.00000000000E+00  0.99999998245E-14  0.12500000000E+03  0.12500000000E+03 0.  0.
        -11    1    1    0    0    0  0.86887279756E+01 -0.55977504439E+01 -0.13989590774E+02  0.17393603829E+02  0.51100000000E-03 0. -1.
         11    1    1    0    0    0  0.45411415462E+02  0.21584865216E+02  0.65599091410E+01  0.50706365171E+02  0.51100000000E-03 0.  1.
         22    1    1    0    0    0 -0.54100143437E+02 -0.15987114772E+02  0.74296816334E+01  0.56900031000E+02  0.00000000000E+00 0.  1.
</event>
<event>
 4    1  0.1977762E-002  0.9118800E+02  0.7818608E-02  0.1130116E+00
         25   -1    0    0    0    0  0.00000000000E+00  0.00000000000E+00  0.99999998245E-14  0.12500000000E+03  0.12500000000E+03 0.  0.
        -11    1    1    0    0    0  0.31730626197E+02  0.53204693109E+01  0.13534088012E+02  0.34904320236E+02  0.51100000000E-03 0. -1.
         11    1    1    0    0    0  0.25086590315E+02  0.42037440735E+01  0.10701077795E+02  0.27595679809E+02  0.51100000000E-03 0.  1.
         22    1    1    0    0    0 -0.56817216512E+02 -0.95242133844E+01 -0.24235165807E+02  0.62499999956E+02  0.00000000000E+00 0. -1.
</event>
<event>
 4    1  0.1977762E-002  0.9118800E+02  0.7818608E-02  0.1130116E+00
         25   -1    0    0    0    0  0.00000000000E+00  0.00000000000E+00  0.99999998245E-14  0.12500000000E+03  0.12500000000E+03 0.  0.
        -11    1    1    0    0    0 -0.33734027702E+01 -0.68701441821E+01  0.64993014897E+00  0.76812197464E+01  0.51100000000E-03 0. -1.
         11    1    1    0    0    0 -0.24107627667E+02 -0.49010585556E+02  0.46779960095E+01  0.54818781957E+02  0.51100000000E-03 0.  1.
         22    1    1    0    0    0  0.27481030437E+02  0.55880729738E+02 -0.53279261585E+01  0.62499998297E+02  0.00000000000E+00 0.  1.
</event>
<event>
 4    1  0.1977762E-002  0.9118800E+02  0.7818608E-02  0.1130116E+00
         25   -1    0    0    0    0  0.00000000000E+00  0.00000000000E+00  0.99999998245E-14  0.12500000000E+03  0.12500000000E+03 0.  0.
        -11    1    1    0    0    0 -0.24819272401E+02  0.30864774046E+02 -0.12438445295E+00  0.39606136282E+02  0.51100000000E-03 0. -1.
         11    1    1    0    0    0 -0.14362811120E+02  0.17826751121E+02 -0.23212036702E+00  0.22894044616E+02  0.51100000000E-03 0.  1.
         22    1    1    0    0    0  0.39182083521E+02 -0.48691525167E+02  0.35650481998E+00  0.62499819102E+02  0.00000000000E+00 0. -1.
</event>
<event>
 4    1  0.1977762E-002  0.9118800E+02  0.7818608E-02  0.1130116E+00
         25   -1    0    0    0    0  0.00000000000E+00  0.00000000000E+00  0.99999998245E-14  0.12500000000E+03  0.12500000000E+03 0.  0.
        -11    1    1    0    0    0  0.46098152369E+02 -0.54268204992E+01 -0.30797888780E+02  0.55704577784E+02  0.51100000000E-03 0.  1.
         11    1    1    0    0    0  0.55958231529E+01 -0.72820245524E+00 -0.37864133196E+01  0.67956192994E+01  0.51100000000E-03 0. -1.
         22    1    1    0    0    0 -0.51693975522E+02  0.61550229544E+01  0.34584302100E+02  0.62499802916E+02  0.00000000000E+00 0.  1.
</event>
<event>
 4    1  0.1977762E-002  0.9118800E+02  0.7818608E-02  0.1130116E+00
         25   -1    0    0    0    0  0.00000000000E+00  0.00000000000E+00  0.99999998245E-14  0.12500000000E+03  0.12500000000E+03 0.  0.
        -11    1    1    0    0    0 -0.30558151074E+01  0.52398236677E+01 -0.69642272336E+01  0.92354869531E+01  0.51100000000E-03 0. -1.
         11    1    1    0    0    0 -0.30677737388E+02  0.23435379665E+02 -0.36926366364E+02  0.53421878706E+02  0.51100000000E-03 0.  1.
         22    1    1    0    0    0  0.33733552496E+02 -0.28675203333E+02  0.43890593598E+02  0.62342634341E+02  0.00000000000E+00 0.  1.
</event>
<event>
 4    1  0.1977762E-002  0.9118800E+02  0.7818608E-02  0.1130116E+00
         25   -1    0    0    0    0  0.00000000000E+00  0.00000000000E+00  0.99999998245E-14  0.12500000000E+03  0.12500000000E+03 0.  0.
        -11    1    1    0    0    0 -0.36825727714E+02 -0.36008567916E+01  0.12156888254E+02  0.38947276202E+02  0.51100000000E-03 0. -1.
         11    1    1    0    0    0 -0.22250666474E+02 -0.22116970442E+01  0.73992037578E+01  0.23552748860E+02  0.51100000000E-03 0.  1.
         22    1    1    0    0    0  0.59076394188E+02  0.58125538358E+01 -0.19556092012E+02  0.62499974937E+02  0.00000000000E+00 0. -1.
</event>
<event>
 4    1  0.1977762E-002  0.9118800E+02  0.7818608E-02  0.1130116E+00
         25   -1    0    0    0    0  0.00000000000E+00  0.00000000000E+00  0.99999998245E-14  0.12500000000E+03  0.12500000000E+03 0.  0.
        -11    1    1    0    0    0  0.12618203022E+01 -0.13260218564E+01 -0.37652028234E+00  0.18687675679E+01  0.51100000000E-03 0.  1.
         11    1    1    0    0    0  0.40925154908E+02 -0.43038519108E+02 -0.12205077954E+02  0.60631232540E+02  0.51100000000E-03 0.  1.
         22    1    1    0    0    0 -0.42186975210E+02  0.44364540964E+02  0.12581598236E+02  0.62499999892E+02  0.00000000000E+00 0.  1.
</event>
<event>
 4    1  0.1977762E-002  0.9118800E+02  0.7818608E-02  0.1130116E+00
         25   -1    0    0    0    0  0.00000000000E+00  0.00000000000E+00  0.99999998245E-14  0.12500000000E+03  0.12500000000E+03 0.  0.
        -11    1    1    0    0    0 -0.20065608499E+02 -0.29922474963E+01  0.54642947774E+02  0.58287510937E+02  0.51100000000E-03 0. -1.
         11    1    1    0    0    0 -0.48213041382E+01 -0.30723988796E+01  0.67009710239E+00  0.57561826636E+01  0.51100000000E-03 0.  1.
         22    1    1    0    0    0  0.24886912637E+02  0.60646463759E+01 -0.55313044877E+02  0.60956306399E+02  0.00000000000E+00 0. -1.
</event>
<event>
 4    1  0.1977762E-002  0.9118800E+02  0.7818608E-02  0.1130116E+00
         25   -1    0    0    0    0  0.00000000000E+00  0.00000000000E+00  0.99999998245E-14  0.12500000000E+03  0.12500000000E+03 0.  0.
        -11    1    1    0    0    0 -0.66873696106E+00 -0.11750706748E+02  0.22703184100E+00  0.11771909867E+02  0.51100000000E-03 0.  1.
         11    1    1    0    0    0 -0.28749570700E+01 -0.50636349083E+02  0.10168808521E+01  0.50728091562E+02  0.51100000000E-03 0. -1.
         22    1    1    0    0    0  0.35436940311E+01  0.62387055831E+02 -0.12439126931E+01  0.62499998571E+02  0.00000000000E+00 0. -1.
</event>
<event>
 4    1  0.1977762E-002  0.9118800E+02  0.7818608E-02  0.1130116E+00
         25   -1    0    0    0    0  0.00000000000E+00  0.00000000000E+00  0.99999998245E-14  0.12500000000E+03  0.12500000000E+03 0.  0.
        -11    1    1    0    0    0  0.56141830187E+01  0.17622819032E+02 -0.21036302615E+02  0.28010869847E+02  0.51100000000E-03 0. -1.
         11    1    1    0    0    0  0.69070859794E+01  0.21702061805E+02 -0.25900053774E+02  0.34489130303E+02  0.51100000000E-03 0. -1.
         22    1    1    0    0    0 -0.12521268998E+02 -0.39324880837E+02  0.46936356389E+02  0.62499999850E+02  0.00000000000E+00 0. -1.
</event>
<event>
 4    1  0.1977762E-002  0.9118800E+02  0.7818608E-02  0.1130116E+00
         25   -1    0    0    0    0  0.00000000000E+00  0.00000000000E+00  0.99999998245E-14  0.12500000000E+03  0.12500000000E+03 0.  0.
        -11    1    1    0    0    0  0.31115464218E+02  0.38515586891E+02 -0.33782835915E+02  0.59940825401E+02  0.51100000000E-03 0. -1.
         11    1    1    0    0    0  0.13288038056E+01  0.16443641903E+01 -0.14421239338E+01  0.25591746415E+01  0.51100000000E-03 0. -1.
         22    1    1    0    0    0 -0.32444268023E+02 -0.40159951081E+02  0.35224959848E+02  0.62499999958E+02  0.00000000000E+00 0. -1.
</event>
<event>
 4    1  0.1977762E-002  0.9118800E+02  0.7818608E-02  0.1130116E+00
         25   -1    0    0    0    0  0.00000000000E+00  0.00000000000E+00  0.99999998245E-14  0.12500000000E+03  0.12500000000E+03 0.  0.
        -11    1    1    0    0    0 -0.23596859941E+01 -0.52218261243E+01 -0.83707217149E+00  0.57910513851E+01  0.51100000000E-03 0. -1.
         11    1    1    0    0    0 -0.23100305178E+02 -0.51135087426E+02 -0.82148405740E+01  0.56708948777E+02  0.51100000000E-03 0.  1.
         22    1    1    0    0    0  0.25459991173E+02  0.56356913550E+02  0.90519127455E+01  0.62499999838E+02  0.00000000000E+00 0.  1.
</event>
<event>
 4    1  0.1977762E-002  0.9118800E+02  0.7818608E-02  0.1130116E+00
         25   -1    0    0    0    0  0.00000000000E+00  0.00000000000E+00  0.99999998245E-14  0.12500000000E+03  0.12500000000E+03 0.  0.
        -11    1    1    0    0    0 -0.19738649464E+02  0.82879076663E+01  0.45829801291E+02  0.50583340961E+02  0.51100000000E-03 0. -1.
         11    1    1    0    0    0 -0.46415762749E+01  0.19495339096E+01  0.10801013382E+02  0.11916660737E+02  0.51100000000E-03 0.  1.
         22    1    1    0    0    0  0.24380225739E+02 -0.10237441576E+02 -0.56630814674E+02  0.62499998302E+02  0.00000000000E+00 0. -1.
</event>
<event>
 4    1  0.1977762E-002  0.9118800E+02  0.7818608E-02  0.1130116E+00
         25   -1    0    0    0    0  0.00000000000E+00  0.00000000000E+00  0.99999998245E-14  0.12500000000E+03  0.12500000000E+03 0.  0.
        -11    1    1    0    0    0  0.63859879588E+01  0.50299962528E+02 -0.33095639652E+02  0.60549058100E+02  0.51100000000E-03 0. -1.
         11    1    1    0    0    0  0.20965311672E+00  0.16200843368E+01 -0.10665617763E+01  0.19509438669E+01  0.51100000000E-03 0.  1.
         22    1    1    0    0    0 -0.65956410755E+01 -0.51920046865E+02  0.34162201428E+02  0.62499998033E+02  0.00000000000E+00 0. -1.
</event>
<event>
 4    1  0.1977762E-002  0.9118800E+02  0.7818608E-02  0.1130116E+00
         25   -1    0    0    0    0  0.00000000000E+00  0.00000000000E+00  0.99999998245E-14  0.12500000000E+03  0.12500000000E+03 0.  0.
        -11    1    1    0    0    0  0.44944173254E+01 -0.51998650733E+01 -0.13803004374E+01  0.70102505971E+01  0.51100000000E-03 0.  1.
         11    1    1    0    0    0  0.35940563192E+02 -0.40799031827E+02 -0.11083472561E+02  0.55489894980E+02  0.51100000000E-03 0. -1.
         22    1    1    0    0    0 -0.40434980518E+02  0.45998896900E+02  0.12463772999E+02  0.62499854423E+02  0.00000000000E+00 0. -1.
</event>
<event>
 4    1  0.1977762E-002  0.9118800E+02  0.7818608E-02  0.1130116E+00
         25   -1    0    0    0    0  0.00000000000E+00  0.00000000000E+00  0.99999998245E-14  0.12500000000E+03  0.12500000000E+03 0.  0.
        -11    1    1    0    0    0 -0.45552715040E+02  0.46268814019E+01 -0.37124985468E+02  0.58946776208E+02  0.51100000000E-03 0. -1.
         11    1    1    0    0    0 -0.27444804320E+01  0.27183809011E+00 -0.22403923530E+01  0.35532276799E+01  0.51100000000E-03 0.  1.
         22    1    1    0    0    0  0.48297195472E+02 -0.48987194920E+01  0.39365377821E+02  0.62499996113E+02  0.00000000000E+00 0. -1.
</event>
<event>
 4    1  0.1977762E-002  0.9118800E+02  0.7818608E-02  0.1130116E+00
         25   -1    0    0    0    0  0.00000000000E+00  0.00000000000E+00  0.99999998245E-14  0.12500000000E+03  0.12500000000E+03 0.  0.
        -11    1    1    0    0    0 -0.40093497412E+02 -0.19012817471E+01 -0.41555339598E+02  0.57774991617E+02  0.51100000000E-03 0. -1.
         11    1    1    0    0    0 -0.32805883902E+01 -0.15980610455E+00 -0.33967509750E+01  0.47250095898E+01  0.51100000000E-03 0.  1.
         22    1    1    0    0    0  0.43374085802E+02  0.20610878516E+01  0.44952090573E+02  0.62499998793E+02  0.00000000000E+00 0. -1.
</event>
<event>
 4    1  0.1977762E-002  0.9118800E+02  0.7818608E-02  0.1130116E+00
         25   -1    0    0    0    0  0.00000000000E+00  0.00000000000E+00  0.99999998245E-14  0.12500000000E+03  0.12500000000E+03 0.  0.
        -11    1    1    0    0    0 -0.32005069475E+01 -0.42063009170E+02  0.12586554029E+02  0.44022282173E+02  0.51100000000E-03 0. -1.
         11    1    1    0    0    0 -0.18165894683E+01 -0.17704624939E+02  0.49784252502E+01  0.18480759177E+02  0.51100000000E-03 0.  1.
         22    1    1    0    0    0  0.50170964158E+01  0.59767634109E+02 -0.17564979279E+02  0.62496958650E+02  0.00000000000E+00 0. -1.
</event>
<event>
 4    1  0.1977762E-002  0.9118800E+02  0.7818608E-02  0.1130116E+00
         25   -1    0    0    0    0  0.00000000000E+00  0.00000000000E+00  0.99999998245E-14  0.12500000000E+03  0.12500000000E+03 0.  0.
        -11    1    1    0    0    0 -0.13778451057E+01  0.14463625871E+00  0.65932172299E+01  0.67372019774E+01  0.51100000000E-03 0.  1.
         11    1    1    0    0    0 -0.11426007141E+02  0.11968558642E+01  0.54566505916E+02  0.55762798273E+02  0.51100000000E-03 0. -1.
         22    1    1    0    0    0  0.12803852246E+02 -0.13414921229E+01 -0.61159723145E+02  0.62499999750E+02  0.00000000000E+00 0. -1.
</event>
<event>
 4    1  0.1977762E-002  0.9118800E+02  0.7818608E-02  0.1130116E+00
         25   -1    0    0    0    0  0.00000000000E+00  0.00000000000E+00  0.99999998245E-14  0.12500000000E+03  0.12500000000E+03 0.  0.
        -11    1    1    0    0    0  0.48119854406E+01  0.80081859207E+01 -0.41152250280E+01  0.10208884509E+02  0.51100000000E-03 0. -1.
         11    1    1    0    0    0  0.24447746388E+02  0.41128062930E+02 -0.21098700510E+02  0.52291156301E+02  0.51100000000E-03 0.  1.
         22    1    1    0    0    0 -0.29259731828E+02 -0.49136248850E+02  0.25213925538E+02  0.62499959190E+02  0.00000000000E+00 0.  1.
</event>
<event>
 4    1  0.1977762E-002  0.9118800E+02  0.7818608E-02  0.1130116E+00
         25   -1    0    0    0    0  0.00000000000E+00  0.00000000000E+00  0.99999998245E-14  0.12500000000E+03  0.12500000000E+03 0.  0.
        -11    1    1    0    0    0  0.57067549866E+01 -0.49797650863E+02 -0.19867799933E+02  0.53917553342E+02  0.51100000000E-03 0.  1.
         11    1    1    0    0    0  0.42922076022E+01 -0.53817273089E+01 -0.61793618349E+01  0.92504350101E+01  0.51100000000E-03 0. -1.
         22    1    1    0    0    0 -0.99989625889E+01  0.55179378172E+02  0.26047161768E+02  0.61832011648E+02  0.00000000000E+00 0.  1.
</event>
<event>
 4    1  0.1977762E-002  0.9118800E+02  0.7818608E-02  0.1130116E+00
         25   -1    0    0    0    0  0.00000000000E+00  0.00000000000E+00  0.99999998245E-14  0.12500000000E+03  0.12500000000E+03 0.  0.
        -11    1    1    0    0    0 -0.45794032317E+01  0.37246076372E+02  0.22396188378E+02  0.43701606300E+02  0.51100000000E-03 0. -1.
         11    1    1    0    0    0 -0.19710311384E+01  0.16021755119E+02  0.96331721380E+01  0.18798393722E+02  0.51100000000E-03 0. -1.
         22    1    1    0    0    0  0.65504343701E+01 -0.53267831491E+02 -0.32029360516E+02  0.62499999978E+02  0.00000000000E+00 0. -1.
</event>
<event>
 4    1  0.1977762E-002  0.9118800E+02  0.7818608E-02  0.1130116E+00
         25   -1    0    0    0    0  0.00000000000E+00  0.00000000000E+00  0.99999998245E-14  0.12500000000E+03  0.12500000000E+03 0.  0.
        -11    1    1    0    0    0  0.39411155130E+01 -0.77802255489E+01 -0.30331519445E+01  0.92338676652E+01  0.51100000000E-03 0.  1.
         11    1    1    0    0    0  0.22734245614E+02 -0.44883576770E+02 -0.17489982029E+02  0.53266132382E+02  0.51100000000E-03 0. -1.
         22    1    1    0    0    0 -0.26675361127E+02  0.52663802319E+02  0.20523133974E+02  0.62499999953E+02  0.00000000000E+00 0. -1.
</event>
<event>
 4    1  0.1977762E-002  0.9118800E+02  0.7818608E-02  0.1130116E+00
         25   -1    0    0    0    0  0.00000000000E+00  0.00000000000E+00  0.99999998245E-14  0.12500000000E+03  0.12500000000E+03 0.  0.
        -11    1    1    0    0    0 -0.58791510316E+01  0.55196280536E+01  0.36743318311E+01  0.88617958320E+01  0.51100000000E-03 0. -1.
         11    1    1    0    0    0 -0.35324648405E+02  0.33577874849E+02  0.22400025281E+02  0.53638284808E+02  0.51100000000E-03 0.  1.
         22    1    1    0    0    0  0.41203799437E+02 -0.39097502902E+02 -0.26074357112E+02  0.62499919360E+02  0.00000000000E+00 0.  1.
</event>
<event>
 4    1  0.1977762E-002  0.9118800E+02  0.7818608E-02  0.1130116E+00
         25   -1    0    0    0    0  0.00000000000E+00  0.00000000000E+00  0.99999998245E-14  0.12500000000E+03  0.12500000000E+03 0.  0.
        -11    1    1    0    0    0 -0.28876482788E+02  0.23819246417E+02  0.19299301786E+02  0.42114971302E+02  0.51100000000E-03 0.  1.
         11    1    1    0    0    0 -0.13004844285E+02  0.11070799884E+02  0.11198811067E+02  0.20423074071E+02  0.51100000000E-03 0. -1.
         22    1    1    0    0    0  0.41881327073E+02 -0.34890046301E+02 -0.30498112853E+02  0.62461954627E+02  0.00000000000E+00 0.  1.
</event>
<event>
 4    1  0.1977762E-002  0.9118800E+02  0.7818608E-02  0.1130116E+00
         25   -1    0    0    0    0  0.00000000000E+00  0.00000000000E+00  0.99999998245E-14  0.12500000000E+03  0.12500000000E+03 0.  0.
        -11    1    1    0    0    0  0.40576381470E+02  0.41936756239E+02 -0.91965519095E+01  0.59073774421E+02  0.51100000000E-03 0. -1.
         11    1    1    0    0    0  0.18628179870E+01  0.27581856360E+01 -0.95363219304E+00  0.34622382177E+01  0.51100000000E-03 0.  1.
         22    1    1    0    0    0 -0.42439199457E+02 -0.44694941875E+02  0.10150184103E+02  0.62463987361E+02  0.00000000000E+00 0. -1.
</event>
<event>
 4    1  0.1977762E-002  0.9118800E+02  0.7818608E-02  0.1130116E+00
         25   -1    0    0    0    0  0.00000000000E+00  0.00000000000E+00  0.99999998245E-14  0.12500000000E+03  0.12500000000E+03 0.  0.
        -11    1    1    0    0    0  0.24761289409E+02  0.31339968465E+02  0.39779831253E+02  0.56371535826E+02  0.51100000000E-03 0.  1.
         11    1    1    0    0    0  0.26925293333E+01  0.34071207962E+01  0.43243365851E+01  0.61284642035E+01  0.51100000000E-03 0. -1.
         22    1    1    0    0    0 -0.27453818743E+02 -0.34747089261E+02 -0.44104167838E+02  0.62499999971E+02  0.00000000000E+00 0.  1.
</event>
<event>
 4    1  0.1977762E-002  0.9118800E+02  0.7818608E-02  0.1130116E+00
         25   -1    0    0    0    0  0.00000000000E+00  0.00000000000E+00  0.99999998245E-14  0.12500000000E+03  0.12500000000E+03 0.  0.
        -11    1    1    0    0    0  0.77534684893E+01 -0.27496737271E+02 -0.35293021134E+02  0.45406873656E+02  0.51100000000E-03 0.  1.
         11    1    1    0    0    0  0.29017609709E+01 -0.10367012368E+02 -0.13277049078E+02  0.17093132968E+02  0.51100000000E-03 0. -1.
         22    1    1    0    0    0 -0.10655229460E+02  0.37863749639E+02  0.48570070212E+02  0.62499993376E+02  0.00000000000E+00 0.  1.
</event>
<event>
 4    1  0.1977762E-002  0.9118800E+02  0.7818608E-02  0.1130116E+00
         25   -1    0    0    0    0  0.00000000000E+00  0.00000000000E+00  0.99999998245E-14  0.12500000000E+03  0.12500000000E+03 0.  0.
        -11    1    1    0    0    0  0.96311933037E+01 -0.24285843797E+02 -0.26533777924E+02  0.37237124816E+02  0.51100000000E-03 0. -1.
         11    1    1    0    0    0  0.65398695884E+01 -0.16436580636E+02 -0.18035592976E+02  0.25262891590E+02  0.51100000000E-03 0.  1.
         22    1    1    0    0    0 -0.16171062892E+02  0.40722424434E+02  0.44569370900E+02  0.62499983594E+02  0.00000000000E+00 0. -1.
</event>
<event>
 4    1  0.1977762E-002  0.9118800E+02  0.7818608E-02  0.1130116E+00
         25   -1    0    0    0    0  0.00000000000E+00  0.00000000000E+00  0.99999998245E-14  0.12500000000E+03  0.12500000000E+03 0.  0.
        -11    1    1    0    0    0 -0.77258883679E+01 -0.29317538489E+02  0.24486703469E+02  0.38971862429E+02  0.51100000000E-03 0. -1.
         11    1    1    0    0    0 -0.47111666413E+01 -0.17672117295E+02  0.14801197907E+02  0.23528159311E+02  0.51100000000E-03 0.  1.
         22    1    1    0    0    0  0.12437055009E+02  0.46989655784E+02 -0.39287901376E+02  0.62499978260E+02  0.00000000000E+00 0. -1.
</event>
<event>
 4    1  0.1977762E-002  0.9118800E+02  0.7818608E-02  0.1130116E+00
         25   -1    0    0    0    0  0.00000000000E+00  0.00000000000E+00  0.99999998245E-14  0.12500000000E+03  0.12500000000E+03 0.  0.
        -11    1    1    0    0    0  0.14166535256E+02  0.25700719838E+01 -0.32248364178E+02  0.35316469014E+02  0.51100000000E-03 0. -1.
         11    1    1    0    0    0 -0.32256991657E+02  0.24834428396E+02 -0.38418252593E+01  0.40890365199E+02  0.51100000000E-03 0.  1.
         22    1    1    0    0    0  0.18090456401E+02 -0.27404500380E+02  0.36090189437E+02  0.48793165787E+02  0.00000000000E+00 0.  1.
</event>
<event>
 4    1  0.1977762E-002  0.9118800E+02  0.7818608E-02  0.1130116E+00
         25   -1    0    0    0    0  0.00000000000E+00  0.00000000000E+00  0.99999998245E-14  0.12500000000E+03  0.12500000000E+03 0.  0.
        -11    1    1    0    0    0  0.79832288009E+01  0.12253934589E+02 -0.11360287851E+02  0.18518828131E+02  0.51100000000E-03 0.  1.
         11    1    1    0    0    0  0.20245602360E+02  0.29680381413E+02 -0.25381237765E+02  0.43988824563E+02  0.51100000000E-03 0. -1.
         22    1    1    0    0    0 -0.28228831161E+02 -0.41934316002E+02  0.36741525616E+02  0.62492347306E+02  0.00000000000E+00 0. -1.
</event>
<event>
 4    1  0.1977762E-002  0.9118800E+02  0.7818608E-02  0.1130116E+00
         25   -1    0    0    0    0  0.00000000000E+00  0.00000000000E+00  0.99999998245E-14  0.12500000000E+03  0.12500000000E+03 0.  0.
        -11    1    1    0    0    0 -0.33602396268E+02  0.46915878532E+01 -0.30438200626E+02  0.45580874159E+02  0.51100000000E-03 0.  1.
         11    1    1    0    0    0 -0.72304234811E+00  0.26590857951E+02  0.75958873098E+01  0.27663948039E+02  0.51100000000E-03 0. -1.
         22    1    1    0    0    0  0.34325438616E+02 -0.31282445804E+02  0.22842313316E+02  0.51755177802E+02  0.00000000000E+00 0. -1.
</event>
<event>
 4    1  0.1977762E-002  0.9118800E+02  0.7818608E-02  0.1130116E+00
         25   -1    0    0    0    0  0.00000000000E+00  0.00000000000E+00  0.99999998245E-14  0.12500000000E+03  0.12500000000E+03 0.  0.
        -11    1    1    0    0    0  0.14993796325E+02 -0.41454176171E+01 -0.61644649963E+01  0.16733171977E+02  0.51100000000E-03 0.  1.
         11    1    1    0    0    0  0.40663566549E+02 -0.12000397180E+02 -0.17238364992E+02  0.45767853400E+02  0.51100000000E-03 0. -1.
         22    1    1    0    0    0 -0.55657362874E+02  0.16145814797E+02  0.23402829988E+02  0.62498974624E+02  0.00000000000E+00 0.  1.
</event>
<event>
 4    1  0.1977762E-002  0.9118800E+02  0.7818608E-02  0.1130116E+00
         25   -1    0    0    0    0  0.00000000000E+00  0.00000000000E+00  0.99999998245E-14  0.12500000000E+03  0.12500000000E+03 0.  0.
        -11    1    1    0    0    0 -0.63284284313E+00 -0.37355111222E+01 -0.11914880669E+01  0.39716718751E+01  0.51100000000E-03 0. -1.
         11    1    1    0    0    0 -0.10041405718E+02 -0.55661866878E+02 -0.15057189014E+02  0.58530267335E+02  0.51100000000E-03 0.  1.
         22    1    1    0    0    0  0.10674248561E+02  0.59397378000E+02  0.16248677081E+02  0.62498060790E+02  0.00000000000E+00 0.  1.
</event>
<event>
 4    1  0.1977762E-002  0.9118800E+02  0.7818608E-02  0.1130116E+00
         25   -1    0    0    0    0  0.00000000000E+00  0.00000000000E+00  0.99999998245E-14  0.12500000000E+03  0.12500000000E+03 0.  0.
        -11    1    1    0    0    0 -0.24857082576E+02  0.19200211976E+02  0.17170075753E+01  0.31455854930E+02  0.51100000000E-03 0. -1.
         11    1    1    0    0    0 -0.25034338975E+02  0.18149905236E+02  0.28577107393E+01  0.31053239749E+02  0.51100000000E-03 0.  1.
         22    1    1    0    0    0  0.49891421551E+02 -0.37350117212E+02 -0.45747183146E+01  0.62490905321E+02  0.00000000000E+00 0.  1.
</event>
<event>
 4    1  0.1977762E-002  0.9118800E+02  0.7818608E-02  0.1130116E+00
         25   -1    0    0    0    0  0.00000000000E+00  0.00000000000E+00  0.99999998245E-14  0.12500000000E+03  0.12500000000E+03 0.  0.
        -11    1    1    0    0    0  0.35199544395E+00  0.51048184106E-01  0.10845260307E+01  0.11413604523E+01  0.51100000000E-03 0.  1.
         11    1    1    0    0    0  0.15105447561E+02  0.22957413480E+01  0.59427132877E+02  0.61359832926E+02  0.51100000000E-03 0. -1.
         22    1    1    0    0    0 -0.15457443005E+02 -0.23467895321E+01 -0.60511658908E+02  0.62498806622E+02  0.00000000000E+00 0. -1.
</event>
<event>
 4    1  0.1977762E-002  0.9118800E+02  0.7818608E-02  0.1130116E+00
         25   -1    0    0    0    0  0.00000000000E+00  0.00000000000E+00  0.99999998245E-14  0.12500000000E+03  0.12500000000E+03 0.  0.
        -11    1    1    0    0    0  0.13396464656E+02  0.54398942481E+01 -0.37388671426E+01  0.14934418050E+02  0.51100000000E-03 0.  1.
         11    1    1    0    0    0  0.12858284580E+02  0.48380730365E+02 -0.89508818185E-01  0.50060349231E+02  0.51100000000E-03 0. -1.
         22    1    1    0    0    0 -0.26254749236E+02 -0.53820624613E+02  0.38283759608E+01  0.60005232719E+02  0.00000000000E+00 0. -1.
</event>
<event>
 4    1  0.1977762E-002  0.9118800E+02  0.7818608E-02  0.1130116E+00
         25   -1    0    0    0    0  0.00000000000E+00  0.00000000000E+00  0.99999998245E-14  0.12500000000E+03  0.12500000000E+03 0.  0.
        -11    1    1    0    0    0 -0.27772339451E+02 -0.14851148028E+02  0.23630790270E+02  0.39373515024E+02  0.51100000000E-03 0. -1.
         11    1    1    0    0    0 -0.16292017748E+02 -0.84877941277E+01  0.14049499665E+02  0.23127060612E+02  0.51100000000E-03 0.  1.
         22    1    1    0    0    0  0.44064357199E+02  0.23338942156E+02 -0.37680289934E+02  0.62499424364E+02  0.00000000000E+00 0. -1.
</event>
<event>
 4    1  0.1977762E-002  0.9118800E+02  0.7818608E-02  0.1130116E+00
         25   -1    0    0    0    0  0.00000000000E+00  0.00000000000E+00  0.99999998245E-14  0.12500000000E+03  0.12500000000E+03 0.  0.
        -11    1    1    0    0    0  0.12268622200E+02  0.51813795411E+02  0.11607198842E+02  0.54496931572E+02  0.51100000000E-03 0.  1.
         11    1    1    0    0    0  0.18064254535E+01  0.76094457173E+01  0.16977329778E+01  0.80030703213E+01  0.51100000000E-03 0. -1.
         22    1    1    0    0    0 -0.14075047654E+02 -0.59423241128E+02 -0.13304931820E+02  0.62499998107E+02  0.00000000000E+00 0.  1.
</event>
<event>
 4    1  0.1977762E-002  0.9118800E+02  0.7818608E-02  0.1130116E+00
         25   -1    0    0    0    0  0.00000000000E+00  0.00000000000E+00  0.99999998245E-14  0.12500000000E+03  0.12500000000E+03 0.  0.
        -11    1    1    0    0    0  0.35538205808E+02 -0.23762071709E+02  0.29782755417E+02  0.52101944728E+02  0.51100000000E-03 0.  1.
         11    1    1    0    0    0  0.70895478543E+01 -0.47327991689E+01  0.59547096320E+01  0.10398059618E+02  0.51100000000E-03 0. -1.
         22    1    1    0    0    0 -0.42627753662E+02  0.28494870878E+02 -0.35737465049E+02  0.62499995654E+02  0.00000000000E+00 0.  1.
</event>
<event>
 4    1  0.1977762E-002  0.9118800E+02  0.7818608E-02  0.1130116E+00
         25   -1    0    0    0    0  0.00000000000E+00  0.00000000000E+00  0.99999998245E-14  0.12500000000E+03  0.12500000000E+03 0.  0.
        -11    1    1    0    0    0  0.23944023487E+00 -0.43429531273E-01 -0.28332097963E+00  0.37348197933E+00  0.51100000000E-03 0. -1.
         11    1    1    0    0    0  0.39440261034E+02 -0.73789065247E+01 -0.47431240849E+02  0.62126524614E+02  0.51100000000E-03 0.  1.
         22    1    1    0    0    0 -0.39679701269E+02  0.74223360560E+01  0.47714561829E+02  0.62499993406E+02  0.00000000000E+00 0.  1.
</event>
<event>
 4    1  0.1977762E-002  0.9118800E+02  0.7818608E-02  0.1130116E+00
         25   -1    0    0    0    0  0.00000000000E+00  0.00000000000E+00  0.99999998245E-14  0.12500000000E+03  0.12500000000E+03 0.  0.
        -11    1    1    0    0    0 -0.22379669329E+02  0.26728117618E+01  0.18573156970E+02  0.29205405015E+02  0.51100000000E-03 0.  1.
         11    1    1    0    0    0 -0.20760754254E+02 -0.31702970719E+02  0.58524543292E+01  0.38344993044E+02  0.51100000000E-03 0. -1.
         22    1    1    0    0    0  0.43140423582E+02  0.29030158957E+02 -0.24425611299E+02  0.57449601942E+02  0.00000000000E+00 0.  1.
</event>
<event>
 4    1  0.1977762E-002  0.9118800E+02  0.7818608E-02  0.1130116E+00
         25   -1    0    0    0    0  0.00000000000E+00  0.00000000000E+00  0.99999998245E-14  0.12500000000E+03  0.12500000000E+03 0.  0.
        -11    1    1    0    0    0 -0.43764909206E+02 -0.20655442491E+02 -0.18619698036E+02  0.51852750530E+02  0.51100000000E-03 0.  1.
         11    1    1    0    0    0 -0.89908952127E+01 -0.42288701194E+01 -0.38268079664E+01  0.10647253105E+02  0.51100000000E-03 0. -1.
         22    1    1    0    0    0  0.52755804418E+02  0.24884312610E+02  0.22446506003E+02  0.62499996365E+02  0.00000000000E+00 0.  1.
</event>
<event>
 4    1  0.1977762E-002  0.9118800E+02  0.7818608E-02  0.1130116E+00
         25   -1    0    0    0    0  0.00000000000E+00  0.00000000000E+00  0.99999998245E-14  0.12500000000E+03  0.12500000000E+03 0.  0.
        -11    1    1    0    0    0 -0.31128786795E+01  0.36585701687E+01 -0.71701268047E+01  0.86305195677E+01  0.51100000000E-03 0.  1.
         11    1    1    0    0    0 -0.19448460733E+02  0.22850551983E+02 -0.44738469216E+02  0.53869480959E+02  0.51100000000E-03 0. -1.
         22    1    1    0    0    0  0.22561339412E+02 -0.26509122152E+02  0.51908596020E+02  0.62499999473E+02  0.00000000000E+00 0. -1.
</event>
<event>
 4    1  0.1977762E-002  0.9118800E+02  0.7818608E-02  0.1130116E+00
         25   -1    0    0    0    0  0.00000000000E+00  0.00000000000E+00  0.99999998245E-14  0.12500000000E+03  0.12500000000E+03 0.  0.
        -11    1    1    0    0    0  0.10405344679E+02 -0.20548351782E+01  0.42362493288E+02  0.43670062781E+02  0.51100000000E-03 0. -1.
         11    1    1    0    0    0  0.44856183514E+01 -0.88445384158E+00  0.18266458504E+02  0.18829937257E+02  0.51100000000E-03 0. -1.
         22    1    1    0    0    0 -0.14890963031E+02  0.29392890198E+01 -0.60628951791E+02  0.62499999962E+02  0.00000000000E+00 0. -1.
</event>
<event>
 4    1  0.1977762E-002  0.9118800E+02  0.7818608E-02  0.1130116E+00
         25   -1    0    0    0    0  0.00000000000E+00  0.00000000000E+00  0.99999998245E-14  0.12500000000E+03  0.12500000000E+03 0.  0.
        -11    1    1    0    0    0 -0.33435527655E+02  0.25651928283E+02 -0.11233818515E+02  0.43613697537E+02  0.51100000000E-03 0.  1.
         11    1    1    0    0    0 -0.14484016710E+02  0.11101133483E+02 -0.48652382367E+01  0.18886303186E+02  0.51100000000E-03 0. -1.
         22    1    1    0    0    0  0.47919544364E+02 -0.36753061767E+02  0.16099056751E+02  0.62499999277E+02  0.00000000000E+00 0. -1.
</event>
<event>
 4    1  0.1977762E-002  0.9118800E+02  0.7818608E-02  0.1130116E+00
         25   -1    0    0    0    0  0.00000000000E+00  0.00000000000E+00  0.99999998245E-14  0.12500000000E+03  0.12500000000E+03 0.  0.
        -11    1    1    0    0    0 -0.22216518122E+02  0.19771898609E+02  0.53343605673E+02  0.61074069118E+02  0.51100000000E-03 0. -1.
         11    1    1    0    0    0 -0.50747026617E+00  0.48064893296E+00  0.12429685146E+01  0.14260155880E+01  0.51100000000E-03 0.  1.
         22    1    1    0    0    0  0.22723988388E+02 -0.20252547542E+02 -0.54586574188E+02  0.62499915294E+02  0.00000000000E+00 0. -1.
</event>
<event>
 4    1  0.1977762E-002  0.9118800E+02  0.7818608E-02  0.1130116E+00
         25   -1    0    0    0    0  0.00000000000E+00  0.00000000000E+00  0.99999998245E-14  0.12500000000E+03  0.12500000000E+03 0.  0.
        -11    1    1    0    0    0 -0.17772192878E+01 -0.67042996512E+01  0.41281265702E+01  0.80714045525E+01  0.51100000000E-03 0. -1.
         11    1    1    0    0    0 -0.11993832591E+02 -0.45208677298E+02  0.27835148391E+02  0.54428595513E+02  0.51100000000E-03 0.  1.
         22    1    1    0    0    0  0.13771051879E+02  0.51912976950E+02 -0.31963274961E+02  0.62499999935E+02  0.00000000000E+00 0.  1.
</event>
<event>
 4    1  0.1977762E-002  0.9118800E+02  0.7818608E-02  0.1130116E+00
         25   -1    0    0    0    0  0.00000000000E+00  0.00000000000E+00  0.99999998245E-14  0.12500000000E+03  0.12500000000E+03 0.  0.
        -11    1    1    0    0    0 -0.13206694958E+01 -0.69689214217E+01  0.17540704531E+02  0.18920527196E+02  0.51100000000E-03 0. -1.
         11    1    1    0    0    0 -0.29213372295E+01 -0.17064652960E+02  0.39995204906E+02  0.43581567292E+02  0.51100000000E-03 0.  1.
         22    1    1    0    0    0  0.42420067253E+01  0.24033574382E+02 -0.57535909437E+02  0.62497905512E+02  0.00000000000E+00 0.  1.
</event>
<event>
 4    1  0.1977762E-002  0.9118800E+02  0.7818608E-02  0.1130116E+00
         25   -1    0    0    0    0  0.00000000000E+00  0.00000000000E+00  0.99999998245E-14  0.12500000000E+03  0.12500000000E+03 0.  0.
        -11    1    1    0    0    0 -0.20071152306E+01 -0.30029310244E+01 -0.11791689144E+01  0.37995454828E+01  0.51100000000E-03 0. -1.
         11    1    1    0    0    0  0.44437307242E+02 -0.39472817922E+02  0.10759869525E+02  0.60403248440E+02  0.51100000000E-03 0.  1.
         22    1    1    0    0    0 -0.42430192011E+02  0.42475748946E+02 -0.95807006101E+01  0.60797206078E+02  0.00000000000E+00 0.  1.
</event>
<event>
 4    1  0.1977762E-002  0.9118800E+02  0.7818608E-02  0.1130116E+00
         25   -1    0    0    0    0  0.00000000000E+00  0.00000000000E+00  0.99999998245E-14  0.12500000000E+03  0.12500000000E+03 0.  0.
        -11    1    1    0    0    0  0.37532309703E+01  0.72830342160E+01  0.46791280559E+01  0.94352302427E+01  0.51100000000E-03 0.  1.
         11    1    1    0    0    0  0.21104227029E+02  0.40962794793E+02  0.26315980621E+02  0.53064769782E+02  0.51100000000E-03 0. -1.
         22    1    1    0    0    0 -0.24857457999E+02 -0.48245829009E+02 -0.30995108677E+02  0.62499999975E+02  0.00000000000E+00 0. -1.
</event>
<event>
 4    1  0.1977762E-002  0.9118800E+02  0.7818608E-02  0.1130116E+00
         25   -1    0    0    0    0  0.00000000000E+00  0.00000000000E+00  0.99999998245E-14  0.12500000000E+03  0.12500000000E+03 0.  0.
        -11    1    1    0    0    0 -0.16916490691E+02 -0.34719251309E+02  0.47110995910E+02  0.60918305989E+02  0.51100000000E-03 0. -1.
         11    1    1    0    0    0 -0.44134312960E+00 -0.90760648597E+00  0.12178903386E+01  0.15817049123E+01  0.51100000000E-03 0.  1.
         22    1    1    0    0    0  0.17357833820E+02  0.35626857795E+02 -0.48328886248E+02  0.62499989098E+02  0.00000000000E+00 0. -1.
</event>
<event>
 4    1  0.1977762E-002  0.9118800E+02  0.7818608E-02  0.1130116E+00
         25   -1    0    0    0    0  0.00000000000E+00  0.00000000000E+00  0.99999998245E-14  0.12500000000E+03  0.12500000000E+03 0.  0.
        -11    1    1    0    0    0  0.10002478002E+02 -0.31783089187E+02  0.64738182218E+01  0.33942961673E+02  0.51100000000E-03 0. -1.
         11    1    1    0    0    0  0.24743259509E+02 -0.15939545240E+02  0.75432669297E+01  0.30384187826E+02  0.51100000000E-03 0.  1.
         22    1    1    0    0    0 -0.34745737511E+02  0.47722634427E+02 -0.14017085152E+02  0.60672850502E+02  0.00000000000E+00 0. -1.
</event>
<event>
 4    1  0.1977762E-002  0.9118800E+02  0.7818608E-02  0.1130116E+00
         25   -1    0    0    0    0  0.00000000000E+00  0.00000000000E+00  0.99999998245E-14  0.12500000000E+03  0.12500000000E+03 0.  0.
        -11    1    1    0    0    0  0.59183108680E+01 -0.26698290089E+00 -0.36688586317E+01  0.69683719275E+01  0.51100000000E-03 0.  1.
         11    1    1    0    0    0  0.47136011172E+02 -0.21905387549E+01 -0.29277295974E+02  0.55531631248E+02  0.51100000000E-03 0. -1.
         22    1    1    0    0    0 -0.53054322040E+02  0.24575216558E+01  0.32946154606E+02  0.62499996825E+02  0.00000000000E+00 0. -1.
</event>
<event>
 4    1  0.1977762E-002  0.9118800E+02  0.7818608E-02  0.1130116E+00
         25   -1    0    0    0    0  0.00000000000E+00  0.00000000000E+00  0.99999998245E-14  0.12500000000E+03  0.12500000000E+03 0.  0.
        -11    1    1    0    0    0 -0.25917426542E+02  0.40328712165E+02  0.39965325614E+02  0.62412701232E+02  0.51100000000E-03 0. -1.
         11    1    1    0    0    0 -0.76101227466E-01 -0.88757058616E+00 -0.42924203166E+00  0.98884878778E+00  0.51100000000E-03 0.  1.
         22    1    1    0    0    0  0.25993527769E+02 -0.39441141579E+02 -0.39536083582E+02  0.61598449980E+02  0.00000000000E+00 0. -1.
</event>
<event>
 4    1  0.1977762E-002  0.9118800E+02  0.7818608E-02  0.1130116E+00
         25   -1    0    0    0    0  0.00000000000E+00  0.00000000000E+00  0.99999998245E-14  0.12500000000E+03  0.12500000000E+03 0.  0.
        -11    1    1    0    0    0 -0.46576754091E+02 -0.33086011869E+02  0.18215008538E+02  0.59965529593E+02  0.51100000000E-03 0.  1.
         11    1    1    0    0    0 -0.19688310537E+01 -0.13958927951E+01  0.77378168547E+00  0.25344724838E+01  0.51100000000E-03 0. -1.
         22    1    1    0    0    0  0.48545585145E+02  0.34481904664E+02 -0.18988790223E+02  0.62499997923E+02  0.00000000000E+00 0.  1.
</event>
<event>
 4    1  0.1977762E-002  0.9118800E+02  0.7818608E-02  0.1130116E+00
         25   -1    0    0    0    0  0.00000000000E+00  0.00000000000E+00  0.99999998245E-14  0.12500000000E+03  0.12500000000E+03 0.  0.
        -11    1    1    0    0    0  0.12943265564E+01 -0.34541460049E+02 -0.17399776936E+02  0.38698061725E+02  0.51100000000E-03 0.  1.
         11    1    1    0    0    0  0.79603373964E+00 -0.21245616604E+02 -0.10701512563E+02  0.23801938282E+02  0.51100000000E-03 0.  1.
         22    1    1    0    0    0 -0.20903602960E+01  0.55787076653E+02  0.28101289499E+02  0.62499999993E+02  0.00000000000E+00 0.  1.
</event>
<event>
 4    1  0.1977762E-002  0.9118800E+02  0.7818608E-02  0.1130116E+00
         25   -1    0    0    0    0  0.00000000000E+00  0.00000000000E+00  0.99999998245E-14  0.12500000000E+03  0.12500000000E+03 0.  0.
        -11    1    1    0    0    0 -0.29334667760E+02 -0.26926872462E+02  0.33375129108E+02  0.51956505237E+02  0.51100000000E-03 0. -1.
         11    1    1    0    0    0 -0.15654801865E+01  0.38596478674E+01  0.12464524850E+02  0.13141993375E+02  0.51100000000E-03 0.  1.
         22    1    1    0    0    0  0.30900147946E+02  0.23067224594E+02 -0.45839653958E+02  0.59901501388E+02  0.00000000000E+00 0. -1.
</event>
<event>
 4    1  0.1977762E-002  0.9118800E+02  0.7818608E-02  0.1130116E+00
         25   -1    0    0    0    0  0.00000000000E+00  0.00000000000E+00  0.99999998245E-14  0.12500000000E+03  0.12500000000E+03 0.  0.
        -11    1    1    0    0    0  0.48066494154E+02  0.13188815380E+02 -0.23319783599E+02  0.55028583652E+02  0.51100000000E-03 0. -1.
         11    1    1    0    0    0  0.65099887851E+01  0.17746796882E+01 -0.32083688368E+01  0.74714839779E+01  0.51100000000E-03 0.  1.
         22    1    1    0    0    0 -0.54576482939E+02 -0.14963495068E+02  0.26528152435E+02  0.62499932370E+02  0.00000000000E+00 0. -1.
</event>
<event>
 4    1  0.1977762E-002  0.9118800E+02  0.7818608E-02  0.1130116E+00
         25   -1    0    0    0    0  0.00000000000E+00  0.00000000000E+00  0.99999998245E-14  0.12500000000E+03  0.12500000000E+03 0.  0.
        -11    1    1    0    0    0 -0.12457046014E+01  0.30692109567E+01  0.59848383297E+02  0.59939976805E+02  0.51100000000E-03 0. -1.
         11    1    1    0    0    0 -0.31909002353E-01  0.15831269986E+00  0.25550364047E+01  0.25601352281E+01  0.51100000000E-03 0.  1.
         22    1    1    0    0    0  0.12776136038E+01 -0.32275236565E+01 -0.62403419702E+02  0.62499887967E+02  0.00000000000E+00 0. -1.
</event>
<event>
 4    1  0.1977762E-002  0.9118800E+02  0.7818608E-02  0.1130116E+00
         25   -1    0    0    0    0  0.00000000000E+00  0.00000000000E+00  0.99999998245E-14  0.12500000000E+03  0.12500000000E+03 0.  0.
        -11    1    1    0    0    0  0.25483571763E+01  0.12243062246E+01  0.46459361671E+01  0.54385451326E+01  0.51100000000E-03 0.  1.
         11    1    1    0    0    0  0.46978865527E+02  0.18684719505E+02  0.27193920610E+02  0.57407681259E+02  0.51100000000E-03 0. -1.
         22    1    1    0    0    0 -0.49527222703E+02 -0.19909025729E+02 -0.31839856777E+02  0.62153773608E+02  0.00000000000E+00 0. -1.
</event>
<event>
 4    1  0.1977762E-002  0.9118800E+02  0.7818608E-02  0.1130116E+00
         25   -1    0    0    0    0  0.00000000000E+00  0.00000000000E+00  0.99999998245E-14  0.12500000000E+03  0.12500000000E+03 0.  0.
        -11    1    1    0    0    0 -0.59107262412E+02  0.68350468047E+01 -0.35266395930E+01  0.59605566198E+02  0.51100000000E-03 0.  1.
         11    1    1    0    0    0  0.23377126608E+01  0.36684801343E+01  0.62296859483E+01  0.75981336034E+01  0.51100000000E-03 0. -1.
         22    1    1    0    0    0  0.56769549751E+02 -0.10503526939E+02 -0.27030463552E+01  0.57796300199E+02  0.00000000000E+00 0.  1.
</event>
<event>
 4    1  0.1977762E-002  0.9118800E+02  0.7818608E-02  0.1130116E+00
         25   -1    0    0    0    0  0.00000000000E+00  0.00000000000E+00  0.99999998245E-14  0.12500000000E+03  0.12500000000E+03 0.  0.
        -11    1    1    0    0    0  0.37098639167E+01 -0.55347904553E+01  0.11353299440E+02  0.13164133246E+02  0.51100000000E-03 0. -1.
         11    1    1    0    0    0  0.14035137149E+02 -0.20813062825E+02  0.42471897285E+02  0.49335896852E+02  0.51100000000E-03 0.  1.
         22    1    1    0    0    0 -0.17745001066E+02  0.26347853280E+02 -0.53825196725E+02  0.62499969902E+02  0.00000000000E+00 0.  1.
</event>
<event>
 4    1  0.1977762E-002  0.9118800E+02  0.7818608E-02  0.1130116E+00
         25   -1    0    0    0    0  0.00000000000E+00  0.00000000000E+00  0.99999998245E-14  0.12500000000E+03  0.12500000000E+03 0.  0.
        -11    1    1    0    0    0 -0.52454961960E+01  0.23136590982E+02  0.33888582077E+02  0.41367294667E+02  0.51100000000E-03 0. -1.
         11    1    1    0    0    0  0.18773262831E+02  0.20670526332E+02 -0.23794767602E+02  0.36686469190E+02  0.51100000000E-03 0.  1.
         22    1    1    0    0    0 -0.13527766635E+02 -0.43807117313E+02 -0.10093814475E+02  0.46946236144E+02  0.00000000000E+00 0. -1.
</event>
<event>
 4    1  0.1977762E-002  0.9118800E+02  0.7818608E-02  0.1130116E+00
         25   -1    0    0    0    0  0.00000000000E+00  0.00000000000E+00  0.99999998245E-14  0.12500000000E+03  0.12500000000E+03 0.  0.
        -11    1    1    0    0    0 -0.65846314580E+00  0.51140500910E+00 -0.19635421087E+00  0.85654190497E+00  0.51100000000E-03 0. -1.
         11    1    1    0    0    0 -0.52548800580E+02  0.30218454830E+02 -0.11221508410E+02  0.61647819961E+02  0.51100000000E-03 0.  1.
         22    1    1    0    0    0  0.53207263726E+02 -0.30729859839E+02  0.11417862621E+02  0.62495638134E+02  0.00000000000E+00 0.  1.
</event>
<event>
 4    1  0.1977762E-002  0.9118800E+02  0.7818608E-02  0.1130116E+00
         25   -1    0    0    0    0  0.00000000000E+00  0.00000000000E+00  0.99999998245E-14  0.12500000000E+03  0.12500000000E+03 0.  0.
        -11    1    1    0    0    0 -0.17562263053E+02 -0.44655173316E+01 -0.14269138428E+02  0.23064740196E+02  0.51100000000E-03 0. -1.
         11    1    1    0    0    0 -0.30066220481E+02 -0.77616809751E+01 -0.24308909453E+02  0.39435319000E+02  0.51100000000E-03 0.  1.
         22    1    1    0    0    0  0.47628483534E+02  0.12227198307E+02  0.38578047881E+02  0.62499940804E+02  0.00000000000E+00 0.  1.
</event>
<event>
 4    1  0.1977762E-002  0.9118800E+02  0.7818608E-02  0.1130116E+00
         25   -1    0    0    0    0  0.00000000000E+00  0.00000000000E+00  0.99999998245E-14  0.12500000000E+03  0.12500000000E+03 0.  0.
        -11    1    1    0    0    0 -0.88274094530E+00  0.69509164196E-02 -0.79382823485E+00  0.11871998228E+01  0.51100000000E-03 0. -1.
         11    1    1    0    0    0 -0.46438623074E+02 -0.36255865327E+01 -0.39871525726E+02  0.61314183960E+02  0.51100000000E-03 0.  1.
         22    1    1    0    0    0  0.47321364019E+02  0.36186356162E+01  0.40665353961E+02  0.62498616217E+02  0.00000000000E+00 0.  1.
</event>
<event>
 4    1  0.1977762E-002  0.9118800E+02  0.7818608E-02  0.1130116E+00
         25   -1    0    0    0    0  0.00000000000E+00  0.00000000000E+00  0.99999998245E-14  0.12500000000E+03  0.12500000000E+03 0.  0.
        -11    1    1    0    0    0 -0.50428254236E+01  0.15982456394E+02  0.13509705656E+01  0.16813510114E+02  0.51100000000E-03 0. -1.
         11    1    1    0    0    0 -0.13687196590E+02  0.43432936718E+02  0.36736972819E+01  0.45686490284E+02  0.51100000000E-03 0.  1.
         22    1    1    0    0    0  0.18730022014E+02 -0.59415393112E+02 -0.50246678475E+01  0.62499999602E+02  0.00000000000E+00 0.  1.
</event>
<event>
 4    1  0.1977762E-002  0.9118800E+02  0.7818608E-02  0.1130116E+00
         25   -1    0    0    0    0  0.00000000000E+00  0.00000000000E+00  0.99999998245E-14  0.12500000000E+03  0.12500000000E+03 0.  0.
        -11    1    1    0    0    0 -0.34363855737E+01 -0.49968359064E+01 -0.29947612240E+01  0.67635574912E+01  0.51100000000E-03 0.  1.
         11    1    1    0    0    0 -0.28647780041E+02 -0.40793579867E+02 -0.24935054907E+02  0.55736598597E+02  0.51100000000E-03 0. -1.
         22    1    1    0    0    0  0.32084165615E+02  0.45790415773E+02  0.27929816131E+02  0.62499843912E+02  0.00000000000E+00 0. -1.
</event>
<event>
 4    1  0.1977762E-002  0.9118800E+02  0.7818608E-02  0.1130116E+00
         25   -1    0    0    0    0  0.00000000000E+00  0.00000000000E+00  0.99999998245E-14  0.12500000000E+03  0.12500000000E+03 0.  0.
        -11    1    1    0    0    0 -0.94454482234E+00  0.88111064519E+01  0.65619996619E+01  0.11026676818E+02  0.51100000000E-03 0.  1.
         11    1    1    0    0    0 -0.44084309218E+01  0.41139640519E+02  0.30620234052E+02  0.51473323372E+02  0.51100000000E-03 0. -1.
         22    1    1    0    0    0  0.53529757442E+01 -0.49950746971E+02 -0.37182233714E+02  0.62499999810E+02  0.00000000000E+00 0. -1.
</event>
<event>
 4    1  0.1977762E-002  0.9118800E+02  0.7818608E-02  0.1130116E+00
         25   -1    0    0    0    0  0.00000000000E+00  0.00000000000E+00  0.99999998245E-14  0.12500000000E+03  0.12500000000E+03 0.  0.
        -11    1    1    0    0    0 -0.10049679528E+02 -0.57223389689E+01 -0.23451804269E+01  0.11800046330E+02  0.51100000000E-03 0. -1.
         11    1    1    0    0    0 -0.43145584819E+02 -0.20531419912E+02 -0.17136694459E+02  0.50761668513E+02  0.51100000000E-03 0.  1.
         22    1    1    0    0    0  0.53195264347E+02  0.26253758881E+02  0.19481874886E+02  0.62438285157E+02  0.00000000000E+00 0.  1.
</event>
<event>
 4    1  0.1977762E-002  0.9118800E+02  0.7818608E-02  0.1130116E+00
         25   -1    0    0    0    0  0.00000000000E+00  0.00000000000E+00  0.99999998245E-14  0.12500000000E+03  0.12500000000E+03 0.  0.
        -11    1    1    0    0    0  0.43141327787E+02  0.22988854554E+02 -0.60793674173E+01  0.49260737970E+02  0.51100000000E-03 0.  1.
         11    1    1    0    0    0  0.11474994578E+02  0.64102199036E+01 -0.15934524410E+01  0.13240298740E+02  0.51100000000E-03 0. -1.
         22    1    1    0    0    0 -0.54616322365E+02 -0.29399074458E+02  0.76728198584E+01  0.62498963289E+02  0.00000000000E+00 0. -1.
</event>
<event>
 4    1  0.1977762E-002  0.9118800E+02  0.7818608E-02  0.1130116E+00
         25   -1    0    0    0    0  0.00000000000E+00  0.00000000000E+00  0.99999998245E-14  0.12500000000E+03  0.12500000000E+03 0.  0.
        -11    1    1    0    0    0 -0.60737689610E+00  0.88761949068E+01  0.34170720066E+01  0.95305888631E+01  0.51100000000E-03 0. -1.
         11    1    1    0    0    0 -0.25224041690E+02  0.23593138263E+02  0.41718965735E+02  0.54160507333E+02  0.51100000000E-03 0.  1.
         22    1    1    0    0    0  0.25831418586E+02 -0.32469333170E+02 -0.45136037741E+02  0.61308903804E+02  0.00000000000E+00 0. -1.
</event>
<event>
 4    1  0.1977762E-002  0.9118800E+02  0.7818608E-02  0.1130116E+00
         25   -1    0    0    0    0  0.00000000000E+00  0.00000000000E+00  0.99999998245E-14  0.12500000000E+03  0.12500000000E+03 0.  0.
        -11    1    1    0    0    0 -0.13811181491E+02 -0.89347751728E+01  0.12476695675E+01  0.16496533611E+02  0.51100000000E-03 0.  1.
         11    1    1    0    0    0 -0.39498324310E+02 -0.23291798705E+02  0.37656489375E+01  0.46008755932E+02  0.51100000000E-03 0. -1.
         22    1    1    0    0    0  0.53309505801E+02  0.32226573878E+02 -0.50133185050E+01  0.62494710457E+02  0.00000000000E+00 0. -1.
</event>
<event>
 4    1  0.1977762E-002  0.9118800E+02  0.7818608E-02  0.1130116E+00
         25   -1    0    0    0    0  0.00000000000E+00  0.00000000000E+00  0.99999998245E-14  0.12500000000E+03  0.12500000000E+03 0.  0.
        -11    1    1    0    0    0  0.23261583807E+02 -0.20592439065E+02  0.48735742107E+01  0.31446805143E+02  0.51100000000E-03 0. -1.
         11    1    1    0    0    0  0.22969301780E+02 -0.20336018831E+02  0.48123201781E+01  0.31053194874E+02  0.51100000000E-03 0. -1.
         22    1    1    0    0    0 -0.46230885586E+02  0.40928457896E+02 -0.96858943888E+01  0.62499999983E+02  0.00000000000E+00 0. -1.
</event>
<event>
 4    1  0.1977762E-002  0.9118800E+02  0.7818608E-02  0.1130116E+00
         25   -1    0    0    0    0  0.00000000000E+00  0.00000000000E+00  0.99999998245E-14  0.12500000000E+03  0.12500000000E+03 0.  0.
        -11    1    1    0    0    0  0.10736271214E+02  0.66868308841E+01  0.22365292001E+01  0.12844582126E+02  0.51100000000E-03 0.  1.
         11    1    1    0    0    0  0.41504177237E+02  0.25851050715E+02  0.86479462228E+01  0.49655417885E+02  0.51100000000E-03 0.  1.
         22    1    1    0    0    0 -0.52240448452E+02 -0.32537881599E+02 -0.10884475423E+02  0.62499999989E+02  0.00000000000E+00 0.  1.
</event>
<event>
 4    1  0.1977762E-002  0.9118800E+02  0.7818608E-02  0.1130116E+00
         25   -1    0    0    0    0  0.00000000000E+00  0.00000000000E+00  0.99999998245E-14  0.12500000000E+03  0.12500000000E+03 0.  0.
        -11    1    1    0    0    0  0.64533999929E+01  0.11092092296E+02 -0.12076553152E+01  0.12889504048E+02  0.51100000000E-03 0.  1.
         11    1    1    0    0    0 -0.23744778772E+02  0.41049123399E+02 -0.22244829715E+02  0.52380125048E+02  0.51100000000E-03 0. -1.
         22    1    1    0    0    0  0.17291378779E+02 -0.52141215695E+02  0.23452485031E+02  0.59730370904E+02  0.00000000000E+00 0. -1.
</event>
<event>
 4    1  0.1977762E-002  0.9118800E+02  0.7818608E-02  0.1130116E+00
         25   -1    0    0    0    0  0.00000000000E+00  0.00000000000E+00  0.99999998245E-14  0.12500000000E+03  0.12500000000E+03 0.  0.
        -11    1    1    0    0    0 -0.20818667136E+02  0.45969156921E+02 -0.12158328821E+02  0.51907660796E+02  0.51100000000E-03 0.  1.
         11    1    1    0    0    0 -0.38271986218E+01  0.96995611522E+01 -0.19267289704E+01  0.10603830469E+02  0.51100000000E-03 0. -1.
         22    1    1    0    0    0  0.24645865758E+02 -0.55668718073E+02  0.14085057791E+02  0.62488508734E+02  0.00000000000E+00 0.  1.
</event>
<event>
 4    1  0.1977762E-002  0.9118800E+02  0.7818608E-02  0.1130116E+00
         25   -1    0    0    0    0  0.00000000000E+00  0.00000000000E+00  0.99999998245E-14  0.12500000000E+03  0.12500000000E+03 0.  0.
        -11    1    1    0    0    0 -0.19744761670E+02 -0.79155869597E+01  0.25350998388E+02  0.33093583213E+02  0.51100000000E-03 0.  1.
         11    1    1    0    0    0 -0.17057777768E+02 -0.74062699788E+01  0.22782309639E+02  0.29408404413E+02  0.51100000000E-03 0. -1.
         22    1    1    0    0    0  0.36802539438E+02  0.15321856939E+02 -0.48133308027E+02  0.62498012374E+02  0.00000000000E+00 0. -1.
</event>
<event>
 4    1  0.1977762E-002  0.9118800E+02  0.7818608E-02  0.1130116E+00
         25   -1    0    0    0    0  0.00000000000E+00  0.00000000000E+00  0.99999998245E-14  0.12500000000E+03  0.12500000000E+03 0.  0.
        -11    1    1    0    0    0 -0.24685760618E+01  0.42945804584E+00 -0.24470712533E+01  0.35023506344E+01  0.51100000000E-03 0.  1.
         11    1    1    0    0    0 -0.41470272903E+02  0.60946626666E+01 -0.41519072948E+02  0.58997981884E+02  0.51100000000E-03 0. -1.
         22    1    1    0    0    0  0.43938848964E+02 -0.65241207125E+01  0.43966144201E+02  0.62499667482E+02  0.00000000000E+00 0. -1.
</event>
<event>
 4    1  0.1977762E-002  0.9118800E+02  0.7818608E-02  0.1130116E+00
         25   -1    0    0    0    0  0.00000000000E+00  0.00000000000E+00  0.99999998245E-14  0.12500000000E+03  0.12500000000E+03 0.  0.
        -11    1    1    0    0    0 -0.11246515777E+02  0.58299342809E+02  0.65964568927E+01  0.59739524043E+02  0.51100000000E-03 0. -1.
         11    1    1    0    0    0 -0.17124288121E+01  0.15892141197E+01 -0.31060255604E+01  0.38865677657E+01  0.51100000000E-03 0.  1.
         22    1    1    0    0    0  0.12958944589E+02 -0.59888556928E+02 -0.34904313323E+01  0.61373908192E+02  0.00000000000E+00 0. -1.
</event>
<event>
 4    1  0.1977762E-002  0.9118800E+02  0.7818608E-02  0.1130116E+00
         25   -1    0    0    0    0  0.00000000000E+00  0.00000000000E+00  0.99999998245E-14  0.12500000000E+03  0.12500000000E+03 0.  0.
        -11    1    1    0    0    0  0.16691723262E+02  0.24302936929E+02 -0.43576298505E+02  0.52613117761E+02  0.51100000000E-03 0.  1.
         11    1    1    0    0    0  0.31304209147E+01  0.45658734743E+01 -0.81916863439E+01  0.98868832857E+01  0.51100000000E-03 0. -1.
         22    1    1    0    0    0 -0.19822144177E+02 -0.28868810403E+02  0.51767984849E+02  0.62499998954E+02  0.00000000000E+00 0.  1.
</event>
<event>
 4    1  0.1977762E-002  0.9118800E+02  0.7818608E-02  0.1130116E+00
         25   -1    0    0    0    0  0.00000000000E+00  0.00000000000E+00  0.99999998245E-14  0.12500000000E+03  0.12500000000E+03 0.  0.
        -11    1    1    0    0    0 -0.16549621136E+02  0.16615988753E+02  0.13494876283E+01  0.23490469538E+02  0.51100000000E-03 0. -1.
         11    1    1    0    0    0 -0.27485442816E+02  0.27586920021E+02  0.22926520813E+01  0.39009536999E+02  0.51100000000E-03 0.  1.
         22    1    1    0    0    0  0.44035063952E+02 -0.44202908774E+02 -0.36421397096E+01  0.62499993464E+02  0.00000000000E+00 0.  1.
</event>
<event>
 4    1  0.1977762E-002  0.9118800E+02  0.7818608E-02  0.1130116E+00
         25   -1    0    0    0    0  0.00000000000E+00  0.00000000000E+00  0.99999998245E-14  0.12500000000E+03  0.12500000000E+03 0.  0.
        -11    1    1    0    0    0 -0.95359957142E+00  0.13211228821E+02  0.29527885556E+02  0.32362662820E+02  0.51100000000E-03 0.  1.
         11    1    1    0    0    0 -0.36662208424E+02  0.15289033778E+02 -0.69678598294E+01  0.40328936897E+02  0.51100000000E-03 0. -1.
         22    1    1    0    0    0  0.37615807995E+02 -0.28500262600E+02 -0.22560025727E+02  0.52308400283E+02  0.00000000000E+00 0.  1.
</event>
<event>
 4    1  0.1977762E-002  0.9118800E+02  0.7818608E-02  0.1130116E+00
         25   -1    0    0    0    0  0.00000000000E+00  0.00000000000E+00  0.99999998245E-14  0.12500000000E+03  0.12500000000E+03 0.  0.
        -11    1    1    0    0    0 -0.24715976189E+02  0.12401405623E+02 -0.43615035324E+02  0.51642479094E+02  0.51100000000E-03 0.  1.
         11    1    1    0    0    0 -0.51954368186E+01  0.26083874757E+01 -0.91700333712E+01  0.10857520953E+02  0.51100000000E-03 0. -1.
         22    1    1    0    0    0  0.29911413008E+02 -0.15009793098E+02  0.52785068695E+02  0.62499999953E+02  0.00000000000E+00 0.  1.
</event>
<event>
 4    1  0.1977762E-002  0.9118800E+02  0.7818608E-02  0.1130116E+00
         25   -1    0    0    0    0  0.00000000000E+00  0.00000000000E+00  0.99999998245E-14  0.12500000000E+03  0.12500000000E+03 0.  0.
        -11    1    1    0    0    0 -0.40291650488E+01 -0.31600681640E+01  0.90595123496E+01  0.10406486730E+02  0.51100000000E-03 0. -1.
         11    1    1    0    0    0 -0.20171691724E+02 -0.15823782071E+02  0.45348041879E+02  0.52093513306E+02  0.51100000000E-03 0.  1.
         22    1    1    0    0    0  0.24200856772E+02  0.18983850235E+02 -0.54407554229E+02  0.62499999964E+02  0.00000000000E+00 0.  1.
</event>
<event>
 4    1  0.1977762E-002  0.9118800E+02  0.7818608E-02  0.1130116E+00
         25   -1    0    0    0    0  0.00000000000E+00  0.00000000000E+00  0.99999998245E-14  0.12500000000E+03  0.12500000000E+03 0.  0.
        -11    1    1    0    0    0  0.29207378443E+01 -0.30355523870E+02 -0.15244152161E+02  0.34093587584E+02  0.51100000000E-03 0.  1.
         11    1    1    0    0    0  0.32753242083E+01 -0.26851315873E+02 -0.89399953229E+01  0.28489373974E+02  0.51100000000E-03 0. -1.
         22    1    1    0    0    0 -0.61960620525E+01  0.57206839743E+02  0.24184147484E+02  0.62417038442E+02  0.00000000000E+00 0. -1.
</event>
<event>
 4    1  0.1977762E-002  0.9118800E+02  0.7818608E-02  0.1130116E+00
         25   -1    0    0    0    0  0.00000000000E+00  0.00000000000E+00  0.99999998245E-14  0.12500000000E+03  0.12500000000E+03 0.  0.
        -11    1    1    0    0    0  0.14092919693E+01  0.12880159451E+01 -0.10433538503E+01  0.21757013692E+01  0.51100000000E-03 0. -1.
         11    1    1    0    0    0  0.39606593620E+02  0.35527888002E+02 -0.28427413014E+02  0.60324380602E+02  0.51100000000E-03 0.  1.
         22    1    1    0    0    0 -0.41015885589E+02 -0.36815903947E+02  0.29470766864E+02  0.62499918029E+02  0.00000000000E+00 0.  1.
</event>
<event>
 4    1  0.1977762E-002  0.9118800E+02  0.7818608E-02  0.1130116E+00
         25   -1    0    0    0    0  0.00000000000E+00  0.00000000000E+00  0.99999998245E-14  0.12500000000E+03  0.12500000000E+03 0.  0.
        -11    1    1    0    0    0 -0.21050417161E+01  0.43244385497E+00 -0.62316846198E+02  0.62353889443E+02  0.51100000000E-03 0. -1.
         11    1    1    0    0    0 -0.46012572083E-01  0.22477893344E-01 -0.14077624374E+00  0.14980195059E+00  0.51100000000E-03 0.  1.
         22    1    1    0    0    0  0.21510542882E+01 -0.45492174831E+00  0.62457622442E+02  0.62496308607E+02  0.00000000000E+00 0. -1.
</event>
<event>
 4    1  0.1977762E-002  0.9118800E+02  0.7818608E-02  0.1130116E+00
         25   -1    0    0    0    0  0.00000000000E+00  0.00000000000E+00  0.99999998245E-14  0.12500000000E+03  0.12500000000E+03 0.  0.
        -11    1    1    0    0    0  0.16773498839E+01 -0.13988021212E+01  0.20173678186E+02  0.20291560852E+02  0.51100000000E-03 0.  1.
         11    1    1    0    0    0  0.42975562751E+02  0.10626699391E+02  0.15404843755E+02  0.46873606060E+02  0.51100000000E-03 0. -1.
         22    1    1    0    0    0 -0.44652912635E+02 -0.92278972699E+01 -0.35578521941E+02  0.57834833088E+02  0.00000000000E+00 0. -1.
</event>
<event>
 4    1  0.1977762E-002  0.9118800E+02  0.7818608E-02  0.1130116E+00
         25   -1    0    0    0    0  0.00000000000E+00  0.00000000000E+00  0.99999998245E-14  0.12500000000E+03  0.12500000000E+03 0.  0.
        -11    1    1    0    0    0  0.33734347640E+01  0.41376053872E+01 -0.25574583886E+01  0.59194961033E+01  0.51100000000E-03 0. -1.
         11    1    1    0    0    0  0.32513127358E+02  0.40318019330E+02 -0.22778723268E+02  0.56581943827E+02  0.51100000000E-03 0.  1.
         22    1    1    0    0    0 -0.35886562122E+02 -0.44455624717E+02  0.25336181656E+02  0.62498560070E+02  0.00000000000E+00 0.  1.
</event>
<event>
 4    1  0.1977762E-002  0.9118800E+02  0.7818608E-02  0.1130116E+00
         25   -1    0    0    0    0  0.00000000000E+00  0.00000000000E+00  0.99999998245E-14  0.12500000000E+03  0.12500000000E+03 0.  0.
        -11    1    1    0    0    0 -0.34427980648E+02  0.18311222728E+02  0.44365496343E+02  0.59066775732E+02  0.51100000000E-03 0.  1.
         11    1    1    0    0    0 -0.23758784058E+01  0.61568688637E+00  0.24360991646E+01  0.34580988913E+01  0.51100000000E-03 0. -1.
         22    1    1    0    0    0  0.36803859054E+02 -0.18926909615E+02 -0.46801595508E+02  0.62475125377E+02  0.00000000000E+00 0.  1.
</event>
<event>
 4    1  0.1977762E-002  0.9118800E+02  0.7818608E-02  0.1130116E+00
         25   -1    0    0    0    0  0.00000000000E+00  0.00000000000E+00  0.99999998245E-14  0.12500000000E+03  0.12500000000E+03 0.  0.
        -11    1    1    0    0    0  0.58355303361E+01  0.38524041749E+02 -0.11463948421E+02  0.40614988867E+02  0.51100000000E-03 0. -1.
         11    1    1    0    0    0  0.31492690174E+01  0.20764277174E+02 -0.61547375293E+01  0.21885015335E+02  0.51100000000E-03 0.  1.
         22    1    1    0    0    0 -0.89847993535E+01 -0.59288318923E+02  0.17618685951E+02  0.62499995798E+02  0.00000000000E+00 0. -1.
</event>
<event>
 4    1  0.1977762E-002  0.9118800E+02  0.7818608E-02  0.1130116E+00
         25   -1    0    0    0    0  0.00000000000E+00  0.00000000000E+00  0.99999998245E-14  0.12500000000E+03  0.12500000000E+03 0.  0.
        -11    1    1    0    0    0 -0.29368343908E+02  0.13976718699E+02  0.52832998067E+02  0.62041711570E+02  0.51100000000E-03 0. -1.
         11    1    1    0    0    0 -0.21614134478E+00  0.10311989263E+00  0.39074006226E+00  0.45828904695E+00  0.51100000000E-03 0.  1.
         22    1    1    0    0    0  0.29584485253E+02 -0.14079838591E+02 -0.53223738129E+02  0.62499999383E+02  0.00000000000E+00 0. -1.
</event>
<event>
 4    1  0.1977762E-002  0.9118800E+02  0.7818608E-02  0.1130116E+00
         25   -1    0    0    0    0  0.00000000000E+00  0.00000000000E+00  0.99999998245E-14  0.12500000000E+03  0.12500000000E+03 0.  0.
        -11    1    1    0    0    0 -0.25369867671E+02 -0.43818773807E+02  0.35024154079E+01  0.50754133207E+02  0.51100000000E-03 0.  1.
         11    1    1    0    0    0 -0.59927741916E+01 -0.10080638110E+02  0.66956463983E+00  0.11746528180E+02  0.51100000000E-03 0. -1.
         22    1    1    0    0    0  0.31362641863E+02  0.53899411917E+02 -0.41719800477E+01  0.62499338613E+02  0.00000000000E+00 0.  1.
</event>
<event>
 4    1  0.1977762E-002  0.9118800E+02  0.7818608E-02  0.1130116E+00
         25   -1    0    0    0    0  0.00000000000E+00  0.00000000000E+00  0.99999998245E-14  0.12500000000E+03  0.12500000000E+03 0.  0.
        -11    1    1    0    0    0 -0.56228214863E+02 -0.11874179499E+02  0.50372176060E+01  0.57688663071E+02  0.51100000000E-03 0. -1.
         11    1    1    0    0    0 -0.40769796074E+01  0.29443697218E+01  0.29455451949E+01  0.58281482938E+01  0.51100000000E-03 0.  1.
         22    1    1    0    0    0  0.60305194471E+02  0.89298097774E+01 -0.79827628009E+01  0.61483188635E+02  0.00000000000E+00 0. -1.
</event>
<event>
 4    1  0.1977762E-002  0.9118800E+02  0.7818608E-02  0.1130116E+00
         25   -1    0    0    0    0  0.00000000000E+00  0.00000000000E+00  0.99999998245E-14  0.12500000000E+03  0.12500000000E+03 0.  0.
        -11    1    1    0    0    0 -0.46737918739E+01  0.41100230779E+01  0.21380542776E+01  0.65808735390E+01  0.51100000000E-03 0.  1.
         11    1    1    0    0    0 -0.40863477099E+02  0.38267490885E+02  0.25104338398E+01  0.56040404152E+02  0.51100000000E-03 0. -1.
         22    1    1    0    0    0  0.45537268973E+02 -0.42377513962E+02 -0.46484881174E+01  0.62378722309E+02  0.00000000000E+00 0. -1.
</event>
<event>
 4    1  0.1977762E-002  0.9118800E+02  0.7818608E-02  0.1130116E+00
         25   -1    0    0    0    0  0.00000000000E+00  0.00000000000E+00  0.99999998245E-14  0.12500000000E+03  0.12500000000E+03 0.  0.
        -11    1    1    0    0    0  0.39624593867E+00  0.50091099441E+01  0.10144805571E+01  0.51261451733E+01  0.51100000000E-03 0.  1.
         11    1    1    0    0    0  0.44451007142E+01  0.56064706717E+02  0.11346760157E+02  0.57373854899E+02  0.51100000000E-03 0.  1.
         22    1    1    0    0    0 -0.48413466529E+01 -0.61073816661E+02 -0.12361240714E+02  0.62499999928E+02  0.00000000000E+00 0.  1.
</event>
<event>
 4    1  0.1977762E-002  0.9118800E+02  0.7818608E-02  0.1130116E+00
         25   -1    0    0    0    0  0.00000000000E+00  0.00000000000E+00  0.99999998245E-14  0.12500000000E+03  0.12500000000E+03 0.  0.
        -11    1    1    0    0    0  0.37606695323E+00  0.14786281967E+01 -0.35982221615E+02  0.36014553174E+02  0.51100000000E-03 0. -1.
         11    1    1    0    0    0  0.86369205697E+00  0.57995044553E+00 -0.26468285127E+02  0.26488722587E+02  0.51100000000E-03 0.  1.
         22    1    1    0    0    0 -0.12397590102E+01 -0.20585786423E+01  0.62450506741E+02  0.62496724240E+02  0.00000000000E+00 0.  1.
</event>
<event>
 4    1  0.1977762E-002  0.9118800E+02  0.7818608E-02  0.1130116E+00
         25   -1    0    0    0    0  0.00000000000E+00  0.00000000000E+00  0.99999998245E-14  0.12500000000E+03  0.12500000000E+03 0.  0.
        -11    1    1    0    0    0  0.10232859629E+02  0.43248584743E+01 -0.11241564891E+02  0.15804701784E+02  0.51100000000E-03 0. -1.
         11    1    1    0    0    0  0.30235920088E+02  0.12733589587E+02 -0.33227939811E+02  0.46695301173E+02  0.51100000000E-03 0.  1.
         22    1    1    0    0    0 -0.40468779717E+02 -0.17058448061E+02  0.44469504702E+02  0.62499997043E+02  0.00000000000E+00 0. -1.
</event>
<event>
 4    1  0.1977762E-002  0.9118800E+02  0.7818608E-02  0.1130116E+00
         25   -1    0    0    0    0  0.00000000000E+00  0.00000000000E+00  0.99999998245E-14  0.12500000000E+03  0.12500000000E+03 0.  0.
        -11    1    1    0    0    0 -0.13653076530E+02  0.97140302901E+01 -0.10140453313E+02  0.19585649769E+02  0.51100000000E-03 0.  1.
         11    1    1    0    0    0 -0.29655086556E+02  0.22031547706E+02 -0.21839158657E+02  0.42915755895E+02  0.51100000000E-03 0. -1.
         22    1    1    0    0    0  0.43308163086E+02 -0.31745577996E+02  0.31979611969E+02  0.62498594336E+02  0.00000000000E+00 0. -1.
</event>
<event>
 4    1  0.1977762E-002  0.9118800E+02  0.7818608E-02  0.1130116E+00
         25   -1    0    0    0    0  0.00000000000E+00  0.00000000000E+00  0.99999998245E-14  0.12500000000E+03  0.12500000000E+03 0.  0.
        -11    1    1    0    0    0  0.24701095005E+01  0.28655753215E+01 -0.21575462882E+02  0.21904647034E+02  0.51100000000E-03 0.  1.
         11    1    1    0    0    0  0.45061062394E+01  0.52233306452E+01 -0.40004959845E+02  0.40595381374E+02  0.51100000000E-03 0. -1.
         22    1    1    0    0    0 -0.69762157398E+01 -0.80889059667E+01  0.61580422727E+02  0.62499971592E+02  0.00000000000E+00 0. -1.
</event>
<event>
 4    1  0.1977762E-002  0.9118800E+02  0.7818608E-02  0.1130116E+00
         25   -1    0    0    0    0  0.00000000000E+00  0.00000000000E+00  0.99999998245E-14  0.12500000000E+03  0.12500000000E+03 0.  0.
        -11    1    1    0    0    0  0.24172368820E+01  0.12596044339E+01  0.42709853747E+01  0.50666511431E+01  0.51100000000E-03 0. -1.
         11    1    1    0    0    0  0.28040030087E+02 -0.27197929845E+02 -0.47190013516E+02  0.61260656632E+02  0.51100000000E-03 0.  1.
         22    1    1    0    0    0 -0.30457266969E+02  0.25938325411E+02  0.42919028141E+02  0.58672692225E+02  0.00000000000E+00 0.  1.
</event>
<event>
 4    1  0.1977762E-002  0.9118800E+02  0.7818608E-02  0.1130116E+00
         25   -1    0    0    0    0  0.00000000000E+00  0.00000000000E+00  0.99999998245E-14  0.12500000000E+03  0.12500000000E+03 0.  0.
        -11    1    1    0    0    0  0.38130829696E+01  0.39348897656E+01 -0.13203243739E+01  0.56361525808E+01  0.51100000000E-03 0. -1.
         11    1    1    0    0    0  0.38480415006E+02  0.39682018249E+02 -0.13345121871E+02  0.56863847824E+02  0.51100000000E-03 0.  1.
         22    1    1    0    0    0 -0.42293497976E+02 -0.43616908015E+02  0.14665446245E+02  0.62499999595E+02  0.00000000000E+00 0.  1.
</event>
<event>
 4    1  0.1977762E-002  0.9118800E+02  0.7818608E-02  0.1130116E+00
         25   -1    0    0    0    0  0.00000000000E+00  0.00000000000E+00  0.99999998245E-14  0.12500000000E+03  0.12500000000E+03 0.  0.
        -11    1    1    0    0    0 -0.17891544112E+02 -0.21549499060E+01 -0.17804007871E+02  0.25332466448E+02  0.51100000000E-03 0. -1.
         11    1    1    0    0    0 -0.26250855391E+02 -0.31658202973E+01 -0.26120791090E+02  0.37167533606E+02  0.51100000000E-03 0.  1.
         22    1    1    0    0    0  0.44142399504E+02  0.53207702034E+01  0.43924798961E+02  0.62499999946E+02  0.00000000000E+00 0.  1.
</event>
<event>
 4    1  0.1977762E-002  0.9118800E+02  0.7818608E-02  0.1130116E+00
         25   -1    0    0    0    0  0.00000000000E+00  0.00000000000E+00  0.99999998245E-14  0.12500000000E+03  0.12500000000E+03 0.  0.
        -11    1    1    0    0    0 -0.28604547181E+02 -0.41546628260E+02  0.22094885452E+02  0.55068379335E+02  0.51100000000E-03 0.  1.
         11    1    1    0    0    0 -0.38606639078E+01 -0.56076096924E+01  0.29797609682E+01  0.74316208165E+01  0.51100000000E-03 0. -1.
         22    1    1    0    0    0  0.32465211089E+02  0.47154237952E+02 -0.25074646420E+02  0.62499999848E+02  0.00000000000E+00 0.  1.
</event>
<event>
 4    1  0.1977762E-002  0.9118800E+02  0.7818608E-02  0.1130116E+00
         25   -1    0    0    0    0  0.00000000000E+00  0.00000000000E+00  0.99999998245E-14  0.12500000000E+03  0.12500000000E+03 0.  0.
        -11    1    1    0    0    0 -0.16336898590E+01  0.47595323237E+02  0.10196985434E+02  0.48702795082E+02  0.51100000000E-03 0. -1.
         11    1    1    0    0    0 -0.19220726693E+01  0.13026367898E+02  0.43241730164E+01  0.13859260316E+02  0.51100000000E-03 0.  1.
         22    1    1    0    0    0  0.35557625283E+01 -0.60621691136E+02 -0.14521158451E+02  0.62437944602E+02  0.00000000000E+00 0. -1.
</event>
<event>
 4    1  0.1977762E-002  0.9118800E+02  0.7818608E-02  0.1130116E+00
         25   -1    0    0    0    0  0.00000000000E+00  0.00000000000E+00  0.99999998245E-14  0.12500000000E+03  0.12500000000E+03 0.  0.
        -11    1    1    0    0    0  0.69138724071E+01  0.46700080645E+00  0.86509403401E+01  0.11084154927E+02  0.51100000000E-03 0. -1.
         11    1    1    0    0    0  0.32079182276E+02  0.21402724685E+01  0.40123988972E+02  0.51415845739E+02  0.51100000000E-03 0.  1.
         22    1    1    0    0    0 -0.38993054683E+02 -0.26072732749E+01 -0.48774929312E+02  0.62499999335E+02  0.00000000000E+00 0.  1.
</event>
<event>
 4    1  0.1977762E-002  0.9118800E+02  0.7818608E-02  0.1130116E+00
         25   -1    0    0    0    0  0.00000000000E+00  0.00000000000E+00  0.99999998245E-14  0.12500000000E+03  0.12500000000E+03 0.  0.
        -11    1    1    0    0    0  0.49980337822E+02 -0.23052327671E+01 -0.21977648088E+02  0.54647646634E+02  0.51100000000E-03 0. -1.
         11    1    1    0    0    0  0.71769331652E+01 -0.38423628723E+00 -0.31630199185E+01  0.78524328999E+01  0.51100000000E-03 0.  1.
         22    1    1    0    0    0 -0.57157270987E+02  0.26894690543E+01  0.25140668007E+02  0.62499920466E+02  0.00000000000E+00 0. -1.
</event>
<event>
 4    1  0.1977762E-002  0.9118800E+02  0.7818608E-02  0.1130116E+00
         25   -1    0    0    0    0  0.00000000000E+00  0.00000000000E+00  0.99999998245E-14  0.12500000000E+03  0.12500000000E+03 0.  0.
        -11    1    1    0    0    0 -0.25424543869E+02  0.26142921620E+02  0.16143356614E+02  0.39880668810E+02  0.51100000000E-03 0.  1.
         11    1    1    0    0    0 -0.14225650823E+02  0.15094713443E+02  0.90252382896E+01  0.22620221964E+02  0.51100000000E-03 0. -1.
         22    1    1    0    0    0  0.39650194691E+02 -0.41237635062E+02 -0.25168594903E+02  0.62499109226E+02  0.00000000000E+00 0.  1.
</event>
<event>
 4    1  0.1977762E-002  0.9118800E+02  0.7818608E-02  0.1130116E+00
         25   -1    0    0    0    0  0.00000000000E+00  0.00000000000E+00  0.99999998245E-14  0.12500000000E+03  0.12500000000E+03 0.  0.
        -11    1    1    0    0    0 -0.62498830914E+01  0.18129311805E+02  0.36029064055E+02  0.40814537142E+02  0.51100000000E-03 0.  1.
         11    1    1    0    0    0 -0.33197952755E+01  0.96335407530E+01  0.19142443729E+02  0.21685462879E+02  0.51100000000E-03 0. -1.
         22    1    1    0    0    0  0.95696783669E+01 -0.27762852558E+02 -0.55171507784E+02  0.62499999979E+02  0.00000000000E+00 0. -1.
</event>
<event>
 4    1  0.1977762E-002  0.9118800E+02  0.7818608E-02  0.1130116E+00
         25   -1    0    0    0    0  0.00000000000E+00  0.00000000000E+00  0.99999998245E-14  0.12500000000E+03  0.12500000000E+03 0.  0.
        -11    1    1    0    0    0  0.23879307097E+01 -0.40545563625E+01  0.14789641208E+02  0.15520152309E+02  0.51100000000E-03 0.  1.
         11    1    1    0    0    0  0.72289757650E+01 -0.12282737977E+02  0.44765861532E+02  0.46979847826E+02  0.51100000000E-03 0. -1.
         22    1    1    0    0    0 -0.96169064747E+01  0.16337294340E+02 -0.59555502740E+02  0.62499999865E+02  0.00000000000E+00 0. -1.
</event>
<event>
 4    1  0.1977762E-002  0.9118800E+02  0.7818608E-02  0.1130116E+00
         25   -1    0    0    0    0  0.00000000000E+00  0.00000000000E+00  0.99999998245E-14  0.12500000000E+03  0.12500000000E+03 0.  0.
        -11    1    1    0    0    0  0.90021790192E+01  0.14776715522E+02  0.39508578401E+01  0.17748234466E+02  0.51100000000E-03 0. -1.
         11    1    1    0    0    0  0.27685920050E+02  0.19840911753E+02 -0.34336323619E+02  0.48364812293E+02  0.51100000000E-03 0.  1.
         22    1    1    0    0    0 -0.36688099069E+02 -0.34617627275E+02  0.30385465779E+02  0.58886953241E+02  0.00000000000E+00 0.  1.
</event>
<event>
 4    1  0.1977762E-002  0.9118800E+02  0.7818608E-02  0.1130116E+00
         25   -1    0    0    0    0  0.00000000000E+00  0.00000000000E+00  0.99999998245E-14  0.12500000000E+03  0.12500000000E+03 0.  0.
        -11    1    1    0    0    0  0.24882919112E+01 -0.34963166701E+00  0.53257972595E+01  0.58887991686E+01  0.51100000000E-03 0.  1.
         11    1    1    0    0    0  0.23418069691E+02 -0.40348717260E+01  0.51382650460E+02  0.56611508958E+02  0.51100000000E-03 0. -1.
         22    1    1    0    0    0 -0.25906361602E+02  0.43845033930E+01 -0.56708447720E+02  0.62499691873E+02  0.00000000000E+00 0. -1.
</event>
<event>
 4    1  0.1977762E-002  0.9118800E+02  0.7818608E-02  0.1130116E+00
         25   -1    0    0    0    0  0.00000000000E+00  0.00000000000E+00  0.99999998245E-14  0.12500000000E+03  0.12500000000E+03 0.  0.
        -11    1    1    0    0    0  0.14963974548E+01  0.67591925095E+01  0.41597299585E+00  0.69353386736E+01  0.51100000000E-03 0.  1.
         11    1    1    0    0    0  0.61421434071E+01  0.52056609764E+02 -0.19243298599E+02  0.55838347817E+02  0.51100000000E-03 0. -1.
         22    1    1    0    0    0 -0.76385408618E+01 -0.58815802273E+02  0.18827325603E+02  0.62226313509E+02  0.00000000000E+00 0. -1.
</event>
<event>
 4    1  0.1977762E-002  0.9118800E+02  0.7818608E-02  0.1130116E+00
         25   -1    0    0    0    0  0.00000000000E+00  0.00000000000E+00  0.99999998245E-14  0.12500000000E+03  0.12500000000E+03 0.  0.
        -11    1    1    0    0    0 -0.35401159707E+01  0.30076036763E+01 -0.43038335766E+00  0.46651185467E+01  0.51100000000E-03 0. -1.
         11    1    1    0    0    0 -0.43698056698E+02  0.37488428667E+02 -0.54749125232E+01  0.57834912557E+02  0.51100000000E-03 0.  1.
         22    1    1    0    0    0  0.47238172669E+02 -0.40496032343E+02  0.59052958809E+01  0.62499968896E+02  0.00000000000E+00 0.  1.
</event>
<event>
 4    1  0.1977762E-002  0.9118800E+02  0.7818608E-02  0.1130116E+00
         25   -1    0    0    0    0  0.00000000000E+00  0.00000000000E+00  0.99999998245E-14  0.12500000000E+03  0.12500000000E+03 0.  0.
        -11    1    1    0    0    0  0.48109792135E+01 -0.37327014097E+02  0.39257782353E+01  0.37839968781E+02  0.51100000000E-03 0.  1.
         11    1    1    0    0    0  0.28947256402E+01 -0.24498650723E+02  0.75314450868E+00  0.24680570308E+02  0.51100000000E-03 0. -1.
         22    1    1    0    0    0 -0.77057048537E+01  0.61825664820E+02 -0.46789227439E+01  0.62479460911E+02  0.00000000000E+00 0. -1.
</event>
<event>
 4    1  0.1977762E-002  0.9118800E+02  0.7818608E-02  0.1130116E+00
         25   -1    0    0    0    0  0.00000000000E+00  0.00000000000E+00  0.99999998245E-14  0.12500000000E+03  0.12500000000E+03 0.  0.
        -11    1    1    0    0    0  0.10579921273E+02 -0.18431494879E+02 -0.10206844881E+01  0.21276666438E+02  0.51100000000E-03 0.  1.
         11    1    1    0    0    0  0.20498843169E+02 -0.35710685314E+02 -0.19767684069E+01  0.41223333568E+02  0.51100000000E-03 0.  1.
         22    1    1    0    0    0 -0.31078764442E+02  0.54142180194E+02  0.29974528950E+01  0.62499999994E+02  0.00000000000E+00 0.  1.
</event>
<event>
 4    1  0.1977762E-002  0.9118800E+02  0.7818608E-02  0.1130116E+00
         25   -1    0    0    0    0  0.00000000000E+00  0.00000000000E+00  0.99999998245E-14  0.12500000000E+03  0.12500000000E+03 0.  0.
        -11    1    1    0    0    0  0.11508022888E+01 -0.30745085660E+02 -0.14370059149E+02  0.33957079355E+02  0.51100000000E-03 0. -1.
         11    1    1    0    0    0  0.15913900778E+02 -0.19059130007E+02 -0.16689399653E+02  0.29917197991E+02  0.51100000000E-03 0.  1.
         22    1    1    0    0    0 -0.17064703067E+02  0.49804215666E+02  0.31059458802E+02  0.61125722654E+02  0.00000000000E+00 0. -1.
</event>
<event>
 4    1  0.1977762E-002  0.9118800E+02  0.7818608E-02  0.1130116E+00
         25   -1    0    0    0    0  0.00000000000E+00  0.00000000000E+00  0.99999998245E-14  0.12500000000E+03  0.12500000000E+03 0.  0.
        -11    1    1    0    0    0 -0.16585013109E+02  0.19369151945E+02 -0.60398320346E+01  0.26205081152E+02  0.51100000000E-03 0.  1.
         11    1    1    0    0    0 -0.22527493669E+02  0.26817671649E+02 -0.95380919133E+01  0.36299458416E+02  0.51100000000E-03 0. -1.
         22    1    1    0    0    0  0.39112506778E+02 -0.46186823594E+02  0.15577923948E+02  0.62495460433E+02  0.00000000000E+00 0.  1.
</event>
<event>
 4    1  0.1977762E-002  0.9118800E+02  0.7818608E-02  0.1130116E+00
         25   -1    0    0    0    0  0.00000000000E+00  0.00000000000E+00  0.99999998245E-14  0.12500000000E+03  0.12500000000E+03 0.  0.
        -11    1    1    0    0    0  0.16585812286E+02 -0.16552475362E+02  0.10105269429E+02  0.25518426290E+02  0.51100000000E-03 0.  1.
         11    1    1    0    0    0  0.14266247237E+02 -0.11882774368E+02  0.33917587692E+02  0.38666896591E+02  0.51100000000E-03 0. -1.
         22    1    1    0    0    0 -0.30852059523E+02  0.28435249730E+02 -0.44022857121E+02  0.60814677119E+02  0.00000000000E+00 0. -1.
</event>
<event>
 4    1  0.1977762E-002  0.9118800E+02  0.7818608E-02  0.1130116E+00
         25   -1    0    0    0    0  0.00000000000E+00  0.00000000000E+00  0.99999998245E-14  0.12500000000E+03  0.12500000000E+03 0.  0.
        -11    1    1    0    0    0 -0.35279445582E+02 -0.39668933511E+02 -0.25063429775E+02  0.58706380222E+02  0.51100000000E-03 0.  1.
         11    1    1    0    0    0 -0.22795788805E+01 -0.25638422939E+01 -0.16191923594E+01  0.37936198199E+01  0.51100000000E-03 0. -1.
         22    1    1    0    0    0  0.37559024463E+02  0.42232775805E+02  0.26682622135E+02  0.62499999958E+02  0.00000000000E+00 0.  1.
</event>
<event>
 4    1  0.1977762E-002  0.9118800E+02  0.7818608E-02  0.1130116E+00
         25   -1    0    0    0    0  0.00000000000E+00  0.00000000000E+00  0.99999998245E-14  0.12500000000E+03  0.12500000000E+03 0.  0.
        -11    1    1    0    0    0  0.33547054126E+01  0.42536840743E+01  0.80737409477E+01  0.97228169664E+01  0.51100000000E-03 0. -1.
         11    1    1    0    0    0  0.18212226715E+02  0.23090896942E+02  0.43824152322E+02  0.52777183048E+02  0.51100000000E-03 0.  1.
         22    1    1    0    0    0 -0.21566932128E+02 -0.27344581016E+02 -0.51897893270E+02  0.62499999985E+02  0.00000000000E+00 0.  1.
</event>
<event>
 4    1  0.1977762E-002  0.9118800E+02  0.7818608E-02  0.1130116E+00
         25   -1    0    0    0    0  0.00000000000E+00  0.00000000000E+00  0.99999998245E-14  0.12500000000E+03  0.12500000000E+03 0.  0.
        -11    1    1    0    0    0 -0.39688727485E+01 -0.20655905319E+02  0.51970322582E+02  0.56065433245E+02  0.51100000000E-03 0.  1.
         11    1    1    0    0    0 -0.53941685071E+00 -0.24249717819E+01  0.59360792106E+01  0.64349433049E+01  0.51100000000E-03 0. -1.
         22    1    1    0    0    0  0.45082895992E+01  0.23080877101E+02 -0.57906401793E+02  0.62499623450E+02  0.00000000000E+00 0.  1.
</event>
<event>
 4    1  0.1977762E-002  0.9118800E+02  0.7818608E-02  0.1130116E+00
         25   -1    0    0    0    0  0.00000000000E+00  0.00000000000E+00  0.99999998245E-14  0.12500000000E+03  0.12500000000E+03 0.  0.
        -11    1    1    0    0    0 -0.30122809190E+01 -0.18029585406E+01 -0.56603691061E+01  0.66606512078E+01  0.51100000000E-03 0. -1.
         11    1    1    0    0    0 -0.25146439583E+02 -0.15110814891E+02 -0.47511614517E+02  0.55839355876E+02  0.51100000000E-03 0.  1.
         22    1    1    0    0    0  0.28158720502E+02  0.16913773432E+02  0.53171983623E+02  0.62499992916E+02  0.00000000000E+00 0.  1.
</event>
<event>
 4    1  0.1977762E-002  0.9118800E+02  0.7818608E-02  0.1130116E+00
         25   -1    0    0    0    0  0.00000000000E+00  0.00000000000E+00  0.99999998245E-14  0.12500000000E+03  0.12500000000E+03 0.  0.
        -11    1    1    0    0    0  0.39865352552E+02 -0.30712464055E+02  0.14348467294E+00  0.50324172825E+02  0.51100000000E-03 0. -1.
         11    1    1    0    0    0  0.95750306658E+01 -0.74650735798E+01  0.11664565023E+01  0.12197096246E+02  0.51100000000E-03 0.  1.
         22    1    1    0    0    0 -0.49440383218E+02  0.38177537635E+02 -0.13099411752E+01  0.62478730929E+02  0.00000000000E+00 0. -1.
</event>
<event>
 4    1  0.1977762E-002  0.9118800E+02  0.7818608E-02  0.1130116E+00
         25   -1    0    0    0    0  0.00000000000E+00  0.00000000000E+00  0.99999998245E-14  0.12500000000E+03  0.12500000000E+03 0.  0.
        -11    1    1    0    0    0 -0.94676066370E+01 -0.12911541723E+02 -0.41625224209E+01  0.16542976705E+02  0.51100000000E-03 0.  1.
         11    1    1    0    0    0 -0.26376933769E+02 -0.36529582916E+02 -0.90971787723E+01  0.45966419536E+02  0.51100000000E-03 0. -1.
         22    1    1    0    0    0  0.35844540406E+02  0.49441124639E+02  0.13259701193E+02  0.62490603759E+02  0.00000000000E+00 0. -1.
</event>
<event>
 4    1  0.1977762E-002  0.9118800E+02  0.7818608E-02  0.1130116E+00
         25   -1    0    0    0    0  0.00000000000E+00  0.00000000000E+00  0.99999998245E-14  0.12500000000E+03  0.12500000000E+03 0.  0.
        -11    1    1    0    0    0  0.46605803532E+01  0.11900553235E+02  0.77643103556E+01  0.14954219876E+02  0.51100000000E-03 0. -1.
         11    1    1    0    0    0 -0.13243685172E+02  0.40861054929E+02 -0.29745458449E+02  0.52247615309E+02  0.51100000000E-03 0.  1.
         22    1    1    0    0    0  0.85831048191E+01 -0.52761608165E+02  0.21981148094E+02  0.57798164815E+02  0.00000000000E+00 0.  1.
</event>
<event>
 4    1  0.1977762E-002  0.9118800E+02  0.7818608E-02  0.1130116E+00
         25   -1    0    0    0    0  0.00000000000E+00  0.00000000000E+00  0.99999998245E-14  0.12500000000E+03  0.12500000000E+03 0.  0.
        -11    1    1    0    0    0  0.18121882475E+02  0.44766403171E+01  0.15568193455E+02  0.24306615986E+02  0.51100000000E-03 0. -1.
         11    1    1    0    0    0  0.95947222681E+01 -0.79834081323E+00  0.38574348813E+02  0.39757721640E+02  0.51100000000E-03 0.  1.
         22    1    1    0    0    0 -0.27716604743E+02 -0.36782995038E+01 -0.54142542268E+02  0.60935662374E+02  0.00000000000E+00 0.  1.
</event>
<event>
 4    1  0.1977762E-002  0.9118800E+02  0.7818608E-02  0.1130116E+00
         25   -1    0    0    0    0  0.00000000000E+00  0.00000000000E+00  0.99999998245E-14  0.12500000000E+03  0.12500000000E+03 0.  0.
        -11    1    1    0    0    0  0.44880058844E+02 -0.80252226829E+01 -0.20581625450E+02  0.50022266916E+02  0.51100000000E-03 0. -1.
         11    1    1    0    0    0  0.11201260532E+02 -0.19846926426E+01 -0.51270588632E+01  0.12477739188E+02  0.51100000000E-03 0.  1.
         22    1    1    0    0    0 -0.56081319377E+02  0.10009915326E+02  0.25708684313E+02  0.62499993896E+02  0.00000000000E+00 0. -1.
</event>
<event>
 4    1  0.1977762E-002  0.9118800E+02  0.7818608E-02  0.1130116E+00
         25   -1    0    0    0    0  0.00000000000E+00  0.00000000000E+00  0.99999998245E-14  0.12500000000E+03  0.12500000000E+03 0.  0.
        -11    1    1    0    0    0  0.20521849387E+01  0.10404180056E+02 -0.31565427251E+01  0.11064456059E+02  0.51100000000E-03 0.  1.
         11    1    1    0    0    0  0.95434340538E+01  0.48366419975E+02 -0.14670632847E+02  0.51435543967E+02  0.51100000000E-03 0.  1.
         22    1    1    0    0    0 -0.11595618993E+02 -0.58770600031E+02  0.17827175572E+02  0.62499999974E+02  0.00000000000E+00 0.  1.
</event>
<event>
 4    1  0.1977762E-002  0.9118800E+02  0.7818608E-02  0.1130116E+00
         25   -1    0    0    0    0  0.00000000000E+00  0.00000000000E+00  0.99999998245E-14  0.12500000000E+03  0.12500000000E+03 0.  0.
        -11    1    1    0    0    0  0.68963811139E+01  0.80580109436E-02 -0.25670231909E+00  0.69011617676E+01  0.51100000000E-03 0.  1.
         11    1    1    0    0    0  0.55553512267E+02 -0.11428102988E-01 -0.22449966081E+01  0.55598856695E+02  0.51100000000E-03 0. -1.
         22    1    1    0    0    0 -0.62449893381E+02  0.33700920439E-02  0.25016989272E+01  0.62499981537E+02  0.00000000000E+00 0. -1.
</event>
<event>
 4    1  0.1977762E-002  0.9118800E+02  0.7818608E-02  0.1130116E+00
         25   -1    0    0    0    0  0.00000000000E+00  0.00000000000E+00  0.99999998245E-14  0.12500000000E+03  0.12500000000E+03 0.  0.
        -11    1    1    0    0    0  0.25774383965E+02  0.58493740862E+01 -0.51114374348E+02  0.57543143042E+02  0.51100000000E-03 0. -1.
         11    1    1    0    0    0  0.22241922058E+01  0.49522916448E+00 -0.44020665516E+01  0.49568612124E+01  0.51100000000E-03 0.  1.
         22    1    1    0    0    0 -0.27998576170E+02 -0.63446032507E+01  0.55516440900E+02  0.62499995745E+02  0.00000000000E+00 0. -1.
</event>
<event>
 4    1  0.1977762E-002  0.9118800E+02  0.7818608E-02  0.1130116E+00
         25   -1    0    0    0    0  0.00000000000E+00  0.00000000000E+00  0.99999998245E-14  0.12500000000E+03  0.12500000000E+03 0.  0.
        -11    1    1    0    0    0 -0.32239375549E+02  0.21681636562E+02 -0.15239033503E+02  0.41733665573E+02  0.51100000000E-03 0. -1.
         11    1    1    0    0    0 -0.82582046901E+01 -0.33334469473E+02 -0.78313751128E+01  0.35223787931E+02  0.51100000000E-03 0.  1.
         22    1    1    0    0    0  0.40497580240E+02  0.11652832911E+02  0.23070408616E+02  0.48042546496E+02  0.00000000000E+00 0.  1.
</event>
<event>
 4    1  0.1977762E-002  0.9118800E+02  0.7818608E-02  0.1130116E+00
         25   -1    0    0    0    0  0.00000000000E+00  0.00000000000E+00  0.99999998245E-14  0.12500000000E+03  0.12500000000E+03 0.  0.
        -11    1    1    0    0    0  0.42274433445E+01  0.17027106751E+02 -0.31148964562E+02  0.35749848043E+02  0.51100000000E-03 0. -1.
         11    1    1    0    0    0  0.31516311157E+01  0.12745363814E+02 -0.23306514051E+02  0.26750152802E+02  0.51100000000E-03 0.  1.
         22    1    1    0    0    0 -0.73790744602E+01 -0.29772470565E+02  0.54455478613E+02  0.62499999155E+02  0.00000000000E+00 0. -1.
</event>
<event>
 4    1  0.1977762E-002  0.9118800E+02  0.7818608E-02  0.1130116E+00
         25   -1    0    0    0    0  0.00000000000E+00  0.00000000000E+00  0.99999998245E-14  0.12500000000E+03  0.12500000000E+03 0.  0.
        -11    1    1    0    0    0  0.10108625453E+02 -0.20529308882E+02  0.22513140911E+01  0.22993591436E+02  0.51100000000E-03 0.  1.
         11    1    1    0    0    0  0.17354798275E+02 -0.35257745493E+02  0.40577538663E+01  0.39506493227E+02  0.51100000000E-03 0. -1.
         22    1    1    0    0    0 -0.27463423729E+02  0.55787054374E+02 -0.63090679574E+01  0.62499915337E+02  0.00000000000E+00 0. -1.
</event>
<event>
 4    1  0.1977762E-002  0.9118800E+02  0.7818608E-02  0.1130116E+00
         25   -1    0    0    0    0  0.00000000000E+00  0.00000000000E+00  0.99999998245E-14  0.12500000000E+03  0.12500000000E+03 0.  0.
        -11    1    1    0    0    0  0.30766557025E+02  0.30955897322E+02  0.18083178925E+02  0.47242459404E+02  0.51100000000E-03 0.  1.
         11    1    1    0    0    0  0.10020595087E+02  0.99513298610E+01  0.57754930703E+01  0.15257706655E+02  0.51100000000E-03 0. -1.
         22    1    1    0    0    0 -0.40787152113E+02 -0.40907227183E+02 -0.23858671995E+02  0.62499833941E+02  0.00000000000E+00 0.  1.
</event>
<event>
 4    1  0.1977762E-002  0.9118800E+02  0.7818608E-02  0.1130116E+00
         25   -1    0    0    0    0  0.00000000000E+00  0.00000000000E+00  0.99999998245E-14  0.12500000000E+03  0.12500000000E+03 0.  0.
        -11    1    1    0    0    0  0.10608321296E+01  0.14157347857E+02 -0.23206470404E+02  0.27204707902E+02  0.51100000000E-03 0.  1.
         11    1    1    0    0    0  0.13746367550E+01  0.18371174866E+02 -0.30105945531E+02  0.35295292161E+02  0.51100000000E-03 0. -1.
         22    1    1    0    0    0 -0.24354688846E+01 -0.32528522723E+02  0.53312415935E+02  0.62499999937E+02  0.00000000000E+00 0.  1.
</event>
<event>
 4    1  0.1977762E-002  0.9118800E+02  0.7818608E-02  0.1130116E+00
         25   -1    0    0    0    0  0.00000000000E+00  0.00000000000E+00  0.99999998245E-14  0.12500000000E+03  0.12500000000E+03 0.  0.
        -11    1    1    0    0    0 -0.10395471674E+02  0.32497403533E+01  0.58828234080E+01  0.12378782461E+02  0.51100000000E-03 0.  1.
         11    1    1    0    0    0 -0.42088833376E+02  0.13154836473E+02  0.23824710591E+02  0.50121217589E+02  0.51100000000E-03 0. -1.
         22    1    1    0    0    0  0.52484305051E+02 -0.16404576827E+02 -0.29707533999E+02  0.62499999950E+02  0.00000000000E+00 0. -1.
</event>
<event>
 4    1  0.1977762E-002  0.9118800E+02  0.7818608E-02  0.1130116E+00
         25   -1    0    0    0    0  0.00000000000E+00  0.00000000000E+00  0.99999998245E-14  0.12500000000E+03  0.12500000000E+03 0.  0.
        -11    1    1    0    0    0 -0.33780758011E+02 -0.63316898700E+01  0.79218725464E+01  0.35270185332E+02  0.51100000000E-03 0. -1.
         11    1    1    0    0    0 -0.26105536419E+02 -0.48562217005E+01  0.60318618014E+01  0.27229860043E+02  0.51100000000E-03 0.  1.
         22    1    1    0    0    0  0.59886294430E+02  0.11187911571E+02 -0.13953734348E+02  0.62499954625E+02  0.00000000000E+00 0. -1.
</event>
<event>
 4    1  0.1977762E-002  0.9118800E+02  0.7818608E-02  0.1130116E+00
         25   -1    0    0    0    0  0.00000000000E+00  0.00000000000E+00  0.99999998245E-14  0.12500000000E+03  0.12500000000E+03 0.  0.
        -11    1    1    0    0    0  0.33229840308E+02 -0.22238495873E+02  0.16796755472E+02  0.43369389899E+02  0.51100000000E-03 0. -1.
         11    1    1    0    0    0  0.14268524388E+02 -0.11627426835E+02  0.54519294689E+01  0.19196650182E+02  0.51100000000E-03 0.  1.
         22    1    1    0    0    0 -0.47498364696E+02  0.33865922707E+02 -0.22248684941E+02  0.62433959919E+02  0.00000000000E+00 0.  1.
</event>
<event>
 4    1  0.1977762E-002  0.9118800E+02  0.7818608E-02  0.1130116E+00
         25   -1    0    0    0    0  0.00000000000E+00  0.00000000000E+00  0.99999998245E-14  0.12500000000E+03  0.12500000000E+03 0.  0.
        -11    1    1    0    0    0  0.27489524018E+02 -0.19817686587E+02  0.47246312273E+02  0.58143173770E+02  0.51100000000E-03 0.  1.
         11    1    1    0    0    0  0.17187455971E+01 -0.10548721678E+01  0.38873604948E+01  0.43793165672E+01  0.51100000000E-03 0. -1.
         22    1    1    0    0    0 -0.29208269615E+02  0.20872558755E+02 -0.51133672768E+02  0.62477509663E+02  0.00000000000E+00 0.  1.
</event>
<event>
 4    1  0.1977762E-002  0.9118800E+02  0.7818608E-02  0.1130116E+00
         25   -1    0    0    0    0  0.00000000000E+00  0.00000000000E+00  0.99999998245E-14  0.12500000000E+03  0.12500000000E+03 0.  0.
        -11    1    1    0    0    0  0.13212781175E+02 -0.29515968563E+02 -0.36750284885E+02  0.48952563017E+02  0.51100000000E-03 0.  1.
         11    1    1    0    0    0  0.33671496999E+01 -0.83162172753E+01 -0.10152702502E+02  0.13548968050E+02  0.51100000000E-03 0. -1.
         22    1    1    0    0    0 -0.16579930875E+02  0.37832185838E+02  0.46902987387E+02  0.62498468933E+02  0.00000000000E+00 0.  1.
</event>
<event>
 4    1  0.1977762E-002  0.9118800E+02  0.7818608E-02  0.1130116E+00
         25   -1    0    0    0    0  0.00000000000E+00  0.00000000000E+00  0.99999998245E-14  0.12500000000E+03  0.12500000000E+03 0.  0.
        -11    1    1    0    0    0  0.35922562004E+00 -0.15852945550E+01  0.71468598597E+00  0.17756627472E+01  0.51100000000E-03 0. -1.
         11    1    1    0    0    0  0.12311753451E+02 -0.54175006709E+02  0.24513967896E+02  0.60724338178E+02  0.51100000000E-03 0.  1.
         22    1    1    0    0    0 -0.12670979071E+02  0.55760301264E+02 -0.25228653882E+02  0.62499999075E+02  0.00000000000E+00 0.  1.
</event>
<event>
 4    1  0.1977762E-002  0.9118800E+02  0.7818608E-02  0.1130116E+00
         25   -1    0    0    0    0  0.00000000000E+00  0.00000000000E+00  0.99999998245E-14  0.12500000000E+03  0.12500000000E+03 0.  0.
        -11    1    1    0    0    0  0.34429811607E+02  0.69566595854E+01  0.48168044449E+02  0.59615162049E+02  0.51100000000E-03 0.  1.
         11    1    1    0    0    0 -0.65854348867E+00 -0.36933496107E+00  0.33495615814E+01  0.34336061056E+01  0.51100000000E-03 0. -1.
         22    1    1    0    0    0 -0.33771268118E+02 -0.65873246244E+01 -0.51517606030E+02  0.61951231845E+02  0.00000000000E+00 0.  1.
</event>
<event>
 4    1  0.1977762E-002  0.9118800E+02  0.7818608E-02  0.1130116E+00
         25   -1    0    0    0    0  0.00000000000E+00  0.00000000000E+00  0.99999998245E-14  0.12500000000E+03  0.12500000000E+03 0.  0.
        -11    1    1    0    0    0  0.79939020051E+01  0.27850544699E+01  0.25117351796E+01  0.88299383656E+01  0.51100000000E-03 0. -1.
         11    1    1    0    0    0  0.48582174053E+02  0.16949878952E+02  0.15262683965E+02  0.53670061993E+02  0.51100000000E-03 0.  1.
         22    1    1    0    0    0 -0.56576076058E+02 -0.19734933422E+02 -0.17774419144E+02  0.62499999642E+02  0.00000000000E+00 0.  1.
</event>
<event>
 4    1  0.1977762E-002  0.9118800E+02  0.7818608E-02  0.1130116E+00
         25   -1    0    0    0    0  0.00000000000E+00  0.00000000000E+00  0.99999998245E-14  0.12500000000E+03  0.12500000000E+03 0.  0.
        -11    1    1    0    0    0 -0.30299423496E+01 -0.19525804171E+02 -0.19533325174E+01  0.19855807396E+02  0.51100000000E-03 0.  1.
         11    1    1    0    0    0 -0.24987336433E+02 -0.33824983312E+02  0.12708671841E+02  0.43931842874E+02  0.51100000000E-03 0. -1.
         22    1    1    0    0    0  0.28017278783E+02  0.53350787483E+02 -0.10755339324E+02  0.61212349730E+02  0.00000000000E+00 0. -1.
</event>
<event>
 4    1  0.1977762E-002  0.9118800E+02  0.7818608E-02  0.1130116E+00
         25   -1    0    0    0    0  0.00000000000E+00  0.00000000000E+00  0.99999998245E-14  0.12500000000E+03  0.12500000000E+03 0.  0.
        -11    1    1    0    0    0 -0.18279862046E+02 -0.42666710753E+02 -0.13157136037E+01  0.46436329156E+02  0.51100000000E-03 0. -1.
         11    1    1    0    0    0 -0.63235941970E+01 -0.14759541786E+02 -0.45782780207E+00  0.16063670933E+02  0.51100000000E-03 0.  1.
         22    1    1    0    0    0  0.24603456243E+02  0.57426252539E+02  0.17735414057E+01  0.62499999911E+02  0.00000000000E+00 0.  1.
</event>
<event>
 4    1  0.1977762E-002  0.9118800E+02  0.7818608E-02  0.1130116E+00
         25   -1    0    0    0    0  0.00000000000E+00  0.00000000000E+00  0.99999998245E-14  0.12500000000E+03  0.12500000000E+03 0.  0.
        -11    1    1    0    0    0  0.64607713493E+01 -0.69838194740E+01  0.12452337563E+01  0.95950981361E+01  0.51100000000E-03 0. -1.
         11    1    1    0    0    0  0.35606471037E+02 -0.38358069178E+02  0.77347307007E+01  0.52905465786E+02  0.51100000000E-03 0.  1.
         22    1    1    0    0    0 -0.42067242386E+02  0.45341888652E+02 -0.89799644569E+01  0.62499436078E+02  0.00000000000E+00 0.  1.
</event>
<event>
 4    1  0.1977762E-002  0.9118800E+02  0.7818608E-02  0.1130116E+00
         25   -1    0    0    0    0  0.00000000000E+00  0.00000000000E+00  0.99999998245E-14  0.12500000000E+03  0.12500000000E+03 0.  0.
        -11    1    1    0    0    0  0.17778762186E+02  0.51975251446E+02 -0.38238229770E+01  0.55064805186E+02  0.51100000000E-03 0. -1.
         11    1    1    0    0    0  0.20864803374E+01  0.71142160795E+01 -0.60644778490E+00  0.74386322534E+01  0.51100000000E-03 0.  1.
         22    1    1    0    0    0 -0.19865242523E+02 -0.59089467525E+02  0.44302707619E+01  0.62496562561E+02  0.00000000000E+00 0. -1.
</event>
<event>
 4    1  0.1977762E-002  0.9118800E+02  0.7818608E-02  0.1130116E+00
         25   -1    0    0    0    0  0.00000000000E+00  0.00000000000E+00  0.99999998245E-14  0.12500000000E+03  0.12500000000E+03 0.  0.
        -11    1    1    0    0    0  0.21856358429E+02  0.49081276506E+02 -0.12046025269E+02  0.55061591262E+02  0.51100000000E-03 0. -1.
         11    1    1    0    0    0  0.31532499744E+01  0.66130636590E+01 -0.13101577078E+01  0.74425875769E+01  0.51100000000E-03 0.  1.
         22    1    1    0    0    0 -0.25009608403E+02 -0.55694340165E+02  0.13356182977E+02  0.62495821161E+02  0.00000000000E+00 0. -1.
</event>
<event>
 4    1  0.1977762E-002  0.9118800E+02  0.7818608E-02  0.1130116E+00
         25   -1    0    0    0    0  0.00000000000E+00  0.00000000000E+00  0.99999998245E-14  0.12500000000E+03  0.12500000000E+03 0.  0.
        -11    1    1    0    0    0 -0.22007185923E+02  0.20965432228E+02 -0.17634129010E+02  0.35140120759E+02  0.51100000000E-03 0. -1.
         11    1    1    0    0    0 -0.17134043690E+02  0.16326117941E+02 -0.13727542215E+02  0.27359879308E+02  0.51100000000E-03 0.  1.
         22    1    1    0    0    0  0.39141229613E+02 -0.37291550169E+02  0.31361671226E+02  0.62499999933E+02  0.00000000000E+00 0. -1.
</event>
<event>
 4    1  0.1977762E-002  0.9118800E+02  0.7818608E-02  0.1130116E+00
         25   -1    0    0    0    0  0.00000000000E+00  0.00000000000E+00  0.99999998245E-14  0.12500000000E+03  0.12500000000E+03 0.  0.
        -11    1    1    0    0    0  0.80080148446E+01 -0.55375662003E+01  0.99428570673E+01  0.13915938635E+02  0.51100000000E-03 0. -1.
         11    1    1    0    0    0  0.26615637448E+02 -0.23342995095E+02  0.33306678140E+02  0.48606814191E+02  0.51100000000E-03 0.  1.
         22    1    1    0    0    0 -0.34623652292E+02  0.28880561296E+02 -0.43249535207E+02  0.62477247174E+02  0.00000000000E+00 0.  1.
</event>
<event>
 4    1  0.1977762E-002  0.9118800E+02  0.7818608E-02  0.1130116E+00
         25   -1    0    0    0    0  0.00000000000E+00  0.00000000000E+00  0.99999998245E-14  0.12500000000E+03  0.12500000000E+03 0.  0.
        -11    1    1    0    0    0 -0.20700690423E+01  0.22049005993E+02  0.26449385792E+00  0.22147546329E+02  0.51100000000E-03 0. -1.
         11    1    1    0    0    0 -0.15753735395E+02  0.12283963449E+02  0.41418817538E+02  0.45984719021E+02  0.51100000000E-03 0.  1.
         22    1    1    0    0    0  0.17823804437E+02 -0.34332969442E+02 -0.41683311396E+02  0.56867734650E+02  0.00000000000E+00 0.  1.
</event>
<event>
 4    1  0.1977762E-002  0.9118800E+02  0.7818608E-02  0.1130116E+00
         25   -1    0    0    0    0  0.00000000000E+00  0.00000000000E+00  0.99999998245E-14  0.12500000000E+03  0.12500000000E+03 0.  0.
        -11    1    1    0    0    0  0.15366269925E+02 -0.59379033015E+01  0.86935523195E+01  0.18626830090E+02  0.51100000000E-03 0. -1.
         11    1    1    0    0    0  0.26472582575E+01 -0.44864016506E+02  0.15159675743E+02  0.47429987584E+02  0.51100000000E-03 0.  1.
         22    1    1    0    0    0 -0.18013528183E+02  0.50801919807E+02 -0.23853228062E+02  0.58943182326E+02  0.00000000000E+00 0. -1.
</event>
<event>
 4    1  0.1977762E-002  0.9118800E+02  0.7818608E-02  0.1130116E+00
         25   -1    0    0    0    0  0.00000000000E+00  0.00000000000E+00  0.99999998245E-14  0.12500000000E+03  0.12500000000E+03 0.  0.
        -11    1    1    0    0    0 -0.28999899489E+02  0.13615010994E+02  0.24752827052E+02  0.40485369482E+02  0.51100000000E-03 0.  1.
         11    1    1    0    0    0  0.36942754363E+02  0.31326701409E+01 -0.44171932340E+02  0.57669232083E+02  0.51100000000E-03 0. -1.
         22    1    1    0    0    0 -0.79428548737E+01 -0.16747681135E+02  0.19419105288E+02  0.26845398435E+02  0.00000000000E+00 0. -1.
</event>
<event>
 4    1  0.1977762E-002  0.9118800E+02  0.7818608E-02  0.1130116E+00
         25   -1    0    0    0    0  0.00000000000E+00  0.00000000000E+00  0.99999998245E-14  0.12500000000E+03  0.12500000000E+03 0.  0.
        -11    1    1    0    0    0  0.38085313616E+02  0.21045651466E+02 -0.12772368696E+02  0.45349134073E+02  0.51100000000E-03 0. -1.
         11    1    1    0    0    0  0.78724272609E+01  0.15712902176E+02 -0.48274072256E+01  0.18225648591E+02  0.51100000000E-03 0.  1.
         22    1    1    0    0    0 -0.45957740877E+02 -0.36758553642E+02  0.17599775921E+02  0.61425217336E+02  0.00000000000E+00 0. -1.
</event>
<event>
 4    1  0.1977762E-002  0.9118800E+02  0.7818608E-02  0.1130116E+00
         25   -1    0    0    0    0  0.00000000000E+00  0.00000000000E+00  0.99999998245E-14  0.12500000000E+03  0.12500000000E+03 0.  0.
        -11    1    1    0    0    0  0.22635805830E+02  0.30402319221E+02 -0.16444732447E+02  0.41317187042E+02  0.51100000000E-03 0. -1.
         11    1    1    0    0    0  0.11758740731E+02  0.15507761556E+02 -0.83644634625E+01  0.21183080544E+02  0.51100000000E-03 0.  1.
         22    1    1    0    0    0 -0.34394546561E+02 -0.45910080777E+02  0.24809195910E+02  0.62499732414E+02  0.00000000000E+00 0. -1.
</event>
<event>
 4    1  0.1977762E-002  0.9118800E+02  0.7818608E-02  0.1130116E+00
         25   -1    0    0    0    0  0.00000000000E+00  0.00000000000E+00  0.99999998245E-14  0.12500000000E+03  0.12500000000E+03 0.  0.
        -11    1    1    0    0    0 -0.21234981842E+02  0.30272301053E+00 -0.46937401540E+02  0.51518305083E+02  0.51100000000E-03 0.  1.
         11    1    1    0    0    0 -0.44121607551E+01 -0.65336197713E-01 -0.10056819844E+02  0.10982306542E+02  0.51100000000E-03 0. -1.
         22    1    1    0    0    0  0.25647142597E+02 -0.23738681282E+00  0.56994221385E+02  0.62499388374E+02  0.00000000000E+00 0.  1.
</event>
<event>
 4    1  0.1977762E-002  0.9118800E+02  0.7818608E-02  0.1130116E+00
         25   -1    0    0    0    0  0.00000000000E+00  0.00000000000E+00  0.99999998245E-14  0.12500000000E+03  0.12500000000E+03 0.  0.
        -11    1    1    0    0    0  0.13241239144E+02 -0.77566156104E+01  0.23601443999E+02  0.28151796726E+02  0.51100000000E-03 0.  1.
         11    1    1    0    0    0  0.16166350413E+02 -0.94675944404E+01  0.28789110408E+02  0.34348203862E+02  0.51100000000E-03 0. -1.
         22    1    1    0    0    0 -0.29407589557E+02  0.17224210051E+02 -0.52390554408E+02  0.62499999412E+02  0.00000000000E+00 0.  1.
</event>
<event>
 4    1  0.1977762E-002  0.9118800E+02  0.7818608E-02  0.1130116E+00
         25   -1    0    0    0    0  0.00000000000E+00  0.00000000000E+00  0.99999998245E-14  0.12500000000E+03  0.12500000000E+03 0.  0.
        -11    1    1    0    0    0  0.58480712459E+02  0.70215490752E+01 -0.68907299205E+01  0.59302428620E+02  0.51100000000E-03 0.  1.
         11    1    1    0    0    0  0.15462570519E+01  0.54472013062E+00  0.48955295345E+01  0.51627357647E+01  0.51100000000E-03 0. -1.
         22    1    1    0    0    0 -0.60026969511E+02 -0.75662692058E+01  0.19952003860E+01  0.60534835615E+02  0.00000000000E+00 0.  1.
</event>
<event>
 4    1  0.1977762E-002  0.9118800E+02  0.7818608E-02  0.1130116E+00
         25   -1    0    0    0    0  0.00000000000E+00  0.00000000000E+00  0.99999998245E-14  0.12500000000E+03  0.12500000000E+03 0.  0.
        -11    1    1    0    0    0  0.12027937876E+02  0.95283025175E+01  0.49877523538E+02  0.52184549370E+02  0.51100000000E-03 0.  1.
         11    1    1    0    0    0  0.21547357385E+01  0.19894363071E+01  0.98910878582E+01  0.10316703068E+02  0.51100000000E-03 0. -1.
         22    1    1    0    0    0 -0.14182673615E+02 -0.11517738825E+02 -0.59768611396E+02  0.62498747561E+02  0.00000000000E+00 0.  1.
</event>
<event>
 4    1  0.1977762E-002  0.9118800E+02  0.7818608E-02  0.1130116E+00
         25   -1    0    0    0    0  0.00000000000E+00  0.00000000000E+00  0.99999998245E-14  0.12500000000E+03  0.12500000000E+03 0.  0.
        -11    1    1    0    0    0 -0.11384167234E+01 -0.14819688138E+02  0.55288310366E+02  0.57251344199E+02  0.51100000000E-03 0.  1.
         11    1    1    0    0    0 -0.10448553355E+00 -0.13598060466E+01  0.50683723793E+01  0.52486558801E+01  0.51100000000E-03 0. -1.
         22    1    1    0    0    0  0.12429022569E+01  0.16179494184E+02 -0.60356682746E+02  0.62499999921E+02  0.00000000000E+00 0.  1.
</event>
<event>
 4    1  0.1977762E-002  0.9118800E+02  0.7818608E-02  0.1130116E+00
         25   -1    0    0    0    0  0.00000000000E+00  0.00000000000E+00  0.99999998245E-14  0.12500000000E+03  0.12500000000E+03 0.  0.
        -11    1    1    0    0    0 -0.16617934198E+01 -0.33589947003E+01  0.39747435853E+01  0.54628737490E+01  0.51100000000E-03 0. -1.
         11    1    1    0    0    0 -0.37448067657E+02 -0.27395929768E+02  0.33516999088E+02  0.57238832686E+02  0.51100000000E-03 0.  1.
         22    1    1    0    0    0  0.39109861077E+02  0.30754924468E+02 -0.37491742673E+02  0.62298293565E+02  0.00000000000E+00 0.  1.
</event>
<event>
 4    1  0.1977762E-002  0.9118800E+02  0.7818608E-02  0.1130116E+00
         25   -1    0    0    0    0  0.00000000000E+00  0.00000000000E+00  0.99999998245E-14  0.12500000000E+03  0.12500000000E+03 0.  0.
        -11    1    1    0    0    0  0.34730183005E+02  0.24438097882E+02  0.19247169964E+02  0.46624669345E+02  0.51100000000E-03 0.  1.
         11    1    1    0    0    0 -0.56759715836E+01  0.18653844645E+02  0.62641786735E+01  0.20479807327E+02  0.51100000000E-03 0. -1.
         22    1    1    0    0    0 -0.29054211421E+02 -0.43091942527E+02 -0.25511348638E+02  0.57895523328E+02  0.00000000000E+00 0.  1.
</event>
<event>
 4    1  0.1977762E-002  0.9118800E+02  0.7818608E-02  0.1130116E+00
         25   -1    0    0    0    0  0.00000000000E+00  0.00000000000E+00  0.99999998245E-14  0.12500000000E+03  0.12500000000E+03 0.  0.
        -11    1    1    0    0    0 -0.11118806802E+02 -0.19575808473E+02 -0.28070886536E+02  0.35983535308E+02  0.51100000000E-03 0.  1.
         11    1    1    0    0    0 -0.81925233596E+01 -0.14426586389E+02 -0.20685237889E+02  0.26516464708E+02  0.51100000000E-03 0. -1.
         22    1    1    0    0    0  0.19311330162E+02  0.34002394862E+02  0.48756124425E+02  0.62499999984E+02  0.00000000000E+00 0.  1.
</event>
<event>
 4    1  0.1977762E-002  0.9118800E+02  0.7818608E-02  0.1130116E+00
         25   -1    0    0    0    0  0.00000000000E+00  0.00000000000E+00  0.99999998245E-14  0.12500000000E+03  0.12500000000E+03 0.  0.
        -11    1    1    0    0    0 -0.26732174391E+02  0.28745984352E+02 -0.25817521915E+01  0.39339626443E+02  0.51100000000E-03 0.  1.
         11    1    1    0    0    0 -0.15858418140E+02  0.16803871106E+02 -0.15982479956E+01  0.23160611110E+02  0.51100000000E-03 0. -1.
         22    1    1    0    0    0  0.42590592531E+02 -0.45549855458E+02  0.41800001871E+01  0.62499762447E+02  0.00000000000E+00 0.  1.
</event>
<event>
 4    1  0.1977762E-002  0.9118800E+02  0.7818608E-02  0.1130116E+00
         25   -1    0    0    0    0  0.00000000000E+00  0.00000000000E+00  0.99999998245E-14  0.12500000000E+03  0.12500000000E+03 0.  0.
        -11    1    1    0    0    0 -0.12997051430E+02 -0.33266644643E+02  0.34148192507E+02  0.49413480381E+02  0.51100000000E-03 0. -1.
         11    1    1    0    0    0 -0.34417398394E+01 -0.88109020305E+01  0.90431978995E+01  0.13086519638E+02  0.51100000000E-03 0. -1.
         22    1    1    0    0    0  0.16438791269E+02  0.42077546673E+02 -0.43191390406E+02  0.62499999981E+02  0.00000000000E+00 0. -1.
</event>
<event>
 4    1  0.1977762E-002  0.9118800E+02  0.7818608E-02  0.1130116E+00
         25   -1    0    0    0    0  0.00000000000E+00  0.00000000000E+00  0.99999998245E-14  0.12500000000E+03  0.12500000000E+03 0.  0.
        -11    1    1    0    0    0 -0.11434260513E+02  0.11909090032E+01  0.58417511612E+01  0.12895217510E+02  0.51100000000E-03 0.  1.
         11    1    1    0    0    0 -0.39781993566E+02  0.16922463753E+02  0.24692727250E+02  0.49786620400E+02  0.51100000000E-03 0. -1.
         22    1    1    0    0    0  0.51216254079E+02 -0.18113372757E+02 -0.30534478411E+02  0.62318162090E+02  0.00000000000E+00 0.  1.
</event>
<event>
 4    1  0.1977762E-002  0.9118800E+02  0.7818608E-02  0.1130116E+00
         25   -1    0    0    0    0  0.00000000000E+00  0.00000000000E+00  0.99999998245E-14  0.12500000000E+03  0.12500000000E+03 0.  0.
        -11    1    1    0    0    0  0.31527647961E+02 -0.34888739741E+02 -0.23472894402E+02  0.52556574456E+02  0.51100000000E-03 0. -1.
         11    1    1    0    0    0  0.59652064612E+01 -0.66005134687E+01 -0.44408608793E+01  0.99434255559E+01  0.51100000000E-03 0. -1.
         22    1    1    0    0    0 -0.37492854422E+02  0.41489253210E+02  0.27913755281E+02  0.62499999988E+02  0.00000000000E+00 0. -1.
</event>
<event>
 4    1  0.1977762E-002  0.9118800E+02  0.7818608E-02  0.1130116E+00
         25   -1    0    0    0    0  0.00000000000E+00  0.00000000000E+00  0.99999998245E-14  0.12500000000E+03  0.12500000000E+03 0.  0.
        -11    1    1    0    0    0  0.12141441649E+01  0.49150242820E+01  0.15022871506E+02  0.15853021110E+02  0.51100000000E-03 0. -1.
         11    1    1    0    0    0  0.77653534155E+01  0.10891787183E+02  0.44731330686E+02  0.46688581976E+02  0.51100000000E-03 0.  1.
         22    1    1    0    0    0 -0.89794975804E+01 -0.15806811465E+02 -0.59754202192E+02  0.62458396915E+02  0.00000000000E+00 0. -1.
</event>
<event>
 4    1  0.1977762E-002  0.9118800E+02  0.7818608E-02  0.1130116E+00
         25   -1    0    0    0    0  0.00000000000E+00  0.00000000000E+00  0.99999998245E-14  0.12500000000E+03  0.12500000000E+03 0.  0.
        -11    1    1    0    0    0 -0.15455199314E+02 -0.56133560970E+02 -0.10528464754E+02  0.59166615784E+02  0.51100000000E-03 0.  1.
         11    1    1    0    0    0 -0.87052856053E+00 -0.31625494202E+01 -0.59322122362E+00  0.33333842399E+01  0.51100000000E-03 0.  1.
         22    1    1    0    0    0  0.16325727875E+02  0.59296110390E+02  0.11121685978E+02  0.62499999976E+02  0.00000000000E+00 0.  1.
</event>
<event>
 4    1  0.1977762E-002  0.9118800E+02  0.7818608E-02  0.1130116E+00
         25   -1    0    0    0    0  0.00000000000E+00  0.00000000000E+00  0.99999998245E-14  0.12500000000E+03  0.12500000000E+03 0.  0.
        -11    1    1    0    0    0  0.22384001230E+02  0.52522632016E+00  0.85588228362E+01  0.23970248692E+02  0.51100000000E-03 0.  1.
         11    1    1    0    0    0  0.36361739181E+02 -0.15932667838E+01  0.12696866173E+02  0.38547697547E+02  0.51100000000E-03 0. -1.
         22    1    1    0    0    0 -0.58745740411E+02  0.10680404637E+01 -0.21255689009E+02  0.62482053761E+02  0.00000000000E+00 0. -1.
</event>
<event>
 4    1  0.1977762E-002  0.9118800E+02  0.7818608E-02  0.1130116E+00
         25   -1    0    0    0    0  0.00000000000E+00  0.00000000000E+00  0.99999998245E-14  0.12500000000E+03  0.12500000000E+03 0.  0.
        -11    1    1    0    0    0  0.93929155411E+01  0.12132576775E+02 -0.51980893098E+01  0.16200197971E+02  0.51100000000E-03 0.  1.
         11    1    1    0    0    0  0.24481794539E+02  0.36788849679E+02 -0.13868078014E+02  0.46315238450E+02  0.51100000000E-03 0. -1.
         22    1    1    0    0    0 -0.33874710080E+02 -0.48921426454E+02  0.19066167324E+02  0.62484563580E+02  0.00000000000E+00 0. -1.
</event>
<event>
 4    1  0.1977762E-002  0.9118800E+02  0.7818608E-02  0.1130116E+00
         25   -1    0    0    0    0  0.00000000000E+00  0.00000000000E+00  0.99999998245E-14  0.12500000000E+03  0.12500000000E+03 0.  0.
        -11    1    1    0    0    0  0.34973385431E+01 -0.91157617543E+01 -0.60904145040E+01  0.11507460117E+02  0.51100000000E-03 0. -1.
         11    1    1    0    0    0  0.15787957610E+02 -0.41759277391E+02 -0.24654069675E+02  0.50999215734E+02  0.51100000000E-03 0.  1.
         22    1    1    0    0    0 -0.19285296153E+02  0.50875039145E+02  0.30744484179E+02  0.62493324149E+02  0.00000000000E+00 0.  1.
</event>
<event>
 4    1  0.1977762E-002  0.9118800E+02  0.7818608E-02  0.1130116E+00
         25   -1    0    0    0    0  0.00000000000E+00  0.00000000000E+00  0.99999998245E-14  0.12500000000E+03  0.12500000000E+03 0.  0.
        -11    1    1    0    0    0 -0.16478228814E+01  0.30997198487E+02 -0.46324911745E+02  0.55763241322E+02  0.51100000000E-03 0. -1.
         11    1    1    0    0    0 -0.27991321181E+00  0.37657240567E+01 -0.55792591174E+01  0.67369994536E+01  0.51100000000E-03 0.  1.
         22    1    1    0    0    0  0.19277360932E+01 -0.34762922543E+02  0.51904170863E+02  0.62499759225E+02  0.00000000000E+00 0. -1.
</event>
<event>
 4    1  0.1977762E-002  0.9118800E+02  0.7818608E-02  0.1130116E+00
         25   -1    0    0    0    0  0.00000000000E+00  0.00000000000E+00  0.99999998245E-14  0.12500000000E+03  0.12500000000E+03 0.  0.
        -11    1    1    0    0    0  0.15848933810E+02 -0.14153438484E+02  0.47630399606E+01  0.21776020614E+02  0.51100000000E-03 0. -1.
         11    1    1    0    0    0  0.29591607103E+02 -0.26513841428E+02  0.89328811535E+01  0.40723990033E+02  0.51100000000E-03 0.  1.
         22    1    1    0    0    0 -0.45440540914E+02  0.40667279912E+02 -0.13695921114E+02  0.62499989353E+02  0.00000000000E+00 0. -1.
</event>
<event>
 4    1  0.1977762E-002  0.9118800E+02  0.7818608E-02  0.1130116E+00
         25   -1    0    0    0    0  0.00000000000E+00  0.00000000000E+00  0.99999998245E-14  0.12500000000E+03  0.12500000000E+03 0.  0.
        -11    1    1    0    0    0 -0.13716559060E+02 -0.22067126654E+02 -0.59875125772E+01  0.26663690261E+02  0.51100000000E-03 0.  1.
         11    1    1    0    0    0  0.20471812729E+02 -0.22190889564E+02 -0.28734102208E+02  0.41679483274E+02  0.51100000000E-03 0. -1.
         22    1    1    0    0    0 -0.67552536691E+01  0.44258016219E+02  0.34721614785E+02  0.56656826465E+02  0.00000000000E+00 0. -1.
</event>
<event>
 4    1  0.1977762E-002  0.9118800E+02  0.7818608E-02  0.1130116E+00
         25   -1    0    0    0    0  0.00000000000E+00  0.00000000000E+00  0.99999998245E-14  0.12500000000E+03  0.12500000000E+03 0.  0.
        -11    1    1    0    0    0  0.67146637251E-01 -0.12189133367E+02 -0.37605105714E+01  0.12756211073E+02  0.51100000000E-03 0.  1.
         11    1    1    0    0    0  0.24988132994E+00 -0.47494722991E+02 -0.14786313308E+02  0.49743805787E+02  0.51100000000E-03 0. -1.
         22    1    1    0    0    0 -0.31702796719E+00  0.59683856358E+02  0.18546823880E+02  0.62499983140E+02  0.00000000000E+00 0.  1.
</event>
<event>
 4    1  0.1977762E-002  0.9118800E+02  0.7818608E-02  0.1130116E+00
         25   -1    0    0    0    0  0.00000000000E+00  0.00000000000E+00  0.99999998245E-14  0.12500000000E+03  0.12500000000E+03 0.  0.
        -11    1    1    0    0    0 -0.33174287969E+02 -0.70619671543E+00 -0.27952851128E+02  0.43386564539E+02  0.51100000000E-03 0. -1.
         11    1    1    0    0    0 -0.10214752865E+02  0.64899468447E+01 -0.15680708901E+02  0.19807706027E+02  0.51100000000E-03 0.  1.
         22    1    1    0    0    0  0.43389040834E+02 -0.57837501293E+01  0.43633560029E+02  0.61805729434E+02  0.00000000000E+00 0. -1.
</event>
<event>
 4    1  0.1977762E-002  0.9118800E+02  0.7818608E-02  0.1130116E+00
         25   -1    0    0    0    0  0.00000000000E+00  0.00000000000E+00  0.99999998245E-14  0.12500000000E+03  0.12500000000E+03 0.  0.
        -11    1    1    0    0    0 -0.98473753639E+01 -0.77375441489E+00 -0.10026036016E+02  0.14074476754E+02  0.51100000000E-03 0. -1.
         11    1    1    0    0    0 -0.33896319513E+02 -0.26602118757E+01 -0.34481794425E+02  0.48425523753E+02  0.51100000000E-03 0.  1.
         22    1    1    0    0    0  0.43743694877E+02  0.34339662906E+01  0.44507830441E+02  0.62499999492E+02  0.00000000000E+00 0.  1.
</event>
<event>
 4    1  0.1977762E-002  0.9118800E+02  0.7818608E-02  0.1130116E+00
         25   -1    0    0    0    0  0.00000000000E+00  0.00000000000E+00  0.99999998245E-14  0.12500000000E+03  0.12500000000E+03 0.  0.
        -11    1    1    0    0    0  0.38755991434E+02  0.18065603291E+02 -0.43814406797E+02  0.61221688457E+02  0.51100000000E-03 0.  1.
         11    1    1    0    0    0  0.14625992916E+01  0.30869193471E+00 -0.48837152812E-01  0.14956178412E+01  0.51100000000E-03 0. -1.
         22    1    1    0    0    0 -0.40218590726E+02 -0.18374295226E+02  0.43863243949E+02  0.62282693702E+02  0.00000000000E+00 0.  1.
</event>
<event>
 4    1  0.1977762E-002  0.9118800E+02  0.7818608E-02  0.1130116E+00
         25   -1    0    0    0    0  0.00000000000E+00  0.00000000000E+00  0.99999998245E-14  0.12500000000E+03  0.12500000000E+03 0.  0.
        -11    1    1    0    0    0 -0.12508170066E+01 -0.65481318911E+01 -0.12521095408E+02  0.14185217832E+02  0.51100000000E-03 0. -1.
         11    1    1    0    0    0 -0.11096732304E+01 -0.11130064164E+02 -0.47189752387E+02  0.48497241505E+02  0.51100000000E-03 0.  1.
         22    1    1    0    0    0  0.23604902370E+01  0.17678196055E+02  0.59710847795E+02  0.62317540664E+02  0.00000000000E+00 0.  1.
</event>
<event>
 4    1  0.1977762E-002  0.9118800E+02  0.7818608E-02  0.1130116E+00
         25   -1    0    0    0    0  0.00000000000E+00  0.00000000000E+00  0.99999998245E-14  0.12500000000E+03  0.12500000000E+03 0.  0.
        -11    1    1    0    0    0  0.80300540117E+01 -0.50537768874E+01  0.49862369830E+01  0.10718441480E+02  0.51100000000E-03 0.  1.
         11    1    1    0    0    0  0.21493773093E+02 -0.29101989607E+02  0.37627724747E+02  0.52199173851E+02  0.51100000000E-03 0. -1.
         22    1    1    0    0    0 -0.29523827104E+02  0.34155766495E+02 -0.42613961730E+02  0.62082384668E+02  0.00000000000E+00 0. -1.
</event>
<event>
 4    1  0.1977762E-002  0.9118800E+02  0.7818608E-02  0.1130116E+00
         25   -1    0    0    0    0  0.00000000000E+00  0.00000000000E+00  0.99999998245E-14  0.12500000000E+03  0.12500000000E+03 0.  0.
        -11    1    1    0    0    0 -0.29101493937E+01  0.15100462173E+01 -0.25568468934E-01  0.32786983819E+01  0.51100000000E-03 0. -1.
         11    1    1    0    0    0 -0.52570101254E+02  0.27263786899E+02 -0.48266061193E+00  0.59221301771E+02  0.51100000000E-03 0.  1.
         22    1    1    0    0    0  0.55480250648E+02 -0.28773833116E+02  0.50822908087E+00  0.62499999847E+02  0.00000000000E+00 0.  1.
</event>
<event>
 4    1  0.1977762E-002  0.9118800E+02  0.7818608E-02  0.1130116E+00
         25   -1    0    0    0    0  0.00000000000E+00  0.00000000000E+00  0.99999998245E-14  0.12500000000E+03  0.12500000000E+03 0.  0.
        -11    1    1    0    0    0 -0.20587998022E+02 -0.38801823609E+02 -0.18428538842E+02  0.47634632591E+02  0.51100000000E-03 0. -1.
         11    1    1    0    0    0 -0.52519017039E+01 -0.10898976065E+02 -0.89179614573E+01  0.15029976300E+02  0.51100000000E-03 0.  1.
         22    1    1    0    0    0  0.25839899726E+02  0.49700799674E+02  0.27346500299E+02  0.62335391109E+02  0.00000000000E+00 0. -1.
</event>
<event>
 4    1  0.1977762E-002  0.9118800E+02  0.7818608E-02  0.1130116E+00
         25   -1    0    0    0    0  0.00000000000E+00  0.00000000000E+00  0.99999998245E-14  0.12500000000E+03  0.12500000000E+03 0.  0.
        -11    1    1    0    0    0  0.45674952483E+02  0.29776283898E+01  0.32113878810E+02  0.55913940726E+02  0.51100000000E-03 0.  1.
         11    1    1    0    0    0  0.53537208615E+01  0.24967202800E+00  0.38284893245E+01  0.65865008885E+01  0.51100000000E-03 0. -1.
         22    1    1    0    0    0 -0.51028673344E+02 -0.32273004178E+01 -0.35942368134E+02  0.62499558385E+02  0.00000000000E+00 0.  1.
</event>
<event>
 4    1  0.1977762E-002  0.9118800E+02  0.7818608E-02  0.1130116E+00
         25   -1    0    0    0    0  0.00000000000E+00  0.00000000000E+00  0.99999998245E-14  0.12500000000E+03  0.12500000000E+03 0.  0.
        -11    1    1    0    0    0 -0.51875531231E+01 -0.98325784381E+01  0.94120090189E+01  0.14566269947E+02  0.51100000000E-03 0.  1.
         11    1    1    0    0    0 -0.17068539208E+02 -0.32342644972E+02  0.30988075349E+02  0.47933730593E+02  0.51100000000E-03 0. -1.
         22    1    1    0    0    0  0.22256092331E+02  0.42175223410E+02 -0.40400084368E+02  0.62499999460E+02  0.00000000000E+00 0. -1.
</event>
<event>
 4    1  0.1977762E-002  0.9118800E+02  0.7818608E-02  0.1130116E+00
         25   -1    0    0    0    0  0.00000000000E+00  0.00000000000E+00  0.99999998245E-14  0.12500000000E+03  0.12500000000E+03 0.  0.
        -11    1    1    0    0    0 -0.16922253100E+01 -0.16900909740E+02  0.35508913307E+02  0.39362257316E+02  0.51100000000E-03 0. -1.
         11    1    1    0    0    0  0.25037327509E-01 -0.91506221117E+01  0.21264763056E+02  0.23150046652E+02  0.51100000000E-03 0.  1.
         22    1    1    0    0    0  0.16671879825E+01  0.26051531852E+02 -0.56773676363E+02  0.62487696032E+02  0.00000000000E+00 0. -1.
</event>
<event>
 4    1  0.1977762E-002  0.9118800E+02  0.7818608E-02  0.1130116E+00
         25   -1    0    0    0    0  0.00000000000E+00  0.00000000000E+00  0.99999998245E-14  0.12500000000E+03  0.12500000000E+03 0.  0.
        -11    1    1    0    0    0  0.56392518323E+01 -0.23661176722E+02  0.31517554978E+01  0.24527250316E+02  0.51100000000E-03 0. -1.
         11    1    1    0    0    0  0.41585861036E+02 -0.75707248544E+01  0.73074890739E+01  0.42896376417E+02  0.51100000000E-03 0.  1.
         22    1    1    0    0    0 -0.47225112868E+02  0.31231901577E+02 -0.10459244572E+02  0.57576373266E+02  0.00000000000E+00 0.  1.
</event>
<event>
 4    1  0.1977762E-002  0.9118800E+02  0.7818608E-02  0.1130116E+00
         25   -1    0    0    0    0  0.00000000000E+00  0.00000000000E+00  0.99999998245E-14  0.12500000000E+03  0.12500000000E+03 0.  0.
        -11    1    1    0    0    0 -0.63724389780E+01 -0.23869350637E+02 -0.33990916828E+01  0.24938077370E+02  0.51100000000E-03 0.  1.
         11    1    1    0    0    0 -0.95934690680E+01 -0.35954360387E+02 -0.51134494688E+01  0.37561922812E+02  0.51100000000E-03 0. -1.
         22    1    1    0    0    0  0.15965908046E+02  0.59823711024E+02  0.85125411516E+01  0.62499999818E+02  0.00000000000E+00 0. -1.
</event>
<event>
 4    1  0.1977762E-002  0.9118800E+02  0.7818608E-02  0.1130116E+00
         25   -1    0    0    0    0  0.00000000000E+00  0.00000000000E+00  0.99999998245E-14  0.12500000000E+03  0.12500000000E+03 0.  0.
        -11    1    1    0    0    0 -0.32253781009E+02 -0.23699344456E+02 -0.21111768559E+02  0.45251210911E+02  0.51100000000E-03 0.  1.
         11    1    1    0    0    0 -0.16481302458E+02 -0.41314419743E+00 -0.77192072429E+01  0.18204125345E+02  0.51100000000E-03 0. -1.
         22    1    1    0    0    0  0.48735083467E+02  0.24112488653E+02  0.28830975802E+02  0.61544663744E+02  0.00000000000E+00 0.  1.
</event>
<event>
 4    1  0.1977762E-002  0.9118800E+02  0.7818608E-02  0.1130116E+00
         25   -1    0    0    0    0  0.00000000000E+00  0.00000000000E+00  0.99999998245E-14  0.12500000000E+03  0.12500000000E+03 0.  0.
        -11    1    1    0    0    0 -0.57856151222E+01  0.13486861717E+02  0.49341173580E+01  0.15482709572E+02  0.51100000000E-03 0.  1.
         11    1    1    0    0    0 -0.23759247296E+02  0.39700543280E+02  0.89162890373E+01  0.47118310446E+02  0.51100000000E-03 0. -1.
         22    1    1    0    0    0  0.29544862418E+02 -0.53187404997E+02 -0.13850406395E+02  0.62398979983E+02  0.00000000000E+00 0. -1.
</event>
<event>
 4    1  0.1977762E-002  0.9118800E+02  0.7818608E-02  0.1130116E+00
         25   -1    0    0    0    0  0.00000000000E+00  0.00000000000E+00  0.99999998245E-14  0.12500000000E+03  0.12500000000E+03 0.  0.
        -11    1    1    0    0    0  0.62495498739E+00  0.55251184055E+00 -0.75788279223E+00  0.11270424385E+01  0.51100000000E-03 0. -1.
         11    1    1    0    0    0 -0.31223023069E+02  0.35623257772E+02  0.40274185406E+02  0.62176391615E+02  0.51100000000E-03 0.  1.
         22    1    1    0    0    0  0.30598068082E+02 -0.36175769613E+02 -0.39516302613E+02  0.61696565947E+02  0.00000000000E+00 0.  1.
</event>
<event>
 4    1  0.1977762E-002  0.9118800E+02  0.7818608E-02  0.1130116E+00
         25   -1    0    0    0    0  0.00000000000E+00  0.00000000000E+00  0.99999998245E-14  0.12500000000E+03  0.12500000000E+03 0.  0.
        -11    1    1    0    0    0 -0.21456226351E+02 -0.44723290395E+01  0.48705214924E+01  0.22452023430E+02  0.51100000000E-03 0. -1.
         11    1    1    0    0    0  0.32671830590E+02 -0.37357152658E+02 -0.24091611048E+02  0.55167119663E+02  0.51100000000E-03 0.  1.
         22    1    1    0    0    0 -0.11215604239E+02  0.41829481697E+02  0.19221089555E+02  0.47380856906E+02  0.00000000000E+00 0.  1.
</event>
<event>
 4    1  0.1977762E-002  0.9118800E+02  0.7818608E-02  0.1130116E+00
         25   -1    0    0    0    0  0.00000000000E+00  0.00000000000E+00  0.99999998245E-14  0.12500000000E+03  0.12500000000E+03 0.  0.
        -11    1    1    0    0    0 -0.31677075631E+02 -0.19648701861E+02  0.36998359632E+02  0.52520350542E+02  0.51100000000E-03 0. -1.
         11    1    1    0    0    0 -0.68377754643E+01 -0.24599554934E+01  0.69106680253E+01  0.10028154723E+02  0.51100000000E-03 0.  1.
         22    1    1    0    0    0  0.38514851095E+02  0.22108657354E+02 -0.43909027657E+02  0.62451494735E+02  0.00000000000E+00 0. -1.
</event>
<event>
 4    1  0.1977762E-002  0.9118800E+02  0.7818608E-02  0.1130116E+00
         25   -1    0    0    0    0  0.00000000000E+00  0.00000000000E+00  0.99999998245E-14  0.12500000000E+03  0.12500000000E+03 0.  0.
        -11    1    1    0    0    0  0.19332299916E+02 -0.11767180459E+02  0.10144155482E+02  0.24801375904E+02  0.51100000000E-03 0.  1.
         11    1    1    0    0    0  0.29629875658E+02 -0.19709821992E+02  0.12534099705E+02  0.37729435062E+02  0.51100000000E-03 0. -1.
         22    1    1    0    0    0 -0.48962175574E+02  0.31477002451E+02 -0.22678255187E+02  0.62469189034E+02  0.00000000000E+00 0.  1.
</event>
<event>
 4    1  0.1977762E-002  0.9118800E+02  0.7818608E-02  0.1130116E+00
         25   -1    0    0    0    0  0.00000000000E+00  0.00000000000E+00  0.99999998245E-14  0.12500000000E+03  0.12500000000E+03 0.  0.
        -11    1    1    0    0    0 -0.16939744756E+02 -0.29180776405E+01  0.36371381622E+02  0.40228690395E+02  0.51100000000E-03 0. -1.
         11    1    1    0    0    0 -0.94215079121E+01 -0.14248716708E+01  0.20130287405E+02  0.22271585976E+02  0.51100000000E-03 0.  1.
         22    1    1    0    0    0  0.26361252668E+02  0.43429493113E+01 -0.56501669027E+02  0.62499723630E+02  0.00000000000E+00 0. -1.
</event>
<event>
 4    1  0.1977762E-002  0.9118800E+02  0.7818608E-02  0.1130116E+00
         25   -1    0    0    0    0  0.00000000000E+00  0.00000000000E+00  0.99999998245E-14  0.12500000000E+03  0.12500000000E+03 0.  0.
        -11    1    1    0    0    0 -0.11894195326E+01  0.85357968804E+01 -0.50047479479E+01  0.99660448268E+01  0.51100000000E-03 0.  1.
         11    1    1    0    0    0  0.55628765828E+02 -0.19956178560E+02  0.59741034849E+01  0.59401166344E+02  0.51100000000E-03 0. -1.
         22    1    1    0    0    0 -0.54439346295E+02  0.11420381680E+02 -0.96935553703E+00  0.55632788829E+02  0.00000000000E+00 0. -1.
</event>
<event>
 4    1  0.1977762E-002  0.9118800E+02  0.7818608E-02  0.1130116E+00
         25   -1    0    0    0    0  0.00000000000E+00  0.00000000000E+00  0.99999998245E-14  0.12500000000E+03  0.12500000000E+03 0.  0.
        -11    1    1    0    0    0  0.14088856911E+02  0.31834787764E+01 -0.19519229635E+02  0.24282313564E+02  0.51100000000E-03 0. -1.
         11    1    1    0    0    0  0.21750608058E+02  0.50904698369E+01 -0.31010354593E+02  0.38218371581E+02  0.51100000000E-03 0.  1.
         22    1    1    0    0    0 -0.35839464970E+02 -0.82739486133E+01  0.50529584229E+02  0.62499314855E+02  0.00000000000E+00 0.  1.
</event>
<event>
 4    1  0.1977762E-002  0.9118800E+02  0.7818608E-02  0.1130116E+00
         25   -1    0    0    0    0  0.00000000000E+00  0.00000000000E+00  0.99999998245E-14  0.12500000000E+03  0.12500000000E+03 0.  0.
        -11    1    1    0    0    0  0.15484323400E+01  0.43215462676E+00 -0.27946979178E+00  0.16317181002E+01  0.51100000000E-03 0. -1.
         11    1    1    0    0    0  0.57750786573E+02  0.16130377790E+02 -0.10469256750E+02  0.60868282172E+02  0.51100000000E-03 0.  1.
         22    1    1    0    0    0 -0.59299218913E+02 -0.16562532416E+02  0.10748726541E+02  0.62499999728E+02  0.00000000000E+00 0.  1.
</event>
<event>
 4    1  0.1977762E-002  0.9118800E+02  0.7818608E-02  0.1130116E+00
         25   -1    0    0    0    0  0.00000000000E+00  0.00000000000E+00  0.99999998245E-14  0.12500000000E+03  0.12500000000E+03 0.  0.
        -11    1    1    0    0    0  0.23103131533E+02 -0.30361560280E+02  0.15839659552E+02  0.41309488549E+02  0.51100000000E-03 0.  1.
         11    1    1    0    0    0  0.11851098788E+02 -0.15574544355E+02  0.81254415955E+01  0.21190511456E+02  0.51100000000E-03 0.  1.
         22    1    1    0    0    0 -0.34954230321E+02  0.45936104635E+02 -0.23965101147E+02  0.62499999995E+02  0.00000000000E+00 0.  1.
</event>
<event>
 4    1  0.1977762E-002  0.9118800E+02  0.7818608E-02  0.1130116E+00
         25   -1    0    0    0    0  0.00000000000E+00  0.00000000000E+00  0.99999998245E-14  0.12500000000E+03  0.12500000000E+03 0.  0.
        -11    1    1    0    0    0  0.18576061004E+01 -0.38399234028E+01  0.50932339360E+00  0.42959425909E+01  0.51100000000E-03 0.  1.
         11    1    1    0    0    0  0.21899915578E+02 -0.53500626599E+02 -0.72908278763E+01  0.58267310906E+02  0.51100000000E-03 0. -1.
         22    1    1    0    0    0 -0.23757521679E+02  0.57340550002E+02  0.67815044827E+01  0.62436746503E+02  0.00000000000E+00 0. -1.
</event>
<event>
 4    1  0.1977762E-002  0.9118800E+02  0.7818608E-02  0.1130116E+00
         25   -1    0    0    0    0  0.00000000000E+00  0.00000000000E+00  0.99999998245E-14  0.12500000000E+03  0.12500000000E+03 0.  0.
        -11    1    1    0    0    0 -0.49544328092E+00 -0.19891196353E+02 -0.66567083851E+01  0.20981347030E+02  0.51100000000E-03 0.  1.
         11    1    1    0    0    0 -0.14474409711E+01 -0.39497936080E+02 -0.12715787939E+02  0.41519553263E+02  0.51100000000E-03 0. -1.
         22    1    1    0    0    0  0.19428842521E+01  0.59389132433E+02  0.19372496324E+02  0.62499099707E+02  0.00000000000E+00 0. -1.
</event>
<event>
 4    1  0.1977762E-002  0.9118800E+02  0.7818608E-02  0.1130116E+00
         25   -1    0    0    0    0  0.00000000000E+00  0.00000000000E+00  0.99999998245E-14  0.12500000000E+03  0.12500000000E+03 0.  0.
        -11    1    1    0    0    0 -0.32936191835E+01 -0.72110947548E+01  0.92161192696E+01  0.12156671812E+02  0.51100000000E-03 0.  1.
         11    1    1    0    0    0 -0.13670748374E+02 -0.29919561108E+02  0.38110128671E+02  0.50343335264E+02  0.51100000000E-03 0. -1.
         22    1    1    0    0    0  0.16964367557E+02  0.37130655862E+02 -0.47326247940E+02  0.62499992924E+02  0.00000000000E+00 0. -1.
</event>
<event>
 4    1  0.1977762E-002  0.9118800E+02  0.7818608E-02  0.1130116E+00
         25   -1    0    0    0    0  0.00000000000E+00  0.00000000000E+00  0.99999998245E-14  0.12500000000E+03  0.12500000000E+03 0.  0.
        -11    1    1    0    0    0  0.46805594962E+02  0.15366968100E+02 -0.40204662254E+01  0.49427437495E+02  0.51100000000E-03 0.  1.
         11    1    1    0    0    0  0.11083309929E+01  0.16954974750E+02 -0.33173650927E+01  0.17311974982E+02  0.51100000000E-03 0. -1.
         22    1    1    0    0    0 -0.47913925955E+02 -0.32321942850E+02  0.73378313181E+01  0.58260587523E+02  0.00000000000E+00 0. -1.
</event>
<event>
 4    1  0.1977762E-002  0.9118800E+02  0.7818608E-02  0.1130116E+00
         25   -1    0    0    0    0  0.00000000000E+00  0.00000000000E+00  0.99999998245E-14  0.12500000000E+03  0.12500000000E+03 0.  0.
        -11    1    1    0    0    0  0.12122567511E+02  0.30184753479E+02 -0.24682437156E+02  0.40832568985E+02  0.51100000000E-03 0. -1.
         11    1    1    0    0    0  0.65101813324E+01  0.16110402117E+02 -0.12944592740E+02  0.21667717896E+02  0.51100000000E-03 0.  1.
         22    1    1    0    0    0 -0.18632748843E+02 -0.46295155596E+02  0.37627029897E+02  0.62499713119E+02  0.00000000000E+00 0. -1.
</event>
<event>
 4    1  0.1977762E-002  0.9118800E+02  0.7818608E-02  0.1130116E+00
         25   -1    0    0    0    0  0.00000000000E+00  0.00000000000E+00  0.99999998245E-14  0.12500000000E+03  0.12500000000E+03 0.  0.
        -11    1    1    0    0    0  0.15911808268E+01  0.29112676607E+01 -0.16736157869E+01  0.37159555809E+01  0.51100000000E-03 0. -1.
         11    1    1    0    0    0  0.25167353694E+02  0.46059929935E+02 -0.26469813846E+02  0.58784044458E+02  0.51100000000E-03 0.  1.
         22    1    1    0    0    0 -0.26758534521E+02 -0.48971197595E+02  0.28143429633E+02  0.62499999961E+02  0.00000000000E+00 0.  1.
</event>
<event>
 4    1  0.1977762E-002  0.9118800E+02  0.7818608E-02  0.1130116E+00
         25   -1    0    0    0    0  0.00000000000E+00  0.00000000000E+00  0.99999998245E-14  0.12500000000E+03  0.12500000000E+03 0.  0.
        -11    1    1    0    0    0  0.23406583450E+01  0.32336527202E+01 -0.78960213140E+00  0.40692337349E+01  0.51100000000E-03 0.  1.
         11    1    1    0    0    0  0.32768453694E+02  0.47022849480E+02 -0.11369650060E+02  0.58431060862E+02  0.51100000000E-03 0. -1.
         22    1    1    0    0    0 -0.35109112039E+02 -0.50256502201E+02  0.12159252191E+02  0.62499705403E+02  0.00000000000E+00 0. -1.
</event>
<event>
 4    1  0.1977762E-002  0.9118800E+02  0.7818608E-02  0.1130116E+00
         25   -1    0    0    0    0  0.00000000000E+00  0.00000000000E+00  0.99999998245E-14  0.12500000000E+03  0.12500000000E+03 0.  0.
        -11    1    1    0    0    0 -0.47290666711E+02 -0.26143517971E+02 -0.22120742434E+02  0.58388508595E+02  0.51100000000E-03 0.  1.
         11    1    1    0    0    0 -0.33350158348E+01 -0.18307919737E+01 -0.15589393658E+01  0.41114987629E+01  0.51100000000E-03 0. -1.
         22    1    1    0    0    0  0.50625682546E+02  0.27974309945E+02  0.23679681800E+02  0.62499992642E+02  0.00000000000E+00 0.  1.
</event>
<event>
 4    1  0.1977762E-002  0.9118800E+02  0.7818608E-02  0.1130116E+00
         25   -1    0    0    0    0  0.00000000000E+00  0.00000000000E+00  0.99999998245E-14  0.12500000000E+03  0.12500000000E+03 0.  0.
        -11    1    1    0    0    0 -0.16611959134E+02 -0.38490415256E+02 -0.18924463097E+02  0.45995701502E+02  0.51100000000E-03 0.  1.
         11    1    1    0    0    0 -0.59604367479E+01 -0.13811269385E+02 -0.67907216573E+01  0.16504298505E+02  0.51100000000E-03 0.  1.
         22    1    1    0    0    0  0.22572395882E+02  0.52301684641E+02  0.25715184755E+02  0.62499999993E+02  0.00000000000E+00 0.  1.
</event>
<event>
 4    1  0.1977762E-002  0.9118800E+02  0.7818608E-02  0.1130116E+00
         25   -1    0    0    0    0  0.00000000000E+00  0.00000000000E+00  0.99999998245E-14  0.12500000000E+03  0.12500000000E+03 0.  0.
        -11    1    1    0    0    0  0.39153677074E+02 -0.28523161182E+02  0.10427920337E+02  0.49551212650E+02  0.51100000000E-03 0.  1.
         11    1    1    0    0    0  0.94099533184E+01 -0.80745296869E+01  0.38538535643E+01  0.12984507641E+02  0.51100000000E-03 0. -1.
         22    1    1    0    0    0 -0.48563630392E+02  0.36597690869E+02 -0.14281773901E+02  0.62464279709E+02  0.00000000000E+00 0.  1.
</event>
<event>
 4    1  0.1977762E-002  0.9118800E+02  0.7818608E-02  0.1130116E+00
         25   -1    0    0    0    0  0.00000000000E+00  0.00000000000E+00  0.99999998245E-14  0.12500000000E+03  0.12500000000E+03 0.  0.
        -11    1    1    0    0    0 -0.29361376803E+02 -0.38394384435E+02  0.30531615600E+02  0.57169911276E+02  0.51100000000E-03 0. -1.
         11    1    1    0    0    0 -0.27344203150E+01 -0.35813901322E+01  0.28471813699E+01  0.53300892818E+01  0.51100000000E-03 0.  1.
         22    1    1    0    0    0  0.32095797118E+02  0.41975774567E+02 -0.33378796970E+02  0.62499999442E+02  0.00000000000E+00 0. -1.
</event>
<event>
 4    1  0.1977762E-002  0.9118800E+02  0.7818608E-02  0.1130116E+00
         25   -1    0    0    0    0  0.00000000000E+00  0.00000000000E+00  0.99999998245E-14  0.12500000000E+03  0.12500000000E+03 0.  0.
        -11    1    1    0    0    0 -0.18218866210E+02  0.11864385931E+02  0.17568613275E+01  0.21812319948E+02  0.51100000000E-03 0. -1.
         11    1    1    0    0    0 -0.33980467234E+02  0.22138188363E+02  0.32734972808E+01  0.40687680225E+02  0.51100000000E-03 0.  1.
         22    1    1    0    0    0  0.52199333444E+02 -0.34002574294E+02 -0.50303586082E+01  0.62499999827E+02  0.00000000000E+00 0.  1.
</event>
<event>
 4    1  0.1977762E-002  0.9118800E+02  0.7818608E-02  0.1130116E+00
         25   -1    0    0    0    0  0.00000000000E+00  0.00000000000E+00  0.99999998245E-14  0.12500000000E+03  0.12500000000E+03 0.  0.
        -11    1    1    0    0    0  0.29570765417E+02 -0.20903358312E+02  0.16760189953E+02  0.39903439997E+02  0.51100000000E-03 0. -1.
         11    1    1    0    0    0  0.16745373112E+02 -0.11836872466E+02  0.94913357104E+01  0.22596560009E+02  0.51100000000E-03 0. -1.
         22    1    1    0    0    0 -0.46316138529E+02  0.32740230777E+02 -0.26251525663E+02  0.62499999994E+02  0.00000000000E+00 0. -1.
</event>
<event>
 4    1  0.1977762E-002  0.9118800E+02  0.7818608E-02  0.1130116E+00
         25   -1    0    0    0    0  0.00000000000E+00  0.00000000000E+00  0.99999998245E-14  0.12500000000E+03  0.12500000000E+03 0.  0.
        -11    1    1    0    0    0 -0.35711086844E+02 -0.38356812235E+01  0.20498822188E+01  0.35974938380E+02  0.51100000000E-03 0.  1.
         11    1    1    0    0    0 -0.26330454674E+02 -0.28281228601E+01  0.15125382792E+01  0.26525061631E+02  0.51100000000E-03 0.  1.
         22    1    1    0    0    0  0.62041541518E+02  0.66638040836E+01 -0.35624204980E+01  0.62499999989E+02  0.00000000000E+00 0.  1.
</event>
<event>
 4    1  0.1977762E-002  0.9118800E+02  0.7818608E-02  0.1130116E+00
         25   -1    0    0    0    0  0.00000000000E+00  0.00000000000E+00  0.99999998245E-14  0.12500000000E+03  0.12500000000E+03 0.  0.
        -11    1    1    0    0    0  0.38681429152E+01  0.67273406353E-01  0.70226765108E+01  0.80177952680E+01  0.51100000000E-03 0.  1.
         11    1    1    0    0    0  0.23377231817E+02  0.42405012469E+01  0.49044947766E+02  0.54496639528E+02  0.51100000000E-03 0. -1.
         22    1    1    0    0    0 -0.27245374732E+02 -0.43077746533E+01 -0.56067624277E+02  0.62485565204E+02  0.00000000000E+00 0. -1.
</event>
<event>
 4    1  0.1977762E-002  0.9118800E+02  0.7818608E-02  0.1130116E+00
         25   -1    0    0    0    0  0.00000000000E+00  0.00000000000E+00  0.99999998245E-14  0.12500000000E+03  0.12500000000E+03 0.  0.
        -11    1    1    0    0    0 -0.22163917084E+02 -0.90509417136E+01 -0.18397979894E+02  0.30193450131E+02  0.51100000000E-03 0. -1.
         11    1    1    0    0    0 -0.22739521369E+02 -0.92872933031E+01 -0.21001423717E+02  0.32317169545E+02  0.51100000000E-03 0.  1.
         22    1    1    0    0    0  0.44903438452E+02  0.18338235017E+02  0.39399403611E+02  0.62489380324E+02  0.00000000000E+00 0.  1.
</event>
<event>
 4    1  0.1977762E-002  0.9118800E+02  0.7818608E-02  0.1130116E+00
         25   -1    0    0    0    0  0.00000000000E+00  0.00000000000E+00  0.99999998245E-14  0.12500000000E+03  0.12500000000E+03 0.  0.
        -11    1    1    0    0    0  0.43570570604E+00 -0.87234274008E+00 -0.24885467209E+01  0.26727675473E+01  0.51100000000E-03 0. -1.
         11    1    1    0    0    0  0.97753181734E+01 -0.19475202871E+02 -0.55717658285E+02  0.59827233074E+02  0.51100000000E-03 0.  1.
         22    1    1    0    0    0 -0.10211023879E+02  0.20347545611E+02  0.58206205006E+02  0.62499999378E+02  0.00000000000E+00 0.  1.
</event>
<event>
 4    1  0.1977762E-002  0.9118800E+02  0.7818608E-02  0.1130116E+00
         25   -1    0    0    0    0  0.00000000000E+00  0.00000000000E+00  0.99999998245E-14  0.12500000000E+03  0.12500000000E+03 0.  0.
        -11    1    1    0    0    0 -0.25827360487E+01  0.36042862600E-01  0.21957284840E+01  0.33901398823E+01  0.51100000000E-03 0.  1.
         11    1    1    0    0    0 -0.45002807415E+02  0.61597605045E+00  0.38318970806E+02  0.59109860646E+02  0.51100000000E-03 0. -1.
         22    1    1    0    0    0  0.47585543463E+02 -0.65201891306E+00 -0.40514699290E+02  0.62499999472E+02  0.00000000000E+00 0. -1.
</event>
<event>
 4    1  0.1977762E-002  0.9118800E+02  0.7818608E-02  0.1130116E+00
         25   -1    0    0    0    0  0.00000000000E+00  0.00000000000E+00  0.99999998245E-14  0.12500000000E+03  0.12500000000E+03 0.  0.
        -11    1    1    0    0    0 -0.70220565853E+01 -0.57721496425E+02  0.11487115252E+01  0.58158404093E+02  0.51100000000E-03 0.  1.
         11    1    1    0    0    0 -0.25053952535E-01 -0.41828951829E+01  0.15956196055E+01  0.44769679470E+01  0.51100000000E-03 0. -1.
         22    1    1    0    0    0  0.70471105378E+01  0.61904391608E+02 -0.27443311308E+01  0.62364627960E+02  0.00000000000E+00 0.  1.
</event>
<event>
 4    1  0.1977762E-002  0.9118800E+02  0.7818608E-02  0.1130116E+00
         25   -1    0    0    0    0  0.00000000000E+00  0.00000000000E+00  0.99999998245E-14  0.12500000000E+03  0.12500000000E+03 0.  0.
        -11    1    1    0    0    0 -0.23896953970E+02  0.14005939960E+02 -0.35867478644E+02  0.45317841826E+02  0.51100000000E-03 0. -1.
         11    1    1    0    0    0 -0.89680815320E+01  0.41297595586E+01 -0.14083278321E+02  0.17199422342E+02  0.51100000000E-03 0.  1.
         22    1    1    0    0    0  0.32865035502E+02 -0.18135699519E+02  0.49950756965E+02  0.62482735832E+02  0.00000000000E+00 0. -1.
</event>
<event>
 4    1  0.1977762E-002  0.9118800E+02  0.7818608E-02  0.1130116E+00
         25   -1    0    0    0    0  0.00000000000E+00  0.00000000000E+00  0.99999998245E-14  0.12500000000E+03  0.12500000000E+03 0.  0.
        -11    1    1    0    0    0 -0.51750262550E+02 -0.11918769637E+02  0.10318702782E+02  0.54098265878E+02  0.51100000000E-03 0.  1.
         11    1    1    0    0    0  0.12517082625E+01 -0.13282618091E+02 -0.48663683404E+01  0.14201276634E+02  0.51100000000E-03 0. -1.
         22    1    1    0    0    0  0.50498554287E+02  0.25201387728E+02 -0.54523344420E+01  0.56700457489E+02  0.00000000000E+00 0.  1.
</event>
<event>
 4    1  0.1977762E-002  0.9118800E+02  0.7818608E-02  0.1130116E+00
         25   -1    0    0    0    0  0.00000000000E+00  0.00000000000E+00  0.99999998245E-14  0.12500000000E+03  0.12500000000E+03 0.  0.
        -11    1    1    0    0    0 -0.10147224831E+02  0.14465933558E+02 -0.59573274363E+01  0.18647229176E+02  0.51100000000E-03 0. -1.
         11    1    1    0    0    0 -0.23200202765E+02  0.33139502203E+02 -0.16972937921E+02  0.43869769050E+02  0.51100000000E-03 0.  1.
         22    1    1    0    0    0  0.33347427596E+02 -0.47605435762E+02  0.22930265357E+02  0.62483001774E+02  0.00000000000E+00 0.  1.
</event>
<event>
 4    1  0.1977762E-002  0.9118800E+02  0.7818608E-02  0.1130116E+00
         25   -1    0    0    0    0  0.00000000000E+00  0.00000000000E+00  0.99999998245E-14  0.12500000000E+03  0.12500000000E+03 0.  0.
        -11    1    1    0    0    0  0.13333410340E+02 -0.71823751558E+01  0.18291841957E+02  0.23747796248E+02  0.51100000000E-03 0. -1.
         11    1    1    0    0    0  0.25886844365E+02 -0.11191481053E+02  0.26675175319E+02  0.38819362925E+02  0.51100000000E-03 0.  1.
         22    1    1    0    0    0 -0.39220254705E+02  0.18373856209E+02 -0.44967017276E+02  0.62432840828E+02  0.00000000000E+00 0. -1.
</event>
<event>
 4    1  0.1977762E-002  0.9118800E+02  0.7818608E-02  0.1130116E+00
         25   -1    0    0    0    0  0.00000000000E+00  0.00000000000E+00  0.99999998245E-14  0.12500000000E+03  0.12500000000E+03 0.  0.
        -11    1    1    0    0    0  0.16464908100E+01  0.11636856220E+02  0.11844949582E+02  0.16686227420E+02  0.51100000000E-03 0. -1.
         11    1    1    0    0    0  0.44925913479E+01  0.31969787173E+02  0.32506172903E+02  0.45813774632E+02  0.51100000000E-03 0.  1.
         22    1    1    0    0    0 -0.61390821579E+01 -0.43606643393E+02 -0.44351122485E+02  0.62499997948E+02  0.00000000000E+00 0.  1.
</event>
<event>
 4    1  0.1977762E-002  0.9118800E+02  0.7818608E-02  0.1130116E+00
         25   -1    0    0    0    0  0.00000000000E+00  0.00000000000E+00  0.99999998245E-14  0.12500000000E+03  0.12500000000E+03 0.  0.
        -11    1    1    0    0    0  0.22308607250E+02  0.35397995046E+02  0.82569581536E+01  0.42648204756E+02  0.51100000000E-03 0.  1.
         11    1    1    0    0    0  0.10385620444E+02  0.16487156261E+02  0.37956758148E+01  0.19851815754E+02  0.51100000000E-03 0. -1.
         22    1    1    0    0    0 -0.32694227694E+02 -0.51885151307E+02 -0.12052633968E+02  0.62499979490E+02  0.00000000000E+00 0.  1.
</event>
<event>
 4    1  0.1977762E-002  0.9118800E+02  0.7818608E-02  0.1130116E+00
         25   -1    0    0    0    0  0.00000000000E+00  0.00000000000E+00  0.99999998245E-14  0.12500000000E+03  0.12500000000E+03 0.  0.
        -11    1    1    0    0    0 -0.38956284334E+02 -0.14056406625E+02  0.32556530972E+02  0.52679240366E+02  0.51100000000E-03 0.  1.
         11    1    1    0    0    0 -0.72596300478E+01 -0.26191465843E+01  0.60733164809E+01  0.98207601844E+01  0.51100000000E-03 0. -1.
         22    1    1    0    0    0  0.46215914382E+02  0.16675553209E+02 -0.38629847452E+02  0.62499999450E+02  0.00000000000E+00 0.  1.
</event>
<event>
 4    1  0.1977762E-002  0.9118800E+02  0.7818608E-02  0.1130116E+00
         25   -1    0    0    0    0  0.00000000000E+00  0.00000000000E+00  0.99999998245E-14  0.12500000000E+03  0.12500000000E+03 0.  0.
        -11    1    1    0    0    0  0.55399078090E+01 -0.19070410451E+01 -0.21450985149E+01  0.62392973947E+01  0.51100000000E-03 0.  1.
         11    1    1    0    0    0  0.51148357413E+02 -0.51236003507E+01 -0.23041146888E+02  0.56332053014E+02  0.51100000000E-03 0. -1.
         22    1    1    0    0    0 -0.56688265222E+02  0.70306413959E+01  0.25186245403E+02  0.62428649591E+02  0.00000000000E+00 0. -1.
</event>
<event>
 4    1  0.1977762E-002  0.9118800E+02  0.7818608E-02  0.1130116E+00
         25   -1    0    0    0    0  0.00000000000E+00  0.00000000000E+00  0.99999998245E-14  0.12500000000E+03  0.12500000000E+03 0.  0.
        -11    1    1    0    0    0  0.54249381153E+02  0.83834252356E+01  0.19953162846E+02  0.58407241691E+02  0.51100000000E-03 0. -1.
         11    1    1    0    0    0  0.38040802517E+01  0.58484795857E+00  0.13919846128E+01  0.40927613074E+01  0.51100000000E-03 0.  1.
         22    1    1    0    0    0 -0.58053461405E+02 -0.89682731942E+01 -0.21345147459E+02  0.62499997001E+02  0.00000000000E+00 0. -1.
</event>
<event>
 4    1  0.1977762E-002  0.9118800E+02  0.7818608E-02  0.1130116E+00
         25   -1    0    0    0    0  0.00000000000E+00  0.00000000000E+00  0.99999998245E-14  0.12500000000E+03  0.12500000000E+03 0.  0.
        -11    1    1    0    0    0  0.19134545051E+02 -0.32711655834E+02  0.20524765294E+02  0.43098134905E+02  0.51100000000E-03 0.  1.
         11    1    1    0    0    0  0.77187382783E+01 -0.19277858547E+02 -0.58773607945E+01  0.21581430002E+02  0.51100000000E-03 0. -1.
         22    1    1    0    0    0 -0.26853283329E+02  0.51989514381E+02 -0.14647404499E+02  0.60320435092E+02  0.00000000000E+00 0.  1.
</event>
<event>
 4    1  0.1977762E-002  0.9118800E+02  0.7818608E-02  0.1130116E+00
         25   -1    0    0    0    0  0.00000000000E+00  0.00000000000E+00  0.99999998245E-14  0.12500000000E+03  0.12500000000E+03 0.  0.
        -11    1    1    0    0    0 -0.36694531127E+02  0.34068079027E+02  0.21628364937E+01  0.50117865928E+02  0.51100000000E-03 0.  1.
         11    1    1    0    0    0 -0.89904791500E+01  0.84967482458E+01  0.54652354311E+00  0.12382331539E+02  0.51100000000E-03 0. -1.
         22    1    1    0    0    0  0.45685010277E+02 -0.42564827273E+02 -0.27093600368E+01  0.62499802533E+02  0.00000000000E+00 0.  1.
</event>
<event>
 4    1  0.1977762E-002  0.9118800E+02  0.7818608E-02  0.1130116E+00
         25   -1    0    0    0    0  0.00000000000E+00  0.00000000000E+00  0.99999998245E-14  0.12500000000E+03  0.12500000000E+03 0.  0.
        -11    1    1    0    0    0 -0.77944900465E+01 -0.14879222567E+01  0.96808844339E+00  0.79940717549E+01  0.51100000000E-03 0.  1.
         11    1    1    0    0    0 -0.43313544130E+01  0.27058232054E+02  0.50963777781E+02  0.57863764127E+02  0.51100000000E-03 0. -1.
         22    1    1    0    0    0  0.12125844459E+02 -0.25570309797E+02 -0.51931866225E+02  0.59142164118E+02  0.00000000000E+00 0. -1.
</event>
<event>
 4    1  0.1977762E-002  0.9118800E+02  0.7818608E-02  0.1130116E+00
         25   -1    0    0    0    0  0.00000000000E+00  0.00000000000E+00  0.99999998245E-14  0.12500000000E+03  0.12500000000E+03 0.  0.
        -11    1    1    0    0    0 -0.79116044921E+01 -0.10076813958E+02  0.11629781396E+02  0.17302817134E+02  0.51100000000E-03 0.  1.
         11    1    1    0    0    0 -0.20667439973E+02 -0.26321718276E+02  0.30377778252E+02  0.45197182875E+02  0.51100000000E-03 0.  1.
         22    1    1    0    0    0  0.28579044465E+02  0.36398532234E+02 -0.42007559648E+02  0.62499999991E+02  0.00000000000E+00 0.  1.
</event>
<event>
 4    1  0.1977762E-002  0.9118800E+02  0.7818608E-02  0.1130116E+00
         25   -1    0    0    0    0  0.00000000000E+00  0.00000000000E+00  0.99999998245E-14  0.12500000000E+03  0.12500000000E+03 0.  0.
        -11    1    1    0    0    0  0.25281317689E+02  0.13206925790E+02 -0.32634249072E+02  0.43342382557E+02  0.51100000000E-03 0.  1.
         11    1    1    0    0    0  0.56306071579E+01 -0.67914848560E+01 -0.19106947945E+02  0.21045271763E+02  0.51100000000E-03 0. -1.
         22    1    1    0    0    0 -0.30911924847E+02 -0.64154409341E+01  0.51741197018E+02  0.60612345681E+02  0.00000000000E+00 0.  1.
</event>
<event>
 4    1  0.1977762E-002  0.9118800E+02  0.7818608E-02  0.1130116E+00
         25   -1    0    0    0    0  0.00000000000E+00  0.00000000000E+00  0.99999998245E-14  0.12500000000E+03  0.12500000000E+03 0.  0.
        -11    1    1    0    0    0 -0.45916649703E+02 -0.15548741349E+02  0.60106183511E+01  0.48849049231E+02  0.51100000000E-03 0. -1.
         11    1    1    0    0    0 -0.12745758329E+02 -0.46331816837E+01  0.15708773087E+01  0.13652413108E+02  0.51100000000E-03 0.  1.
         22    1    1    0    0    0  0.58662408032E+02  0.20181923032E+02 -0.75814956598E+01  0.62498537662E+02  0.00000000000E+00 0. -1.
</event>
<event>
 4    1  0.1977762E-002  0.9118800E+02  0.7818608E-02  0.1130116E+00
         25   -1    0    0    0    0  0.00000000000E+00  0.00000000000E+00  0.99999998245E-14  0.12500000000E+03  0.12500000000E+03 0.  0.
        -11    1    1    0    0    0  0.22009875699E+02 -0.18517257458E+02 -0.31175395380E+02  0.42417316386E+02  0.51100000000E-03 0.  1.
         11    1    1    0    0    0  0.18237313761E+02 -0.12012166684E+02 -0.23349817751E+01  0.21962329153E+02  0.51100000000E-03 0. -1.
         22    1    1    0    0    0 -0.40247189460E+02  0.30529424142E+02  0.33510377155E+02  0.60620354461E+02  0.00000000000E+00 0.  1.
</event>
<event>
 4    1  0.1977762E-002  0.9118800E+02  0.7818608E-02  0.1130116E+00
         25   -1    0    0    0    0  0.00000000000E+00  0.00000000000E+00  0.99999998245E-14  0.12500000000E+03  0.12500000000E+03 0.  0.
        -11    1    1    0    0    0 -0.24963393418E+02 -0.29897317128E+02  0.31056228441E+02  0.49814755923E+02  0.51100000000E-03 0. -1.
         11    1    1    0    0    0 -0.86429322996E+01 -0.71985066505E+01  0.61476838129E+01  0.12818455182E+02  0.51100000000E-03 0.  1.
         22    1    1    0    0    0  0.33606325717E+02  0.37095823779E+02 -0.37203912254E+02  0.62366788895E+02  0.00000000000E+00 0. -1.
</event>
<event>
 4    1  0.1977762E-002  0.9118800E+02  0.7818608E-02  0.1130116E+00
         25   -1    0    0    0    0  0.00000000000E+00  0.00000000000E+00  0.99999998245E-14  0.12500000000E+03  0.12500000000E+03 0.  0.
        -11    1    1    0    0    0 -0.52977539990E+01 -0.52249448752E+01  0.58300166769E+01  0.94527954118E+01  0.51100000000E-03 0.  1.
         11    1    1    0    0    0 -0.29702643109E+02 -0.29324926526E+02  0.32738474068E+02  0.53047205469E+02  0.51100000000E-03 0. -1.
         22    1    1    0    0    0  0.35000397108E+02  0.34549871401E+02 -0.38568490745E+02  0.62499999120E+02  0.00000000000E+00 0. -1.
</event>
<event>
 4    1  0.1977762E-002  0.9118800E+02  0.7818608E-02  0.1130116E+00
         25   -1    0    0    0    0  0.00000000000E+00  0.00000000000E+00  0.99999998245E-14  0.12500000000E+03  0.12500000000E+03 0.  0.
        -11    1    1    0    0    0  0.39416199584E+01  0.60165616920E+01  0.63236274982E+01  0.95772463416E+01  0.51100000000E-03 0.  1.
         11    1    1    0    0    0  0.22503121323E+02  0.33182361003E+02  0.34545777037E+02  0.52923248789E+02  0.51100000000E-03 0. -1.
         22    1    1    0    0    0 -0.26444741281E+02 -0.39198922695E+02 -0.40869404535E+02  0.62499504870E+02  0.00000000000E+00 0. -1.
</event>
<event>
 4    1  0.1977762E-002  0.9118800E+02  0.7818608E-02  0.1130116E+00
         25   -1    0    0    0    0  0.00000000000E+00  0.00000000000E+00  0.99999998245E-14  0.12500000000E+03  0.12500000000E+03 0.  0.
        -11    1    1    0    0    0 -0.34799837974E+01  0.46950921201E+00 -0.10218188180E+01  0.36571628468E+01  0.51100000000E-03 0.  1.
         11    1    1    0    0    0 -0.55997006483E+02  0.76722558940E+01 -0.16369233289E+02  0.58842841912E+02  0.51100000000E-03 0. -1.
         22    1    1    0    0    0  0.59476990280E+02 -0.81417651060E+01  0.17391052107E+02  0.62499995242E+02  0.00000000000E+00 0. -1.
</event>
<event>
 4    1  0.1977762E-002  0.9118800E+02  0.7818608E-02  0.1130116E+00
         25   -1    0    0    0    0  0.00000000000E+00  0.00000000000E+00  0.99999998245E-14  0.12500000000E+03  0.12500000000E+03 0.  0.
        -11    1    1    0    0    0  0.22520771233E+02 -0.98290393132E+01  0.46387816117E+02  0.52494043806E+02  0.51100000000E-03 0.  1.
         11    1    1    0    0    0  0.11440777373E+02  0.94510302156E+01  0.21371727573E+00  0.14841126452E+02  0.51100000000E-03 0. -1.
         22    1    1    0    0    0 -0.33961548606E+02  0.37800909756E+00 -0.46601533393E+02  0.57664829742E+02  0.00000000000E+00 0.  1.
</event>
<event>
 4    1  0.1977762E-002  0.9118800E+02  0.7818608E-02  0.1130116E+00
         25   -1    0    0    0    0  0.00000000000E+00  0.00000000000E+00  0.99999998245E-14  0.12500000000E+03  0.12500000000E+03 0.  0.
        -11    1    1    0    0    0  0.10274918804E+02 -0.47210855135E+02  0.42975056484E+01  0.48506776373E+02  0.51100000000E-03 0. -1.
         11    1    1    0    0    0  0.29340647453E+01 -0.13625388664E+02  0.12452836477E+01  0.13993237073E+02  0.51100000000E-03 0.  1.
         22    1    1    0    0    0 -0.13208983549E+02  0.60836243799E+02 -0.55427892961E+01  0.62499986553E+02  0.00000000000E+00 0. -1.
</event>
<event>
 4    1  0.1977762E-002  0.9118800E+02  0.7818608E-02  0.1130116E+00
         25   -1    0    0    0    0  0.00000000000E+00  0.00000000000E+00  0.99999998245E-14  0.12500000000E+03  0.12500000000E+03 0.  0.
        -11    1    1    0    0    0  0.15090914635E+02 -0.53432095433E+02  0.17369194501E+01  0.55549450190E+02  0.51100000000E-03 0. -1.
         11    1    1    0    0    0  0.18820744796E+01 -0.66876028890E+01  0.20964408866E+00  0.69505530465E+01  0.51100000000E-03 0.  1.
         22    1    1    0    0    0 -0.16972989115E+02  0.60119698322E+02 -0.19465635388E+01  0.62499996764E+02  0.00000000000E+00 0. -1.
</event>
<event>
 4    1  0.1977762E-002  0.9118800E+02  0.7818608E-02  0.1130116E+00
         25   -1    0    0    0    0  0.00000000000E+00  0.00000000000E+00  0.99999998245E-14  0.12500000000E+03  0.12500000000E+03 0.  0.
        -11    1    1    0    0    0  0.20029389120E+02  0.26107787648E+02  0.39867900128E+01  0.33146455305E+02  0.51100000000E-03 0.  1.
         11    1    1    0    0    0  0.21490219134E+02  0.18327113898E+02  0.90492419171E+01  0.29658074816E+02  0.51100000000E-03 0. -1.
         22    1    1    0    0    0 -0.41519608254E+02 -0.44434901546E+02 -0.13036031930E+02  0.62195469879E+02  0.00000000000E+00 0. -1.
</event>
<event>
 4    1  0.1977762E-002  0.9118800E+02  0.7818608E-02  0.1130116E+00
         25   -1    0    0    0    0  0.00000000000E+00  0.00000000000E+00  0.99999998245E-14  0.12500000000E+03  0.12500000000E+03 0.  0.
        -11    1    1    0    0    0  0.14522969590E+01 -0.39288452775E+00  0.41396682515E+01  0.44045860421E+01  0.51100000000E-03 0.  1.
         11    1    1    0    0    0  0.19129638560E+02 -0.52276514302E+01  0.54605913701E+02  0.58095414813E+02  0.51100000000E-03 0. -1.
         22    1    1    0    0    0 -0.20581935519E+02  0.56205359579E+01 -0.58745581952E+02  0.62499999145E+02  0.00000000000E+00 0. -1.
</event>
<event>
 4    1  0.1977762E-002  0.9118800E+02  0.7818608E-02  0.1130116E+00
         25   -1    0    0    0    0  0.00000000000E+00  0.00000000000E+00  0.99999998245E-14  0.12500000000E+03  0.12500000000E+03 0.  0.
        -11    1    1    0    0    0 -0.12231497660E+02  0.15316589838E+02 -0.57005814905E+01  0.20413331155E+02  0.51100000000E-03 0. -1.
         11    1    1    0    0    0 -0.25967031659E+02  0.30623416680E+02 -0.12632268044E+02  0.42091027292E+02  0.51100000000E-03 0.  1.
         22    1    1    0    0    0  0.38198529318E+02 -0.45940006519E+02  0.18332849534E+02  0.62495641552E+02  0.00000000000E+00 0.  1.
</event>
<event>
 4    1  0.1977762E-002  0.9118800E+02  0.7818608E-02  0.1130116E+00
         25   -1    0    0    0    0  0.00000000000E+00  0.00000000000E+00  0.99999998245E-14  0.12500000000E+03  0.12500000000E+03 0.  0.
        -11    1    1    0    0    0  0.14228300251E+02  0.13833857352E+02 -0.99356059583E+01  0.22193161183E+02  0.51100000000E-03 0.  1.
         11    1    1    0    0    0  0.33853238523E+02  0.19192993714E+02 -0.11630027632E+02  0.40616133607E+02  0.51100000000E-03 0. -1.
         22    1    1    0    0    0 -0.48081538774E+02 -0.33026851067E+02  0.21565633590E+02  0.62190705209E+02  0.00000000000E+00 0. -1.
</event>
<event>
 4    1  0.1977762E-002  0.9118800E+02  0.7818608E-02  0.1130116E+00
         25   -1    0    0    0    0  0.00000000000E+00  0.00000000000E+00  0.99999998245E-14  0.12500000000E+03  0.12500000000E+03 0.  0.
        -11    1    1    0    0    0 -0.47983409669E+02 -0.18084656890E+02 -0.32070892982E+02  0.60481440089E+02  0.51100000000E-03 0. -1.
         11    1    1    0    0    0 -0.16068015096E+01 -0.48960795694E+00 -0.11228034703E+01  0.20204491918E+01  0.51100000000E-03 0.  1.
         22    1    1    0    0    0  0.49590211178E+02  0.18574264847E+02  0.33193696453E+02  0.62498110719E+02  0.00000000000E+00 0. -1.
</event>
<event>
 4    1  0.1977762E-002  0.9118800E+02  0.7818608E-02  0.1130116E+00
         25   -1    0    0    0    0  0.00000000000E+00  0.00000000000E+00  0.99999998245E-14  0.12500000000E+03  0.12500000000E+03 0.  0.
        -11    1    1    0    0    0 -0.45974150966E+02  0.17241067387E+02  0.32364755794E+01  0.49207232559E+02  0.51100000000E-03 0. -1.
         11    1    1    0    0    0 -0.12398082594E+02  0.48470223698E+01 -0.63672909262E+00  0.13327096535E+02  0.51100000000E-03 0.  1.
         22    1    1    0    0    0  0.58372233560E+02 -0.22088089757E+02 -0.25997464868E+01  0.62465670906E+02  0.00000000000E+00 0. -1.
</event>
<event>
 4    1  0.1977762E-002  0.9118800E+02  0.7818608E-02  0.1130116E+00
         25   -1    0    0    0    0  0.00000000000E+00  0.00000000000E+00  0.99999998245E-14  0.12500000000E+03  0.12500000000E+03 0.  0.
        -11    1    1    0    0    0  0.29749579069E+02 -0.22893242504E+02  0.46638200996E+02  0.59868687972E+02  0.51100000000E-03 0.  1.
         11    1    1    0    0    0 -0.13866218544E+00 -0.26316130372E+01  0.15672628190E+01  0.30660931794E+01  0.51100000000E-03 0. -1.
         22    1    1    0    0    0 -0.29610916883E+02  0.25524855541E+02 -0.48205463815E+02  0.62065218848E+02  0.00000000000E+00 0.  1.
</event>
<event>
 4    1  0.1977762E-002  0.9118800E+02  0.7818608E-02  0.1130116E+00
         25   -1    0    0    0    0  0.00000000000E+00  0.00000000000E+00  0.99999998245E-14  0.12500000000E+03  0.12500000000E+03 0.  0.
        -11    1    1    0    0    0  0.11916846431E+02  0.50831765780E+01  0.18674768688E+01  0.13089590639E+02  0.51100000000E-03 0. -1.
         11    1    1    0    0    0  0.44976544208E+02  0.19219027599E+02  0.70091567533E+01  0.49410412156E+02  0.51100000000E-03 0.  1.
         22    1    1    0    0    0 -0.56893390639E+02 -0.24302204177E+02 -0.88766336221E+01  0.62499997205E+02  0.00000000000E+00 0.  1.
</event>
<event>
 4    1  0.1977762E-002  0.9118800E+02  0.7818608E-02  0.1130116E+00
         25   -1    0    0    0    0  0.00000000000E+00  0.00000000000E+00  0.99999998245E-14  0.12500000000E+03  0.12500000000E+03 0.  0.
        -11    1    1    0    0    0 -0.22500235585E+02  0.49873938710E+02 -0.29387160837E+02  0.62106968901E+02  0.51100000000E-03 0.  1.
         11    1    1    0    0    0 -0.15405068266E+00  0.36126368026E+00 -0.82051510728E-01  0.40121785982E+00  0.51100000000E-03 0. -1.
         22    1    1    0    0    0  0.22654286268E+02 -0.50235202390E+02  0.29469212348E+02  0.62491813239E+02  0.00000000000E+00 0.  1.
</event>
<event>
 4    1  0.1977762E-002  0.9118800E+02  0.7818608E-02  0.1130116E+00
         25   -1    0    0    0    0  0.00000000000E+00  0.00000000000E+00  0.99999998245E-14  0.12500000000E+03  0.12500000000E+03 0.  0.
        -11    1    1    0    0    0 -0.55767018614E+01  0.12027858926E+02 -0.30621575493E+01  0.13606829282E+02  0.51100000000E-03 0. -1.
         11    1    1    0    0    0 -0.20041848226E+02  0.43213011357E+02 -0.11022801813E+02  0.48893171210E+02  0.51100000000E-03 0.  1.
         22    1    1    0    0    0  0.25618550088E+02 -0.55240870283E+02  0.14084959363E+02  0.62499999508E+02  0.00000000000E+00 0.  1.
</event>
<event>
 4    1  0.1977762E-002  0.9118800E+02  0.7818608E-02  0.1130116E+00
         25   -1    0    0    0    0  0.00000000000E+00  0.00000000000E+00  0.99999998245E-14  0.12500000000E+03  0.12500000000E+03 0.  0.
        -11    1    1    0    0    0 -0.56939406678E+02  0.49055602287E+01 -0.23597089400E+02  0.61830277230E+02  0.51100000000E-03 0. -1.
         11    1    1    0    0    0 -0.61817513090E+00  0.51308450431E-01 -0.25251290795E+00  0.66972836236E+00  0.51100000000E-03 0.  1.
         22    1    1    0    0    0  0.57557581808E+02 -0.49568686792E+01  0.23849602307E+02  0.62499994408E+02  0.00000000000E+00 0. -1.
</event>
<event>
 4    1  0.1977762E-002  0.9118800E+02  0.7818608E-02  0.1130116E+00
         25   -1    0    0    0    0  0.00000000000E+00  0.00000000000E+00  0.99999998245E-14  0.12500000000E+03  0.12500000000E+03 0.  0.
        -11    1    1    0    0    0 -0.41567434596E+01 -0.40232421234E+00 -0.52565261327E+01  0.67135272552E+01  0.51100000000E-03 0.  1.
         11    1    1    0    0    0 -0.18050672226E+02 -0.56406939785E+01 -0.52666308648E+02  0.55958772889E+02  0.51100000000E-03 0. -1.
         22    1    1    0    0    0  0.22207415685E+02  0.60430181909E+01  0.57922834781E+02  0.62327699856E+02  0.00000000000E+00 0. -1.
</event>
<event>
 4    1  0.1977762E-002  0.9118800E+02  0.7818608E-02  0.1130116E+00
         25   -1    0    0    0    0  0.00000000000E+00  0.00000000000E+00  0.99999998245E-14  0.12500000000E+03  0.12500000000E+03 0.  0.
        -11    1    1    0    0    0 -0.19804204108E+00 -0.33542475174E+01  0.42360408157E+00  0.33866853614E+01  0.51100000000E-03 0.  1.
         11    1    1    0    0    0 -0.28530221956E+01 -0.58617377632E+02  0.70894141916E+01  0.59113420557E+02  0.51100000000E-03 0. -1.
         22    1    1    0    0    0  0.30510642367E+01  0.61971625149E+02 -0.75130182732E+01  0.62499894082E+02  0.00000000000E+00 0. -1.
</event>
<event>
 4    1  0.1977762E-002  0.9118800E+02  0.7818608E-02  0.1130116E+00
         25   -1    0    0    0    0  0.00000000000E+00  0.00000000000E+00  0.99999998245E-14  0.12500000000E+03  0.12500000000E+03 0.  0.
        -11    1    1    0    0    0 -0.24552111426E+02 -0.61187477553E+01  0.74960207584E+01  0.26390065878E+02  0.51100000000E-03 0. -1.
         11    1    1    0    0    0 -0.24267968229E+02 -0.91159680895E+01  0.26601028481E+02  0.37143638388E+02  0.51100000000E-03 0.  1.
         22    1    1    0    0    0  0.48820079655E+02  0.15234715845E+02 -0.34097049240E+02  0.61466295734E+02  0.00000000000E+00 0.  1.
</event>
<event>
 4    1  0.1977762E-002  0.9118800E+02  0.7818608E-02  0.1130116E+00
         25   -1    0    0    0    0  0.00000000000E+00  0.00000000000E+00  0.99999998245E-14  0.12500000000E+03  0.12500000000E+03 0.  0.
        -11    1    1    0    0    0  0.13392529983E+01  0.34636668949E+02  0.10450788398E+02  0.36203748602E+02  0.51100000000E-03 0.  1.
         11    1    1    0    0    0  0.95872447269E+00  0.25157671670E+02  0.75937672201E+01  0.26296252534E+02  0.51100000000E-03 0. -1.
         22    1    1    0    0    0 -0.22979774710E+01 -0.59794340619E+02 -0.18044555618E+02  0.62499998864E+02  0.00000000000E+00 0.  1.
</event>
<event>
 4    1  0.1977762E-002  0.9118800E+02  0.7818608E-02  0.1130116E+00
         25   -1    0    0    0    0  0.00000000000E+00  0.00000000000E+00  0.99999998245E-14  0.12500000000E+03  0.12500000000E+03 0.  0.
        -11    1    1    0    0    0 -0.97510081599E+01  0.10184449512E+02  0.45228181946E+02  0.47375031551E+02  0.51100000000E-03 0.  1.
         11    1    1    0    0    0 -0.43129343358E+01  0.32101276432E+01  0.14157505954E+02  0.15144018528E+02  0.51100000000E-03 0. -1.
         22    1    1    0    0    0  0.14063942496E+02 -0.13394577155E+02 -0.59385687900E+02  0.62480949921E+02  0.00000000000E+00 0.  1.
</event>
<event>
 4    1  0.1977762E-002  0.9118800E+02  0.7818608E-02  0.1130116E+00
         25   -1    0    0    0    0  0.00000000000E+00  0.00000000000E+00  0.99999998245E-14  0.12500000000E+03  0.12500000000E+03 0.  0.
        -11    1    1    0    0    0 -0.34543202022E+01  0.19027754387E+01 -0.22758829049E+02  0.23097990873E+02  0.51100000000E-03 0.  1.
         11    1    1    0    0    0 -0.55197581697E+01  0.27395098805E+01 -0.38918124338E+02  0.39402957337E+02  0.51100000000E-03 0. -1.
         22    1    1    0    0    0  0.89740783719E+01 -0.46422853191E+01  0.61676953387E+02  0.62499051790E+02  0.00000000000E+00 0. -1.
</event>
<event>
 4    1  0.1977762E-002  0.9118800E+02  0.7818608E-02  0.1130116E+00
         25   -1    0    0    0    0  0.00000000000E+00  0.00000000000E+00  0.99999998245E-14  0.12500000000E+03  0.12500000000E+03 0.  0.
        -11    1    1    0    0    0 -0.25901280636E+02 -0.71682987225E+01  0.53741753990E+00  0.26880283909E+02  0.51100000000E-03 0. -1.
         11    1    1    0    0    0  0.40836283639E+02  0.11112844482E+02 -0.38450919096E+02  0.57180158739E+02  0.51100000000E-03 0.  1.
         22    1    1    0    0    0 -0.14935003002E+02 -0.39445457593E+01  0.37913501556E+02  0.40939557352E+02  0.00000000000E+00 0.  1.
</event>
<event>
 4    1  0.1977762E-002  0.9118800E+02  0.7818608E-02  0.1130116E+00
         25   -1    0    0    0    0  0.00000000000E+00  0.00000000000E+00  0.99999998245E-14  0.12500000000E+03  0.12500000000E+03 0.  0.
        -11    1    1    0    0    0  0.24469427900E+01  0.66901992837E+00  0.10705071170E+01  0.27533801827E+01  0.51100000000E-03 0.  1.
         11    1    1    0    0    0 -0.14523459430E+00 -0.43935949687E+02 -0.43340228919E+02  0.61715186227E+02  0.51100000000E-03 0. -1.
         22    1    1    0    0    0 -0.23017081957E+01  0.43266929758E+02  0.42269721802E+02  0.60531433591E+02  0.00000000000E+00 0. -1.
</event>
<event>
 4    1  0.1977762E-002  0.9118800E+02  0.7818608E-02  0.1130116E+00
         25   -1    0    0    0    0  0.00000000000E+00  0.00000000000E+00  0.99999998245E-14  0.12500000000E+03  0.12500000000E+03 0.  0.
        -11    1    1    0    0    0 -0.13420182834E+02  0.39085441895E+01 -0.20762863721E+01  0.14131135494E+02  0.51100000000E-03 0.  1.
         11    1    1    0    0    0 -0.45934981859E+02  0.13377907477E+02 -0.71102804756E+01  0.48368864527E+02  0.51100000000E-03 0. -1.
         22    1    1    0    0    0  0.59355164693E+02 -0.17286451667E+02  0.91865668477E+01  0.62499999980E+02  0.00000000000E+00 0. -1.
</event>
<event>
 4    1  0.1977762E-002  0.9118800E+02  0.7818608E-02  0.1130116E+00
         25   -1    0    0    0    0  0.00000000000E+00  0.00000000000E+00  0.99999998245E-14  0.12500000000E+03  0.12500000000E+03 0.  0.
        -11    1    1    0    0    0  0.33123578843E+01  0.36275822933E+01  0.49628191903E-01  0.49125890594E+01  0.51100000000E-03 0. -1.
         11    1    1    0    0    0  0.30039791431E+02  0.46720215900E+02  0.15612847155E+02  0.57696868542E+02  0.51100000000E-03 0.  1.
         22    1    1    0    0    0 -0.33352149316E+02 -0.50347798193E+02 -0.15662475347E+02  0.62390542399E+02  0.00000000000E+00 0.  1.
</event>
<event>
 4    1  0.1977762E-002  0.9118800E+02  0.7818608E-02  0.1130116E+00
         25   -1    0    0    0    0  0.00000000000E+00  0.00000000000E+00  0.99999998245E-14  0.12500000000E+03  0.12500000000E+03 0.  0.
        -11    1    1    0    0    0  0.11109034793E+02  0.34592225738E+01  0.12341729926E+02  0.16961579310E+02  0.51100000000E-03 0. -1.
         11    1    1    0    0    0  0.28204862825E+02  0.12080071971E+02  0.33671342603E+02  0.45554382212E+02  0.51100000000E-03 0.  1.
         22    1    1    0    0    0 -0.39313897618E+02 -0.15539294545E+02 -0.46013072529E+02  0.62484038478E+02  0.00000000000E+00 0.  1.
</event>
<event>
 4    1  0.1977762E-002  0.9118800E+02  0.7818608E-02  0.1130116E+00
         25   -1    0    0    0    0  0.00000000000E+00  0.00000000000E+00  0.99999998245E-14  0.12500000000E+03  0.12500000000E+03 0.  0.
        -11    1    1    0    0    0  0.17889430357E+02 -0.45216889144E+01  0.19447544681E+02  0.26808289455E+02  0.51100000000E-03 0. -1.
         11    1    1    0    0    0  0.23946272358E+02 -0.60666573093E+01  0.25761940087E+02  0.35691817662E+02  0.51100000000E-03 0.  1.
         22    1    1    0    0    0 -0.41835702715E+02  0.10588346224E+02 -0.45209484768E+02  0.62499892883E+02  0.00000000000E+00 0. -1.
</event>
<event>
 4    1  0.1977762E-002  0.9118800E+02  0.7818608E-02  0.1130116E+00
         25   -1    0    0    0    0  0.00000000000E+00  0.00000000000E+00  0.99999998245E-14  0.12500000000E+03  0.12500000000E+03 0.  0.
        -11    1    1    0    0    0  0.16462315331E+02  0.16915285572E+02 -0.29673411663E+02  0.37916303512E+02  0.51100000000E-03 0.  1.
         11    1    1    0    0    0  0.10722779013E+02  0.10940522411E+02 -0.19227223075E+02  0.24583716722E+02  0.51100000000E-03 0. -1.
         22    1    1    0    0    0 -0.27185094345E+02 -0.27855807983E+02  0.48900634738E+02  0.62499979766E+02  0.00000000000E+00 0. -1.
</event>
<event>
 4    1  0.1977762E-002  0.9118800E+02  0.7818608E-02  0.1130116E+00
         25   -1    0    0    0    0  0.00000000000E+00  0.00000000000E+00  0.99999998245E-14  0.12500000000E+03  0.12500000000E+03 0.  0.
        -11    1    1    0    0    0 -0.23355162041E+01  0.12667005366E+02  0.59332615142E+02  0.60714634815E+02  0.51100000000E-03 0.  1.
         11    1    1    0    0    0  0.57433517515E+00 -0.48160760549E-01  0.17736349892E+01  0.18649294057E+01  0.51100000000E-03 0. -1.
         22    1    1    0    0    0  0.17611810290E+01 -0.12618844606E+02 -0.61106250131E+02  0.62420435779E+02  0.00000000000E+00 0.  1.
</event>
<event>
 4    1  0.1977762E-002  0.9118800E+02  0.7818608E-02  0.1130116E+00
         25   -1    0    0    0    0  0.00000000000E+00  0.00000000000E+00  0.99999998245E-14  0.12500000000E+03  0.12500000000E+03 0.  0.
        -11    1    1    0    0    0  0.80762179061E+01 -0.11164898733E+02  0.97505473521E+01  0.16880563773E+02  0.51100000000E-03 0. -1.
         11    1    1    0    0    0  0.29090181385E+02 -0.29930647773E+02  0.18811778237E+02  0.45781713924E+02  0.51100000000E-03 0.  1.
         22    1    1    0    0    0 -0.37166399291E+02  0.41095546505E+02 -0.28562325589E+02  0.62337722303E+02  0.00000000000E+00 0.  1.
</event>
<event>
 4    1  0.1977762E-002  0.9118800E+02  0.7818608E-02  0.1130116E+00
         25   -1    0    0    0    0  0.00000000000E+00  0.00000000000E+00  0.99999998245E-14  0.12500000000E+03  0.12500000000E+03 0.  0.
        -11    1    1    0    0    0  0.26549187109E+01 -0.12117065679E+01 -0.87941135266E+01  0.92657033812E+01  0.51100000000E-03 0.  1.
         11    1    1    0    0    0  0.14944377891E+02 -0.67694937256E+01 -0.50643269164E+02  0.53234398538E+02  0.51100000000E-03 0. -1.
         22    1    1    0    0    0 -0.17599296602E+02  0.79812002936E+01  0.59437382690E+02  0.62499898081E+02  0.00000000000E+00 0. -1.
</event>
<event>
 4    1  0.1977762E-002  0.9118800E+02  0.7818608E-02  0.1130116E+00
         25   -1    0    0    0    0  0.00000000000E+00  0.00000000000E+00  0.99999998245E-14  0.12500000000E+03  0.12500000000E+03 0.  0.
        -11    1    1    0    0    0  0.78830839908E+00 -0.14098167886E+01 -0.83195206003E+00  0.18169089137E+01  0.51100000000E-03 0.  1.
         11    1    1    0    0    0  0.26316227152E+02 -0.47090670580E+02 -0.27791410250E+02  0.60683091147E+02  0.51100000000E-03 0.  1.
         22    1    1    0    0    0 -0.27104535551E+02  0.48500487369E+02  0.28623362310E+02  0.62499999939E+02  0.00000000000E+00 0.  1.
</event>
<event>
 4    1  0.1977762E-002  0.9118800E+02  0.7818608E-02  0.1130116E+00
         25   -1    0    0    0    0  0.00000000000E+00  0.00000000000E+00  0.99999998245E-14  0.12500000000E+03  0.12500000000E+03 0.  0.
        -11    1    1    0    0    0 -0.20563950721E+02 -0.57061084551E+01  0.62062402564E+01  0.22225057061E+02  0.51100000000E-03 0.  1.
         11    1    1    0    0    0 -0.37249743645E+02 -0.10278570364E+02  0.11352591500E+02  0.40274976652E+02  0.51100000000E-03 0. -1.
         22    1    1    0    0    0  0.57813694366E+02  0.15984678819E+02 -0.17558831756E+02  0.62499966287E+02  0.00000000000E+00 0.  1.
</event>
<event>
 4    1  0.1977762E-002  0.9118800E+02  0.7818608E-02  0.1130116E+00
         25   -1    0    0    0    0  0.00000000000E+00  0.00000000000E+00  0.99999998245E-14  0.12500000000E+03  0.12500000000E+03 0.  0.
        -11    1    1    0    0    0  0.77865967946E+01 -0.33805921060E+01 -0.89183706350E+00  0.85355062086E+01  0.51100000000E-03 0. -1.
         11    1    1    0    0    0  0.49227148275E+02 -0.21379153470E+02 -0.56379307545E+01  0.53964493826E+02  0.51100000000E-03 0. -1.
         22    1    1    0    0    0 -0.57013745070E+02  0.24759745576E+02  0.65297678179E+01  0.62499999965E+02  0.00000000000E+00 0. -1.
</event>
<event>
 4    1  0.1977762E-002  0.9118800E+02  0.7818608E-02  0.1130116E+00
         25   -1    0    0    0    0  0.00000000000E+00  0.00000000000E+00  0.99999998245E-14  0.12500000000E+03  0.12500000000E+03 0.  0.
        -11    1    1    0    0    0 -0.25133991520E+01 -0.32789134606E+02  0.47608156409E+02  0.57861741077E+02  0.51100000000E-03 0. -1.
         11    1    1    0    0    0 -0.14406848752E+00 -0.26340107958E+01  0.38152611606E+01  0.46384250113E+01  0.51100000000E-03 0.  1.
         22    1    1    0    0    0  0.26574676395E+01  0.35423145402E+02 -0.51423417570E+02  0.62499833912E+02  0.00000000000E+00 0. -1.
</event>
<event>
 4    1  0.1977762E-002  0.9118800E+02  0.7818608E-02  0.1130116E+00
         25   -1    0    0    0    0  0.00000000000E+00  0.00000000000E+00  0.99999998245E-14  0.12500000000E+03  0.12500000000E+03 0.  0.
        -11    1    1    0    0    0 -0.82193248159E+00  0.27756351036E+01  0.71593190947E-01  0.28956603873E+01  0.51100000000E-03 0.  1.
         11    1    1    0    0    0 -0.17113282723E+02  0.57082876894E+02  0.11666806263E+01  0.59604365813E+02  0.51100000000E-03 0. -1.
         22    1    1    0    0    0  0.17935215205E+02 -0.59858511997E+02 -0.12382738172E+01  0.62499973800E+02  0.00000000000E+00 0. -1.
</event>
<event>
 4    1  0.1977762E-002  0.9118800E+02  0.7818608E-02  0.1130116E+00
         25   -1    0    0    0    0  0.00000000000E+00  0.00000000000E+00  0.99999998245E-14  0.12500000000E+03  0.12500000000E+03 0.  0.
        -11    1    1    0    0    0 -0.28263967666E+00  0.27866934376E+01 -0.19921977252E+01  0.34372078114E+01  0.51100000000E-03 0.  1.
         11    1    1    0    0    0 -0.26015417514E+01  0.22658770224E+01  0.61587568697E+02  0.61684121428E+02  0.51100000000E-03 0. -1.
         22    1    1    0    0    0  0.28841814281E+01 -0.50525704600E+01 -0.59595370972E+02  0.59878670760E+02  0.00000000000E+00 0. -1.
</event>
<event>
 4    1  0.1977762E-002  0.9118800E+02  0.7818608E-02  0.1130116E+00
         25   -1    0    0    0    0  0.00000000000E+00  0.00000000000E+00  0.99999998245E-14  0.12500000000E+03  0.12500000000E+03 0.  0.
        -11    1    1    0    0    0 -0.13304872115E+02 -0.89242524634E+01 -0.77666969968E+00  0.16039486279E+02  0.51100000000E-03 0. -1.
         11    1    1    0    0    0 -0.33095391922E+02 -0.31679928768E+02 -0.85389221183E+01  0.46602961756E+02  0.51100000000E-03 0.  1.
         22    1    1    0    0    0  0.46400264036E+02  0.40604181232E+02  0.93155918180E+01  0.62357551965E+02  0.00000000000E+00 0.  1.
</event>
<event>
 4    1  0.1977762E-002  0.9118800E+02  0.7818608E-02  0.1130116E+00
         25   -1    0    0    0    0  0.00000000000E+00  0.00000000000E+00  0.99999998245E-14  0.12500000000E+03  0.12500000000E+03 0.  0.
        -11    1    1    0    0    0 -0.26462755903E+02  0.12405352858E+02 -0.31854576465E+02  0.43230594161E+02  0.51100000000E-03 0.  1.
         11    1    1    0    0    0 -0.99660063168E+01 -0.32966844539E+01 -0.17104310416E+02  0.20068553644E+02  0.51100000000E-03 0. -1.
         22    1    1    0    0    0  0.36428762220E+02 -0.91086684041E+01  0.48958886880E+02  0.61700852195E+02  0.00000000000E+00 0.  1.
</event>
<event>
 4    1  0.1977762E-002  0.9118800E+02  0.7818608E-02  0.1130116E+00
         25   -1    0    0    0    0  0.00000000000E+00  0.00000000000E+00  0.99999998245E-14  0.12500000000E+03  0.12500000000E+03 0.  0.
        -11    1    1    0    0    0  0.36951434444E+01 -0.23461854114E+01  0.23123286424E+01  0.49503065634E+01  0.51100000000E-03 0.  1.
         11    1    1    0    0    0 -0.46583775391E+02 -0.32448517306E+02 -0.22752587341E+02  0.61160727890E+02  0.51100000000E-03 0. -1.
         22    1    1    0    0    0  0.42888631947E+02  0.34794702718E+02  0.20440258698E+02  0.58888965547E+02  0.00000000000E+00 0. -1.
</event>
<event>
 4    1  0.1977762E-002  0.9118800E+02  0.7818608E-02  0.1130116E+00
         25   -1    0    0    0    0  0.00000000000E+00  0.00000000000E+00  0.99999998245E-14  0.12500000000E+03  0.12500000000E+03 0.  0.
        -11    1    1    0    0    0 -0.22326025693E+01  0.31175635343E+00  0.29321493443E+00  0.22732535088E+01  0.51100000000E-03 0. -1.
         11    1    1    0    0    0 -0.59149662925E+02  0.82568493132E+01  0.77719245939E+01  0.60226746524E+02  0.51100000000E-03 0. -1.
         22    1    1    0    0    0  0.61382265494E+02 -0.85686056667E+01 -0.80651395283E+01  0.62499999967E+02  0.00000000000E+00 0. -1.
</event>
<event>
 4    1  0.1977762E-002  0.9118800E+02  0.7818608E-02  0.1130116E+00
         25   -1    0    0    0    0  0.00000000000E+00  0.00000000000E+00  0.99999998245E-14  0.12500000000E+03  0.12500000000E+03 0.  0.
        -11    1    1    0    0    0 -0.35754502152E+00  0.22671748710E+02 -0.19318127219E+02  0.29788018858E+02  0.51100000000E-03 0.  1.
         11    1    1    0    0    0 -0.40637693931E+00  0.24848713597E+02 -0.21270904234E+02  0.32712002031E+02  0.51100000000E-03 0. -1.
         22    1    1    0    0    0  0.76392196083E+00 -0.47520462307E+02  0.40589031453E+02  0.62499979111E+02  0.00000000000E+00 0.  1.
</event>
<event>
 4    1  0.1977762E-002  0.9118800E+02  0.7818608E-02  0.1130116E+00
         25   -1    0    0    0    0  0.00000000000E+00  0.00000000000E+00  0.99999998245E-14  0.12500000000E+03  0.12500000000E+03 0.  0.
        -11    1    1    0    0    0 -0.31569543714E+02  0.25308918973E+02 -0.21908625146E+02  0.46012664844E+02  0.51100000000E-03 0. -1.
         11    1    1    0    0    0 -0.11482066523E+02 -0.30478450878E+01 -0.14225439025E+02  0.18533492035E+02  0.51100000000E-03 0.  1.
         22    1    1    0    0    0  0.43051610237E+02 -0.22261073886E+02  0.36134064171E+02  0.60453843121E+02  0.00000000000E+00 0. -1.
</event>
<event>
 4    1  0.1977762E-002  0.9118800E+02  0.7818608E-02  0.1130116E+00
         25   -1    0    0    0    0  0.00000000000E+00  0.00000000000E+00  0.99999998245E-14  0.12500000000E+03  0.12500000000E+03 0.  0.
        -11    1    1    0    0    0  0.44316461323E+01 -0.19904937604E+02  0.12211649343E+02  0.23769106176E+02  0.51100000000E-03 0.  1.
         11    1    1    0    0    0  0.72203593350E+01 -0.32434386147E+02  0.19898722145E+02  0.38730893831E+02  0.51100000000E-03 0.  1.
         22    1    1    0    0    0 -0.11652005467E+02  0.52339323751E+02 -0.32110371488E+02  0.62499999994E+02  0.00000000000E+00 0.  1.
</event>
<event>
 4    1  0.1977762E-002  0.9118800E+02  0.7818608E-02  0.1130116E+00
         25   -1    0    0    0    0  0.00000000000E+00  0.00000000000E+00  0.99999998245E-14  0.12500000000E+03  0.12500000000E+03 0.  0.
        -11    1    1    0    0    0 -0.66850168427E+01  0.29025906850E+02  0.49376766940E+02  0.57665048621E+02  0.51100000000E-03 0. -1.
         11    1    1    0    0    0 -0.63084387482E+00  0.23562115310E+01  0.41752463580E+01  0.48355329783E+01  0.51100000000E-03 0.  1.
         22    1    1    0    0    0  0.73158607175E+01 -0.31382118381E+02 -0.53552013298E+02  0.62499418401E+02  0.00000000000E+00 0. -1.
</event>
<event>
 4    1  0.1977762E-002  0.9118800E+02  0.7818608E-02  0.1130116E+00
         25   -1    0    0    0    0  0.00000000000E+00  0.00000000000E+00  0.99999998245E-14  0.12500000000E+03  0.12500000000E+03 0.  0.
        -11    1    1    0    0    0 -0.19402902855E+02 -0.45745781976E+01  0.16408751863E+02  0.25819499275E+02  0.51100000000E-03 0. -1.
         11    1    1    0    0    0 -0.27567015678E+02 -0.64984194113E+01  0.23308567688E+02  0.36680500762E+02  0.51100000000E-03 0. -1.
         22    1    1    0    0    0  0.46969918533E+02  0.11072997609E+02 -0.39717319551E+02  0.62499999962E+02  0.00000000000E+00 0. -1.
</event>
<event>
 4    1  0.1977762E-002  0.9118800E+02  0.7818608E-02  0.1130116E+00
         25   -1    0    0    0    0  0.00000000000E+00  0.00000000000E+00  0.99999998245E-14  0.12500000000E+03  0.12500000000E+03 0.  0.
        -11    1    1    0    0    0  0.46315956251E+00  0.10994132328E+01 -0.85484878146E+00  0.14676487785E+01  0.51100000000E-03 0. -1.
         11    1    1    0    0    0  0.21187734233E+02  0.42644017299E+02 -0.38180512846E+02  0.61034284257E+02  0.51100000000E-03 0.  1.
         22    1    1    0    0    0 -0.21650893796E+02 -0.43743430532E+02  0.39035361628E+02  0.62498066964E+02  0.00000000000E+00 0.  1.
</event>
<event>
 4    1  0.1977762E-002  0.9118800E+02  0.7818608E-02  0.1130116E+00
         25   -1    0    0    0    0  0.00000000000E+00  0.00000000000E+00  0.99999998245E-14  0.12500000000E+03  0.12500000000E+03 0.  0.
        -11    1    1    0    0    0 -0.17866521583E+02  0.16380164752E+01  0.45338949484E+02  0.48759778835E+02  0.51100000000E-03 0.  1.
         11    1    1    0    0    0 -0.52464220110E+01 -0.17919197492E+01  0.12651697956E+02  0.13813087335E+02  0.51100000000E-03 0. -1.
         22    1    1    0    0    0  0.23112943594E+02  0.15390327403E+00 -0.57990647440E+02  0.62427133830E+02  0.00000000000E+00 0.  1.
</event>
<event>
 4    1  0.1977762E-002  0.9118800E+02  0.7818608E-02  0.1130116E+00
         25   -1    0    0    0    0  0.00000000000E+00  0.00000000000E+00  0.99999998245E-14  0.12500000000E+03  0.12500000000E+03 0.  0.
        -11    1    1    0    0    0 -0.21060579454E+02 -0.38622148990E+02  0.28309511946E+02  0.52312970346E+02  0.51100000000E-03 0. -1.
         11    1    1    0    0    0 -0.40969083562E+01 -0.75299387717E+01  0.55037271516E+01  0.10187033366E+02  0.51100000000E-03 0.  1.
         22    1    1    0    0    0  0.25157487810E+02  0.46152087762E+02 -0.33813239097E+02  0.62499996288E+02  0.00000000000E+00 0. -1.
</event>
<event>
 4    1  0.1977762E-002  0.9118800E+02  0.7818608E-02  0.1130116E+00
         25   -1    0    0    0    0  0.00000000000E+00  0.00000000000E+00  0.99999998245E-14  0.12500000000E+03  0.12500000000E+03 0.  0.
        -11    1    1    0    0    0 -0.11413796167E+02 -0.47067951914E+01  0.50232719300E+02  0.51727698117E+02  0.51100000000E-03 0. -1.
         11    1    1    0    0    0 -0.24008662755E+01 -0.98618578450E+00  0.10454952585E+02  0.10772314286E+02  0.51100000000E-03 0.  1.
         22    1    1    0    0    0  0.13814662442E+02  0.56929809759E+01 -0.60687671885E+02  0.62499987597E+02  0.00000000000E+00 0. -1.
</event>
<event>
 4    1  0.1977762E-002  0.9118800E+02  0.7818608E-02  0.1130116E+00
         25   -1    0    0    0    0  0.00000000000E+00  0.00000000000E+00  0.99999998245E-14  0.12500000000E+03  0.12500000000E+03 0.  0.
        -11    1    1    0    0    0 -0.69043559990E+01 -0.73754148657E+01 -0.10266827492E+02  0.14403979423E+02  0.51100000000E-03 0.  1.
         11    1    1    0    0    0 -0.23050487059E+02 -0.24628473714E+02 -0.34283239734E+02  0.48096020605E+02  0.51100000000E-03 0. -1.
         22    1    1    0    0    0  0.29954843058E+02  0.32003888579E+02  0.44550067225E+02  0.62499999973E+02  0.00000000000E+00 0. -1.
</event>
<event>
 4    1  0.1977762E-002  0.9118800E+02  0.7818608E-02  0.1130116E+00
         25   -1    0    0    0    0  0.00000000000E+00  0.00000000000E+00  0.99999998245E-14  0.12500000000E+03  0.12500000000E+03 0.  0.
        -11    1    1    0    0    0 -0.14799314001E+01  0.48982440107E-01  0.20401220724E+01  0.25208519512E+01  0.51100000000E-03 0. -1.
         11    1    1    0    0    0 -0.34919904597E+02 -0.49455524338E+02 -0.68288637453E+01  0.60925216495E+02  0.51100000000E-03 0.  1.
         22    1    1    0    0    0  0.36399835997E+02  0.49406541898E+02  0.47887416729E+01  0.61553931554E+02  0.00000000000E+00 0.  1.
</event>
<event>
 4    1  0.1977762E-002  0.9118800E+02  0.7818608E-02  0.1130116E+00
         25   -1    0    0    0    0  0.00000000000E+00  0.00000000000E+00  0.99999998245E-14  0.12500000000E+03  0.12500000000E+03 0.  0.
        -11    1    1    0    0    0  0.30175339678E+02 -0.52309537273E+02 -0.10548576538E+02  0.61303436132E+02  0.51100000000E-03 0. -1.
         11    1    1    0    0    0  0.59349339135E+00 -0.10208290559E+01 -0.19370457433E+00  0.11965985501E+01  0.51100000000E-03 0.  1.
         22    1    1    0    0    0 -0.30768833070E+02  0.53330366329E+02  0.10742281112E+02  0.62499965318E+02  0.00000000000E+00 0. -1.
</event>
<event>
 4    1  0.1977762E-002  0.9118800E+02  0.7818608E-02  0.1130116E+00
         25   -1    0    0    0    0  0.00000000000E+00  0.00000000000E+00  0.99999998245E-14  0.12500000000E+03  0.12500000000E+03 0.  0.
        -11    1    1    0    0    0  0.23373935626E+02  0.49126718651E+01 -0.15193493159E+02  0.28307551045E+02  0.51100000000E-03 0. -1.
         11    1    1    0    0    0  0.27709746929E+02  0.55394663852E+01 -0.19258535159E+02  0.34196592512E+02  0.51100000000E-03 0.  1.
         22    1    1    0    0    0 -0.51083682555E+02 -0.10452138250E+02  0.34452028318E+02  0.62495856443E+02  0.00000000000E+00 0.  1.
</event>
<event>
 4    1  0.1977762E-002  0.9118800E+02  0.7818608E-02  0.1130116E+00
         25   -1    0    0    0    0  0.00000000000E+00  0.00000000000E+00  0.99999998245E-14  0.12500000000E+03  0.12500000000E+03 0.  0.
        -11    1    1    0    0    0  0.11057338817E+02 -0.46562723322E+02  0.34277840159E+02  0.58866987956E+02  0.51100000000E-03 0. -1.
         11    1    1    0    0    0  0.72391471314E+00 -0.28434977732E+01  0.21426223689E+01  0.36332303773E+01  0.51100000000E-03 0.  1.
         22    1    1    0    0    0 -0.11781253531E+02  0.49406221095E+02 -0.36420462527E+02  0.62499781666E+02  0.00000000000E+00 0. -1.
</event>
<event>
 4    1  0.1977762E-002  0.9118800E+02  0.7818608E-02  0.1130116E+00
         25   -1    0    0    0    0  0.00000000000E+00  0.00000000000E+00  0.99999998245E-14  0.12500000000E+03  0.12500000000E+03 0.  0.
        -11    1    1    0    0    0  0.12516419651E+02 -0.11889112769E+01  0.27166069756E+01  0.12862901097E+02  0.51100000000E-03 0.  1.
         11    1    1    0    0    0  0.48347476977E+02 -0.46773472378E+01  0.10222208410E+02  0.49637180140E+02  0.51100000000E-03 0. -1.
         22    1    1    0    0    0 -0.60863896628E+02  0.58662585147E+01 -0.12938815385E+02  0.62499918763E+02  0.00000000000E+00 0. -1.
</event>
<event>
 4    1  0.1977762E-002  0.9118800E+02  0.7818608E-02  0.1130116E+00
         25   -1    0    0    0    0  0.00000000000E+00  0.00000000000E+00  0.99999998245E-14  0.12500000000E+03  0.12500000000E+03 0.  0.
        -11    1    1    0    0    0 -0.70139470089E+01 -0.59821721372E+02 -0.16681234555E+02  0.62498779085E+02  0.51100000000E-03 0.  1.
         11    1    1    0    0    0  0.28633608734E-01  0.95784776224E-01  0.42846249976E-01  0.10876887957E+00  0.51100000000E-03 0. -1.
         22    1    1    0    0    0  0.69853134001E+01  0.59725936596E+02  0.16638388305E+02  0.62392452035E+02  0.00000000000E+00 0.  1.
</event>
<event>
 4    1  0.1977762E-002  0.9118800E+02  0.7818608E-02  0.1130116E+00
         25   -1    0    0    0    0  0.00000000000E+00  0.00000000000E+00  0.99999998245E-14  0.12500000000E+03  0.12500000000E+03 0.  0.
        -11    1    1    0    0    0 -0.16302385521E+02 -0.39488808596E+01 -0.50688017875E+01  0.17522961666E+02  0.51100000000E-03 0.  1.
         11    1    1    0    0    0 -0.44384624455E+02 -0.52077677441E+01 -0.60734008047E+01  0.45099910538E+02  0.51100000000E-03 0. -1.
         22    1    1    0    0    0  0.60687009976E+02  0.91566486037E+01  0.11142202592E+02  0.62377127796E+02  0.00000000000E+00 0. -1.
</event>
<event>
 4    1  0.1977762E-002  0.9118800E+02  0.7818608E-02  0.1130116E+00
         25   -1    0    0    0    0  0.00000000000E+00  0.00000000000E+00  0.99999998245E-14  0.12500000000E+03  0.12500000000E+03 0.  0.
        -11    1    1    0    0    0  0.49783904550E+00  0.49478583207E+01 -0.28984410694E+02  0.29407910657E+02  0.51100000000E-03 0.  1.
         11    1    1    0    0    0  0.69778918356E+01  0.12355125530E+02 -0.30259920557E+02  0.33421593225E+02  0.51100000000E-03 0. -1.
         22    1    1    0    0    0 -0.74757308811E+01 -0.17302983850E+02  0.59244331250E+02  0.62170496119E+02  0.00000000000E+00 0.  1.
</event>
<event>
 4    1  0.1977762E-002  0.9118800E+02  0.7818608E-02  0.1130116E+00
         25   -1    0    0    0    0  0.00000000000E+00  0.00000000000E+00  0.99999998245E-14  0.12500000000E+03  0.12500000000E+03 0.  0.
        -11    1    1    0    0    0  0.11764266736E+01 -0.16551310028E+01  0.33482619328E+01  0.39159030359E+01  0.51100000000E-03 0. -1.
         11    1    1    0    0    0  0.17603166386E+02 -0.24779495502E+02  0.50081948525E+02  0.58584097096E+02  0.51100000000E-03 0.  1.
         22    1    1    0    0    0 -0.18779593060E+02  0.26434626505E+02 -0.53430210458E+02  0.62499999868E+02  0.00000000000E+00 0.  1.
</event>
<event>
 4    1  0.1977762E-002  0.9118800E+02  0.7818608E-02  0.1130116E+00
         25   -1    0    0    0    0  0.00000000000E+00  0.00000000000E+00  0.99999998245E-14  0.12500000000E+03  0.12500000000E+03 0.  0.
        -11    1    1    0    0    0  0.90425966236E+01 -0.14353529700E+02  0.23546351808E+01  0.17127074346E+02  0.51100000000E-03 0. -1.
         11    1    1    0    0    0  0.23960342100E+02 -0.38022477070E+02  0.62366361889E+01  0.45372925708E+02  0.51100000000E-03 0.  1.
         22    1    1    0    0    0 -0.33002938724E+02  0.52376006770E+02 -0.85912713698E+01  0.62499999946E+02  0.00000000000E+00 0.  1.
</event>
<event>
 4    1  0.1977762E-002  0.9118800E+02  0.7818608E-02  0.1130116E+00
         25   -1    0    0    0    0  0.00000000000E+00  0.00000000000E+00  0.99999998245E-14  0.12500000000E+03  0.12500000000E+03 0.  0.
        -11    1    1    0    0    0  0.16477225210E+01  0.69879491220E+01  0.46696988243E+01  0.85646079775E+01  0.51100000000E-03 0. -1.
         11    1    1    0    0    0  0.10382427487E+02  0.44010988204E+02  0.29398378177E+02  0.53935392118E+02  0.51100000000E-03 0.  1.
         22    1    1    0    0    0 -0.12030150008E+02 -0.50998937326E+02 -0.34068077001E+02  0.62499999905E+02  0.00000000000E+00 0.  1.
</event>
<event>
 4    1  0.1977762E-002  0.9118800E+02  0.7818608E-02  0.1130116E+00
         25   -1    0    0    0    0  0.00000000000E+00  0.00000000000E+00  0.99999998245E-14  0.12500000000E+03  0.12500000000E+03 0.  0.
        -11    1    1    0    0    0  0.57716437938E+01  0.14761557406E+02 -0.12611400556E+02  0.20254946886E+02  0.51100000000E-03 0.  1.
         11    1    1    0    0    0  0.18049063798E+02  0.37531681085E+02 -0.10270313832E+02  0.42893765695E+02  0.51100000000E-03 0. -1.
         22    1    1    0    0    0 -0.23820707592E+02 -0.52293238491E+02  0.22881714388E+02  0.61851287419E+02  0.00000000000E+00 0.  1.
</event>
<event>
 4    1  0.1977762E-002  0.9118800E+02  0.7818608E-02  0.1130116E+00
         25   -1    0    0    0    0  0.00000000000E+00  0.00000000000E+00  0.99999998245E-14  0.12500000000E+03  0.12500000000E+03 0.  0.
        -11    1    1    0    0    0 -0.95651474028E+01 -0.28150302746E+01  0.18956205182E+01  0.10149375237E+02  0.51100000000E-03 0. -1.
         11    1    1    0    0    0 -0.49222600637E+02 -0.14655727446E+02  0.10146267733E+02  0.52350754623E+02  0.51100000000E-03 0.  1.
         22    1    1    0    0    0  0.58787748040E+02  0.17470757721E+02 -0.12041888251E+02  0.62499870140E+02  0.00000000000E+00 0.  1.
</event>
<event>
 4    1  0.1977762E-002  0.9118800E+02  0.7818608E-02  0.1130116E+00
         25   -1    0    0    0    0  0.00000000000E+00  0.00000000000E+00  0.99999998245E-14  0.12500000000E+03  0.12500000000E+03 0.  0.
        -11    1    1    0    0    0 -0.46408229687E+02  0.10803623468E+02 -0.99461296356E+00  0.47659535436E+02  0.51100000000E-03 0.  1.
         11    1    1    0    0    0 -0.14452527858E+02  0.33390613126E+01 -0.47442749335E+00  0.14840821192E+02  0.51100000000E-03 0. -1.
         22    1    1    0    0    0  0.60860757546E+02 -0.14142684780E+02  0.14690404569E+01  0.62499643372E+02  0.00000000000E+00 0.  1.
</event>
<event>
 4    1  0.1977762E-002  0.9118800E+02  0.7818608E-02  0.1130116E+00
         25   -1    0    0    0    0  0.00000000000E+00  0.00000000000E+00  0.99999998245E-14  0.12500000000E+03  0.12500000000E+03 0.  0.
        -11    1    1    0    0    0 -0.18878258540E+02 -0.49576905047E+02  0.21617626996E+02  0.57285076213E+02  0.51100000000E-03 0. -1.
         11    1    1    0    0    0 -0.21944417825E+01 -0.42526182741E+01  0.21068792630E+01  0.52286974872E+01  0.51100000000E-03 0.  1.
         22    1    1    0    0    0  0.21072700323E+02  0.53829523321E+02 -0.23724506259E+02  0.62486226299E+02  0.00000000000E+00 0. -1.
</event>
<event>
 4    1  0.1977762E-002  0.9118800E+02  0.7818608E-02  0.1130116E+00
         25   -1    0    0    0    0  0.00000000000E+00  0.00000000000E+00  0.99999998245E-14  0.12500000000E+03  0.12500000000E+03 0.  0.
        -11    1    1    0    0    0 -0.68468246144E+01  0.46428534906E+01  0.10700568146E+02  0.13525429928E+02  0.51100000000E-03 0. -1.
         11    1    1    0    0    0 -0.24791608100E+02  0.16814775055E+02  0.38744651542E+02  0.48974570092E+02  0.51100000000E-03 0. -1.
         22    1    1    0    0    0  0.31638432715E+02 -0.21457628546E+02 -0.49445219688E+02  0.62499999980E+02  0.00000000000E+00 0. -1.
</event>
<event>
 4    1  0.1977762E-002  0.9118800E+02  0.7818608E-02  0.1130116E+00
         25   -1    0    0    0    0  0.00000000000E+00  0.00000000000E+00  0.99999998245E-14  0.12500000000E+03  0.12500000000E+03 0.  0.
        -11    1    1    0    0    0 -0.14499567979E+02 -0.14552644396E+01 -0.29164491652E+01  0.14861390990E+02  0.51100000000E-03 0.  1.
         11    1    1    0    0    0 -0.46465750589E+02 -0.35291467844E+01 -0.99048656990E+01  0.47640604736E+02  0.51100000000E-03 0. -1.
         22    1    1    0    0    0  0.60965318568E+02  0.49844112240E+01  0.12821314864E+02  0.62498004274E+02  0.00000000000E+00 0. -1.
</event>
<event>
 4    1  0.1977762E-002  0.9118800E+02  0.7818608E-02  0.1130116E+00
         25   -1    0    0    0    0  0.00000000000E+00  0.00000000000E+00  0.99999998245E-14  0.12500000000E+03  0.12500000000E+03 0.  0.
        -11    1    1    0    0    0 -0.37539032167E+02  0.31386198278E+02 -0.38438325532E+02  0.62223606842E+02  0.51100000000E-03 0. -1.
         11    1    1    0    0    0  0.15717738273E+00 -0.21260854363E+01  0.21075099984E+01  0.29977562720E+01  0.51100000000E-03 0.  1.
         22    1    1    0    0    0  0.37381854784E+02 -0.29260112842E+02  0.36330815534E+02  0.59778636886E+02  0.00000000000E+00 0. -1.
</event>
<event>
 4    1  0.1977762E-002  0.9118800E+02  0.7818608E-02  0.1130116E+00
         25   -1    0    0    0    0  0.00000000000E+00  0.00000000000E+00  0.99999998245E-14  0.12500000000E+03  0.12500000000E+03 0.  0.
        -11    1    1    0    0    0  0.12440898443E+02  0.29925157553E+02  0.48824952980E+02  0.58601766546E+02  0.51100000000E-03 0. -1.
         11    1    1    0    0    0  0.82891724904E+00  0.19903955690E+01  0.32476832506E+01  0.38982335852E+01  0.51100000000E-03 0.  1.
         22    1    1    0    0    0 -0.13269815692E+02 -0.31915553122E+02 -0.52072636230E+02  0.62499999868E+02  0.00000000000E+00 0. -1.
</event>
<event>
 4    1  0.1977762E-002  0.9118800E+02  0.7818608E-02  0.1130116E+00
         25   -1    0    0    0    0  0.00000000000E+00  0.00000000000E+00  0.99999998245E-14  0.12500000000E+03  0.12500000000E+03 0.  0.
        -11    1    1    0    0    0 -0.56296428141E+01  0.85799222337E+01  0.44583712692E+01  0.11188611102E+02  0.51100000000E-03 0.  1.
         11    1    1    0    0    0 -0.25838466126E+02  0.39357355703E+02  0.20401741968E+02  0.51311391087E+02  0.51100000000E-03 0. -1.
         22    1    1    0    0    0  0.31468108940E+02 -0.47937277937E+02 -0.24860113237E+02  0.62499997811E+02  0.00000000000E+00 0. -1.
</event>
<event>
 4    1  0.1977762E-002  0.9118800E+02  0.7818608E-02  0.1130116E+00
         25   -1    0    0    0    0  0.00000000000E+00  0.00000000000E+00  0.99999998245E-14  0.12500000000E+03  0.12500000000E+03 0.  0.
        -11    1    1    0    0    0 -0.43764119476E+00  0.20670446102E+00 -0.17121734158E+00  0.51339282108E+00  0.51100000000E-03 0. -1.
         11    1    1    0    0    0 -0.45529332951E+02  0.23908703411E+02 -0.34623933277E+02  0.61994862800E+02  0.51100000000E-03 0.  1.
         22    1    1    0    0    0  0.45966974146E+02 -0.24115407872E+02  0.34795150619E+02  0.62491744379E+02  0.00000000000E+00 0.  1.
</event>
<event>
 4    1  0.1977762E-002  0.9118800E+02  0.7818608E-02  0.1130116E+00
         25   -1    0    0    0    0  0.00000000000E+00  0.00000000000E+00  0.99999998245E-14  0.12500000000E+03  0.12500000000E+03 0.  0.
        -11    1    1    0    0    0 -0.96765392555E+01  0.75872756464E+01 -0.26860746959E+02  0.29541528247E+02  0.51100000000E-03 0.  1.
         11    1    1    0    0    0 -0.10986414900E+02  0.84689633386E+01 -0.29897256901E+02  0.32958619857E+02  0.51100000000E-03 0. -1.
         22    1    1    0    0    0  0.20662954156E+02 -0.16056238985E+02  0.56758003861E+02  0.62499851896E+02  0.00000000000E+00 0. -1.
</event>
<event>
 4    1  0.1977762E-002  0.9118800E+02  0.7818608E-02  0.1130116E+00
         25   -1    0    0    0    0  0.00000000000E+00  0.00000000000E+00  0.99999998245E-14  0.12500000000E+03  0.12500000000E+03 0.  0.
        -11    1    1    0    0    0  0.43388833103E+01  0.55653137219E+02  0.11549500968E+02  0.57004285484E+02  0.51100000000E-03 0. -1.
         11    1    1    0    0    0  0.41768901081E+00  0.53654669128E+01  0.11136331576E+01  0.54957145462E+01  0.51100000000E-03 0.  1.
         22    1    1    0    0    0 -0.47565723211E+01 -0.61018604131E+02 -0.12663134125E+02  0.62499999970E+02  0.00000000000E+00 0.  1.
</event>
<event>
 4    1  0.1977762E-002  0.9118800E+02  0.7818608E-02  0.1130116E+00
         25   -1    0    0    0    0  0.00000000000E+00  0.00000000000E+00  0.99999998245E-14  0.12500000000E+03  0.12500000000E+03 0.  0.
        -11    1    1    0    0    0  0.37294887176E+02  0.13782592712E+02  0.51969569193E+01  0.40098339527E+02  0.51100000000E-03 0.  1.
         11    1    1    0    0    0  0.20897589496E+02  0.73741615273E+01  0.32909497910E+01  0.22403523289E+02  0.51100000000E-03 0. -1.
         22    1    1    0    0    0 -0.58192476672E+02 -0.21156754239E+02 -0.84879067103E+01  0.62498137184E+02  0.00000000000E+00 0.  1.
</event>
<event>
 4    1  0.1977762E-002  0.9118800E+02  0.7818608E-02  0.1130116E+00
         25   -1    0    0    0    0  0.00000000000E+00  0.00000000000E+00  0.99999998245E-14  0.12500000000E+03  0.12500000000E+03 0.  0.
        -11    1    1    0    0    0 -0.93026305126E+01 -0.19206230981E+01  0.21944379455E+02  0.23911995264E+02  0.51100000000E-03 0.  1.
         11    1    1    0    0    0 -0.14994535603E+02 -0.30753740434E+01  0.35422313212E+02  0.38588007166E+02  0.51100000000E-03 0. -1.
         22    1    1    0    0    0  0.24297166116E+02  0.49959971415E+01 -0.57366692668E+02  0.62499997571E+02  0.00000000000E+00 0.  1.
</event>
<event>
 4    1  0.1977762E-002  0.9118800E+02  0.7818608E-02  0.1130116E+00
         25   -1    0    0    0    0  0.00000000000E+00  0.00000000000E+00  0.99999998245E-14  0.12500000000E+03  0.12500000000E+03 0.  0.
        -11    1    1    0    0    0 -0.18620639859E+02  0.34124202534E+02  0.33556537358E+02  0.51353973820E+02  0.51100000000E-03 0. -1.
         11    1    1    0    0    0 -0.39602921477E+01  0.74497188996E+01  0.72838967826E+01  0.11146182224E+02  0.51100000000E-03 0.  1.
         22    1    1    0    0    0  0.22580932007E+02 -0.41573921434E+02 -0.40840434141E+02  0.62499843956E+02  0.00000000000E+00 0. -1.
</event>
<event>
 4    1  0.1977762E-002  0.9118800E+02  0.7818608E-02  0.1130116E+00
         25   -1    0    0    0    0  0.00000000000E+00  0.00000000000E+00  0.99999998245E-14  0.12500000000E+03  0.12500000000E+03 0.  0.
        -11    1    1    0    0    0 -0.35935936209E+02 -0.11344224419E+01  0.34446656534E+02  0.49792073387E+02  0.51100000000E-03 0. -1.
         11    1    1    0    0    0 -0.89529295266E+01 -0.60265043384E+00  0.90027297921E+01  0.12710911794E+02  0.51100000000E-03 0.  1.
         22    1    1    0    0    0  0.44888865736E+02  0.17370728757E+01 -0.43449386326E+02  0.62497014820E+02  0.00000000000E+00 0. -1.
</event>
<event>
 4    1  0.1977762E-002  0.9118800E+02  0.7818608E-02  0.1130116E+00
         25   -1    0    0    0    0  0.00000000000E+00  0.00000000000E+00  0.99999998245E-14  0.12500000000E+03  0.12500000000E+03 0.  0.
        -11    1    1    0    0    0  0.25638582249E+01 -0.11590417159E+02 -0.10377142596E+01  0.11915871352E+02  0.51100000000E-03 0.  1.
         11    1    1    0    0    0  0.10857655743E+02 -0.49212392190E+02 -0.43595998901E+01  0.50584131353E+02  0.51100000000E-03 0. -1.
         22    1    1    0    0    0 -0.13421513968E+02  0.60802809349E+02  0.53973141496E+01  0.62499997296E+02  0.00000000000E+00 0. -1.
</event>
<event>
 4    1  0.1977762E-002  0.9118800E+02  0.7818608E-02  0.1130116E+00
         25   -1    0    0    0    0  0.00000000000E+00  0.00000000000E+00  0.99999998245E-14  0.12500000000E+03  0.12500000000E+03 0.  0.
        -11    1    1    0    0    0  0.11945642109E+02 -0.23420637319E+02  0.94421310425E+01  0.27935254727E+02  0.51100000000E-03 0. -1.
         11    1    1    0    0    0  0.80553227115E+01 -0.28915528713E+02  0.17659871162E+02  0.34826241176E+02  0.51100000000E-03 0.  1.
         22    1    1    0    0    0 -0.20000964820E+02  0.52336166032E+02 -0.27102002205E+02  0.62238504096E+02  0.00000000000E+00 0. -1.
</event>
<event>
 4    1  0.1977762E-002  0.9118800E+02  0.7818608E-02  0.1130116E+00
         25   -1    0    0    0    0  0.00000000000E+00  0.00000000000E+00  0.99999998245E-14  0.12500000000E+03  0.12500000000E+03 0.  0.
        -11    1    1    0    0    0  0.41362392488E+01 -0.12162668946E+02  0.44978703705E+01  0.13611386011E+02  0.51100000000E-03 0. -1.
         11    1    1    0    0    0  0.14856697648E+02 -0.43682867772E+02  0.16161131790E+02  0.48888614040E+02  0.51100000000E-03 0.  1.
         22    1    1    0    0    0 -0.18992936897E+02  0.55845536718E+02 -0.20659002160E+02  0.62499999948E+02  0.00000000000E+00 0. -1.
</event>
<event>
 4    1  0.1977762E-002  0.9118800E+02  0.7818608E-02  0.1130116E+00
         25   -1    0    0    0    0  0.00000000000E+00  0.00000000000E+00  0.99999998245E-14  0.12500000000E+03  0.12500000000E+03 0.  0.
        -11    1    1    0    0    0 -0.55607759238E+01 -0.19729565315E+02  0.32122062672E+02  0.38105181891E+02  0.51100000000E-03 0.  1.
         11    1    1    0    0    0 -0.35655197675E+01 -0.12627389818E+02  0.20565584333E+02  0.24394818385E+02  0.51100000000E-03 0. -1.
         22    1    1    0    0    0  0.91262956913E+01  0.32356955133E+02 -0.52687647005E+02  0.62499999724E+02  0.00000000000E+00 0.  1.
</event>
<event>
 4    1  0.1977762E-002  0.9118800E+02  0.7818608E-02  0.1130116E+00
         25   -1    0    0    0    0  0.00000000000E+00  0.00000000000E+00  0.99999998245E-14  0.12500000000E+03  0.12500000000E+03 0.  0.
        -11    1    1    0    0    0  0.17313324384E+02 -0.16562264259E+02  0.19061895249E+02  0.30617244314E+02  0.51100000000E-03 0.  1.
         11    1    1    0    0    0  0.16922432597E+02 -0.18348687936E+02  0.19851054591E+02  0.31892121952E+02  0.51100000000E-03 0. -1.
         22    1    1    0    0    0 -0.34235756981E+02  0.34910952195E+02 -0.38912949840E+02  0.62490633734E+02  0.00000000000E+00 0. -1.
</event>
<event>
 4    1  0.1977762E-002  0.9118800E+02  0.7818608E-02  0.1130116E+00
         25   -1    0    0    0    0  0.00000000000E+00  0.00000000000E+00  0.99999998245E-14  0.12500000000E+03  0.12500000000E+03 0.  0.
        -11    1    1    0    0    0 -0.17940720030E+02 -0.80461150058E+01  0.36222260211E+02  0.41214821811E+02  0.51100000000E-03 0. -1.
         11    1    1    0    0    0 -0.89524412791E+01 -0.42649930759E+01  0.18835183273E+02  0.21286157473E+02  0.51100000000E-03 0.  1.
         22    1    1    0    0    0  0.26893161309E+02  0.12311108082E+02 -0.55057443484E+02  0.62499020715E+02  0.00000000000E+00 0.  1.
</event>
<event>
 4    1  0.1977762E-002  0.9118800E+02  0.7818608E-02  0.1130116E+00
         25   -1    0    0    0    0  0.00000000000E+00  0.00000000000E+00  0.99999998245E-14  0.12500000000E+03  0.12500000000E+03 0.  0.
        -11    1    1    0    0    0  0.26285624411E+02 -0.18216879754E+02 -0.45633891920E+02  0.55724687982E+02  0.51100000000E-03 0.  1.
         11    1    1    0    0    0  0.43805442840E+01 -0.34344809467E+01 -0.41365929535E+01  0.69351444918E+01  0.51100000000E-03 0. -1.
         22    1    1    0    0    0 -0.30666168695E+02  0.21651360701E+02  0.49770484874E+02  0.62340167526E+02  0.00000000000E+00 0.  1.
</event>
<event>
 4    1  0.1977762E-002  0.9118800E+02  0.7818608E-02  0.1130116E+00
         25   -1    0    0    0    0  0.00000000000E+00  0.00000000000E+00  0.99999998245E-14  0.12500000000E+03  0.12500000000E+03 0.  0.
        -11    1    1    0    0    0 -0.27520752128E+02  0.11332248525E+02  0.92483879403E+01  0.31166397515E+02  0.51100000000E-03 0. -1.
         11    1    1    0    0    0 -0.27667894562E+02  0.11395147136E+02  0.92969284360E+01  0.31333602512E+02  0.51100000000E-03 0.  1.
         22    1    1    0    0    0  0.55188646691E+02 -0.22727395661E+02 -0.18545316376E+02  0.62499999973E+02  0.00000000000E+00 0.  1.
</event>
<event>
 4    1  0.1977762E-002  0.9118800E+02  0.7818608E-02  0.1130116E+00
         25   -1    0    0    0    0  0.00000000000E+00  0.00000000000E+00  0.99999998245E-14  0.12500000000E+03  0.12500000000E+03 0.  0.
        -11    1    1    0    0    0 -0.13444013495E+02  0.13134909916E+01 -0.20310877760E+01  0.13659870982E+02  0.51100000000E-03 0. -1.
         11    1    1    0    0    0 -0.34995143781E+02 -0.36931733585E+02  0.51232265251E+01  0.51135706547E+02  0.51100000000E-03 0.  1.
         22    1    1    0    0    0  0.48439157275E+02  0.35618242593E+02 -0.30921387491E+01  0.60204422471E+02  0.00000000000E+00 0.  1.
</event>
<event>
 4    1  0.1977762E-002  0.9118800E+02  0.7818608E-02  0.1130116E+00
         25   -1    0    0    0    0  0.00000000000E+00  0.00000000000E+00  0.99999998245E-14  0.12500000000E+03  0.12500000000E+03 0.  0.
        -11    1    1    0    0    0  0.30769473992E+02 -0.91482786430E+01  0.18031804463E+01  0.32151251793E+02  0.51100000000E-03 0.  1.
         11    1    1    0    0    0  0.29044236819E+02 -0.86351060635E+01  0.17069782622E+01  0.30348748313E+02  0.51100000000E-03 0. -1.
         22    1    1    0    0    0 -0.59813710811E+02  0.17783384707E+02 -0.35101587085E+01  0.62499999894E+02  0.00000000000E+00 0.  1.
</event>
<event>
 4    1  0.1977762E-002  0.9118800E+02  0.7818608E-02  0.1130116E+00
         25   -1    0    0    0    0  0.00000000000E+00  0.00000000000E+00  0.99999998245E-14  0.12500000000E+03  0.12500000000E+03 0.  0.
        -11    1    1    0    0    0  0.33835544823E+02  0.27893722495E+02  0.15814112824E+02  0.46615340960E+02  0.51100000000E-03 0.  1.
         11    1    1    0    0    0  0.11530568092E+02  0.95052439132E+01  0.53869037457E+01  0.15884659096E+02  0.51100000000E-03 0. -1.
         22    1    1    0    0    0 -0.45366112915E+02 -0.37398966409E+02 -0.21201016570E+02  0.62499999944E+02  0.00000000000E+00 0.  1.
</event>
<event>
 4    1  0.1977762E-002  0.9118800E+02  0.7818608E-02  0.1130116E+00
         25   -1    0    0    0    0  0.00000000000E+00  0.00000000000E+00  0.99999998245E-14  0.12500000000E+03  0.12500000000E+03 0.  0.
        -11    1    1    0    0    0  0.32865066413E+02 -0.26729471599E+02 -0.20145483866E+02  0.46908610752E+02  0.51100000000E-03 0. -1.
         11    1    1    0    0    0  0.10897630671E+02 -0.89053057694E+01 -0.67103719171E+01  0.15591405216E+02  0.51100000000E-03 0.  1.
         22    1    1    0    0    0 -0.43762697084E+02  0.35634777368E+02  0.26855855783E+02  0.62499984032E+02  0.00000000000E+00 0.  1.
</event>
<event>
 4    1  0.1977762E-002  0.9118800E+02  0.7818608E-02  0.1130116E+00
         25   -1    0    0    0    0  0.00000000000E+00  0.00000000000E+00  0.99999998245E-14  0.12500000000E+03  0.12500000000E+03 0.  0.
        -11    1    1    0    0    0  0.24510704035E+02  0.62064621130E-01  0.36657907310E+02  0.44097399389E+02  0.51100000000E-03 0. -1.
         11    1    1    0    0    0  0.10003045913E+02  0.55967072322E+00  0.15440440343E+02  0.18406014156E+02  0.51100000000E-03 0.  1.
         22    1    1    0    0    0 -0.34513749948E+02 -0.62173534435E+00 -0.52098347653E+02  0.62496586455E+02  0.00000000000E+00 0. -1.
</event>
<event>
 4    1  0.1977762E-002  0.9118800E+02  0.7818608E-02  0.1130116E+00
         25   -1    0    0    0    0  0.00000000000E+00  0.00000000000E+00  0.99999998245E-14  0.12500000000E+03  0.12500000000E+03 0.  0.
        -11    1    1    0    0    0 -0.87003646533E+00 -0.13054158067E+01 -0.30593688408E+01  0.34381407540E+01  0.51100000000E-03 0.  1.
         11    1    1    0    0    0  0.41208486969E+01  0.54023359590E+02 -0.27269101811E+02  0.60655656696E+02  0.51100000000E-03 0. -1.
         22    1    1    0    0    0 -0.32508122316E+01 -0.52717943783E+02  0.30328470652E+02  0.60906202550E+02  0.00000000000E+00 0. -1.
</event>
<event>
 4    1  0.1977762E-002  0.9118800E+02  0.7818608E-02  0.1130116E+00
         25   -1    0    0    0    0  0.00000000000E+00  0.00000000000E+00  0.99999998245E-14  0.12500000000E+03  0.12500000000E+03 0.  0.
        -11    1    1    0    0    0 -0.15632686696E+02  0.26238732412E+02 -0.36010476801E+01  0.30754178847E+02  0.51100000000E-03 0. -1.
         11    1    1    0    0    0 -0.16134607176E+02  0.27087100761E+02 -0.37095284177E+01  0.31745821422E+02  0.51100000000E-03 0.  1.
         22    1    1    0    0    0  0.31767293872E+02 -0.53325833173E+02  0.73105760978E+01  0.62499999731E+02  0.00000000000E+00 0. -1.
</event>
<event>
 4    1  0.1977762E-002  0.9118800E+02  0.7818608E-02  0.1130116E+00
         25   -1    0    0    0    0  0.00000000000E+00  0.00000000000E+00  0.99999998245E-14  0.12500000000E+03  0.12500000000E+03 0.  0.
        -11    1    1    0    0    0  0.29238435644E+02  0.29033560880E+02  0.34695494731E+02  0.53866604971E+02  0.51100000000E-03 0. -1.
         11    1    1    0    0    0  0.20019244179E+00  0.73878470399E+01  0.56635160361E+01  0.93110566023E+01  0.51100000000E-03 0.  1.
         22    1    1    0    0    0 -0.29438628086E+02 -0.36421407919E+02 -0.40359010767E+02  0.61822338426E+02  0.00000000000E+00 0. -1.
</event>
<event>
 4    1  0.1977762E-002  0.9118800E+02  0.7818608E-02  0.1130116E+00
         25   -1    0    0    0    0  0.00000000000E+00  0.00000000000E+00  0.99999998245E-14  0.12500000000E+03  0.12500000000E+03 0.  0.
        -11    1    1    0    0    0  0.30746055056E+01  0.25354981353E+02 -0.53117152304E+02  0.58938613383E+02  0.51100000000E-03 0.  1.
         11    1    1    0    0    0 -0.82150488260E+01  0.29778133230E+01  0.52308457920E+01  0.10184112497E+02  0.51100000000E-03 0. -1.
         22    1    1    0    0    0  0.51404433203E+01 -0.28332794676E+02  0.47886306512E+02  0.55877274119E+02  0.00000000000E+00 0.  1.
</event>
<event>
 4    1  0.1977762E-002  0.9118800E+02  0.7818608E-02  0.1130116E+00
         25   -1    0    0    0    0  0.00000000000E+00  0.00000000000E+00  0.99999998245E-14  0.12500000000E+03  0.12500000000E+03 0.  0.
        -11    1    1    0    0    0  0.37996396237E+01 -0.10661027562E+01  0.26873716604E+02  0.27161930725E+02  0.51100000000E-03 0. -1.
         11    1    1    0    0    0  0.60379250837E+01 -0.29196001748E+00  0.34824739124E+02  0.35345498091E+02  0.51100000000E-03 0.  1.
         22    1    1    0    0    0 -0.98375647075E+01  0.13580627736E+01 -0.61698455728E+02  0.62492571184E+02  0.00000000000E+00 0.  1.
</event>
<event>
 4    1  0.1977762E-002  0.9118800E+02  0.7818608E-02  0.1130116E+00
         25   -1    0    0    0    0  0.00000000000E+00  0.00000000000E+00  0.99999998245E-14  0.12500000000E+03  0.12500000000E+03 0.  0.
        -11    1    1    0    0    0 -0.42152217240E+01 -0.25030412983E+02 -0.17112001100E+02  0.30612256535E+02  0.51100000000E-03 0. -1.
         11    1    1    0    0    0 -0.65422567058E+01 -0.23218574950E+02 -0.20988344644E+02  0.31975208469E+02  0.51100000000E-03 0.  1.
         22    1    1    0    0    0  0.10757478430E+02  0.48248987932E+02  0.38100345745E+02  0.62412534995E+02  0.00000000000E+00 0.  1.
</event>
<event>
 4    1  0.1977762E-002  0.9118800E+02  0.7818608E-02  0.1130116E+00
         25   -1    0    0    0    0  0.00000000000E+00  0.00000000000E+00  0.99999998245E-14  0.12500000000E+03  0.12500000000E+03 0.  0.
        -11    1    1    0    0    0  0.77737271054E+01 -0.28296193394E+02 -0.43167873938E+02  0.52197420763E+02  0.51100000000E-03 0. -1.
         11    1    1    0    0    0  0.15327485831E+01 -0.55848804586E+01 -0.85207354159E+01  0.10302579301E+02  0.51100000000E-03 0.  1.
         22    1    1    0    0    0 -0.93064756885E+01  0.33881073853E+02  0.51688609354E+02  0.62499999937E+02  0.00000000000E+00 0. -1.
</event>
<event>
 4    1  0.1977762E-002  0.9118800E+02  0.7818608E-02  0.1130116E+00
         25   -1    0    0    0    0  0.00000000000E+00  0.00000000000E+00  0.99999998245E-14  0.12500000000E+03  0.12500000000E+03 0.  0.
        -11    1    1    0    0    0  0.54879172842E+01 -0.30397302393E+01 -0.15562157856E+02  0.16779092747E+02  0.51100000000E-03 0.  1.
         11    1    1    0    0    0  0.98012520104E+01 -0.70849277692E+01 -0.44139582990E+02  0.45766401751E+02  0.51100000000E-03 0. -1.
         22    1    1    0    0    0 -0.15289169295E+02  0.10124658008E+02  0.59701740845E+02  0.62454505502E+02  0.00000000000E+00 0. -1.
</event>
<event>
 4    1  0.1977762E-002  0.9118800E+02  0.7818608E-02  0.1130116E+00
         25   -1    0    0    0    0  0.00000000000E+00  0.00000000000E+00  0.99999998245E-14  0.12500000000E+03  0.12500000000E+03 0.  0.
        -11    1    1    0    0    0 -0.25113372372E+01 -0.69723824552E-01 -0.18798647196E+01  0.31377647707E+01  0.51100000000E-03 0.  1.
         11    1    1    0    0    0  0.15909993519E+02  0.35767578552E+02  0.48053245585E+02  0.61980335436E+02  0.51100000000E-03 0. -1.
         22    1    1    0    0    0 -0.13398656282E+02 -0.35697854727E+02 -0.46173380865E+02  0.59881899793E+02  0.00000000000E+00 0. -1.
</event>
<event>
 4    1  0.1977762E-002  0.9118800E+02  0.7818608E-02  0.1130116E+00
         25   -1    0    0    0    0  0.00000000000E+00  0.00000000000E+00  0.99999998245E-14  0.12500000000E+03  0.12500000000E+03 0.  0.
        -11    1    1    0    0    0  0.40513211560E+01  0.15373279501E+02  0.38984219847E+02  0.42101310230E+02  0.51100000000E-03 0.  1.
         11    1    1    0    0    0  0.19861831845E+01  0.73448157972E+01  0.18926690235E+02  0.20398795216E+02  0.51100000000E-03 0. -1.
         22    1    1    0    0    0 -0.60375043405E+01 -0.22718095298E+02 -0.57910910083E+02  0.62499894554E+02  0.00000000000E+00 0.  1.
</event>
<event>
 4    1  0.1977762E-002  0.9118800E+02  0.7818608E-02  0.1130116E+00
         25   -1    0    0    0    0  0.00000000000E+00  0.00000000000E+00  0.99999998245E-14  0.12500000000E+03  0.12500000000E+03 0.  0.
        -11    1    1    0    0    0  0.27017458248E+02  0.22646827247E+02  0.32912494132E+02  0.48229183123E+02  0.51100000000E-03 0. -1.
         11    1    1    0    0    0  0.79794062598E+01  0.67181151910E+01  0.97392205158E+01  0.14270823820E+02  0.51100000000E-03 0.  1.
         22    1    1    0    0    0 -0.34996864507E+02 -0.29364942438E+02 -0.42651714648E+02  0.62499993057E+02  0.00000000000E+00 0. -1.
</event>
<event>
 4    1  0.1977762E-002  0.9118800E+02  0.7818608E-02  0.1130116E+00
         25   -1    0    0    0    0  0.00000000000E+00  0.00000000000E+00  0.99999998245E-14  0.12500000000E+03  0.12500000000E+03 0.  0.
        -11    1    1    0    0    0 -0.20147755397E+01 -0.43990794218E+01 -0.23161287237E+01  0.53642961104E+01  0.51100000000E-03 0.  1.
         11    1    1    0    0    0  0.10709593779E+02 -0.48096916569E+02 -0.29701771288E+02  0.57534372338E+02  0.51100000000E-03 0. -1.
         22    1    1    0    0    0 -0.86948182394E+01  0.52495995991E+02  0.32017900012E+02  0.62101331552E+02  0.00000000000E+00 0. -1.
</event>
<event>
 4    1  0.1977762E-002  0.9118800E+02  0.7818608E-02  0.1130116E+00
         25   -1    0    0    0    0  0.00000000000E+00  0.00000000000E+00  0.99999998245E-14  0.12500000000E+03  0.12500000000E+03 0.  0.
        -11    1    1    0    0    0 -0.17850508934E+02  0.70765488483E+01 -0.15233499343E+02  0.24510767334E+02  0.51100000000E-03 0. -1.
         11    1    1    0    0    0 -0.27518302745E+02  0.11336856025E+02 -0.23609987330E+02  0.37989640594E+02  0.51100000000E-03 0.  1.
         22    1    1    0    0    0  0.45368811679E+02 -0.18413404873E+02  0.38843486673E+02  0.62499592072E+02  0.00000000000E+00 0. -1.
</event>
<event>
 4    1  0.1977762E-002  0.9118800E+02  0.7818608E-02  0.1130116E+00
         25   -1    0    0    0    0  0.00000000000E+00  0.00000000000E+00  0.99999998245E-14  0.12500000000E+03  0.12500000000E+03 0.  0.
        -11    1    1    0    0    0 -0.33235442619E+01  0.36202602489E+01 -0.40338292456E+00  0.49310190403E+01  0.51100000000E-03 0.  1.
         11    1    1    0    0    0 -0.39055171013E+02  0.41988534414E+02 -0.50848098595E+01  0.57569077608E+02  0.51100000000E-03 0. -1.
         22    1    1    0    0    0  0.42378715275E+02 -0.45608794663E+02  0.54881927841E+01  0.62499903352E+02  0.00000000000E+00 0. -1.
</event>
<event>
 4    1  0.1977762E-002  0.9118800E+02  0.7818608E-02  0.1130116E+00
         25   -1    0    0    0    0  0.00000000000E+00  0.00000000000E+00  0.99999998245E-14  0.12500000000E+03  0.12500000000E+03 0.  0.
        -11    1    1    0    0    0 -0.16921034065E+02 -0.56665501824E+02 -0.70719168217E+00  0.59142206681E+02  0.51100000000E-03 0. -1.
         11    1    1    0    0    0 -0.96060851338E+00 -0.32171957602E+01 -0.40727588443E-01  0.33577933636E+01  0.51100000000E-03 0. -1.
         22    1    1    0    0    0  0.17881642578E+02  0.59882697584E+02  0.74791927062E+00  0.62499999956E+02  0.00000000000E+00 0. -1.
</event>
<event>
 4    1  0.1977762E-002  0.9118800E+02  0.7818608E-02  0.1130116E+00
         25   -1    0    0    0    0  0.00000000000E+00  0.00000000000E+00  0.99999998245E-14  0.12500000000E+03  0.12500000000E+03 0.  0.
        -11    1    1    0    0    0  0.14910375292E+02  0.74662095166E+01 -0.31270978801E+02  0.35439211212E+02  0.51100000000E-03 0.  1.
         11    1    1    0    0    0  0.11509911419E+02  0.54845958580E+01 -0.23869334848E+02  0.27061115996E+02  0.51100000000E-03 0. -1.
         22    1    1    0    0    0 -0.26420286711E+02 -0.12950805375E+02  0.55140313649E+02  0.62499672792E+02  0.00000000000E+00 0. -1.
</event>
<event>
 4    1  0.1977762E-002  0.9118800E+02  0.7818608E-02  0.1130116E+00
         25   -1    0    0    0    0  0.00000000000E+00  0.00000000000E+00  0.99999998245E-14  0.12500000000E+03  0.12500000000E+03 0.  0.
        -11    1    1    0    0    0 -0.78974735906E+01 -0.13033533398E+02 -0.29770254164E+01  0.15527580705E+02  0.51100000000E-03 0. -1.
         11    1    1    0    0    0 -0.17141035819E+02 -0.43515054089E+02 -0.53339570348E+01  0.47072562488E+02  0.51100000000E-03 0.  1.
         22    1    1    0    0    0  0.25038509409E+02  0.56548587487E+02  0.83109824513E+01  0.62399856807E+02  0.00000000000E+00 0.  1.
</event>
<event>
 4    1  0.1977762E-002  0.9118800E+02  0.7818608E-02  0.1130116E+00
         25   -1    0    0    0    0  0.00000000000E+00  0.00000000000E+00  0.99999998245E-14  0.12500000000E+03  0.12500000000E+03 0.  0.
        -11    1    1    0    0    0  0.65849158753E-01 -0.34130201274E+01 -0.18635633283E+02  0.18945708502E+02  0.51100000000E-03 0.  1.
         11    1    1    0    0    0 -0.38476802567E+01 -0.68483514901E+01 -0.42870122888E+02  0.43583850199E+02  0.51100000000E-03 0. -1.
         22    1    1    0    0    0  0.37818310979E+01  0.10261371618E+02  0.61505756171E+02  0.62470441299E+02  0.00000000000E+00 0. -1.
</event>
<event>
 4    1  0.1977762E-002  0.9118800E+02  0.7818608E-02  0.1130116E+00
         25   -1    0    0    0    0  0.00000000000E+00  0.00000000000E+00  0.99999998245E-14  0.12500000000E+03  0.12500000000E+03 0.  0.
        -11    1    1    0    0    0 -0.51080257711E+02 -0.22878291303E+01 -0.14559995368E+02  0.53164088964E+02  0.51100000000E-03 0.  1.
         11    1    1    0    0    0 -0.89539171004E+01 -0.35363686602E+00 -0.26199877974E+01  0.93360605607E+01  0.51100000000E-03 0. -1.
         22    1    1    0    0    0  0.60034174811E+02  0.26414659964E+01  0.17179983166E+02  0.62499850476E+02  0.00000000000E+00 0.  1.
</event>
<event>
 4    1  0.1977762E-002  0.9118800E+02  0.7818608E-02  0.1130116E+00
         25   -1    0    0    0    0  0.00000000000E+00  0.00000000000E+00  0.99999998245E-14  0.12500000000E+03  0.12500000000E+03 0.  0.
        -11    1    1    0    0    0  0.18796444885E+02  0.47697327358E+02 -0.22378859172E+02  0.55938847999E+02  0.51100000000E-03 0. -1.
         11    1    1    0    0    0  0.22043839360E+01  0.55943591956E+01 -0.26253670744E+01  0.65611520241E+01  0.51100000000E-03 0. -1.
         22    1    1    0    0    0 -0.21000828821E+02 -0.53291686553E+02  0.25004226247E+02  0.62499999977E+02  0.00000000000E+00 0. -1.
</event>
<event>
 4    1  0.1977762E-002  0.9118800E+02  0.7818608E-02  0.1130116E+00
         25   -1    0    0    0    0  0.00000000000E+00  0.00000000000E+00  0.99999998245E-14  0.12500000000E+03  0.12500000000E+03 0.  0.
        -11    1    1    0    0    0  0.19082417794E+01 -0.20561400801E+01  0.27415913902E+01  0.39224255671E+01  0.51100000000E-03 0. -1.
         11    1    1    0    0    0  0.11771706151E+02 -0.58069449919E+02  0.15007338538E+01  0.59269606730E+02  0.51100000000E-03 0.  1.
         22    1    1    0    0    0 -0.13679947931E+02  0.60125589999E+02 -0.42423252439E+01  0.61807967703E+02  0.00000000000E+00 0.  1.
</event>
<event>
 4    1  0.1977762E-002  0.9118800E+02  0.7818608E-02  0.1130116E+00
         25   -1    0    0    0    0  0.00000000000E+00  0.00000000000E+00  0.99999998245E-14  0.12500000000E+03  0.12500000000E+03 0.  0.
        -11    1    1    0    0    0  0.33295828739E+02 -0.34476234696E+02  0.12887398293E+02  0.49631723779E+02  0.51100000000E-03 0. -1.
         11    1    1    0    0    0  0.62899892747E+01 -0.94893756281E+01  0.65025547114E+01  0.13110889860E+02  0.51100000000E-03 0.  1.
         22    1    1    0    0    0 -0.39585818014E+02  0.43965610324E+02 -0.19389953004E+02  0.62257386361E+02  0.00000000000E+00 0. -1.
</event>
<event>
 4    1  0.1977762E-002  0.9118800E+02  0.7818608E-02  0.1130116E+00
         25   -1    0    0    0    0  0.00000000000E+00  0.00000000000E+00  0.99999998245E-14  0.12500000000E+03  0.12500000000E+03 0.  0.
        -11    1    1    0    0    0 -0.10217600529E+01 -0.13252678887E+01 -0.70049785427E+00  0.18141185428E+01  0.51100000000E-03 0.  1.
         11    1    1    0    0    0 -0.29012399925E+02 -0.46458108792E+02 -0.26139249986E+02  0.60690490293E+02  0.51100000000E-03 0. -1.
         22    1    1    0    0    0  0.30034159978E+02  0.47783376681E+02  0.26839747840E+02  0.62495391164E+02  0.00000000000E+00 0. -1.
</event>
<event>
 4    1  0.1977762E-002  0.9118800E+02  0.7818608E-02  0.1130116E+00
         25   -1    0    0    0    0  0.00000000000E+00  0.00000000000E+00  0.99999998245E-14  0.12500000000E+03  0.12500000000E+03 0.  0.
        -11    1    1    0    0    0  0.24120136850E+01  0.27296014289E+02  0.39939535074E+02  0.48436109136E+02  0.51100000000E-03 0.  1.
         11    1    1    0    0    0  0.28298842485E+01  0.74905497614E+01  0.11640892444E+02  0.14128940432E+02  0.51100000000E-03 0. -1.
         22    1    1    0    0    0 -0.52418979334E+01 -0.34786564050E+02 -0.51580427518E+02  0.62434950431E+02  0.00000000000E+00 0.  1.
</event>
<event>
 4    1  0.1977762E-002  0.9118800E+02  0.7818608E-02  0.1130116E+00
         25   -1    0    0    0    0  0.00000000000E+00  0.00000000000E+00  0.99999998245E-14  0.12500000000E+03  0.12500000000E+03 0.  0.
        -11    1    1    0    0    0  0.16334425785E+02  0.13360070934E+02 -0.10643503983E+02  0.23634490440E+02  0.51100000000E-03 0. -1.
         11    1    1    0    0    0  0.20036113557E+02  0.32689299970E+02 -0.91848078386E+01  0.39425840185E+02  0.51100000000E-03 0.  1.
         22    1    1    0    0    0 -0.36370539342E+02 -0.46049370904E+02  0.19828311821E+02  0.61939669375E+02  0.00000000000E+00 0.  1.
</event>
<event>
 4    1  0.1977762E-002  0.9118800E+02  0.7818608E-02  0.1130116E+00
         25   -1    0    0    0    0  0.00000000000E+00  0.00000000000E+00  0.99999998245E-14  0.12500000000E+03  0.12500000000E+03 0.  0.
        -11    1    1    0    0    0 -0.19796866590E+01  0.12414951907E+02  0.93279489268E+01  0.15654418595E+02  0.51100000000E-03 0.  1.
         11    1    1    0    0    0  0.18249451400E+01  0.34542803814E+02  0.31752179312E+02  0.46954622897E+02  0.51100000000E-03 0. -1.
         22    1    1    0    0    0  0.15474151893E+00 -0.46957755721E+02 -0.41080128239E+02  0.62390958507E+02  0.00000000000E+00 0.  1.
</event>
<event>
 4    1  0.1977762E-002  0.9118800E+02  0.7818608E-02  0.1130116E+00
         25   -1    0    0    0    0  0.00000000000E+00  0.00000000000E+00  0.99999998245E-14  0.12500000000E+03  0.12500000000E+03 0.  0.
        -11    1    1    0    0    0 -0.63510283432E+01  0.54529863852E+02 -0.18280391393E+02  0.57862028330E+02  0.51100000000E-03 0. -1.
         11    1    1    0    0    0 -0.57213671183E+00  0.44299296198E+01 -0.12579803001E+01  0.46404882879E+01  0.51100000000E-03 0.  1.
         22    1    1    0    0    0  0.69231650550E+01 -0.58959793472E+02  0.19538371693E+02  0.62497483382E+02  0.00000000000E+00 0. -1.
</event>
<event>
 4    1  0.1977762E-002  0.9118800E+02  0.7818608E-02  0.1130116E+00
         25   -1    0    0    0    0  0.00000000000E+00  0.00000000000E+00  0.99999998245E-14  0.12500000000E+03  0.12500000000E+03 0.  0.
        -11    1    1    0    0    0 -0.40270070255E+01 -0.13923283509E+02  0.20016756421E+01  0.14631517860E+02  0.51100000000E-03 0.  1.
         11    1    1    0    0    0 -0.13060903239E+02 -0.45722348144E+02  0.55137626107E+01  0.47869843237E+02  0.51100000000E-03 0. -1.
         22    1    1    0    0    0  0.17087910264E+02  0.59645631653E+02 -0.75154382528E+01  0.62498638902E+02  0.00000000000E+00 0. -1.
</event>
<event>
 4    1  0.1977762E-002  0.9118800E+02  0.7818608E-02  0.1130116E+00
         25   -1    0    0    0    0  0.00000000000E+00  0.00000000000E+00  0.99999998245E-14  0.12500000000E+03  0.12500000000E+03 0.  0.
        -11    1    1    0    0    0 -0.23952006824E+01 -0.61882798463E+01 -0.26152502077E+01  0.71324138743E+01  0.51100000000E-03 0.  1.
         11    1    1    0    0    0 -0.20466631932E+02 -0.48168381825E+02 -0.18082471099E+02  0.55371940471E+02  0.51100000000E-03 0. -1.
         22    1    1    0    0    0  0.22861832614E+02  0.54356661671E+02  0.20697721306E+02  0.62495645655E+02  0.00000000000E+00 0. -1.
</event>
<event>
 4    1  0.1977762E-002  0.9118800E+02  0.7818608E-02  0.1130116E+00
         25   -1    0    0    0    0  0.00000000000E+00  0.00000000000E+00  0.99999998245E-14  0.12500000000E+03  0.12500000000E+03 0.  0.
        -11    1    1    0    0    0 -0.70145010474E+01  0.66629730026E+01 -0.42783801761E+01  0.10578420079E+02  0.51100000000E-03 0.  1.
         11    1    1    0    0    0 -0.34350788144E+02  0.32703027233E+02 -0.21127890109E+02  0.51921598367E+02  0.51100000000E-03 0. -1.
         22    1    1    0    0    0  0.41365289191E+02 -0.39366000235E+02  0.25406270285E+02  0.62499981554E+02  0.00000000000E+00 0. -1.
</event>
<event>
 4    1  0.1977762E-002  0.9118800E+02  0.7818608E-02  0.1130116E+00
         25   -1    0    0    0    0  0.00000000000E+00  0.00000000000E+00  0.99999998245E-14  0.12500000000E+03  0.12500000000E+03 0.  0.
        -11    1    1    0    0    0  0.13235684141E+02  0.36010324566E+01  0.94515931126E+01  0.16657832454E+02  0.51100000000E-03 0. -1.
         11    1    1    0    0    0  0.36553055602E+02  0.94687444076E+01  0.25995182522E+02  0.45842474945E+02  0.51100000000E-03 0.  1.
         22    1    1    0    0    0 -0.49788739742E+02 -0.13069776864E+02 -0.35446775634E+02  0.62499692601E+02  0.00000000000E+00 0.  1.
</event>
<event>
 4    1  0.1977762E-002  0.9118800E+02  0.7818608E-02  0.1130116E+00
         25   -1    0    0    0    0  0.00000000000E+00  0.00000000000E+00  0.99999998245E-14  0.12500000000E+03  0.12500000000E+03 0.  0.
        -11    1    1    0    0    0  0.51156659617E+02 -0.22502734460E+02  0.10926512161E+02  0.56945285578E+02  0.51100000000E-03 0. -1.
         11    1    1    0    0    0  0.50474539943E+01 -0.21420880361E+01  0.89734524686E+00  0.55561283042E+01  0.51100000000E-03 0.  1.
         22    1    1    0    0    0 -0.56204113611E+02  0.24644822496E+02 -0.11823857408E+02  0.62498586117E+02  0.00000000000E+00 0. -1.
</event>
<event>
 4    1  0.1977762E-002  0.9118800E+02  0.7818608E-02  0.1130116E+00
         25   -1    0    0    0    0  0.00000000000E+00  0.00000000000E+00  0.99999998245E-14  0.12500000000E+03  0.12500000000E+03 0.  0.
        -11    1    1    0    0    0  0.15501821624E+01 -0.58597538147E+01  0.14716544069E+02  0.15915918104E+02  0.51100000000E-03 0.  1.
         11    1    1    0    0    0  0.45201218902E+01 -0.17180565620E+02  0.43063598456E+02  0.46584083646E+02  0.51100000000E-03 0. -1.
         22    1    1    0    0    0 -0.60703040526E+01  0.23040319435E+02 -0.57780142525E+02  0.62499998249E+02  0.00000000000E+00 0. -1.
</event>
<event>
 4    1  0.1977762E-002  0.9118800E+02  0.7818608E-02  0.1130116E+00
         25   -1    0    0    0    0  0.00000000000E+00  0.00000000000E+00  0.99999998245E-14  0.12500000000E+03  0.12500000000E+03 0.  0.
        -11    1    1    0    0    0  0.70923434399E+01 -0.27454838840E+01  0.90104451886E+01  0.11790977058E+02  0.51100000000E-03 0.  1.
         11    1    1    0    0    0  0.30503689742E+02 -0.11810723093E+02  0.38748377286E+02  0.50709022968E+02  0.51100000000E-03 0. -1.
         22    1    1    0    0    0 -0.37596033182E+02  0.14556206977E+02 -0.47758822474E+02  0.62499999974E+02  0.00000000000E+00 0. -1.
</event>
<event>
 4    1  0.1977762E-002  0.9118800E+02  0.7818608E-02  0.1130116E+00
         25   -1    0    0    0    0  0.00000000000E+00  0.00000000000E+00  0.99999998245E-14  0.12500000000E+03  0.12500000000E+03 0.  0.
        -11    1    1    0    0    0 -0.35425856684E+01 -0.12020757209E+01  0.25521534847E+01  0.45286186556E+01  0.51100000000E-03 0.  1.
         11    1    1    0    0    0 -0.43661999784E+02 -0.17891626969E+02  0.33683347741E+02  0.57974550071E+02  0.51100000000E-03 0. -1.
         22    1    1    0    0    0  0.47204585452E+02  0.19093702690E+02 -0.36235501225E+02  0.62496831273E+02  0.00000000000E+00 0. -1.
</event>
<event>
 4    1  0.1977762E-002  0.9118800E+02  0.7818608E-02  0.1130116E+00
         25   -1    0    0    0    0  0.00000000000E+00  0.00000000000E+00  0.99999998245E-14  0.12500000000E+03  0.12500000000E+03 0.  0.
        -11    1    1    0    0    0  0.95813436674E+01  0.41287541026E+01 -0.13493622365E+01  0.10519958917E+02  0.51100000000E-03 0.  1.
         11    1    1    0    0    0  0.47333829541E+02  0.20417550405E+02 -0.66750972563E+01  0.51980041431E+02  0.51100000000E-03 0. -1.
         22    1    1    0    0    0 -0.56915173208E+02 -0.24546304507E+02  0.80244594928E+01  0.62499999652E+02  0.00000000000E+00 0. -1.
</event>
<event>
 4    1  0.1977762E-002  0.9118800E+02  0.7818608E-02  0.1130116E+00
         25   -1    0    0    0    0  0.00000000000E+00  0.00000000000E+00  0.99999998245E-14  0.12500000000E+03  0.12500000000E+03 0.  0.
        -11    1    1    0    0    0 -0.12641020989E+02  0.21284460635E+02 -0.23584860215E+02  0.34191655529E+02  0.51100000000E-03 0.  1.
         11    1    1    0    0    0 -0.95719746891E+01  0.17144168978E+02 -0.20403642460E+02  0.28317024126E+02  0.51100000000E-03 0. -1.
         22    1    1    0    0    0  0.22212995678E+02 -0.38428629613E+02  0.43988502675E+02  0.62491320346E+02  0.00000000000E+00 0. -1.
</event>
<event>
 4    1  0.1977762E-002  0.9118800E+02  0.7818608E-02  0.1130116E+00
         25   -1    0    0    0    0  0.00000000000E+00  0.00000000000E+00  0.99999998245E-14  0.12500000000E+03  0.12500000000E+03 0.  0.
        -11    1    1    0    0    0 -0.70707975825E+01  0.50230040414E+02  0.16307793907E+02  0.53282241702E+02  0.51100000000E-03 0. -1.
         11    1    1    0    0    0 -0.12224754990E+01  0.86899076469E+01  0.28210152337E+01  0.92177583211E+01  0.51100000000E-03 0.  1.
         22    1    1    0    0    0  0.82932730816E+01 -0.58919948061E+02 -0.19128809140E+02  0.62499999976E+02  0.00000000000E+00 0. -1.
</event>
<event>
 4    1  0.1977762E-002  0.9118800E+02  0.7818608E-02  0.1130116E+00
         25   -1    0    0    0    0  0.00000000000E+00  0.00000000000E+00  0.99999998245E-14  0.12500000000E+03  0.12500000000E+03 0.  0.
        -11    1    1    0    0    0 -0.44514932162E+00  0.29267472604E+02  0.15026184576E+02  0.32902421396E+02  0.51100000000E-03 0.  1.
         11    1    1    0    0    0 -0.27024510777E+02  0.20097123606E+02 -0.11133510594E+02  0.35470743132E+02  0.51100000000E-03 0. -1.
         22    1    1    0    0    0  0.27469660099E+02 -0.49364596209E+02 -0.38926739820E+01  0.56626835472E+02  0.00000000000E+00 0. -1.
</event>
<event>
 4    1  0.1977762E-002  0.9118800E+02  0.7818608E-02  0.1130116E+00
         25   -1    0    0    0    0  0.00000000000E+00  0.00000000000E+00  0.99999998245E-14  0.12500000000E+03  0.12500000000E+03 0.  0.
        -11    1    1    0    0    0  0.31909756192E+01  0.29356956004E+02 -0.11873195746E+02  0.31827440499E+02  0.51100000000E-03 0.  1.
         11    1    1    0    0    0  0.60925894274E+01  0.28210244692E+02 -0.10507711094E+02  0.30713995901E+02  0.51100000000E-03 0. -1.
         22    1    1    0    0    0 -0.92835650466E+01 -0.57567200696E+02  0.22380906840E+02  0.62458563600E+02  0.00000000000E+00 0.  1.
</event>
<event>
 4    1  0.1977762E-002  0.9118800E+02  0.7818608E-02  0.1130116E+00
         25   -1    0    0    0    0  0.00000000000E+00  0.00000000000E+00  0.99999998245E-14  0.12500000000E+03  0.12500000000E+03 0.  0.
        -11    1    1    0    0    0  0.32251348179E+02 -0.23533080298E+02  0.26893942028E+02  0.48137713341E+02  0.51100000000E-03 0. -1.
         11    1    1    0    0    0  0.96618453959E+01 -0.69797424816E+01  0.80130222316E+01  0.14362332231E+02  0.51100000000E-03 0.  1.
         22    1    1    0    0    0 -0.41913193575E+02  0.30512822780E+02 -0.34906964260E+02  0.62499954428E+02  0.00000000000E+00 0. -1.
</event>
<event>
 4    1  0.1977762E-002  0.9118800E+02  0.7818608E-02  0.1130116E+00
         25   -1    0    0    0    0  0.00000000000E+00  0.00000000000E+00  0.99999998245E-14  0.12500000000E+03  0.12500000000E+03 0.  0.
        -11    1    1    0    0    0 -0.36190496773E+02 -0.42705842013E+02  0.21759789926E+02  0.60058550237E+02  0.51100000000E-03 0. -1.
         11    1    1    0    0    0 -0.14710980918E+01 -0.17363540947E+01  0.88409379376E+00  0.24414498224E+01  0.51100000000E-03 0.  1.
         22    1    1    0    0    0  0.37661594865E+02  0.44442196107E+02 -0.22643883720E+02  0.62499999940E+02  0.00000000000E+00 0. -1.
</event>
<event>
 4    1  0.1977762E-002  0.9118800E+02  0.7818608E-02  0.1130116E+00
         25   -1    0    0    0    0  0.00000000000E+00  0.00000000000E+00  0.99999998245E-14  0.12500000000E+03  0.12500000000E+03 0.  0.
        -11    1    1    0    0    0  0.29665122814E+01 -0.12021314365E+01 -0.58789429560E+02  0.58876500773E+02  0.51100000000E-03 0.  1.
         11    1    1    0    0    0  0.16010059848E+01  0.61831422267E+01 -0.54052059716E+00  0.64098853918E+01  0.51100000000E-03 0. -1.
         22    1    1    0    0    0 -0.45675182662E+01 -0.49810107902E+01  0.59329950157E+02  0.59713613835E+02  0.00000000000E+00 0.  1.
</event>
<event>
 4    1  0.1977762E-002  0.9118800E+02  0.7818608E-02  0.1130116E+00
         25   -1    0    0    0    0  0.00000000000E+00  0.00000000000E+00  0.99999998245E-14  0.12500000000E+03  0.12500000000E+03 0.  0.
        -11    1    1    0    0    0  0.22969665632E+01  0.31863801293E+01  0.11604683752E+01  0.40958223633E+01  0.51100000000E-03 0.  1.
         11    1    1    0    0    0  0.33219897763E+02  0.45401089148E+02  0.15692628401E+02  0.58404444091E+02  0.51100000000E-03 0. -1.
         22    1    1    0    0    0 -0.35516864326E+02 -0.48587469277E+02 -0.16853096776E+02  0.62499733546E+02  0.00000000000E+00 0. -1.
</event>
<event>
 4    1  0.1977762E-002  0.9118800E+02  0.7818608E-02  0.1130116E+00
         25   -1    0    0    0    0  0.00000000000E+00  0.00000000000E+00  0.99999998245E-14  0.12500000000E+03  0.12500000000E+03 0.  0.
        -11    1    1    0    0    0  0.15574783593E+02 -0.68191744120E+01  0.82630517480E+01  0.18903783962E+02  0.51100000000E-03 0. -1.
         11    1    1    0    0    0  0.36182513081E+02 -0.15684169146E+02  0.18587808633E+02  0.43596720572E+02  0.51100000000E-03 0.  1.
         22    1    1    0    0    0 -0.51757296674E+02  0.22503343558E+02 -0.26850860381E+02  0.62499495466E+02  0.00000000000E+00 0.  1.
</event>
<event>
 4    1  0.1977762E-002  0.9118800E+02  0.7818608E-02  0.1130116E+00
         25   -1    0    0    0    0  0.00000000000E+00  0.00000000000E+00  0.99999998245E-14  0.12500000000E+03  0.12500000000E+03 0.  0.
        -11    1    1    0    0    0  0.45092502757E+01 -0.35553086750E+02  0.30033913008E+02  0.46758862757E+02  0.51100000000E-03 0.  1.
         11    1    1    0    0    0  0.37544168757E+00 -0.11959227158E+02  0.10252579393E+02  0.15756885960E+02  0.51100000000E-03 0. -1.
         22    1    1    0    0    0 -0.48846919633E+01  0.47512313907E+02 -0.40286492402E+02  0.62484251283E+02  0.00000000000E+00 0.  1.
</event>
<event>
 4    1  0.1977762E-002  0.9118800E+02  0.7818608E-02  0.1130116E+00
         25   -1    0    0    0    0  0.00000000000E+00  0.00000000000E+00  0.99999998245E-14  0.12500000000E+03  0.12500000000E+03 0.  0.
        -11    1    1    0    0    0 -0.21918346168E+02  0.10137513084E+02  0.19119182768E+02  0.30801399647E+02  0.51100000000E-03 0. -1.
         11    1    1    0    0    0 -0.22553271577E+02  0.10430200315E+02  0.19681517697E+02  0.31698600546E+02  0.51100000000E-03 0.  1.
         22    1    1    0    0    0  0.44471617745E+02 -0.20567713400E+02 -0.38800700465E+02  0.62499999807E+02  0.00000000000E+00 0.  1.
</event>
<event>
 4    1  0.1977762E-002  0.9118800E+02  0.7818608E-02  0.1130116E+00
         25   -1    0    0    0    0  0.00000000000E+00  0.00000000000E+00  0.99999998245E-14  0.12500000000E+03  0.12500000000E+03 0.  0.
        -11    1    1    0    0    0 -0.29828466116E+02  0.99421513554E+00 -0.49435158440E+02  0.57745655636E+02  0.51100000000E-03 0. -1.
         11    1    1    0    0    0 -0.24475884041E+01  0.10925862611E+00 -0.40745000999E+01  0.47543851094E+01  0.51100000000E-03 0.  1.
         22    1    1    0    0    0  0.32276054520E+02 -0.11034737616E+01  0.53509658540E+02  0.62499959254E+02  0.00000000000E+00 0. -1.
</event>
<event>
 4    1  0.1977762E-002  0.9118800E+02  0.7818608E-02  0.1130116E+00
         25   -1    0    0    0    0  0.00000000000E+00  0.00000000000E+00  0.99999998245E-14  0.12500000000E+03  0.12500000000E+03 0.  0.
        -11    1    1    0    0    0 -0.34280030327E+02 -0.39654909759E+02  0.57084173932E+00  0.52420971069E+02  0.51100000000E-03 0. -1.
         11    1    1    0    0    0 -0.80693741191E+01 -0.59291796819E+01 -0.25285824171E+01  0.10327811950E+02  0.51100000000E-03 0.  1.
         22    1    1    0    0    0  0.42349404446E+02  0.45584089441E+02  0.19577406778E+01  0.62251216981E+02  0.00000000000E+00 0. -1.
</event>
<event>
 4    1  0.1977762E-002  0.9118800E+02  0.7818608E-02  0.1130116E+00
         25   -1    0    0    0    0  0.00000000000E+00  0.00000000000E+00  0.99999998245E-14  0.12500000000E+03  0.12500000000E+03 0.  0.
        -11    1    1    0    0    0  0.58527872594E+01  0.28249618283E+01  0.39856454525E+01  0.76237063145E+01  0.51100000000E-03 0. -1.
         11    1    1    0    0    0  0.42230316037E+02  0.20122497570E+02  0.28689657939E+02  0.54876324348E+02  0.51100000000E-03 0.  1.
         22    1    1    0    0    0 -0.48083103297E+02 -0.22947459398E+02 -0.32675303391E+02  0.62499969337E+02  0.00000000000E+00 0.  1.
</event>
<event>
 4    1  0.1977762E-002  0.9118800E+02  0.7818608E-02  0.1130116E+00
         25   -1    0    0    0    0  0.00000000000E+00  0.00000000000E+00  0.99999998245E-14  0.12500000000E+03  0.12500000000E+03 0.  0.
        -11    1    1    0    0    0  0.17063694301E+02  0.45273992225E+02 -0.16076812411E+02  0.50983996830E+02  0.51100000000E-03 0.  1.
         11    1    1    0    0    0  0.38593180749E+01  0.10229803925E+02 -0.36159669007E+01  0.11516008043E+02  0.51100000000E-03 0. -1.
         22    1    1    0    0    0 -0.20923012376E+02 -0.55503796150E+02  0.19692779312E+02  0.62499995128E+02  0.00000000000E+00 0.  1.
</event>
<event>
 4    1  0.1977762E-002  0.9118800E+02  0.7818608E-02  0.1130116E+00
         25   -1    0    0    0    0  0.00000000000E+00  0.00000000000E+00  0.99999998245E-14  0.12500000000E+03  0.12500000000E+03 0.  0.
        -11    1    1    0    0    0 -0.82282979080E+01  0.13923002890E+02  0.43806855699E+02  0.46696846815E+02  0.51100000000E-03 0. -1.
         11    1    1    0    0    0 -0.43150447211E+01  0.12546876092E+02  0.10286303542E+02  0.16788441007E+02  0.51100000000E-03 0.  1.
         22    1    1    0    0    0  0.12543342629E+02 -0.26469878982E+02 -0.54093159242E+02  0.61514712178E+02  0.00000000000E+00 0. -1.
</event>
<event>
 4    1  0.1977762E-002  0.9118800E+02  0.7818608E-02  0.1130116E+00
         25   -1    0    0    0    0  0.00000000000E+00  0.00000000000E+00  0.99999998245E-14  0.12500000000E+03  0.12500000000E+03 0.  0.
        -11    1    1    0    0    0  0.32164761862E+02 -0.33444714466E+02  0.96605456713E+01  0.47396697926E+02  0.51100000000E-03 0.  1.
         11    1    1    0    0    0  0.13540760432E+02 -0.75127969412E+01 -0.38514627890E+01  0.15957069807E+02  0.51100000000E-03 0. -1.
         22    1    1    0    0    0 -0.45705522293E+02  0.40957511407E+02 -0.58090828823E+01  0.61646232267E+02  0.00000000000E+00 0.  1.
</event>
<event>
 4    1  0.1977762E-002  0.9118800E+02  0.7818608E-02  0.1130116E+00
         25   -1    0    0    0    0  0.00000000000E+00  0.00000000000E+00  0.99999998245E-14  0.12500000000E+03  0.12500000000E+03 0.  0.
        -11    1    1    0    0    0 -0.25243170091E+02  0.62447468535E+01  0.50924534000E+02  0.57179739969E+02  0.51100000000E-03 0.  1.
         11    1    1    0    0    0 -0.19396021544E+01  0.11101603060E+01  0.48498664927E+01  0.53400110188E+01  0.51100000000E-03 0. -1.
         22    1    1    0    0    0  0.27182772246E+02 -0.73549071595E+01 -0.55774400493E+02  0.62480249012E+02  0.00000000000E+00 0.  1.
</event>
<event>
 4    1  0.1977762E-002  0.9118800E+02  0.7818608E-02  0.1130116E+00
         25   -1    0    0    0    0  0.00000000000E+00  0.00000000000E+00  0.99999998245E-14  0.12500000000E+03  0.12500000000E+03 0.  0.
        -11    1    1    0    0    0 -0.11468589049E+02 -0.73916159803E+01  0.15934815473E+02  0.20978152111E+02  0.51100000000E-03 0. -1.
         11    1    1    0    0    0 -0.18059221239E+02  0.48610095161E+02 -0.11565176461E+02  0.53130312724E+02  0.51100000000E-03 0.  1.
         22    1    1    0    0    0  0.29527810288E+02 -0.41218479180E+02 -0.43696390117E+01  0.50891535165E+02  0.00000000000E+00 0.  1.
</event>
<event>
 4    1  0.1977762E-002  0.9118800E+02  0.7818608E-02  0.1130116E+00
         25   -1    0    0    0    0  0.00000000000E+00  0.00000000000E+00  0.99999998245E-14  0.12500000000E+03  0.12500000000E+03 0.  0.
        -11    1    1    0    0    0 -0.57484175773E+01  0.18533540393E+02  0.31401001825E+02  0.36912861444E+02  0.51100000000E-03 0.  1.
         11    1    1    0    0    0 -0.39887560778E+01  0.12854517501E+02  0.21761270497E+02  0.25587139135E+02  0.51100000000E-03 0. -1.
         22    1    1    0    0    0  0.97371736551E+01 -0.31388057894E+02 -0.53162272322E+02  0.62499999420E+02  0.00000000000E+00 0. -1.
</event>
<event>
 4    1  0.1977762E-002  0.9118800E+02  0.7818608E-02  0.1130116E+00
         25   -1    0    0    0    0  0.00000000000E+00  0.00000000000E+00  0.99999998245E-14  0.12500000000E+03  0.12500000000E+03 0.  0.
        -11    1    1    0    0    0  0.17296423753E+02  0.71131390545E+01 -0.32886308922E+02  0.37832160084E+02  0.51100000000E-03 0.  1.
         11    1    1    0    0    0  0.11274909428E+02  0.46428298010E+01 -0.21443481170E+02  0.24667840118E+02  0.51100000000E-03 0. -1.
         22    1    1    0    0    0 -0.28571333180E+02 -0.11755968856E+02  0.54329790091E+02  0.62499999798E+02  0.00000000000E+00 0.  1.
</event>
<event>
 4    1  0.1977762E-002  0.9118800E+02  0.7818608E-02  0.1130116E+00
         25   -1    0    0    0    0  0.00000000000E+00  0.00000000000E+00  0.99999998245E-14  0.12500000000E+03  0.12500000000E+03 0.  0.
        -11    1    1    0    0    0  0.42766282898E+01  0.27205870202E+01 -0.16663491131E+01  0.53355283610E+01  0.51100000000E-03 0.  1.
         11    1    1    0    0    0  0.45821359274E+02  0.29139615628E+02 -0.17862325193E+02  0.57164471712E+02  0.51100000000E-03 0. -1.
         22    1    1    0    0    0 -0.50097987563E+02 -0.31860202648E+02  0.19528674306E+02  0.62499999927E+02  0.00000000000E+00 0. -1.
</event>
<event>
 4    1  0.1977762E-002  0.9118800E+02  0.7818608E-02  0.1130116E+00
         25   -1    0    0    0    0  0.00000000000E+00  0.00000000000E+00  0.99999998245E-14  0.12500000000E+03  0.12500000000E+03 0.  0.
        -11    1    1    0    0    0 -0.40692603914E+01  0.76813768398E+01 -0.37639149997E+01  0.94725649469E+01  0.51100000000E-03 0.  1.
         11    1    1    0    0    0 -0.22672396248E+02  0.42970646646E+02 -0.21246131981E+02  0.53027465989E+02  0.51100000000E-03 0. -1.
         22    1    1    0    0    0  0.26741656639E+02 -0.50652023486E+02  0.25010046981E+02  0.62499969064E+02  0.00000000000E+00 0.  1.
</event>
<event>
 4    1  0.1977762E-002  0.9118800E+02  0.7818608E-02  0.1130116E+00
         25   -1    0    0    0    0  0.00000000000E+00  0.00000000000E+00  0.99999998245E-14  0.12500000000E+03  0.12500000000E+03 0.  0.
        -11    1    1    0    0    0  0.83928272886E+01  0.43088515129E+01 -0.24731928944E+02  0.26470248597E+02  0.51100000000E-03 0.  1.
         11    1    1    0    0    0  0.11423730309E+02  0.58633189611E+01 -0.33663969810E+02  0.36029751415E+02  0.51100000000E-03 0. -1.
         22    1    1    0    0    0 -0.19816557598E+02 -0.10172170474E+02  0.58395898754E+02  0.62499999988E+02  0.00000000000E+00 0. -1.
</event>
<event>
 4    1  0.1977762E-002  0.9118800E+02  0.7818608E-02  0.1130116E+00
         25   -1    0    0    0    0  0.00000000000E+00  0.00000000000E+00  0.99999998245E-14  0.12500000000E+03  0.12500000000E+03 0.  0.
        -11    1    1    0    0    0 -0.61413384891E+02  0.40815649385E+01 -0.26803363751E+00  0.61549450512E+02  0.51100000000E-03 0. -1.
         11    1    1    0    0    0 -0.94818214949E+00  0.67101641066E-01 -0.17688389951E-02  0.95055531599E+00  0.51100000000E-03 0.  1.
         22    1    1    0    0    0  0.62361567040E+02 -0.41486665795E+01  0.26980247650E+00  0.62499994172E+02  0.00000000000E+00 0. -1.
</event>
<event>
 4    1  0.1977762E-002  0.9118800E+02  0.7818608E-02  0.1130116E+00
         25   -1    0    0    0    0  0.00000000000E+00  0.00000000000E+00  0.99999998245E-14  0.12500000000E+03  0.12500000000E+03 0.  0.
        -11    1    1    0    0    0 -0.45702042277E+02 -0.75447429507E+01  0.41849073706E+01  0.46509281487E+02  0.51100000000E-03 0.  1.
         11    1    1    0    0    0 -0.16051446404E+02  0.15212902407E+00  0.98116922520E+00  0.16082125737E+02  0.51100000000E-03 0. -1.
         22    1    1    0    0    0  0.61753488681E+02  0.73926139266E+01 -0.51660765958E+01  0.62408592776E+02  0.00000000000E+00 0.  1.
</event>
<event>
 4    1  0.1977762E-002  0.9118800E+02  0.7818608E-02  0.1130116E+00
         25   -1    0    0    0    0  0.00000000000E+00  0.00000000000E+00  0.99999998245E-14  0.12500000000E+03  0.12500000000E+03 0.  0.
        -11    1    1    0    0    0 -0.21170452137E+02  0.43886132446E+02 -0.10058118325E+02  0.49752853278E+02  0.51100000000E-03 0.  1.
         11    1    1    0    0    0 -0.27166932938E+01  0.12148069629E+02 -0.33174976912E+01  0.12882616557E+02  0.51100000000E-03 0. -1.
         22    1    1    0    0    0  0.23887145431E+02 -0.56034202075E+02  0.13375616016E+02  0.62364530166E+02  0.00000000000E+00 0.  1.
</event>
<event>
 4    1  0.1977762E-002  0.9118800E+02  0.7818608E-02  0.1130116E+00
         25   -1    0    0    0    0  0.00000000000E+00  0.00000000000E+00  0.99999998245E-14  0.12500000000E+03  0.12500000000E+03 0.  0.
        -11    1    1    0    0    0  0.43389406242E+01 -0.40187731261E+02 -0.36024086383E+01  0.40581492061E+02  0.51100000000E-03 0.  1.
         11    1    1    0    0    0  0.23268442596E+01 -0.21719471089E+02 -0.18103749624E+01  0.21918647001E+02  0.51100000000E-03 0. -1.
         22    1    1    0    0    0 -0.66657848838E+01  0.61907202350E+02  0.54127836007E+01  0.62499860938E+02  0.00000000000E+00 0.  1.
</event>
<event>
 4    1  0.1977762E-002  0.9118800E+02  0.7818608E-02  0.1130116E+00
         25   -1    0    0    0    0  0.00000000000E+00  0.00000000000E+00  0.99999998245E-14  0.12500000000E+03  0.12500000000E+03 0.  0.
        -11    1    1    0    0    0 -0.17102822683E+02  0.15501589880E+02 -0.10592827750E+01  0.23106880204E+02  0.51100000000E-03 0. -1.
         11    1    1    0    0    0 -0.29157328732E+02  0.26427341364E+02 -0.18065705217E+01  0.39393119801E+02  0.51100000000E-03 0. -1.
         22    1    1    0    0    0  0.46260151414E+02 -0.41928931244E+02  0.28658532967E+01  0.62499999994E+02  0.00000000000E+00 0. -1.
</event>
<event>
 4    1  0.1977762E-002  0.9118800E+02  0.7818608E-02  0.1130116E+00
         25   -1    0    0    0    0  0.00000000000E+00  0.00000000000E+00  0.99999998245E-14  0.12500000000E+03  0.12500000000E+03 0.  0.
        -11    1    1    0    0    0 -0.21828176231E+02  0.58428329864E+01  0.46097279737E+02  0.51337775315E+02  0.51100000000E-03 0.  1.
         11    1    1    0    0    0 -0.47560702771E+01  0.12712324167E+01  0.10017937652E+02  0.11162226991E+02  0.51100000000E-03 0. -1.
         22    1    1    0    0    0  0.26584246509E+02 -0.71140654031E+01 -0.56115217390E+02  0.62499997693E+02  0.00000000000E+00 0.  1.
</event>
<event>
 4    1  0.1977762E-002  0.9118800E+02  0.7818608E-02  0.1130116E+00
         25   -1    0    0    0    0  0.00000000000E+00  0.00000000000E+00  0.99999998245E-14  0.12500000000E+03  0.12500000000E+03 0.  0.
        -11    1    1    0    0    0  0.69338737912E+01  0.45830507044E+02  0.13052231622E+02  0.48154695848E+02  0.51100000000E-03 0.  1.
         11    1    1    0    0    0  0.35797682973E+01  0.12693369132E+02  0.58847808722E+01  0.14441849160E+02  0.51100000000E-03 0. -1.
         22    1    1    0    0    0 -0.10513642089E+02 -0.58523876176E+02 -0.18937012494E+02  0.62403454991E+02  0.00000000000E+00 0.  1.
</event>
<event>
 4    1  0.1977762E-002  0.9118800E+02  0.7818608E-02  0.1130116E+00
         25   -1    0    0    0    0  0.00000000000E+00  0.00000000000E+00  0.99999998245E-14  0.12500000000E+03  0.12500000000E+03 0.  0.
        -11    1    1    0    0    0  0.20198554632E+02 -0.15591135333E+02 -0.11942076430E+02  0.28172296674E+02  0.51100000000E-03 0. -1.
         11    1    1    0    0    0  0.24519895637E+02 -0.19309755302E+02 -0.14294683693E+02  0.34328266982E+02  0.51100000000E-03 0.  1.
         22    1    1    0    0    0 -0.44718450269E+02  0.34900890635E+02  0.26236760123E+02  0.62499436344E+02  0.00000000000E+00 0. -1.
</event>
<event>
 4    1  0.1977762E-002  0.9118800E+02  0.7818608E-02  0.1130116E+00
         25   -1    0    0    0    0  0.00000000000E+00  0.00000000000E+00  0.99999998245E-14  0.12500000000E+03  0.12500000000E+03 0.  0.
        -11    1    1    0    0    0 -0.11067790308E+01 -0.29458917443E+00 -0.15917147276E+01  0.19609433036E+01  0.51100000000E-03 0. -1.
         11    1    1    0    0    0 -0.34175401747E+02 -0.90555357461E+01 -0.49142818419E+02  0.60539056936E+02  0.51100000000E-03 0.  1.
         22    1    1    0    0    0  0.35282180778E+02  0.93501249205E+01  0.50734533147E+02  0.62499999761E+02  0.00000000000E+00 0.  1.
</event>
<event>
 4    1  0.1977762E-002  0.9118800E+02  0.7818608E-02  0.1130116E+00
         25   -1    0    0    0    0  0.00000000000E+00  0.00000000000E+00  0.99999998245E-14  0.12500000000E+03  0.12500000000E+03 0.  0.
        -11    1    1    0    0    0  0.61320398754E+01  0.21499891151E+02 -0.33525456393E+02  0.40296444746E+02  0.51100000000E-03 0. -1.
         11    1    1    0    0    0  0.33722920032E+01  0.11854767052E+02 -0.18468623429E+02  0.22203556176E+02  0.51100000000E-03 0.  1.
         22    1    1    0    0    0 -0.95043318787E+01 -0.33354658203E+02  0.51994079822E+02  0.62499999079E+02  0.00000000000E+00 0. -1.
</event>
<event>
 4    1  0.1977762E-002  0.9118800E+02  0.7818608E-02  0.1130116E+00
         25   -1    0    0    0    0  0.00000000000E+00  0.00000000000E+00  0.99999998245E-14  0.12500000000E+03  0.12500000000E+03 0.  0.
        -11    1    1    0    0    0  0.11971527526E+02  0.53851130839E+02  0.32485219534E+01  0.55261330594E+02  0.51100000000E-03 0.  1.
         11    1    1    0    0    0  0.44186569748E+00  0.72241047347E+01  0.80947743155E+00  0.72827322129E+01  0.51100000000E-03 0. -1.
         22    1    1    0    0    0 -0.12413393223E+02 -0.61075235573E+02 -0.40579993850E+01  0.62455937193E+02  0.00000000000E+00 0.  1.
</event>
<event>
 4    1  0.1977762E-002  0.9118800E+02  0.7818608E-02  0.1130116E+00
         25   -1    0    0    0    0  0.00000000000E+00  0.00000000000E+00  0.99999998245E-14  0.12500000000E+03  0.12500000000E+03 0.  0.
        -11    1    1    0    0    0  0.19012986167E+01  0.44395126670E+01  0.46664895796E+01  0.67156782538E+01  0.51100000000E-03 0.  1.
         11    1    1    0    0    0  0.22225692512E+01  0.81162542159E+01  0.55779397241E+02  0.56410589018E+02  0.51100000000E-03 0. -1.
         22    1    1    0    0    0 -0.41238678679E+01 -0.12555766883E+02 -0.60445886820E+02  0.61873732728E+02  0.00000000000E+00 0. -1.
</event>
<event>
 4    1  0.1977762E-002  0.9118800E+02  0.7818608E-02  0.1130116E+00
         25   -1    0    0    0    0  0.00000000000E+00  0.00000000000E+00  0.99999998245E-14  0.12500000000E+03  0.12500000000E+03 0.  0.
        -11    1    1    0    0    0 -0.57538138524E+01  0.14730469833E+02 -0.42842027073E+02  0.45667629666E+02  0.51100000000E-03 0. -1.
         11    1    1    0    0    0  0.48893564494E+00  0.18979970739E+01 -0.16942480376E+02  0.17055471044E+02  0.51100000000E-03 0.  1.
         22    1    1    0    0    0  0.52648782075E+01 -0.16628466906E+02  0.59784507450E+02  0.62276899290E+02  0.00000000000E+00 0. -1.
</event>
<event>
 4    1  0.1977762E-002  0.9118800E+02  0.7818608E-02  0.1130116E+00
         25   -1    0    0    0    0  0.00000000000E+00  0.00000000000E+00  0.99999998245E-14  0.12500000000E+03  0.12500000000E+03 0.  0.
        -11    1    1    0    0    0 -0.72058687532E+01  0.44935818122E+02 -0.10490755579E+02  0.46703407239E+02  0.51100000000E-03 0. -1.
         11    1    1    0    0    0 -0.30248962797E+01  0.10716452931E+02 -0.12923303289E+02  0.17058843135E+02  0.51100000000E-03 0.  1.
         22    1    1    0    0    0  0.10230765033E+02 -0.55652271054E+02  0.23414058869E+02  0.61237749626E+02  0.00000000000E+00 0. -1.
</event>
<event>
 4    1  0.1977762E-002  0.9118800E+02  0.7818608E-02  0.1130116E+00
         25   -1    0    0    0    0  0.00000000000E+00  0.00000000000E+00  0.99999998245E-14  0.12500000000E+03  0.12500000000E+03 0.  0.
        -11    1    1    0    0    0 -0.10224960145E+01  0.41565843557E+00  0.28710748167E+00  0.11404827933E+01  0.51100000000E-03 0. -1.
         11    1    1    0    0    0 -0.55007074949E+02  0.22325597454E+02  0.15517081577E+02  0.61359517738E+02  0.51100000000E-03 0.  1.
         22    1    1    0    0    0  0.56029570964E+02 -0.22741255890E+02 -0.15804189058E+02  0.62499999469E+02  0.00000000000E+00 0.  1.
</event>
<event>
 4    1  0.1977762E-002  0.9118800E+02  0.7818608E-02  0.1130116E+00
         25   -1    0    0    0    0  0.00000000000E+00  0.00000000000E+00  0.99999998245E-14  0.12500000000E+03  0.12500000000E+03 0.  0.
        -11    1    1    0    0    0  0.40582248502E+01  0.15723476239E+02  0.79759566950E+01  0.18091787624E+02  0.51100000000E-03 0. -1.
         11    1    1    0    0    0  0.99920903044E+01  0.38581174712E+02  0.19589298076E+02  0.44408214444E+02  0.51100000000E-03 0.  1.
         22    1    1    0    0    0 -0.14050315155E+02 -0.54304650951E+02 -0.27565254771E+02  0.62499997931E+02  0.00000000000E+00 0.  1.
</event>
<event>
 4    1  0.1977762E-002  0.9118800E+02  0.7818608E-02  0.1130116E+00
         25   -1    0    0    0    0  0.00000000000E+00  0.00000000000E+00  0.99999998245E-14  0.12500000000E+03  0.12500000000E+03 0.  0.
        -11    1    1    0    0    0 -0.16433927167E+02  0.11525411728E+02 -0.84694050989E+01  0.21786231905E+02  0.51100000000E-03 0. -1.
         11    1    1    0    0    0 -0.25218661053E+02  0.18430995165E+02 -0.26632916028E+02  0.41048686514E+02  0.51100000000E-03 0.  1.
         22    1    1    0    0    0  0.41652588220E+02 -0.29956406894E+02  0.35102321127E+02  0.62165081581E+02  0.00000000000E+00 0. -1.
</event>
<event>
 4    1  0.1977762E-002  0.9118800E+02  0.7818608E-02  0.1130116E+00
         25   -1    0    0    0    0  0.00000000000E+00  0.00000000000E+00  0.99999998245E-14  0.12500000000E+03  0.12500000000E+03 0.  0.
        -11    1    1    0    0    0 -0.72578868646E+01 -0.53053929851E+01 -0.61414274093E+00  0.90111757298E+01  0.51100000000E-03 0.  1.
         11    1    1    0    0    0 -0.18924108116E+02  0.26505794734E+02 -0.47293018108E+02  0.57422195922E+02  0.51100000000E-03 0. -1.
         22    1    1    0    0    0  0.26181994980E+02 -0.21200401749E+02  0.47907160849E+02  0.58566628348E+02  0.00000000000E+00 0. -1.
</event>
<event>
 4    1  0.1977762E-002  0.9118800E+02  0.7818608E-02  0.1130116E+00
         25   -1    0    0    0    0  0.00000000000E+00  0.00000000000E+00  0.99999998245E-14  0.12500000000E+03  0.12500000000E+03 0.  0.
        -11    1    1    0    0    0  0.36877790718E+00 -0.12556928502E+01  0.12617518808E+01  0.18179053189E+01  0.51100000000E-03 0.  1.
         11    1    1    0    0    0  0.12851442502E+02 -0.41189642169E+02  0.42668334372E+02  0.60682229316E+02  0.51100000000E-03 0. -1.
         22    1    1    0    0    0 -0.13220220409E+02  0.42445335019E+02 -0.43930086253E+02  0.62499865366E+02  0.00000000000E+00 0. -1.
</event>
<event>
 4    1  0.1977762E-002  0.9118800E+02  0.7818608E-02  0.1130116E+00
         25   -1    0    0    0    0  0.00000000000E+00  0.00000000000E+00  0.99999998245E-14  0.12500000000E+03  0.12500000000E+03 0.  0.
        -11    1    1    0    0    0  0.24650408206E+02  0.23917203072E+02 -0.43243897235E+02  0.55224178362E+02  0.51100000000E-03 0. -1.
         11    1    1    0    0    0  0.32963700438E+01  0.31910043215E+01 -0.56472892347E+01  0.72760181423E+01  0.51100000000E-03 0.  1.
         22    1    1    0    0    0 -0.27946778249E+02 -0.27108207393E+02  0.48891186469E+02  0.62499803496E+02  0.00000000000E+00 0. -1.
</event>
<event>
 4    1  0.1977762E-002  0.9118800E+02  0.7818608E-02  0.1130116E+00
         25   -1    0    0    0    0  0.00000000000E+00  0.00000000000E+00  0.99999998245E-14  0.12500000000E+03  0.12500000000E+03 0.  0.
        -11    1    1    0    0    0 -0.93897633721E+01 -0.94089818809E-01  0.22439176444E+02  0.24324743551E+02  0.51100000000E-03 0. -1.
         11    1    1    0    0    0 -0.14737672516E+02 -0.15534022755E+00  0.35215438307E+02  0.38175256609E+02  0.51100000000E-03 0.  1.
         22    1    1    0    0    0  0.24127435888E+02  0.24943004636E+00 -0.57654614751E+02  0.62499999840E+02  0.00000000000E+00 0.  1.
</event>
<event>
 4    1  0.1977762E-002  0.9118800E+02  0.7818608E-02  0.1130116E+00
         25   -1    0    0    0    0  0.00000000000E+00  0.00000000000E+00  0.99999998245E-14  0.12500000000E+03  0.12500000000E+03 0.  0.
        -11    1    1    0    0    0  0.24744147386E+02 -0.82279001577E+01  0.14701091305E+02  0.29934816797E+02  0.51100000000E-03 0.  1.
         11    1    1    0    0    0  0.27209627557E+02 -0.83184262957E+01  0.15844635554E+02  0.32567046595E+02  0.51100000000E-03 0. -1.
         22    1    1    0    0    0 -0.51953774943E+02  0.16546326453E+02 -0.30545726859E+02  0.62498136607E+02  0.00000000000E+00 0.  1.
</event>
<event>
 4    1  0.1977762E-002  0.9118800E+02  0.7818608E-02  0.1130116E+00
         25   -1    0    0    0    0  0.00000000000E+00  0.00000000000E+00  0.99999998245E-14  0.12500000000E+03  0.12500000000E+03 0.  0.
        -11    1    1    0    0    0 -0.51368117107E+02  0.11950443297E+02 -0.32548809428E+02  0.61975168782E+02  0.51100000000E-03 0.  1.
         11    1    1    0    0    0 -0.43452221071E+00  0.10110168346E+00 -0.27643627540E+00  0.52483176111E+00  0.51100000000E-03 0.  1.
         22    1    1    0    0    0  0.51802639317E+02 -0.12051544980E+02  0.32825245703E+02  0.62499999457E+02  0.00000000000E+00 0.  1.
</event>
<event>
 4    1  0.1977762E-002  0.9118800E+02  0.7818608E-02  0.1130116E+00
         25   -1    0    0    0    0  0.00000000000E+00  0.00000000000E+00  0.99999998245E-14  0.12500000000E+03  0.12500000000E+03 0.  0.
        -11    1    1    0    0    0  0.67574199362E+00 -0.19637104335E+01  0.24651049099E+01  0.32232791356E+01  0.51100000000E-03 0.  1.
         11    1    1    0    0    0  0.22906544322E+02 -0.30657670221E+02  0.45307033770E+02  0.59307080736E+02  0.51100000000E-03 0. -1.
         22    1    1    0    0    0 -0.23582286316E+02  0.32621380655E+02 -0.47772138680E+02  0.62469640128E+02  0.00000000000E+00 0. -1.
</event>
<event>
 4    1  0.1977762E-002  0.9118800E+02  0.7818608E-02  0.1130116E+00
         25   -1    0    0    0    0  0.00000000000E+00  0.00000000000E+00  0.99999998245E-14  0.12500000000E+03  0.12500000000E+03 0.  0.
        -11    1    1    0    0    0  0.33395145993E+01 -0.16244882232E+02  0.10617400770E+02  0.19692073427E+02  0.51100000000E-03 0.  1.
         11    1    1    0    0    0  0.72315119481E+01 -0.35298728722E+02  0.23113283881E+02  0.42807930416E+02  0.51100000000E-03 0. -1.
         22    1    1    0    0    0 -0.10571026547E+02  0.51543610955E+02 -0.33730684651E+02  0.62499996156E+02  0.00000000000E+00 0. -1.
</event>
<event>
 4    1  0.1977762E-002  0.9118800E+02  0.7818608E-02  0.1130116E+00
         25   -1    0    0    0    0  0.00000000000E+00  0.00000000000E+00  0.99999998245E-14  0.12500000000E+03  0.12500000000E+03 0.  0.
        -11    1    1    0    0    0  0.13162102695E+02 -0.14014409934E+02  0.45942667446E+01  0.19767445974E+02  0.51100000000E-03 0.  1.
         11    1    1    0    0    0  0.28475285870E+02 -0.30266951912E+02  0.99569673693E+01  0.42732557645E+02  0.51100000000E-03 0. -1.
         22    1    1    0    0    0 -0.41637388565E+02  0.44281361846E+02 -0.14551234114E+02  0.62499996381E+02  0.00000000000E+00 0. -1.
</event>
<event>
 4    1  0.1977762E-002  0.9118800E+02  0.7818608E-02  0.1130116E+00
         25   -1    0    0    0    0  0.00000000000E+00  0.00000000000E+00  0.99999998245E-14  0.12500000000E+03  0.12500000000E+03 0.  0.
        -11    1    1    0    0    0 -0.83430256178E-01 -0.14408079790E+01  0.14833031925E+01  0.20695595816E+01  0.51100000000E-03 0. -1.
         11    1    1    0    0    0 -0.11025073022E+02 -0.36909485965E+02  0.46581277428E+02  0.60445659864E+02  0.51100000000E-03 0.  1.
         22    1    1    0    0    0  0.11108503278E+02  0.38350293944E+02 -0.48064580620E+02  0.62484780554E+02  0.00000000000E+00 0.  1.
</event>
<event>
 4    1  0.1977762E-002  0.9118800E+02  0.7818608E-02  0.1130116E+00
         25   -1    0    0    0    0  0.00000000000E+00  0.00000000000E+00  0.99999998245E-14  0.12500000000E+03  0.12500000000E+03 0.  0.
        -11    1    1    0    0    0  0.31320962585E+02  0.10053001528E+02 -0.48548124517E+02  0.58642867694E+02  0.51100000000E-03 0.  1.
         11    1    1    0    0    0  0.21975778107E+01 -0.12590263274E+01 -0.31981243192E+01  0.40795214118E+01  0.51100000000E-03 0. -1.
         22    1    1    0    0    0 -0.33518540395E+02 -0.87939752010E+01  0.51746248836E+02  0.62277610894E+02  0.00000000000E+00 0.  1.
</event>
<event>
 4    1  0.1977762E-002  0.9118800E+02  0.7818608E-02  0.1130116E+00
         25   -1    0    0    0    0  0.00000000000E+00  0.00000000000E+00  0.99999998245E-14  0.12500000000E+03  0.12500000000E+03 0.  0.
        -11    1    1    0    0    0  0.15077627155E+02 -0.16024115472E+02  0.44231531605E+02  0.49401776342E+02  0.51100000000E-03 0.  1.
         11    1    1    0    0    0  0.39136221346E+01 -0.39230156503E+01  0.11870541353E+02  0.13100238253E+02  0.51100000000E-03 0. -1.
         22    1    1    0    0    0 -0.18991249289E+02  0.19947131122E+02 -0.56102072958E+02  0.62497985406E+02  0.00000000000E+00 0.  1.
</event>
<event>
 4    1  0.1977762E-002  0.9118800E+02  0.7818608E-02  0.1130116E+00
         25   -1    0    0    0    0  0.00000000000E+00  0.00000000000E+00  0.99999998245E-14  0.12500000000E+03  0.12500000000E+03 0.  0.
        -11    1    1    0    0    0  0.20063724403E+01  0.41230809614E+02  0.37391402934E+02  0.55696698335E+02  0.51100000000E-03 0. -1.
         11    1    1    0    0    0  0.24909594771E+00  0.50355393856E+01  0.45679552724E+01  0.68033022369E+01  0.51100000000E-03 0.  1.
         22    1    1    0    0    0 -0.22554683880E+01 -0.46266349000E+02 -0.41959358206E+02  0.62499999428E+02  0.00000000000E+00 0. -1.
</event>
<event>
 4    1  0.1977762E-002  0.9118800E+02  0.7818608E-02  0.1130116E+00
         25   -1    0    0    0    0  0.00000000000E+00  0.00000000000E+00  0.99999998245E-14  0.12500000000E+03  0.12500000000E+03 0.  0.
        -11    1    1    0    0    0 -0.14750574965E+00 -0.17781499322E+01  0.36217932610E+01  0.40374449611E+01  0.51100000000E-03 0. -1.
         11    1    1    0    0    0 -0.21889378588E+01 -0.25723622638E+02  0.52453543690E+02  0.58462556020E+02  0.51100000000E-03 0.  1.
         22    1    1    0    0    0  0.23364436085E+01  0.27501772570E+02 -0.56075336951E+02  0.62499999019E+02  0.00000000000E+00 0.  1.
</event>
<event>
 4    1  0.1977762E-002  0.9118800E+02  0.7818608E-02  0.1130116E+00
         25   -1    0    0    0    0  0.00000000000E+00  0.00000000000E+00  0.99999998245E-14  0.12500000000E+03  0.12500000000E+03 0.  0.
        -11    1    1    0    0    0  0.28981891655E+02 -0.59541467162E+01 -0.18033993083E+02  0.34650062248E+02  0.51100000000E-03 0.  1.
         11    1    1    0    0    0  0.22693651888E+02 -0.52027268188E+01 -0.15292927040E+02  0.27855768165E+02  0.51100000000E-03 0. -1.
         22    1    1    0    0    0 -0.51675543543E+02  0.11156873535E+02  0.33326920123E+02  0.62494169587E+02  0.00000000000E+00 0.  1.
</event>
<event>
 4    1  0.1977762E-002  0.9118800E+02  0.7818608E-02  0.1130116E+00
         25   -1    0    0    0    0  0.00000000000E+00  0.00000000000E+00  0.99999998245E-14  0.12500000000E+03  0.12500000000E+03 0.  0.
        -11    1    1    0    0    0 -0.12202995838E+02  0.27760597114E+02  0.18185087117E+02  0.35359033546E+02  0.51100000000E-03 0. -1.
         11    1    1    0    0    0 -0.12750086744E+02  0.15793803687E+02  0.18503597593E+02  0.27466198700E+02  0.51100000000E-03 0.  1.
         22    1    1    0    0    0  0.24953082582E+02 -0.43554400801E+02 -0.36688684710E+02  0.62174767754E+02  0.00000000000E+00 0. -1.
</event>
<event>
 4    1  0.1977762E-002  0.9118800E+02  0.7818608E-02  0.1130116E+00
         25   -1    0    0    0    0  0.00000000000E+00  0.00000000000E+00  0.99999998245E-14  0.12500000000E+03  0.12500000000E+03 0.  0.
        -11    1    1    0    0    0 -0.14157252575E+02 -0.52527087042E+02 -0.68564930384E+01  0.54831871851E+02  0.51100000000E-03 0. -1.
         11    1    1    0    0    0  0.20097996091E+02  0.14996141860E+02 -0.11941577067E+02  0.27774358330E+02  0.51100000000E-03 0.  1.
         22    1    1    0    0    0 -0.59407435152E+01  0.37530945182E+02  0.18798070105E+02  0.42393769819E+02  0.00000000000E+00 0. -1.
</event>
<event>
 4    1  0.1977762E-002  0.9118800E+02  0.7818608E-02  0.1130116E+00
         25   -1    0    0    0    0  0.00000000000E+00  0.00000000000E+00  0.99999998245E-14  0.12500000000E+03  0.12500000000E+03 0.  0.
        -11    1    1    0    0    0 -0.95700466693E+01 -0.44034348264E+02 -0.16188038491E+02  0.47881752377E+02  0.51100000000E-03 0. -1.
         11    1    1    0    0    0 -0.30293917167E+01 -0.13508264574E+02 -0.46980433563E+01  0.14619235193E+02  0.51100000000E-03 0.  1.
         22    1    1    0    0    0  0.12599438386E+02  0.57542612838E+02  0.20886081847E+02  0.62499012430E+02  0.00000000000E+00 0. -1.
</event>
<event>
 4    1  0.1977762E-002  0.9118800E+02  0.7818608E-02  0.1130116E+00
         25   -1    0    0    0    0  0.00000000000E+00  0.00000000000E+00  0.99999998245E-14  0.12500000000E+03  0.12500000000E+03 0.  0.
        -11    1    1    0    0    0 -0.87413949269E+01  0.12050059568E+02  0.46726023319E+01  0.15602856587E+02  0.51100000000E-03 0. -1.
         11    1    1    0    0    0 -0.26273365307E+02  0.36219918418E+02  0.14041718087E+02  0.46897143430E+02  0.51100000000E-03 0. -1.
         22    1    1    0    0    0  0.35014760234E+02 -0.48269977986E+02 -0.18714320419E+02  0.62499999983E+02  0.00000000000E+00 0. -1.
</event>
<event>
 4    1  0.1977762E-002  0.9118800E+02  0.7818608E-02  0.1130116E+00
         25   -1    0    0    0    0  0.00000000000E+00  0.00000000000E+00  0.99999998245E-14  0.12500000000E+03  0.12500000000E+03 0.  0.
        -11    1    1    0    0    0  0.13318713799E+02 -0.22176100402E+02 -0.24879219282E+01  0.25987637870E+02  0.51100000000E-03 0. -1.
         11    1    1    0    0    0  0.19178977770E+02 -0.30842723452E+02 -0.37584510661E+01  0.36513459613E+02  0.51100000000E-03 0.  1.
         22    1    1    0    0    0 -0.32497691569E+02  0.53018823854E+02  0.62463729943E+01  0.62498902516E+02  0.00000000000E+00 0. -1.
</event>
<event>
 4    1  0.1977762E-002  0.9118800E+02  0.7818608E-02  0.1130116E+00
         25   -1    0    0    0    0  0.00000000000E+00  0.00000000000E+00  0.99999998245E-14  0.12500000000E+03  0.12500000000E+03 0.  0.
        -11    1    1    0    0    0 -0.11250907059E+02 -0.30826151704E+00  0.57259975012E+00  0.11269685247E+02  0.51100000000E-03 0. -1.
         11    1    1    0    0    0 -0.50194840211E+02 -0.52599554666E+01  0.90869443522E+01  0.51281201948E+02  0.51100000000E-03 0.  1.
         22    1    1    0    0    0  0.61445747270E+02  0.55682169836E+01 -0.96595441023E+01  0.62449112806E+02  0.00000000000E+00 0.  1.
</event>
<event>
 4    1  0.1977762E-002  0.9118800E+02  0.7818608E-02  0.1130116E+00
         25   -1    0    0    0    0  0.00000000000E+00  0.00000000000E+00  0.99999998245E-14  0.12500000000E+03  0.12500000000E+03 0.  0.
        -11    1    1    0    0    0 -0.21621945389E+01 -0.31076448299E+01 -0.35656885380E+01  0.52006419434E+01  0.51100000000E-03 0. -1.
         11    1    1    0    0    0 -0.22792165280E+02 -0.34440832875E+02 -0.39719218786E+02  0.57299826427E+02  0.51100000000E-03 0.  1.
         22    1    1    0    0    0  0.24954359819E+02  0.37548477705E+02  0.43284907324E+02  0.62499531630E+02  0.00000000000E+00 0.  1.
</event>
<event>
 4    1  0.1977762E-002  0.9118800E+02  0.7818608E-02  0.1130116E+00
         25   -1    0    0    0    0  0.00000000000E+00  0.00000000000E+00  0.99999998245E-14  0.12500000000E+03  0.12500000000E+03 0.  0.
        -11    1    1    0    0    0  0.52795244937E+01  0.25304405030E+01  0.17028652563E+00  0.58570902145E+01  0.51100000000E-03 0.  1.
         11    1    1    0    0    0  0.51054888170E+02  0.24477371148E+02  0.16358280127E+01  0.56642909865E+02  0.51100000000E-03 0. -1.
         22    1    1    0    0    0 -0.56334412664E+02 -0.27007811651E+02 -0.18061145383E+01  0.62499999921E+02  0.00000000000E+00 0. -1.
</event>
<event>
 4    1  0.1977762E-002  0.9118800E+02  0.7818608E-02  0.1130116E+00
         25   -1    0    0    0    0  0.00000000000E+00  0.00000000000E+00  0.99999998245E-14  0.12500000000E+03  0.12500000000E+03 0.  0.
        -11    1    1    0    0    0 -0.14269502576E+02 -0.26414974173E+02  0.18526145928E+02  0.35278713802E+02  0.51100000000E-03 0. -1.
         11    1    1    0    0    0 -0.11513885532E+02 -0.20244214471E+02  0.14095699042E+02  0.27222904168E+02  0.51100000000E-03 0.  1.
         22    1    1    0    0    0  0.25783388107E+02  0.46659188644E+02 -0.32621844969E+02  0.62498382030E+02  0.00000000000E+00 0. -1.
</event>
<event>
 4    1  0.1977762E-002  0.9118800E+02  0.7818608E-02  0.1130116E+00
         25   -1    0    0    0    0  0.00000000000E+00  0.00000000000E+00  0.99999998245E-14  0.12500000000E+03  0.12500000000E+03 0.  0.
        -11    1    1    0    0    0  0.25151881736E+02  0.17298583565E+02  0.89847992450E+01  0.31821137094E+02  0.51100000000E-03 0.  1.
         11    1    1    0    0    0  0.24250387297E+02  0.16676281567E+02  0.86610033815E+01  0.30678862932E+02  0.51100000000E-03 0. -1.
         22    1    1    0    0    0 -0.49402269033E+02 -0.33974865132E+02 -0.17645802627E+02  0.62499999974E+02  0.00000000000E+00 0.  1.
</event>
<event>
 4    1  0.1977762E-002  0.9118800E+02  0.7818608E-02  0.1130116E+00
         25   -1    0    0    0    0  0.00000000000E+00  0.00000000000E+00  0.99999998245E-14  0.12500000000E+03  0.12500000000E+03 0.  0.
        -11    1    1    0    0    0  0.39543734822E+00  0.37212331995E+00  0.11189722466E+01  0.12437626829E+01  0.51100000000E-03 0. -1.
         11    1    1    0    0    0  0.19405523533E+02  0.18397089640E+02  0.55111699874E+02  0.61256238164E+02  0.51100000000E-03 0.  1.
         22    1    1    0    0    0 -0.19800960881E+02 -0.18769212960E+02 -0.56230672120E+02  0.62499999153E+02  0.00000000000E+00 0.  1.
</event>
<event>
 4    1  0.1977762E-002  0.9118800E+02  0.7818608E-02  0.1130116E+00
         25   -1    0    0    0    0  0.00000000000E+00  0.00000000000E+00  0.99999998245E-14  0.12500000000E+03  0.12500000000E+03 0.  0.
        -11    1    1    0    0    0 -0.30623663233E+02 -0.60974226474E+01  0.40993890009E+01  0.31492734133E+02  0.51100000000E-03 0.  1.
         11    1    1    0    0    0 -0.29348861044E+02 -0.74651945859E+01  0.68614008010E+01  0.31050983817E+02  0.51100000000E-03 0. -1.
         22    1    1    0    0    0  0.59972524277E+02  0.13562617233E+02 -0.10960789802E+02  0.62456282050E+02  0.00000000000E+00 0. -1.
</event>
<event>
 4    1  0.1977762E-002  0.9118800E+02  0.7818608E-02  0.1130116E+00
         25   -1    0    0    0    0  0.00000000000E+00  0.00000000000E+00  0.99999998245E-14  0.12500000000E+03  0.12500000000E+03 0.  0.
        -11    1    1    0    0    0 -0.22740143469E+02 -0.27471771593E+02  0.10008808543E+02  0.37040364579E+02  0.51100000000E-03 0. -1.
         11    1    1    0    0    0 -0.18189418206E+02 -0.14155521856E+02  0.11483066892E+02  0.25750622501E+02  0.51100000000E-03 0.  1.
         22    1    1    0    0    0  0.40929561674E+02  0.41627293449E+02 -0.21491875435E+02  0.62209012920E+02  0.00000000000E+00 0. -1.
</event>
<event>
 4    1  0.1977762E-002  0.9118800E+02  0.7818608E-02  0.1130116E+00
         25   -1    0    0    0    0  0.00000000000E+00  0.00000000000E+00  0.99999998245E-14  0.12500000000E+03  0.12500000000E+03 0.  0.
        -11    1    1    0    0    0 -0.94245752362E+01  0.71248568272E+01  0.35525296512E+02  0.37438387995E+02  0.51100000000E-03 0. -1.
         11    1    1    0    0    0 -0.63080058234E+01  0.47702361253E+01  0.23781049315E+02  0.25061612018E+02  0.51100000000E-03 0.  1.
         22    1    1    0    0    0  0.15732581060E+02 -0.11895092952E+02 -0.59306345826E+02  0.62499999987E+02  0.00000000000E+00 0.  1.
</event>
<event>
 4    1  0.1977762E-002  0.9118800E+02  0.7818608E-02  0.1130116E+00
         25   -1    0    0    0    0  0.00000000000E+00  0.00000000000E+00  0.99999998245E-14  0.12500000000E+03  0.12500000000E+03 0.  0.
        -11    1    1    0    0    0 -0.28059654454E+02 -0.79719254098E+01  0.19310518328E+02  0.34982737473E+02  0.51100000000E-03 0. -1.
         11    1    1    0    0    0 -0.22051970116E+02 -0.63483200613E+01  0.15185881005E+02  0.27517295212E+02  0.51100000000E-03 0.  1.
         22    1    1    0    0    0  0.50111624570E+02  0.14320245471E+02 -0.34496399333E+02  0.62499967315E+02  0.00000000000E+00 0. -1.
</event>
<event>
 4    1  0.1977762E-002  0.9118800E+02  0.7818608E-02  0.1130116E+00
         25   -1    0    0    0    0  0.00000000000E+00  0.00000000000E+00  0.99999998245E-14  0.12500000000E+03  0.12500000000E+03 0.  0.
        -11    1    1    0    0    0 -0.17103410293E+02 -0.19068733700E+02 -0.37594810125E+01  0.25889707343E+02  0.51100000000E-03 0. -1.
         11    1    1    0    0    0 -0.14974542484E+02 -0.27456330026E+02 -0.20729477128E+02  0.37520637033E+02  0.51100000000E-03 0.  1.
         22    1    1    0    0    0  0.32077952777E+02  0.46525063725E+02  0.24488958141E+02  0.61589655624E+02  0.00000000000E+00 0. -1.
</event>
<event>
 4    1  0.1977762E-002  0.9118800E+02  0.7818608E-02  0.1130116E+00
         25   -1    0    0    0    0  0.00000000000E+00  0.00000000000E+00  0.99999998245E-14  0.12500000000E+03  0.12500000000E+03 0.  0.
        -11    1    1    0    0    0  0.23705998441E+02  0.89737726182E+01 -0.88824279744E+01  0.26858899532E+02  0.51100000000E-03 0.  1.
         11    1    1    0    0    0  0.31500644810E+02  0.11602546667E+02 -0.11975241627E+02  0.35641494426E+02  0.51100000000E-03 0. -1.
         22    1    1    0    0    0 -0.55206643251E+02 -0.20576319285E+02  0.20857669601E+02  0.62499606043E+02  0.00000000000E+00 0. -1.
</event>
<event>
 4    1  0.1977762E-002  0.9118800E+02  0.7818608E-02  0.1130116E+00
         25   -1    0    0    0    0  0.00000000000E+00  0.00000000000E+00  0.99999998245E-14  0.12500000000E+03  0.12500000000E+03 0.  0.
        -11    1    1    0    0    0 -0.32532046000E+02 -0.59489694121E+01 -0.36299290369E+02  0.49105628349E+02  0.51100000000E-03 0. -1.
         11    1    1    0    0    0  0.23022716907E+02 -0.21877507976E+02  0.36725594521E+01  0.31971214275E+02  0.51100000000E-03 0.  1.
         22    1    1    0    0    0  0.95093290930E+01  0.27826477388E+02  0.32626730917E+02  0.43923157377E+02  0.00000000000E+00 0. -1.
</event>
<event>
 4    1  0.1977762E-002  0.9118800E+02  0.7818608E-02  0.1130116E+00
         25   -1    0    0    0    0  0.00000000000E+00  0.00000000000E+00  0.99999998245E-14  0.12500000000E+03  0.12500000000E+03 0.  0.
        -11    1    1    0    0    0 -0.16528363799E+02 -0.47570644657E+02 -0.24986415029E+02  0.56218092988E+02  0.51100000000E-03 0. -1.
         11    1    1    0    0    0  0.61448685588E+01 -0.46476575052E+01 -0.34286932941E+01  0.84330343208E+01  0.51100000000E-03 0.  1.
         22    1    1    0    0    0  0.10383495240E+02  0.52218302162E+02  0.28415108323E+02  0.60348872691E+02  0.00000000000E+00 0. -1.
</event>
<event>
 4    1  0.1977762E-002  0.9118800E+02  0.7818608E-02  0.1130116E+00
         25   -1    0    0    0    0  0.00000000000E+00  0.00000000000E+00  0.99999998245E-14  0.12500000000E+03  0.12500000000E+03 0.  0.
        -11    1    1    0    0    0 -0.18442880748E+01  0.40130904997E+02 -0.20293258510E+02  0.45007857931E+02  0.51100000000E-03 0.  1.
         11    1    1    0    0    0 -0.71577061752E+00  0.15600718517E+02 -0.78791063087E+01  0.17492142873E+02  0.51100000000E-03 0. -1.
         22    1    1    0    0    0  0.25600586924E+01 -0.55731623513E+02  0.28172364819E+02  0.62499999195E+02  0.00000000000E+00 0.  1.
</event>
<event>
 4    1  0.1977762E-002  0.9118800E+02  0.7818608E-02  0.1130116E+00
         25   -1    0    0    0    0  0.00000000000E+00  0.00000000000E+00  0.99999998245E-14  0.12500000000E+03  0.12500000000E+03 0.  0.
        -11    1    1    0    0    0  0.70303857495E+01  0.65651662365E+01 -0.21519156070E+01  0.98568997429E+01  0.51100000000E-03 0.  1.
         11    1    1    0    0    0  0.14172400608E+02 -0.39923808662E+02 -0.39357044690E+02  0.57825119145E+02  0.51100000000E-03 0. -1.
         22    1    1    0    0    0 -0.21202786358E+02  0.33358642426E+02  0.41508960297E+02  0.57317981112E+02  0.00000000000E+00 0. -1.
</event>
<event>
 4    1  0.1977762E-002  0.9118800E+02  0.7818608E-02  0.1130116E+00
         25   -1    0    0    0    0  0.00000000000E+00  0.00000000000E+00  0.99999998245E-14  0.12500000000E+03  0.12500000000E+03 0.  0.
        -11    1    1    0    0    0 -0.12685443299E+02 -0.76073249479E+01  0.14421589910E+02  0.20658512056E+02  0.51100000000E-03 0. -1.
         11    1    1    0    0    0 -0.26379174306E+02 -0.15574267411E+02  0.28503617080E+02  0.41843456230E+02  0.51100000000E-03 0.  1.
         22    1    1    0    0    0  0.39064617605E+02  0.23181592358E+02 -0.42925206990E+02  0.62498031713E+02  0.00000000000E+00 0.  1.
</event>
<event>
 4    1  0.1977762E-002  0.9118800E+02  0.7818608E-02  0.1130116E+00
         25   -1    0    0    0    0  0.00000000000E+00  0.00000000000E+00  0.99999998245E-14  0.12500000000E+03  0.12500000000E+03 0.  0.
        -11    1    1    0    0    0  0.55653548101E+02 -0.14002170978E+02  0.19983341016E+02  0.60767689826E+02  0.51100000000E-03 0. -1.
         11    1    1    0    0    0  0.11204340264E+01 -0.80958061429E+00  0.12206817022E+01  0.18441413334E+01  0.51100000000E-03 0.  1.
         22    1    1    0    0    0 -0.56773982128E+02  0.14811751592E+02 -0.21204022718E+02  0.62388168841E+02  0.00000000000E+00 0. -1.
</event>
<event>
 4    1  0.1977762E-002  0.9118800E+02  0.7818608E-02  0.1130116E+00
         25   -1    0    0    0    0  0.00000000000E+00  0.00000000000E+00  0.99999998245E-14  0.12500000000E+03  0.12500000000E+03 0.  0.
        -11    1    1    0    0    0  0.25131917991E+02  0.47197328467E+02  0.24158115787E+02  0.58675511715E+02  0.51100000000E-03 0. -1.
         11    1    1    0    0    0  0.16388783023E+01  0.30762107518E+01  0.15740763246E+01  0.38244883600E+01  0.51100000000E-03 0. -1.
         22    1    1    0    0    0 -0.26770796293E+02 -0.50273539219E+02 -0.25732192112E+02  0.62499999925E+02  0.00000000000E+00 0. -1.
</event>
<event>
 4    1  0.1977762E-002  0.9118800E+02  0.7818608E-02  0.1130116E+00
         25   -1    0    0    0    0  0.00000000000E+00  0.00000000000E+00  0.99999998245E-14  0.12500000000E+03  0.12500000000E+03 0.  0.
        -11    1    1    0    0    0 -0.20931929317E+02  0.92222506392E+01 -0.45777620100E+01  0.23327054616E+02  0.51100000000E-03 0. -1.
         11    1    1    0    0    0 -0.35199437699E+02  0.15339849885E+02 -0.77597481875E+01  0.39173014960E+02  0.51100000000E-03 0.  1.
         22    1    1    0    0    0  0.56131367016E+02 -0.24562100524E+02  0.12337510198E+02  0.62499930425E+02  0.00000000000E+00 0.  1.
</event>
<event>
 4    1  0.1977762E-002  0.9118800E+02  0.7818608E-02  0.1130116E+00
         25   -1    0    0    0    0  0.00000000000E+00  0.00000000000E+00  0.99999998245E-14  0.12500000000E+03  0.12500000000E+03 0.  0.
        -11    1    1    0    0    0 -0.30183715189E-01  0.14420076239E+02  0.22708462340E+02  0.26900070110E+02  0.51100000000E-03 0.  1.
         11    1    1    0    0    0 -0.41540270614E-01  0.19082356969E+02  0.30053567779E+02  0.35599929910E+02  0.51100000000E-03 0. -1.
         22    1    1    0    0    0  0.71723985802E-01 -0.33502433208E+02 -0.52762030119E+02  0.62499999980E+02  0.00000000000E+00 0.  1.
</event>
<event>
 4    1  0.1977762E-002  0.9118800E+02  0.7818608E-02  0.1130116E+00
         25   -1    0    0    0    0  0.00000000000E+00  0.00000000000E+00  0.99999998245E-14  0.12500000000E+03  0.12500000000E+03 0.  0.
        -11    1    1    0    0    0  0.14544861123E+02 -0.16639904405E+02  0.38828701461E+02  0.44677818446E+02  0.51100000000E-03 0. -1.
         11    1    1    0    0    0  0.96704115338E+01 -0.59143794613E+01  0.13982162888E+02  0.17999933970E+02  0.51100000000E-03 0.  1.
         22    1    1    0    0    0 -0.24215272657E+02  0.22554283866E+02 -0.52810864349E+02  0.62322247584E+02  0.00000000000E+00 0. -1.
</event>
<event>
 4    1  0.1977762E-002  0.9118800E+02  0.7818608E-02  0.1130116E+00
         25   -1    0    0    0    0  0.00000000000E+00  0.00000000000E+00  0.99999998245E-14  0.12500000000E+03  0.12500000000E+03 0.  0.
        -11    1    1    0    0    0 -0.23951096523E+02 -0.31417341051E+02 -0.32257637612E+02  0.51002544328E+02  0.51100000000E-03 0.  1.
         11    1    1    0    0    0 -0.67443711407E+01 -0.37140976082E+01 -0.89118806238E+01  0.11777210181E+02  0.51100000000E-03 0. -1.
         22    1    1    0    0    0  0.30695467663E+02  0.35131438659E+02  0.41169518235E+02  0.62220245492E+02  0.00000000000E+00 0.  1.
</event>
<event>
 4    1  0.1977762E-002  0.9118800E+02  0.7818608E-02  0.1130116E+00
         25   -1    0    0    0    0  0.00000000000E+00  0.00000000000E+00  0.99999998245E-14  0.12500000000E+03  0.12500000000E+03 0.  0.
        -11    1    1    0    0    0 -0.35401156403E+01  0.48302833158E+01  0.33236755822E+01  0.68491514288E+01  0.51100000000E-03 0. -1.
         11    1    1    0    0    0 -0.28918436073E+02  0.39340397479E+02  0.26703574795E+02  0.55650909479E+02  0.51100000000E-03 0.  1.
         22    1    1    0    0    0  0.32458551713E+02 -0.44170680795E+02 -0.30027250378E+02  0.62499939092E+02  0.00000000000E+00 0.  1.
</event>
<event>
 4    1  0.1977762E-002  0.9118800E+02  0.7818608E-02  0.1130116E+00
         25   -1    0    0    0    0  0.00000000000E+00  0.00000000000E+00  0.99999998245E-14  0.12500000000E+03  0.12500000000E+03 0.  0.
        -11    1    1    0    0    0  0.95486018307E+01  0.11934065492E+02  0.45230872691E+00  0.15290595134E+02  0.51100000000E-03 0. -1.
         11    1    1    0    0    0  0.29616546199E+02  0.36741345941E+02  0.12909487431E+01  0.47209457307E+02  0.51100000000E-03 0.  1.
         22    1    1    0    0    0 -0.39165148030E+02 -0.48675411433E+02 -0.17432574700E+01  0.62499947560E+02  0.00000000000E+00 0.  1.
</event>
<event>
 4    1  0.1977762E-002  0.9118800E+02  0.7818608E-02  0.1130116E+00
         25   -1    0    0    0    0  0.00000000000E+00  0.00000000000E+00  0.99999998245E-14  0.12500000000E+03  0.12500000000E+03 0.  0.
        -11    1    1    0    0    0 -0.24578635732E+01 -0.38524093081E+02  0.20105455002E+02  0.43524431784E+02  0.51100000000E-03 0. -1.
         11    1    1    0    0    0 -0.10710835697E+01 -0.16796680666E+02  0.87633606405E+01  0.18975568276E+02  0.51100000000E-03 0.  1.
         22    1    1    0    0    0  0.35289471429E+01  0.55320773747E+02 -0.28868815642E+02  0.62499999940E+02  0.00000000000E+00 0. -1.
</event>
<event>
 4    1  0.1977762E-002  0.9118800E+02  0.7818608E-02  0.1130116E+00
         25   -1    0    0    0    0  0.00000000000E+00  0.00000000000E+00  0.99999998245E-14  0.12500000000E+03  0.12500000000E+03 0.  0.
        -11    1    1    0    0    0 -0.48873118006E+02 -0.16270155771E+02  0.17158255528E+02  0.54292774523E+02  0.51100000000E-03 0. -1.
         11    1    1    0    0    0 -0.75742990963E+01  0.43546847791E+00  0.37514632973E+01  0.84636349595E+01  0.51100000000E-03 0.  1.
         22    1    1    0    0    0  0.56447417102E+02  0.15834687294E+02 -0.20909718825E+02  0.62243590517E+02  0.00000000000E+00 0. -1.
</event>
<event>
 4    1  0.1977762E-002  0.9118800E+02  0.7818608E-02  0.1130116E+00
         25   -1    0    0    0    0  0.00000000000E+00  0.00000000000E+00  0.99999998245E-14  0.12500000000E+03  0.12500000000E+03 0.  0.
        -11    1    1    0    0    0 -0.28639360884E+01  0.59200036878E-01  0.45949570572E+00  0.29011672009E+01  0.51100000000E-03 0.  1.
         11    1    1    0    0    0 -0.58961465573E+02  0.15958509361E+01  0.85464578598E+01  0.59599019328E+02  0.51100000000E-03 0. -1.
         22    1    1    0    0    0  0.61825401661E+02 -0.16550509730E+01 -0.90059535655E+01  0.62499813471E+02  0.00000000000E+00 0. -1.
</event>
<event>
 4    1  0.1977762E-002  0.9118800E+02  0.7818608E-02  0.1130116E+00
         25   -1    0    0    0    0  0.00000000000E+00  0.00000000000E+00  0.99999998245E-14  0.12500000000E+03  0.12500000000E+03 0.  0.
        -11    1    1    0    0    0 -0.17064430230E+01 -0.84920579013E+00  0.13936239717E+01  0.23612044173E+01  0.51100000000E-03 0.  1.
         11    1    1    0    0    0 -0.50161789319E+02 -0.26741855232E+02  0.19782577016E+02  0.60188722221E+02  0.51100000000E-03 0. -1.
         22    1    1    0    0    0  0.51868232342E+02  0.27591061022E+02 -0.21176200987E+02  0.62450073362E+02  0.00000000000E+00 0. -1.
</event>
<event>
 4    1  0.1977762E-002  0.9118800E+02  0.7818608E-02  0.1130116E+00
         25   -1    0    0    0    0  0.00000000000E+00  0.00000000000E+00  0.99999998245E-14  0.12500000000E+03  0.12500000000E+03 0.  0.
        -11    1    1    0    0    0  0.81158425806E+00  0.44792096484E-01 -0.14242731782E+02  0.14265906358E+02  0.51100000000E-03 0.  1.
         11    1    1    0    0    0  0.32450638884E+01 -0.57170120790E+00 -0.48122333361E+02  0.48235010627E+02  0.51100000000E-03 0. -1.
         22    1    1    0    0    0 -0.40566481465E+01  0.52690911142E+00  0.62365065143E+02  0.62499083014E+02  0.00000000000E+00 0. -1.
</event>
<event>
 4    1  0.1977762E-002  0.9118800E+02  0.7818608E-02  0.1130116E+00
         25   -1    0    0    0    0  0.00000000000E+00  0.00000000000E+00  0.99999998245E-14  0.12500000000E+03  0.12500000000E+03 0.  0.
        -11    1    1    0    0    0  0.32548162806E+01  0.26081250647E+01 -0.62037119935E+00  0.42167530233E+01  0.51100000000E-03 0. -1.
         11    1    1    0    0    0  0.45081383947E+02  0.36008998173E+02 -0.82438943502E+01  0.58283281670E+02  0.51100000000E-03 0.  1.
         22    1    1    0    0    0 -0.48336200227E+02 -0.38617123237E+02  0.88642655495E+01  0.62499965306E+02  0.00000000000E+00 0.  1.
</event>
<event>
 4    1  0.1977762E-002  0.9118800E+02  0.7818608E-02  0.1130116E+00
         25   -1    0    0    0    0  0.00000000000E+00  0.00000000000E+00  0.99999998245E-14  0.12500000000E+03  0.12500000000E+03 0.  0.
        -11    1    1    0    0    0  0.42955789101E+02  0.82610800515E+01  0.29606255341E+02  0.52820219770E+02  0.51100000000E-03 0.  1.
         11    1    1    0    0    0 -0.53057752754E+01 -0.13118563249E+01  0.13477024901E+02  0.14543122729E+02  0.51100000000E-03 0. -1.
         22    1    1    0    0    0 -0.37650013826E+02 -0.69492237266E+01 -0.43083280242E+02  0.57636657501E+02  0.00000000000E+00 0.  1.
</event>
<event>
 4    1  0.1977762E-002  0.9118800E+02  0.7818608E-02  0.1130116E+00
         25   -1    0    0    0    0  0.00000000000E+00  0.00000000000E+00  0.99999998245E-14  0.12500000000E+03  0.12500000000E+03 0.  0.
        -11    1    1    0    0    0 -0.22581470419E+02  0.99622938034E+01  0.19078581907E+02  0.31195550835E+02  0.51100000000E-03 0.  1.
         11    1    1    0    0    0 -0.13714237739E+02  0.11923191046E+02  0.26134761893E+02  0.31831879947E+02  0.51100000000E-03 0. -1.
         22    1    1    0    0    0  0.36295708158E+02 -0.21885484850E+02 -0.45213343800E+02  0.61972569217E+02  0.00000000000E+00 0.  1.
</event>
<event>
 4    1  0.1977762E-002  0.9118800E+02  0.7818608E-02  0.1130116E+00
         25   -1    0    0    0    0  0.00000000000E+00  0.00000000000E+00  0.99999998245E-14  0.12500000000E+03  0.12500000000E+03 0.  0.
        -11    1    1    0    0    0  0.28640577993E+02 -0.16120070630E+02  0.93685952009E+01  0.34174697675E+02  0.51100000000E-03 0. -1.
         11    1    1    0    0    0  0.23732577396E+02 -0.13359762437E+02  0.77848819350E+01  0.28325304398E+02  0.51100000000E-03 0.  1.
         22    1    1    0    0    0 -0.52373155389E+02  0.29479833067E+02 -0.17153477136E+02  0.62499997927E+02  0.00000000000E+00 0. -1.
</event>
<event>
 4    1  0.1977762E-002  0.9118800E+02  0.7818608E-02  0.1130116E+00
         25   -1    0    0    0    0  0.00000000000E+00  0.00000000000E+00  0.99999998245E-14  0.12500000000E+03  0.12500000000E+03 0.  0.
        -11    1    1    0    0    0 -0.19324151335E+02 -0.87240561548E+01 -0.33014188807E+02  0.39236063047E+02  0.51100000000E-03 0. -1.
         11    1    1    0    0    0 -0.11442639566E+02  0.88440961996E+01 -0.19873142671E+02  0.24578320482E+02  0.51100000000E-03 0.  1.
         22    1    1    0    0    0  0.30766790901E+02 -0.12004004486E+00  0.52887331478E+02  0.61185616470E+02  0.00000000000E+00 0. -1.
</event>
<event>
 4    1  0.1977762E-002  0.9118800E+02  0.7818608E-02  0.1130116E+00
         25   -1    0    0    0    0  0.00000000000E+00  0.00000000000E+00  0.99999998245E-14  0.12500000000E+03  0.12500000000E+03 0.  0.
        -11    1    1    0    0    0  0.32443548626E+01  0.53056286744E+02 -0.13488573116E+02  0.54840103998E+02  0.51100000000E-03 0. -1.
         11    1    1    0    0    0  0.45184469995E+00  0.74107294861E+01 -0.18843917644E+01  0.76598960653E+01  0.51100000000E-03 0.  1.
         22    1    1    0    0    0 -0.36961995625E+01 -0.60467016230E+02  0.15372964880E+02  0.62499999937E+02  0.00000000000E+00 0. -1.
</event>
<event>
 4    1  0.1977762E-002  0.9118800E+02  0.7818608E-02  0.1130116E+00
         25   -1    0    0    0    0  0.00000000000E+00  0.00000000000E+00  0.99999998245E-14  0.12500000000E+03  0.12500000000E+03 0.  0.
        -11    1    1    0    0    0 -0.16856184389E+02 -0.17917066859E+02 -0.31802292863E+02  0.40206194406E+02  0.51100000000E-03 0. -1.
         11    1    1    0    0    0 -0.98674031430E+01 -0.98413622508E+01 -0.17404102435E+02  0.22296206797E+02  0.51100000000E-03 0.  1.
         22    1    1    0    0    0  0.26723587532E+02  0.27758429110E+02  0.49206395298E+02  0.62497598797E+02  0.00000000000E+00 0. -1.
</event>
<event>
 4    1  0.1977762E-002  0.9118800E+02  0.7818608E-02  0.1130116E+00
         25   -1    0    0    0    0  0.00000000000E+00  0.00000000000E+00  0.99999998245E-14  0.12500000000E+03  0.12500000000E+03 0.  0.
        -11    1    1    0    0    0 -0.27264579937E+02  0.50255277376E+02  0.13512734834E+02  0.58749844478E+02  0.51100000000E-03 0. -1.
         11    1    1    0    0    0 -0.26450543821E+01 -0.29973183878E+01  0.58327915024E+01  0.70711871121E+01  0.51100000000E-03 0.  1.
         22    1    1    0    0    0  0.29909634319E+02 -0.47257958988E+02 -0.19345526336E+02  0.59178968410E+02  0.00000000000E+00 0. -1.
</event>
<event>
 4    1  0.1977762E-002  0.9118800E+02  0.7818608E-02  0.1130116E+00
         25   -1    0    0    0    0  0.00000000000E+00  0.00000000000E+00  0.99999998245E-14  0.12500000000E+03  0.12500000000E+03 0.  0.
        -11    1    1    0    0    0 -0.18786245980E+02  0.12860593732E+02  0.27278196660E+02  0.35530520998E+02  0.51100000000E-03 0.  1.
         11    1    1    0    0    0 -0.14955150742E+02  0.84170540732E+01  0.20820779495E+02  0.26981626935E+02  0.51100000000E-03 0. -1.
         22    1    1    0    0    0  0.33741396721E+02 -0.21277647805E+02 -0.48098976155E+02  0.62487852067E+02  0.00000000000E+00 0.  1.
</event>
<event>
 4    1  0.1977762E-002  0.9118800E+02  0.7818608E-02  0.1130116E+00
         25   -1    0    0    0    0  0.00000000000E+00  0.00000000000E+00  0.99999998245E-14  0.12500000000E+03  0.12500000000E+03 0.  0.
        -11    1    1    0    0    0 -0.74335127921E+01 -0.29152182205E+01  0.10152081275E+02  0.12915895794E+02  0.51100000000E-03 0. -1.
         11    1    1    0    0    0 -0.28584696175E+02 -0.11301929500E+02  0.38907157130E+02  0.49584123891E+02  0.51100000000E-03 0.  1.
         22    1    1    0    0    0  0.36018208967E+02  0.14217147720E+02 -0.49059238405E+02  0.62499980315E+02  0.00000000000E+00 0.  1.
</event>
<event>
 4    1  0.1977762E-002  0.9118800E+02  0.7818608E-02  0.1130116E+00
         25   -1    0    0    0    0  0.00000000000E+00  0.00000000000E+00  0.99999998245E-14  0.12500000000E+03  0.12500000000E+03 0.  0.
        -11    1    1    0    0    0  0.53529796094E+02  0.59870924530E+01  0.14338659128E+02  0.55739406991E+02  0.51100000000E-03 0.  1.
         11    1    1    0    0    0  0.64921219243E+01  0.72869385110E+00  0.17398215591E+01  0.67605932526E+01  0.51100000000E-03 0. -1.
         22    1    1    0    0    0 -0.60021918018E+02 -0.67157863041E+01 -0.16078480687E+02  0.62499999756E+02  0.00000000000E+00 0.  1.
</event>
<event>
 4    1  0.1977762E-002  0.9118800E+02  0.7818608E-02  0.1130116E+00
         25   -1    0    0    0    0  0.00000000000E+00  0.00000000000E+00  0.99999998245E-14  0.12500000000E+03  0.12500000000E+03 0.  0.
        -11    1    1    0    0    0 -0.98483590956E+01 -0.43506383611E+02 -0.38883496141E+02  0.59175348450E+02  0.51100000000E-03 0.  1.
         11    1    1    0    0    0 -0.55499849214E+00 -0.24581270493E+01 -0.21686649297E+01  0.33246834067E+01  0.51100000000E-03 0. -1.
         22    1    1    0    0    0  0.10403357588E+02  0.45964510661E+02  0.41052161070E+02  0.62499968143E+02  0.00000000000E+00 0.  1.
</event>
<event>
 4    1  0.1977762E-002  0.9118800E+02  0.7818608E-02  0.1130116E+00
         25   -1    0    0    0    0  0.00000000000E+00  0.00000000000E+00  0.99999998245E-14  0.12500000000E+03  0.12500000000E+03 0.  0.
        -11    1    1    0    0    0  0.18903071764E+02 -0.10616506589E+02  0.38534789219E+02  0.44215001014E+02  0.51100000000E-03 0.  1.
         11    1    1    0    0    0  0.78288391249E+01 -0.43978468982E+01  0.15928260917E+02  0.18285001381E+02  0.51100000000E-03 0. -1.
         22    1    1    0    0    0 -0.26731910889E+02  0.15014353487E+02 -0.54463050137E+02  0.62499997605E+02  0.00000000000E+00 0.  1.
</event>
<event>
 4    1  0.1977762E-002  0.9118800E+02  0.7818608E-02  0.1130116E+00
         25   -1    0    0    0    0  0.00000000000E+00  0.00000000000E+00  0.99999998245E-14  0.12500000000E+03  0.12500000000E+03 0.  0.
        -11    1    1    0    0    0 -0.15398135110E+02  0.55751836197E+02 -0.63384448718E+01  0.58185442233E+02  0.51100000000E-03 0.  1.
         11    1    1    0    0    0 -0.11397053622E+01  0.41347974729E+01 -0.46897005933E+00  0.43145581040E+01  0.51100000000E-03 0. -1.
         22    1    1    0    0    0  0.16537840472E+02 -0.59886633670E+02  0.68074149311E+01  0.62499999663E+02  0.00000000000E+00 0.  1.
</event>
<event>
 4    1  0.1977762E-002  0.9118800E+02  0.7818608E-02  0.1130116E+00
         25   -1    0    0    0    0  0.00000000000E+00  0.00000000000E+00  0.99999998245E-14  0.12500000000E+03  0.12500000000E+03 0.  0.
        -11    1    1    0    0    0 -0.24710590532E+02  0.65673226299E+01 -0.40541593848E+02  0.47930823517E+02  0.51100000000E-03 0. -1.
         11    1    1    0    0    0 -0.68001297166E+01 -0.67691440052E-01 -0.12961515310E+02  0.14637186400E+02  0.51100000000E-03 0.  1.
         22    1    1    0    0    0  0.31510720248E+02 -0.64996311899E+01  0.53503109159E+02  0.62431990084E+02  0.00000000000E+00 0. -1.
</event>
<event>
 4    1  0.1977762E-002  0.9118800E+02  0.7818608E-02  0.1130116E+00
         25   -1    0    0    0    0  0.00000000000E+00  0.00000000000E+00  0.99999998245E-14  0.12500000000E+03  0.12500000000E+03 0.  0.
        -11    1    1    0    0    0  0.13767469100E+02 -0.30271857542E+01 -0.20206204494E+02  0.24637324517E+02  0.51100000000E-03 0. -1.
         11    1    1    0    0    0  0.22479508325E+02 -0.50177526610E+01 -0.30060618759E+02  0.37870132516E+02  0.51100000000E-03 0.  1.
         22    1    1    0    0    0 -0.36246977425E+02  0.80449384151E+01  0.50266823253E+02  0.62492542968E+02  0.00000000000E+00 0.  1.
</event>
<event>
 4    1  0.1977762E-002  0.9118800E+02  0.7818608E-02  0.1130116E+00
         25   -1    0    0    0    0  0.00000000000E+00  0.00000000000E+00  0.99999998245E-14  0.12500000000E+03  0.12500000000E+03 0.  0.
        -11    1    1    0    0    0 -0.11726196853E+02  0.10472041945E+02 -0.10857613800E+02  0.19106416011E+02  0.51100000000E-03 0.  1.
         11    1    1    0    0    0 -0.26271254831E+02  0.24488797051E+02 -0.24356375949E+02  0.43394850628E+02  0.51100000000E-03 0. -1.
         22    1    1    0    0    0  0.37997451683E+02 -0.34960838996E+02  0.35213989748E+02  0.62498733361E+02  0.00000000000E+00 0. -1.
</event>
<event>
 4    1  0.1977762E-002  0.9118800E+02  0.7818608E-02  0.1130116E+00
         25   -1    0    0    0    0  0.00000000000E+00  0.00000000000E+00  0.99999998245E-14  0.12500000000E+03  0.12500000000E+03 0.  0.
        -11    1    1    0    0    0 -0.10017823898E+01 -0.24647533713E+01 -0.25577560718E+00  0.26728259502E+01  0.51100000000E-03 0. -1.
         11    1    1    0    0    0 -0.53595533178E+02  0.18704217928E+02 -0.22400518233E+02  0.61025504196E+02  0.51100000000E-03 0.  1.
         22    1    1    0    0    0  0.54597315568E+02 -0.16239464557E+02  0.22656293840E+02  0.61301669854E+02  0.00000000000E+00 0.  1.
</event>
<event>
 4    1  0.1977762E-002  0.9118800E+02  0.7818608E-02  0.1130116E+00
         25   -1    0    0    0    0  0.00000000000E+00  0.00000000000E+00  0.99999998245E-14  0.12500000000E+03  0.12500000000E+03 0.  0.
        -11    1    1    0    0    0 -0.30108284872E+02  0.16291484437E+01 -0.36640586430E+02  0.47452033853E+02  0.51100000000E-03 0. -1.
         11    1    1    0    0    0 -0.13092767333E+02  0.65243067353E+01 -0.64509062626E+01  0.15987536604E+02  0.51100000000E-03 0.  1.
         22    1    1    0    0    0  0.43201052205E+02 -0.81534551790E+01  0.43091492693E+02  0.61560429542E+02  0.00000000000E+00 0. -1.
</event>
<event>
 4    1  0.1977762E-002  0.9118800E+02  0.7818608E-02  0.1130116E+00
         25   -1    0    0    0    0  0.00000000000E+00  0.00000000000E+00  0.99999998245E-14  0.12500000000E+03  0.12500000000E+03 0.  0.
        -11    1    1    0    0    0 -0.71760701731E+00 -0.15228002675E+01  0.19792616907E+01  0.25983374661E+01  0.51100000000E-03 0. -1.
         11    1    1    0    0    0 -0.16023822750E+02 -0.34783107406E+02  0.46060757416E+02  0.59901759827E+02  0.51100000000E-03 0.  1.
         22    1    1    0    0    0  0.16741429768E+02  0.36305907674E+02 -0.48040019107E+02  0.62499902707E+02  0.00000000000E+00 0.  1.
</event>
<event>
 4    1  0.1977762E-002  0.9118800E+02  0.7818608E-02  0.1130116E+00
         25   -1    0    0    0    0  0.00000000000E+00  0.00000000000E+00  0.99999998245E-14  0.12500000000E+03  0.12500000000E+03 0.  0.
        -11    1    1    0    0    0 -0.10770706831E+02  0.27721844194E+02 -0.26448552156E+02  0.39799933198E+02  0.51100000000E-03 0. -1.
         11    1    1    0    0    0 -0.15810184437E+02  0.17396164005E+02 -0.51150758061E+01  0.24057274467E+02  0.51100000000E-03 0.  1.
         22    1    1    0    0    0  0.26580891268E+02 -0.45118008198E+02  0.31563627962E+02  0.61142792335E+02  0.00000000000E+00 0. -1.
</event>
<event>
 4    1  0.1977762E-002  0.9118800E+02  0.7818608E-02  0.1130116E+00
         25   -1    0    0    0    0  0.00000000000E+00  0.00000000000E+00  0.99999998245E-14  0.12500000000E+03  0.12500000000E+03 0.  0.
        -11    1    1    0    0    0 -0.25088314436E+02  0.35749431196E+02 -0.69402822395E+01  0.44222311902E+02  0.51100000000E-03 0.  1.
         11    1    1    0    0    0 -0.10369783125E+02  0.14775429444E+02 -0.28684778055E+01  0.18277688106E+02  0.51100000000E-03 0.  1.
         22    1    1    0    0    0  0.35458097561E+02 -0.50524860641E+02  0.98087600450E+01  0.62499999992E+02  0.00000000000E+00 0.  1.
</event>
<event>
 4    1  0.1977762E-002  0.9118800E+02  0.7818608E-02  0.1130116E+00
         25   -1    0    0    0    0  0.00000000000E+00  0.00000000000E+00  0.99999998245E-14  0.12500000000E+03  0.12500000000E+03 0.  0.
        -11    1    1    0    0    0 -0.50552347108E+02  0.24859781311E+02 -0.61829345081E+01  0.56672543655E+02  0.51100000000E-03 0. -1.
         11    1    1    0    0    0 -0.52084994587E+01  0.25219572718E+01 -0.68723726640E+00  0.58276093223E+01  0.51100000000E-03 0.  1.
         22    1    1    0    0    0  0.55760846567E+02 -0.27381738582E+02  0.68701717745E+01  0.62499847023E+02  0.00000000000E+00 0. -1.
</event>
<event>
 4    1  0.1977762E-002  0.9118800E+02  0.7818608E-02  0.1130116E+00
         25   -1    0    0    0    0  0.00000000000E+00  0.00000000000E+00  0.99999998245E-14  0.12500000000E+03  0.12500000000E+03 0.  0.
        -11    1    1    0    0    0  0.21052258826E+02 -0.25828270429E+02  0.12953890855E+02  0.35750530675E+02  0.51100000000E-03 0. -1.
         11    1    1    0    0    0  0.15748334563E+02 -0.19324739697E+02  0.96994082716E+01  0.26749469657E+02  0.51100000000E-03 0.  1.
         22    1    1    0    0    0 -0.36800593389E+02  0.45153010126E+02 -0.22653299126E+02  0.62499999668E+02  0.00000000000E+00 0.  1.
</event>
<event>
 4    1  0.1977762E-002  0.9118800E+02  0.7818608E-02  0.1130116E+00
         25   -1    0    0    0    0  0.00000000000E+00  0.00000000000E+00  0.99999998245E-14  0.12500000000E+03  0.12500000000E+03 0.  0.
        -11    1    1    0    0    0  0.87701571193E+01 -0.87037962347E+01  0.17024868580E+02  0.21036108842E+02  0.51100000000E-03 0.  1.
         11    1    1    0    0    0  0.17293874959E+02 -0.17148505321E+02  0.33557487124E+02  0.41463891378E+02  0.51100000000E-03 0. -1.
         22    1    1    0    0    0 -0.26064032078E+02  0.25852301556E+02 -0.50582355704E+02  0.62499999780E+02  0.00000000000E+00 0.  1.
</event>
<event>
 4    1  0.1977762E-002  0.9118800E+02  0.7818608E-02  0.1130116E+00
         25   -1    0    0    0    0  0.00000000000E+00  0.00000000000E+00  0.99999998245E-14  0.12500000000E+03  0.12500000000E+03 0.  0.
        -11    1    1    0    0    0  0.45017740363E+02 -0.28573594488E+02  0.19994175221E+02  0.56945713556E+02  0.51100000000E-03 0. -1.
         11    1    1    0    0    0  0.43987360955E+01 -0.27540476118E+01  0.19792289172E+01  0.55543680877E+01  0.51100000000E-03 0.  1.
         22    1    1    0    0    0 -0.49416476459E+02  0.31327642100E+02 -0.21973404139E+02  0.62499918356E+02  0.00000000000E+00 0. -1.
</event>
<event>
 4    1  0.1977762E-002  0.9118800E+02  0.7818608E-02  0.1130116E+00
         25   -1    0    0    0    0  0.00000000000E+00  0.00000000000E+00  0.99999998245E-14  0.12500000000E+03  0.12500000000E+03 0.  0.
        -11    1    1    0    0    0  0.13004788781E+02  0.11492193881E+02  0.55097676423E+02  0.57766331015E+02  0.51100000000E-03 0. -1.
         11    1    1    0    0    0  0.10517387208E+01  0.98828301008E+00  0.45084227364E+01  0.47337863783E+01  0.51100000000E-03 0.  1.
         22    1    1    0    0    0 -0.14056527502E+02 -0.12480476891E+02 -0.59606099159E+02  0.62499882607E+02  0.00000000000E+00 0. -1.
</event>
<event>
 4    1  0.1977762E-002  0.9118800E+02  0.7818608E-02  0.1130116E+00
         25   -1    0    0    0    0  0.00000000000E+00  0.00000000000E+00  0.99999998245E-14  0.12500000000E+03  0.12500000000E+03 0.  0.
        -11    1    1    0    0    0 -0.15175188673E+02 -0.29994550664E+02 -0.93598199685E+01  0.34893633386E+02  0.51100000000E-03 0.  1.
         11    1    1    0    0    0 -0.12005040796E+02 -0.23730542854E+02 -0.74062007449E+01  0.27606366628E+02  0.51100000000E-03 0.  1.
         22    1    1    0    0    0  0.27180229470E+02  0.53725093518E+02  0.16766020713E+02  0.62499999985E+02  0.00000000000E+00 0.  1.
</event>
<event>
 4    1  0.1977762E-002  0.9118800E+02  0.7818608E-02  0.1130116E+00
         25   -1    0    0    0    0  0.00000000000E+00  0.00000000000E+00  0.99999998245E-14  0.12500000000E+03  0.12500000000E+03 0.  0.
        -11    1    1    0    0    0 -0.48100701122E+01  0.17089788619E+01  0.33646846995E+01  0.61137947809E+01  0.51100000000E-03 0.  1.
         11    1    1    0    0    0 -0.42492721545E+02  0.17513250785E+02  0.32672795413E+02  0.56390219876E+02  0.51100000000E-03 0. -1.
         22    1    1    0    0    0  0.47302791657E+02 -0.19222229647E+02 -0.36037480112E+02  0.62495985343E+02  0.00000000000E+00 0. -1.
</event>
<event>
 4    1  0.1977762E-002  0.9118800E+02  0.7818608E-02  0.1130116E+00
         25   -1    0    0    0    0  0.00000000000E+00  0.00000000000E+00  0.99999998245E-14  0.12500000000E+03  0.12500000000E+03 0.  0.
        -11    1    1    0    0    0 -0.65101997121E+01 -0.37070101970E+02 -0.38309072746E+02  0.53704377990E+02  0.51100000000E-03 0.  1.
         11    1    1    0    0    0  0.17516986660E+01 -0.10012127211E+02  0.16055104286E+02  0.19002039717E+02  0.51100000000E-03 0. -1.
         22    1    1    0    0    0  0.47585010461E+01  0.47082229181E+02  0.22253968459E+02  0.52293582293E+02  0.00000000000E+00 0.  1.
</event>
<event>
 4    1  0.1977762E-002  0.9118800E+02  0.7818608E-02  0.1130116E+00
         25   -1    0    0    0    0  0.00000000000E+00  0.00000000000E+00  0.99999998245E-14  0.12500000000E+03  0.12500000000E+03 0.  0.
        -11    1    1    0    0    0  0.18608944842E+02  0.16308339063E+02 -0.50544269907E+02  0.56275909338E+02  0.51100000000E-03 0. -1.
         11    1    1    0    0    0  0.23885306274E+01  0.39987007001E+01 -0.44573455900E+01  0.64469074615E+01  0.51100000000E-03 0.  1.
         22    1    1    0    0    0 -0.20997475470E+02 -0.20307039763E+02  0.55001615497E+02  0.62277183200E+02  0.00000000000E+00 0. -1.
</event>
<event>
 4    1  0.1977762E-002  0.9118800E+02  0.7818608E-02  0.1130116E+00
         25   -1    0    0    0    0  0.00000000000E+00  0.00000000000E+00  0.99999998245E-14  0.12500000000E+03  0.12500000000E+03 0.  0.
        -11    1    1    0    0    0 -0.46491493537E+02  0.12264126675E+01 -0.28693425667E+02  0.54646827320E+02  0.51100000000E-03 0.  1.
         11    1    1    0    0    0 -0.66370176684E+01  0.39746496830E+00 -0.41818750914E+01  0.78546840467E+01  0.51100000000E-03 0. -1.
         22    1    1    0    0    0  0.53128511206E+02 -0.16238776358E+01  0.32875300758E+02  0.62498488633E+02  0.00000000000E+00 0.  1.
</event>
<event>
 4    1  0.1977762E-002  0.9118800E+02  0.7818608E-02  0.1130116E+00
         25   -1    0    0    0    0  0.00000000000E+00  0.00000000000E+00  0.99999998245E-14  0.12500000000E+03  0.12500000000E+03 0.  0.
        -11    1    1    0    0    0 -0.35584805119E+01 -0.15563889959E+02  0.24026401085E+02  0.28847277230E+02  0.51100000000E-03 0.  1.
         11    1    1    0    0    0 -0.46527590671E+01 -0.16272026785E+02  0.29107128867E+02  0.33669748645E+02  0.51100000000E-03 0. -1.
         22    1    1    0    0    0  0.82112395790E+01  0.31835916745E+02 -0.53133529952E+02  0.62482974126E+02  0.00000000000E+00 0.  1.
</event>
<event>
 4    1  0.1977762E-002  0.9118800E+02  0.7818608E-02  0.1130116E+00
         25   -1    0    0    0    0  0.00000000000E+00  0.00000000000E+00  0.99999998245E-14  0.12500000000E+03  0.12500000000E+03 0.  0.
        -11    1    1    0    0    0 -0.46705894987E+01 -0.62623899255E+01  0.11913998534E+02  0.14246939853E+02  0.51100000000E-03 0. -1.
         11    1    1    0    0    0 -0.15860232782E+02 -0.21432442364E+02  0.40217771120E+02  0.48253141697E+02  0.51100000000E-03 0.  1.
         22    1    1    0    0    0  0.20530822280E+02  0.27694832290E+02 -0.52131769653E+02  0.62499918450E+02  0.00000000000E+00 0.  1.
</event>
<event>
 4    1  0.1977762E-002  0.9118800E+02  0.7818608E-02  0.1130116E+00
         25   -1    0    0    0    0  0.00000000000E+00  0.00000000000E+00  0.99999998245E-14  0.12500000000E+03  0.12500000000E+03 0.  0.
        -11    1    1    0    0    0 -0.14624490665E+02 -0.15738483804E+02 -0.34945000310E+02  0.41021075639E+02  0.51100000000E-03 0. -1.
         11    1    1    0    0    0 -0.21239295812E+02  0.18431469981E+02 -0.67454638371E+01  0.28919337041E+02  0.51100000000E-03 0.  1.
         22    1    1    0    0    0  0.35863786477E+02 -0.26929861772E+01  0.41690464147E+02  0.55059587320E+02  0.00000000000E+00 0. -1.
</event>
<event>
 4    1  0.1977762E-002  0.9118800E+02  0.7818608E-02  0.1130116E+00
         25   -1    0    0    0    0  0.00000000000E+00  0.00000000000E+00  0.99999998245E-14  0.12500000000E+03  0.12500000000E+03 0.  0.
        -11    1    1    0    0    0 -0.13482775029E+02  0.88443446006E+01  0.14716419360E+01  0.16191769024E+02  0.51100000000E-03 0. -1.
         11    1    1    0    0    0  0.32969593456E+01  0.49009848999E+02  0.64128689688E+01  0.49537461870E+02  0.51100000000E-03 0.  1.
         22    1    1    0    0    0  0.10185815683E+02 -0.57854193600E+02 -0.78845109048E+01  0.59270769106E+02  0.00000000000E+00 0.  1.
</event>
<event>
 4    1  0.1977762E-002  0.9118800E+02  0.7818608E-02  0.1130116E+00
         25   -1    0    0    0    0  0.00000000000E+00  0.00000000000E+00  0.99999998245E-14  0.12500000000E+03  0.12500000000E+03 0.  0.
        -11    1    1    0    0    0 -0.14140043967E+01  0.60895705806E+01  0.19495149137E+01  0.65485026494E+01  0.51100000000E-03 0. -1.
         11    1    1    0    0    0 -0.12072250896E+02  0.52012034385E+02  0.16720625836E+02  0.55951499454E+02  0.51100000000E-03 0.  1.
         22    1    1    0    0    0  0.13486255293E+02 -0.58101604966E+02 -0.18670140750E+02  0.62499997896E+02  0.00000000000E+00 0.  1.
</event>
<event>
 4    1  0.1977762E-002  0.9118800E+02  0.7818608E-02  0.1130116E+00
         25   -1    0    0    0    0  0.00000000000E+00  0.00000000000E+00  0.99999998245E-14  0.12500000000E+03  0.12500000000E+03 0.  0.
        -11    1    1    0    0    0  0.35280207376E+01 -0.13047786967E+02  0.12811445075E+02  0.18623232808E+02  0.51100000000E-03 0. -1.
         11    1    1    0    0    0  0.76505052121E+01 -0.30639210024E+02  0.30462396054E+02  0.43877659401E+02  0.51100000000E-03 0.  1.
         22    1    1    0    0    0 -0.11178525950E+02  0.43686996991E+02 -0.43273841129E+02  0.62499107790E+02  0.00000000000E+00 0.  1.
</event>
<event>
 4    1  0.1977762E-002  0.9118800E+02  0.7818608E-02  0.1130116E+00
         25   -1    0    0    0    0  0.00000000000E+00  0.00000000000E+00  0.99999998245E-14  0.12500000000E+03  0.12500000000E+03 0.  0.
        -11    1    1    0    0    0 -0.81255533432E+01 -0.10275987688E+02  0.16864801300E+02  0.21355141378E+02  0.51100000000E-03 0. -1.
         11    1    1    0    0    0 -0.15656616040E+02 -0.19796723361E+02  0.32493991914E+02  0.41144858639E+02  0.51100000000E-03 0.  1.
         22    1    1    0    0    0  0.23782169383E+02  0.30072711049E+02 -0.49358793214E+02  0.62499999984E+02  0.00000000000E+00 0.  1.
</event>
<event>
 4    1  0.1977762E-002  0.9118800E+02  0.7818608E-02  0.1130116E+00
         25   -1    0    0    0    0  0.00000000000E+00  0.00000000000E+00  0.99999998245E-14  0.12500000000E+03  0.12500000000E+03 0.  0.
        -11    1    1    0    0    0  0.59072877414E+01  0.14254421983E+01  0.61411390854E+01  0.86395325943E+01  0.51100000000E-03 0.  1.
         11    1    1    0    0    0  0.45417392482E+02  0.12633982583E+02 -0.32217710476E+02  0.57099368861E+02  0.51100000000E-03 0. -1.
         22    1    1    0    0    0 -0.51324680223E+02 -0.14059424781E+02  0.26076571390E+02  0.59261098545E+02  0.00000000000E+00 0. -1.
</event>
<event>
 4    1  0.1977762E-002  0.9118800E+02  0.7818608E-02  0.1130116E+00
         25   -1    0    0    0    0  0.00000000000E+00  0.00000000000E+00  0.99999998245E-14  0.12500000000E+03  0.12500000000E+03 0.  0.
        -11    1    1    0    0    0  0.10175920269E+02 -0.27287995623E+01  0.11824241496E+02  0.15836931129E+02  0.51100000000E-03 0. -1.
         11    1    1    0    0    0  0.29971272261E+02 -0.80184581032E+01  0.34854974865E+02  0.46663070027E+02  0.51100000000E-03 0.  1.
         22    1    1    0    0    0 -0.40147192529E+02  0.10747257666E+02 -0.46679216362E+02  0.62499998843E+02  0.00000000000E+00 0.  1.
</event>
<event>
 4    1  0.1977762E-002  0.9118800E+02  0.7818608E-02  0.1130116E+00
         25   -1    0    0    0    0  0.00000000000E+00  0.00000000000E+00  0.99999998245E-14  0.12500000000E+03  0.12500000000E+03 0.  0.
        -11    1    1    0    0    0 -0.25746355540E+01  0.39309127222E+01 -0.52862086539E+02  0.53070528701E+02  0.51100000000E-03 0.  1.
         11    1    1    0    0    0  0.51139016922E+01 -0.52579983739E+01 -0.80842924458E+01  0.10915783161E+02  0.51100000000E-03 0. -1.
         22    1    1    0    0    0 -0.25392661383E+01  0.13270856517E+01  0.60946378985E+02  0.61013688138E+02  0.00000000000E+00 0.  1.
</event>
<event>
 4    1  0.1977762E-002  0.9118800E+02  0.7818608E-02  0.1130116E+00
         25   -1    0    0    0    0  0.00000000000E+00  0.00000000000E+00  0.99999998245E-14  0.12500000000E+03  0.12500000000E+03 0.  0.
        -11    1    1    0    0    0 -0.40760966747E+01  0.89431312753E+01  0.52450131872E+01  0.11140212058E+02  0.51100000000E-03 0.  1.
         11    1    1    0    0    0 -0.17596687387E+02  0.42908251173E+02  0.22086997531E+02  0.51367274465E+02  0.51100000000E-03 0. -1.
         22    1    1    0    0    0  0.21672784062E+02 -0.51851382448E+02 -0.27332010718E+02  0.62492513477E+02  0.00000000000E+00 0. -1.
</event>
<event>
 4    1  0.1977762E-002  0.9118800E+02  0.7818608E-02  0.1130116E+00
         25   -1    0    0    0    0  0.00000000000E+00  0.00000000000E+00  0.99999998245E-14  0.12500000000E+03  0.12500000000E+03 0.  0.
        -11    1    1    0    0    0  0.21818605011E+02  0.24991913917E+02  0.21711627682E+02  0.39648985646E+02  0.51100000000E-03 0. -1.
         11    1    1    0    0    0  0.12466119323E+02  0.14318700088E+02  0.12718449625E+02  0.22851438999E+02  0.51100000000E-03 0.  1.
         22    1    1    0    0    0 -0.34284724334E+02 -0.39310614006E+02 -0.34430077307E+02  0.62499575355E+02  0.00000000000E+00 0. -1.
</event>
<event>
 4    1  0.1977762E-002  0.9118800E+02  0.7818608E-02  0.1130116E+00
         25   -1    0    0    0    0  0.00000000000E+00  0.00000000000E+00  0.99999998245E-14  0.12500000000E+03  0.12500000000E+03 0.  0.
        -11    1    1    0    0    0 -0.15419749104E+02 -0.54152414427E+02 -0.16874531137E+02  0.58779268897E+02  0.51100000000E-03 0. -1.
         11    1    1    0    0    0 -0.97809523501E+00 -0.34274407014E+01 -0.10676244233E+01  0.37207314094E+01  0.51100000000E-03 0.  1.
         22    1    1    0    0    0  0.16397844339E+02  0.57579855128E+02  0.17942155560E+02  0.62499999694E+02  0.00000000000E+00 0. -1.
</event>
<event>
 4    1  0.1977762E-002  0.9118800E+02  0.7818608E-02  0.1130116E+00
         25   -1    0    0    0    0  0.00000000000E+00  0.00000000000E+00  0.99999998245E-14  0.12500000000E+03  0.12500000000E+03 0.  0.
        -11    1    1    0    0    0  0.68370809529E+01 -0.13563940429E+02 -0.29123044660E+01  0.15466340016E+02  0.51100000000E-03 0.  1.
         11    1    1    0    0    0  0.94647255892E+01 -0.46031582342E+02  0.74540717807E+01  0.47582042723E+02  0.51100000000E-03 0. -1.
         22    1    1    0    0    0 -0.16301806542E+02  0.59595522771E+02 -0.45417673146E+01  0.61951617261E+02  0.00000000000E+00 0.  1.
</event>
<event>
 4    1  0.1977762E-002  0.9118800E+02  0.7818608E-02  0.1130116E+00
         25   -1    0    0    0    0  0.00000000000E+00  0.00000000000E+00  0.99999998245E-14  0.12500000000E+03  0.12500000000E+03 0.  0.
        -11    1    1    0    0    0 -0.23051380590E+01 -0.13241211401E+02 -0.52046392166E+02  0.53753793155E+02  0.51100000000E-03 0. -1.
         11    1    1    0    0    0 -0.37625759254E+00 -0.21548754167E+01 -0.84682393044E+01  0.87462068930E+01  0.51100000000E-03 0.  1.
         22    1    1    0    0    0  0.26813956515E+01  0.15396086818E+02  0.60514631470E+02  0.62499999952E+02  0.00000000000E+00 0. -1.
</event>
<event>
 4    1  0.1977762E-002  0.9118800E+02  0.7818608E-02  0.1130116E+00
         25   -1    0    0    0    0  0.00000000000E+00  0.00000000000E+00  0.99999998245E-14  0.12500000000E+03  0.12500000000E+03 0.  0.
        -11    1    1    0    0    0 -0.35789578851E+02  0.33306748229E+02  0.39582819993E+01  0.49049989078E+02  0.51100000000E-03 0. -1.
         11    1    1    0    0    0 -0.98738644901E+01  0.90737517392E+01  0.10393495996E+01  0.13450145666E+02  0.51100000000E-03 0.  1.
         22    1    1    0    0    0  0.45663443341E+02 -0.42380499968E+02 -0.49976315989E+01  0.62499865255E+02  0.00000000000E+00 0. -1.
</event>
<event>
 4    1  0.1977762E-002  0.9118800E+02  0.7818608E-02  0.1130116E+00
         25   -1    0    0    0    0  0.00000000000E+00  0.00000000000E+00  0.99999998245E-14  0.12500000000E+03  0.12500000000E+03 0.  0.
        -11    1    1    0    0    0 -0.34985703631E+02  0.39963563321E+02  0.32207271528E+02  0.62115973722E+02  0.51100000000E-03 0.  1.
         11    1    1    0    0    0 -0.20090317304E+00  0.24335587617E+00  0.21960209090E+00  0.38446001983E+00  0.51100000000E-03 0. -1.
         22    1    1    0    0    0  0.35186606804E+02 -0.40206919198E+02 -0.32426873618E+02  0.62499566258E+02  0.00000000000E+00 0.  1.
</event>
<event>
 4    1  0.1977762E-002  0.9118800E+02  0.7818608E-02  0.1130116E+00
         25   -1    0    0    0    0  0.00000000000E+00  0.00000000000E+00  0.99999998245E-14  0.12500000000E+03  0.12500000000E+03 0.  0.
        -11    1    1    0    0    0  0.19645924344E+02 -0.10476528175E+02  0.14769545734E+00  0.22265259939E+02  0.51100000000E-03 0. -1.
         11    1    1    0    0    0  0.35053275546E+02 -0.19748936780E+02  0.49571170701E+00  0.40236778709E+02  0.51100000000E-03 0.  1.
         22    1    1    0    0    0 -0.54699199890E+02  0.30225464956E+02 -0.64340716434E+00  0.62497961352E+02  0.00000000000E+00 0. -1.
</event>
<event>
 4    1  0.1977762E-002  0.9118800E+02  0.7818608E-02  0.1130116E+00
         25   -1    0    0    0    0  0.00000000000E+00  0.00000000000E+00  0.99999998245E-14  0.12500000000E+03  0.12500000000E+03 0.  0.
        -11    1    1    0    0    0 -0.13771357351E+02  0.46498840604E+00 -0.41128971611E+01  0.14379931183E+02  0.51100000000E-03 0.  1.
         11    1    1    0    0    0 -0.46078192995E+02  0.15413756058E+01 -0.13782793160E+02  0.48120069576E+02  0.51100000000E-03 0. -1.
         22    1    1    0    0    0  0.59849550346E+02 -0.20063640119E+01  0.17895690321E+02  0.62499999241E+02  0.00000000000E+00 0. -1.
</event>
<event>
 4    1  0.1977762E-002  0.9118800E+02  0.7818608E-02  0.1130116E+00
         25   -1    0    0    0    0  0.00000000000E+00  0.00000000000E+00  0.99999998245E-14  0.12500000000E+03  0.12500000000E+03 0.  0.
        -11    1    1    0    0    0 -0.69289794776E+01  0.48979795251E+02  0.14593293241E+02  0.51575142339E+02  0.51100000000E-03 0.  1.
         11    1    1    0    0    0 -0.14640134060E+01  0.10376530211E+02  0.30881727084E+01  0.10924858141E+02  0.51100000000E-03 0. -1.
         22    1    1    0    0    0  0.83929928835E+01 -0.59356325462E+02 -0.17681465949E+02  0.62499999520E+02  0.00000000000E+00 0.  1.
</event>
<event>
 4    1  0.1977762E-002  0.9118800E+02  0.7818608E-02  0.1130116E+00
         25   -1    0    0    0    0  0.00000000000E+00  0.00000000000E+00  0.99999998245E-14  0.12500000000E+03  0.12500000000E+03 0.  0.
        -11    1    1    0    0    0 -0.25597863930E+02  0.16748252551E+02 -0.51907563983E+02  0.60250724479E+02  0.51100000000E-03 0.  1.
         11    1    1    0    0    0 -0.95557909765E+00  0.62516579184E+00 -0.19378535982E+01  0.22492755519E+01  0.51100000000E-03 0.  1.
         22    1    1    0    0    0  0.26553443028E+02 -0.17373418343E+02  0.53845417582E+02  0.62499999969E+02  0.00000000000E+00 0.  1.
</event>
<event>
 4    1  0.1977762E-002  0.9118800E+02  0.7818608E-02  0.1130116E+00
         25   -1    0    0    0    0  0.00000000000E+00  0.00000000000E+00  0.99999998245E-14  0.12500000000E+03  0.12500000000E+03 0.  0.
        -11    1    1    0    0    0  0.23504663576E+01  0.69452441969E+01 -0.20937853358E+02  0.22184562483E+02  0.51100000000E-03 0. -1.
         11    1    1    0    0    0  0.42633897996E+01  0.12496183786E+02 -0.38092079389E+02  0.40315476113E+02  0.51100000000E-03 0.  1.
         22    1    1    0    0    0 -0.66138561573E+01 -0.19441427983E+02  0.59029932747E+02  0.62499961404E+02  0.00000000000E+00 0. -1.
</event>
<event>
 4    1  0.1977762E-002  0.9118800E+02  0.7818608E-02  0.1130116E+00
         25   -1    0    0    0    0  0.00000000000E+00  0.00000000000E+00  0.99999998245E-14  0.12500000000E+03  0.12500000000E+03 0.  0.
        -11    1    1    0    0    0  0.14831849026E+02 -0.10702021990E+02 -0.54420741291E+02  0.57411968292E+02  0.51100000000E-03 0. -1.
         11    1    1    0    0    0  0.13144540735E+01 -0.95187338171E+00 -0.48222629232E+01  0.50880322726E+01  0.51100000000E-03 0.  1.
         22    1    1    0    0    0 -0.16146303099E+02  0.11653895372E+02  0.59243004214E+02  0.62499999436E+02  0.00000000000E+00 0. -1.
</event>
<event>
 4    1  0.1977762E-002  0.9118800E+02  0.7818608E-02  0.1130116E+00
         25   -1    0    0    0    0  0.00000000000E+00  0.00000000000E+00  0.99999998245E-14  0.12500000000E+03  0.12500000000E+03 0.  0.
        -11    1    1    0    0    0 -0.26933778081E+01  0.32325970629E+02 -0.27648197260E+02  0.42622124221E+02  0.51100000000E-03 0.  1.
         11    1    1    0    0    0 -0.13985845066E+01  0.15214182690E+02 -0.12717181015E+02  0.19878483010E+02  0.51100000000E-03 0. -1.
         22    1    1    0    0    0  0.40919623147E+01 -0.47540153319E+02  0.40365378275E+02  0.62499392769E+02  0.00000000000E+00 0.  1.
</event>
<event>
 4    1  0.1977762E-002  0.9118800E+02  0.7818608E-02  0.1130116E+00
         25   -1    0    0    0    0  0.00000000000E+00  0.00000000000E+00  0.99999998245E-14  0.12500000000E+03  0.12500000000E+03 0.  0.
        -11    1    1    0    0    0  0.17569818029E+02 -0.53314120523E+01 -0.90418107218E+01  0.20466479948E+02  0.51100000000E-03 0.  1.
         11    1    1    0    0    0  0.36177745920E+02 -0.10854619933E+02 -0.18443704595E+02  0.42033585539E+02  0.51100000000E-03 0. -1.
         22    1    1    0    0    0 -0.53747563950E+02  0.16186031985E+02  0.27485515317E+02  0.62499934514E+02  0.00000000000E+00 0. -1.
</event>
<event>
 4    1  0.1977762E-002  0.9118800E+02  0.7818608E-02  0.1130116E+00
         25   -1    0    0    0    0  0.00000000000E+00  0.00000000000E+00  0.99999998245E-14  0.12500000000E+03  0.12500000000E+03 0.  0.
        -11    1    1    0    0    0 -0.35218902463E+00 -0.13476907105E+01 -0.78958355902E+00  0.16011713893E+01  0.51100000000E-03 0.  1.
         11    1    1    0    0    0  0.44564051287E+01 -0.60711165862E+02  0.48817037005E+01  0.61069929084E+02  0.51100000000E-03 0. -1.
         22    1    1    0    0    0 -0.41042161041E+01  0.62058856573E+02 -0.40921201415E+01  0.62328899527E+02  0.00000000000E+00 0. -1.
</event>
<event>
 4    1  0.1977762E-002  0.9118800E+02  0.7818608E-02  0.1130116E+00
         25   -1    0    0    0    0  0.00000000000E+00  0.00000000000E+00  0.99999998245E-14  0.12500000000E+03  0.12500000000E+03 0.  0.
        -11    1    1    0    0    0 -0.32862783855E+02  0.14047400518E+02  0.48402145256E+01  0.36065491830E+02  0.51100000000E-03 0. -1.
         11    1    1    0    0    0 -0.23622492231E+02  0.10690194408E+02  0.52354562027E+01  0.26452077377E+02  0.51100000000E-03 0.  1.
         22    1    1    0    0    0  0.56485276085E+02 -0.24737594926E+02 -0.10075670728E+02  0.62482430793E+02  0.00000000000E+00 0. -1.
</event>
<event>
 4    1  0.1977762E-002  0.9118800E+02  0.7818608E-02  0.1130116E+00
         25   -1    0    0    0    0  0.00000000000E+00  0.00000000000E+00  0.99999998245E-14  0.12500000000E+03  0.12500000000E+03 0.  0.
        -11    1    1    0    0    0  0.39622225008E+02 -0.42273634667E+01 -0.27522267698E+02  0.48427952011E+02  0.51100000000E-03 0. -1.
         11    1    1    0    0    0  0.11520228160E+02 -0.12500944578E+01 -0.79840097486E+01  0.14072057594E+02  0.51100000000E-03 0.  1.
         22    1    1    0    0    0 -0.51142453168E+02  0.54774579245E+01  0.35506277446E+02  0.62499990395E+02  0.00000000000E+00 0. -1.
</event>
<event>
 4    1  0.1977762E-002  0.9118800E+02  0.7818608E-02  0.1130116E+00
         25   -1    0    0    0    0  0.00000000000E+00  0.00000000000E+00  0.99999998245E-14  0.12500000000E+03  0.12500000000E+03 0.  0.
        -11    1    1    0    0    0  0.31264298189E+02  0.20151299177E+02  0.75541950337E+01  0.37955198098E+02  0.51100000000E-03 0.  1.
         11    1    1    0    0    0  0.17941029100E+02  0.16775817111E+02  0.25713386140E+01  0.24696565499E+02  0.51100000000E-03 0. -1.
         22    1    1    0    0    0 -0.49205327289E+02 -0.36927116289E+02 -0.10125533648E+02  0.62348236403E+02  0.00000000000E+00 0.  1.
</event>
<event>
 4    1  0.1977762E-002  0.9118800E+02  0.7818608E-02  0.1130116E+00
         25   -1    0    0    0    0  0.00000000000E+00  0.00000000000E+00  0.99999998245E-14  0.12500000000E+03  0.12500000000E+03 0.  0.
        -11    1    1    0    0    0  0.93510353828E+00 -0.56997783844E+00 -0.10832958362E+01  0.15403971869E+01  0.51100000000E-03 0. -1.
         11    1    1    0    0    0  0.36970636235E+02 -0.22606565801E+02 -0.42874100174E+02  0.60959603238E+02  0.51100000000E-03 0.  1.
         22    1    1    0    0    0 -0.37905739773E+02  0.23176543639E+02  0.43957396011E+02  0.62499999575E+02  0.00000000000E+00 0.  1.
</event>
<event>
 4    1  0.1977762E-002  0.9118800E+02  0.7818608E-02  0.1130116E+00
         25   -1    0    0    0    0  0.00000000000E+00  0.00000000000E+00  0.99999998245E-14  0.12500000000E+03  0.12500000000E+03 0.  0.
        -11    1    1    0    0    0  0.96589518257E+01 -0.11749867072E+01  0.32480612398E+01  0.10257965013E+02  0.51100000000E-03 0. -1.
         11    1    1    0    0    0  0.49188756775E+02 -0.59932928334E+01  0.16546204316E+02  0.52242035083E+02  0.51100000000E-03 0.  1.
         22    1    1    0    0    0 -0.58847708601E+02  0.71682795407E+01 -0.19794265556E+02  0.62499999904E+02  0.00000000000E+00 0.  1.
</event>
<event>
 4    1  0.1977762E-002  0.9118800E+02  0.7818608E-02  0.1130116E+00
         25   -1    0    0    0    0  0.00000000000E+00  0.00000000000E+00  0.99999998245E-14  0.12500000000E+03  0.12500000000E+03 0.  0.
        -11    1    1    0    0    0 -0.14143177154E+01  0.73348864967E+01  0.25312690933E+01  0.78872161124E+01  0.51100000000E-03 0. -1.
         11    1    1    0    0    0 -0.96419573026E+01  0.50795443966E+02  0.17590150400E+02  0.54612799412E+02  0.51100000000E-03 0.  1.
         22    1    1    0    0    0  0.11056275018E+02 -0.58130330462E+02 -0.20121419494E+02  0.62499984475E+02  0.00000000000E+00 0.  1.
</event>
<event>
 4    1  0.1977762E-002  0.9118800E+02  0.7818608E-02  0.1130116E+00
         25   -1    0    0    0    0  0.00000000000E+00  0.00000000000E+00  0.99999998245E-14  0.12500000000E+03  0.12500000000E+03 0.  0.
        -11    1    1    0    0    0  0.46663713928E+01 -0.85600244785E+01  0.67303182444E+01  0.11846781208E+02  0.51100000000E-03 0. -1.
         11    1    1    0    0    0  0.50999492045E+01 -0.15922446465E+02  0.48854063248E+02  0.51635775190E+02  0.51100000000E-03 0.  1.
         22    1    1    0    0    0 -0.97663205973E+01  0.24482470944E+02 -0.55584381493E+02  0.61517443603E+02  0.00000000000E+00 0.  1.
</event>
<event>
 4    1  0.1977762E-002  0.9118800E+02  0.7818608E-02  0.1130116E+00
         25   -1    0    0    0    0  0.00000000000E+00  0.00000000000E+00  0.99999998245E-14  0.12500000000E+03  0.12500000000E+03 0.  0.
        -11    1    1    0    0    0 -0.31126769386E+01 -0.51008996466E+02  0.95579791330E+01  0.51990012921E+02  0.51100000000E-03 0. -1.
         11    1    1    0    0    0 -0.61944872421E+00 -0.10311979188E+02  0.19337108610E+01  0.10509989031E+02  0.51100000000E-03 0.  1.
         22    1    1    0    0    0  0.37321256628E+01  0.61320975653E+02 -0.11491689994E+02  0.62499998048E+02  0.00000000000E+00 0. -1.
</event>
<event>
 4    1  0.1977762E-002  0.9118800E+02  0.7818608E-02  0.1130116E+00
         25   -1    0    0    0    0  0.00000000000E+00  0.00000000000E+00  0.99999998245E-14  0.12500000000E+03  0.12500000000E+03 0.  0.
        -11    1    1    0    0    0 -0.19195520371E+02  0.26149064897E+02 -0.55023530002E+01  0.32901633487E+02  0.51100000000E-03 0. -1.
         11    1    1    0    0    0  0.65255489180E+01 -0.57454702133E+02 -0.33612670549E+00  0.57825068676E+02  0.51100000000E-03 0.  1.
         22    1    1    0    0    0  0.12669971453E+02  0.31305637236E+02  0.58384797057E+01  0.34273297837E+02  0.00000000000E+00 0.  1.
</event>
<event>
 4    1  0.1977762E-002  0.9118800E+02  0.7818608E-02  0.1130116E+00
         25   -1    0    0    0    0  0.00000000000E+00  0.00000000000E+00  0.99999998245E-14  0.12500000000E+03  0.12500000000E+03 0.  0.
        -11    1    1    0    0    0 -0.43983766912E+02  0.99630543227E+01  0.37950313162E+02  0.58941161107E+02  0.51100000000E-03 0.  1.
         11    1    1    0    0    0 -0.27294358945E+01  0.80914267886E+00  0.21433686663E+01  0.35635041290E+01  0.51100000000E-03 0. -1.
         22    1    1    0    0    0  0.46713202807E+02 -0.10772197002E+02 -0.40093681829E+02  0.62495334764E+02  0.00000000000E+00 0.  1.
</event>
<event>
 4    1  0.1977762E-002  0.9118800E+02  0.7818608E-02  0.1130116E+00
         25   -1    0    0    0    0  0.00000000000E+00  0.00000000000E+00  0.99999998245E-14  0.12500000000E+03  0.12500000000E+03 0.  0.
        -11    1    1    0    0    0  0.37840957647E+02 -0.25780699727E+02  0.97037845047E+01  0.46805405543E+02  0.51100000000E-03 0.  1.
         11    1    1    0    0    0  0.12680085819E+02 -0.86532395027E+01  0.32645463490E+01  0.15694597586E+02  0.51100000000E-03 0. -1.
         22    1    1    0    0    0 -0.50521043466E+02  0.34433939229E+02 -0.12968330854E+02  0.62499996871E+02  0.00000000000E+00 0. -1.
</event>
<event>
 4    1  0.1977762E-002  0.9118800E+02  0.7818608E-02  0.1130116E+00
         25   -1    0    0    0    0  0.00000000000E+00  0.00000000000E+00  0.99999998245E-14  0.12500000000E+03  0.12500000000E+03 0.  0.
        -11    1    1    0    0    0  0.26775718577E+02 -0.26302188738E+02  0.15883883662E+02  0.40755882988E+02  0.51100000000E-03 0.  1.
         11    1    1    0    0    0  0.16037231292E+02 -0.14459280504E+02  0.38290910115E+01  0.21930014100E+02  0.51100000000E-03 0. -1.
         22    1    1    0    0    0 -0.42812949869E+02  0.40761469242E+02 -0.19712974673E+02  0.62314102912E+02  0.00000000000E+00 0. -1.
</event>
<event>
 4    1  0.1977762E-002  0.9118800E+02  0.7818608E-02  0.1130116E+00
         25   -1    0    0    0    0  0.00000000000E+00  0.00000000000E+00  0.99999998245E-14  0.12500000000E+03  0.12500000000E+03 0.  0.
        -11    1    1    0    0    0  0.71128962891E+00 -0.41389477832E+01 -0.20657264420E+02  0.21079833853E+02  0.51100000000E-03 0.  1.
         11    1    1    0    0    0  0.13953646468E+01 -0.81321906619E+01 -0.40590030762E+02  0.41420166163E+02  0.51100000000E-03 0.  1.
         22    1    1    0    0    0 -0.21066542757E+01  0.12271138445E+02  0.61247295182E+02  0.62499999984E+02  0.00000000000E+00 0.  1.
</event>
<event>
 4    1  0.1977762E-002  0.9118800E+02  0.7818608E-02  0.1130116E+00
         25   -1    0    0    0    0  0.00000000000E+00  0.00000000000E+00  0.99999998245E-14  0.12500000000E+03  0.12500000000E+03 0.  0.
        -11    1    1    0    0    0  0.13418306733E+02  0.10459201580E+02  0.50775016906E+02  0.53549492951E+02  0.51100000000E-03 0. -1.
         11    1    1    0    0    0  0.22408573875E+01  0.17480294120E+01  0.84873157959E+01  0.89505071552E+01  0.51100000000E-03 0.  1.
         22    1    1    0    0    0 -0.15659164121E+02 -0.12207230992E+02 -0.59262332702E+02  0.62499999894E+02  0.00000000000E+00 0. -1.
</event>
<event>
 4    1  0.1977762E-002  0.9118800E+02  0.7818608E-02  0.1130116E+00
         25   -1    0    0    0    0  0.00000000000E+00  0.00000000000E+00  0.99999998245E-14  0.12500000000E+03  0.12500000000E+03 0.  0.
        -11    1    1    0    0    0  0.25393678139E+02 -0.37083316124E+02 -0.47561439500E+01  0.45195487935E+02  0.51100000000E-03 0.  1.
         11    1    1    0    0    0  0.97232358619E+01 -0.14198249321E+02 -0.18205874008E+01  0.17304512075E+02  0.51100000000E-03 0. -1.
         22    1    1    0    0    0 -0.35116914001E+02  0.51281565445E+02  0.65767313507E+01  0.62499999990E+02  0.00000000000E+00 0.  1.
</event>
<event>
 4    1  0.1977762E-002  0.9118800E+02  0.7818608E-02  0.1130116E+00
         25   -1    0    0    0    0  0.00000000000E+00  0.00000000000E+00  0.99999998245E-14  0.12500000000E+03  0.12500000000E+03 0.  0.
        -11    1    1    0    0    0  0.31047484355E+02 -0.77065327483E+01 -0.20370229960E+02  0.37924704359E+02  0.51100000000E-03 0.  1.
         11    1    1    0    0    0  0.19709935334E+02  0.24069994049E+02  0.44992789422E+01  0.31433893740E+02  0.51100000000E-03 0. -1.
         22    1    1    0    0    0 -0.50757419689E+02 -0.16363461301E+02  0.15870951018E+02  0.55641401901E+02  0.00000000000E+00 0.  1.
</event>
<event>
 4    1  0.1977762E-002  0.9118800E+02  0.7818608E-02  0.1130116E+00
         25   -1    0    0    0    0  0.00000000000E+00  0.00000000000E+00  0.99999998245E-14  0.12500000000E+03  0.12500000000E+03 0.  0.
        -11    1    1    0    0    0 -0.71457710743E+01 -0.16150813062E+02  0.10809187136E+01  0.17694043980E+02  0.51100000000E-03 0.  1.
         11    1    1    0    0    0 -0.17597101639E+02 -0.40966286983E+02  0.44887758152E+01  0.44811201321E+02  0.51100000000E-03 0. -1.
         22    1    1    0    0    0  0.24742872714E+02  0.57117100046E+02 -0.55696945288E+01  0.62494754699E+02  0.00000000000E+00 0. -1.
</event>
<event>
 4    1  0.1977762E-002  0.9118800E+02  0.7818608E-02  0.1130116E+00
         25   -1    0    0    0    0  0.00000000000E+00  0.00000000000E+00  0.99999998245E-14  0.12500000000E+03  0.12500000000E+03 0.  0.
        -11    1    1    0    0    0 -0.26883542370E+02 -0.41660139672E+02  0.36486461624E+02  0.61559353229E+02  0.51100000000E-03 0.  1.
         11    1    1    0    0    0 -0.44498237241E+00 -0.63931247778E+00  0.52828691857E+00  0.94117856194E+00  0.51100000000E-03 0. -1.
         22    1    1    0    0    0  0.27328524742E+02  0.42299452150E+02 -0.37014748542E+02  0.62499468209E+02  0.00000000000E+00 0.  1.
</event>
<event>
 4    1  0.1977762E-002  0.9118800E+02  0.7818608E-02  0.1130116E+00
         25   -1    0    0    0    0  0.00000000000E+00  0.00000000000E+00  0.99999998245E-14  0.12500000000E+03  0.12500000000E+03 0.  0.
        -11    1    1    0    0    0  0.45102775826E+01  0.55460921543E+01  0.40174119535E+00  0.71598280919E+01  0.51100000000E-03 0. -1.
         11    1    1    0    0    0  0.34355428717E+02  0.43257457999E+02  0.33252999275E+01  0.55340408155E+02  0.51100000000E-03 0.  1.
         22    1    1    0    0    0 -0.38865706300E+02 -0.48803550153E+02 -0.37270411228E+01  0.62499763754E+02  0.00000000000E+00 0.  1.
</event>
<event>
 4    1  0.1977762E-002  0.9118800E+02  0.7818608E-02  0.1130116E+00
         25   -1    0    0    0    0  0.00000000000E+00  0.00000000000E+00  0.99999998245E-14  0.12500000000E+03  0.12500000000E+03 0.  0.
        -11    1    1    0    0    0  0.95181937393E+01 -0.20674426407E+01 -0.53178472996E+02  0.54063114243E+02  0.51100000000E-03 0. -1.
         11    1    1    0    0    0  0.14867128656E+01 -0.32014731315E+00 -0.82986887634E+01  0.84368859718E+01  0.51100000000E-03 0.  1.
         22    1    1    0    0    0 -0.11004906605E+02  0.23875899538E+01  0.61477161760E+02  0.62499999786E+02  0.00000000000E+00 0. -1.
</event>
<event>
 4    1  0.1977762E-002  0.9118800E+02  0.7818608E-02  0.1130116E+00
         25   -1    0    0    0    0  0.00000000000E+00  0.00000000000E+00  0.99999998245E-14  0.12500000000E+03  0.12500000000E+03 0.  0.
        -11    1    1    0    0    0 -0.14862264998E+02 -0.37711249629E+02 -0.21667753584E+02  0.45962123701E+02  0.51100000000E-03 0.  1.
         11    1    1    0    0    0 -0.60175523672E+01 -0.13092539977E+02 -0.81342696165E+01  0.16546657729E+02  0.51100000000E-03 0. -1.
         22    1    1    0    0    0  0.20879817365E+02  0.50803789606E+02  0.29802023201E+02  0.62491218570E+02  0.00000000000E+00 0.  1.
</event>
<event>
 4    1  0.1977762E-002  0.9118800E+02  0.7818608E-02  0.1130116E+00
         25   -1    0    0    0    0  0.00000000000E+00  0.00000000000E+00  0.99999998245E-14  0.12500000000E+03  0.12500000000E+03 0.  0.
        -11    1    1    0    0    0  0.18557002483E+02 -0.17050191460E+02  0.72985947277E+01  0.26236250785E+02  0.51100000000E-03 0.  1.
         11    1    1    0    0    0  0.25662397886E+02 -0.23556986334E+02  0.10078160182E+02  0.36263750266E+02  0.51100000000E-03 0. -1.
         22    1    1    0    0    0 -0.44219400370E+02  0.40607177794E+02 -0.17376754909E+02  0.62499998949E+02  0.00000000000E+00 0. -1.
</event>
<event>
 4    1  0.1977762E-002  0.9118800E+02  0.7818608E-02  0.1130116E+00
         25   -1    0    0    0    0  0.00000000000E+00  0.00000000000E+00  0.99999998245E-14  0.12500000000E+03  0.12500000000E+03 0.  0.
        -11    1    1    0    0    0 -0.42750283407E+00  0.54650154326E+01  0.25465723321E+01  0.60443513511E+01  0.51100000000E-03 0. -1.
         11    1    1    0    0    0 -0.40026433443E+01  0.51061581027E+02  0.23747297619E+02  0.56455649453E+02  0.51100000000E-03 0.  1.
         22    1    1    0    0    0  0.44301461784E+01 -0.56526596459E+02 -0.26293869951E+02  0.62499999196E+02  0.00000000000E+00 0.  1.
</event>
<event>
 4    1  0.1977762E-002  0.9118800E+02  0.7818608E-02  0.1130116E+00
         25   -1    0    0    0    0  0.00000000000E+00  0.00000000000E+00  0.99999998245E-14  0.12500000000E+03  0.12500000000E+03 0.  0.
        -11    1    1    0    0    0 -0.18198694608E+02 -0.17389970347E+02 -0.18511586491E+01  0.25239460032E+02  0.51100000000E-03 0. -1.
         11    1    1    0    0    0 -0.21530882572E+02 -0.29740460559E+02 -0.73243230676E+01  0.37439546034E+02  0.51100000000E-03 0.  1.
         22    1    1    0    0    0  0.39729577179E+02  0.47130430906E+02  0.91754817167E+01  0.62320993934E+02  0.00000000000E+00 0.  1.
</event>
<event>
 4    1  0.1977762E-002  0.9118800E+02  0.7818608E-02  0.1130116E+00
         25   -1    0    0    0    0  0.00000000000E+00  0.00000000000E+00  0.99999998245E-14  0.12500000000E+03  0.12500000000E+03 0.  0.
        -11    1    1    0    0    0 -0.97093540375E+01  0.95371047507E+01  0.28164673681E+02  0.31280613272E+02  0.51100000000E-03 0. -1.
         11    1    1    0    0    0 -0.11111496927E+02  0.96050714753E+01  0.27559217846E+02  0.31228724767E+02  0.51100000000E-03 0.  1.
         22    1    1    0    0    0  0.20820850964E+02 -0.19142176226E+02 -0.55723891527E+02  0.62490661962E+02  0.00000000000E+00 0. -1.
</event>
<event>
 4    1  0.1977762E-002  0.9118800E+02  0.7818608E-02  0.1130116E+00
         25   -1    0    0    0    0  0.00000000000E+00  0.00000000000E+00  0.99999998245E-14  0.12500000000E+03  0.12500000000E+03 0.  0.
        -11    1    1    0    0    0 -0.16216994881E+00  0.26811186535E+00 -0.11975991827E+01  0.12379124073E+01  0.51100000000E-03 0.  1.
         11    1    1    0    0    0 -0.92058720890E+01  0.12910839855E+02 -0.59174493362E+02  0.61262211286E+02  0.51100000000E-03 0. -1.
         22    1    1    0    0    0  0.93680420378E+01 -0.13178951721E+02  0.60372092545E+02  0.62499876307E+02  0.00000000000E+00 0. -1.
</event>
<event>
 4    1  0.1977762E-002  0.9118800E+02  0.7818608E-02  0.1130116E+00
         25   -1    0    0    0    0  0.00000000000E+00  0.00000000000E+00  0.99999998245E-14  0.12500000000E+03  0.12500000000E+03 0.  0.
        -11    1    1    0    0    0  0.28579403649E+00  0.65141484752E+01  0.64969496448E+01  0.92046816098E+01  0.51100000000E-03 0.  1.
         11    1    1    0    0    0 -0.35834784199E+00 -0.30993461872E+02  0.47379991120E+02  0.56617900445E+02  0.51100000000E-03 0. -1.
         22    1    1    0    0    0  0.72553805499E-01  0.24479313397E+02 -0.53876940765E+02  0.59177417945E+02  0.00000000000E+00 0. -1.
</event>
<event>
 4    1  0.1977762E-002  0.9118800E+02  0.7818608E-02  0.1130116E+00
         25   -1    0    0    0    0  0.00000000000E+00  0.00000000000E+00  0.99999998245E-14  0.12500000000E+03  0.12500000000E+03 0.  0.
        -11    1    1    0    0    0  0.11152110863E+02  0.32923032697E+02 -0.12681565668E+02  0.37001591408E+02  0.51100000000E-03 0.  1.
         11    1    1    0    0    0 -0.39220009458E+01  0.23313866492E+02 -0.11580980675E+02  0.26325606848E+02  0.51100000000E-03 0. -1.
         22    1    1    0    0    0 -0.72301099177E+01 -0.56236899190E+02  0.24262546343E+02  0.61672801744E+02  0.00000000000E+00 0.  1.
</event>
<event>
 4    1  0.1977762E-002  0.9118800E+02  0.7818608E-02  0.1130116E+00
         25   -1    0    0    0    0  0.00000000000E+00  0.00000000000E+00  0.99999998245E-14  0.12500000000E+03  0.12500000000E+03 0.  0.
        -11    1    1    0    0    0 -0.16580787942E+02  0.16906911817E+02  0.11567419746E+02  0.26354722458E+02  0.51100000000E-03 0.  1.
         11    1    1    0    0    0 -0.22738528384E+02  0.23192827087E+02  0.15859798187E+02  0.36145277702E+02  0.51100000000E-03 0. -1.
         22    1    1    0    0    0  0.39319316326E+02 -0.40099738904E+02 -0.27427217933E+02  0.62499999841E+02  0.00000000000E+00 0. -1.
</event>
<event>
 4    1  0.1977762E-002  0.9118800E+02  0.7818608E-02  0.1130116E+00
         25   -1    0    0    0    0  0.00000000000E+00  0.00000000000E+00  0.99999998245E-14  0.12500000000E+03  0.12500000000E+03 0.  0.
        -11    1    1    0    0    0 -0.27723091337E+02  0.46939827021E+02 -0.17739750897E+02  0.57329014610E+02  0.51100000000E-03 0. -1.
         11    1    1    0    0    0 -0.13052029729E+01  0.43765750147E+01 -0.26582500238E+01  0.52843407451E+01  0.51100000000E-03 0.  1.
         22    1    1    0    0    0  0.29028294310E+02 -0.51316402036E+02  0.20398000921E+02  0.62386644645E+02  0.00000000000E+00 0. -1.
</event>
<event>
 4    1  0.1977762E-002  0.9118800E+02  0.7818608E-02  0.1130116E+00
         25   -1    0    0    0    0  0.00000000000E+00  0.00000000000E+00  0.99999998245E-14  0.12500000000E+03  0.12500000000E+03 0.  0.
        -11    1    1    0    0    0  0.91368234259E+01 -0.50255863908E+02 -0.13116335371E+02  0.52736814971E+02  0.51100000000E-03 0.  1.
         11    1    1    0    0    0  0.17276392400E+01 -0.92981669131E+01 -0.24248105418E+01  0.97632142101E+01  0.51100000000E-03 0. -1.
         22    1    1    0    0    0 -0.10864462666E+02  0.59554030821E+02  0.15541145913E+02  0.62499970819E+02  0.00000000000E+00 0.  1.
</event>
<event>
 4    1  0.1977762E-002  0.9118800E+02  0.7818608E-02  0.1130116E+00
         25   -1    0    0    0    0  0.00000000000E+00  0.00000000000E+00  0.99999998245E-14  0.12500000000E+03  0.12500000000E+03 0.  0.
        -11    1    1    0    0    0  0.32613815804E+02  0.20488368989E+02 -0.17370662538E+01  0.38554528198E+02  0.51100000000E-03 0.  1.
         11    1    1    0    0    0  0.20277410737E+02  0.12686918633E+02 -0.11204698996E+01  0.23945495269E+02  0.51100000000E-03 0. -1.
         22    1    1    0    0    0 -0.52891226541E+02 -0.33175287621E+02  0.28575361534E+01  0.62499976534E+02  0.00000000000E+00 0. -1.
</event>
<event>
 4    1  0.1977762E-002  0.9118800E+02  0.7818608E-02  0.1130116E+00
         25   -1    0    0    0    0  0.00000000000E+00  0.00000000000E+00  0.99999998245E-14  0.12500000000E+03  0.12500000000E+03 0.  0.
        -11    1    1    0    0    0 -0.71927434993E+01 -0.27067039735E+00 -0.48837505647E+01  0.86982665716E+01  0.51100000000E-03 0.  1.
         11    1    1    0    0    0 -0.31528314886E+02  0.58310827892E+01 -0.43527095009E+02  0.54061485054E+02  0.51100000000E-03 0. -1.
         22    1    1    0    0    0  0.38721058386E+02 -0.55604123919E+01  0.48410845574E+02  0.62240248374E+02  0.00000000000E+00 0. -1.
</event>
<event>
 4    1  0.1977762E-002  0.9118800E+02  0.7818608E-02  0.1130116E+00
         25   -1    0    0    0    0  0.00000000000E+00  0.00000000000E+00  0.99999998245E-14  0.12500000000E+03  0.12500000000E+03 0.  0.
        -11    1    1    0    0    0  0.32971340600E+02 -0.92130245265E+01  0.36747651438E+00  0.34236298882E+02  0.51100000000E-03 0.  1.
         11    1    1    0    0    0  0.27218557327E+02 -0.76089294335E+01  0.30188453075E+00  0.28263701184E+02  0.51100000000E-03 0. -1.
         22    1    1    0    0    0 -0.60189897927E+02  0.16821953960E+02 -0.66936104513E+00  0.62499999934E+02  0.00000000000E+00 0.  1.
</event>
<event>
 4    1  0.1977762E-002  0.9118800E+02  0.7818608E-02  0.1130116E+00
         25   -1    0    0    0    0  0.00000000000E+00  0.00000000000E+00  0.99999998245E-14  0.12500000000E+03  0.12500000000E+03 0.  0.
        -11    1    1    0    0    0 -0.16405275386E+01 -0.15305255527E+01 -0.75207301849E+00  0.23663163690E+01  0.51100000000E-03 0.  1.
         11    1    1    0    0    0 -0.41770962084E+02 -0.38773306535E+02 -0.19180141480E+02  0.60133687735E+02  0.51100000000E-03 0. -1.
         22    1    1    0    0    0  0.43411489622E+02  0.40303832088E+02  0.19932214499E+02  0.62499995896E+02  0.00000000000E+00 0. -1.
</event>
<event>
 4    1  0.1977762E-002  0.9118800E+02  0.7818608E-02  0.1130116E+00
         25   -1    0    0    0    0  0.00000000000E+00  0.00000000000E+00  0.99999998245E-14  0.12500000000E+03  0.12500000000E+03 0.  0.
        -11    1    1    0    0    0  0.22160270859E+02  0.24273263508E+02 -0.49012786659E+02  0.59012898440E+02  0.51100000000E-03 0.  1.
         11    1    1    0    0    0  0.13104176589E+01  0.14341082972E+01 -0.28958619829E+01  0.34871016523E+01  0.51100000000E-03 0. -1.
         22    1    1    0    0    0 -0.23470688518E+02 -0.25707371805E+02  0.51908648642E+02  0.62499999908E+02  0.00000000000E+00 0.  1.
</event>
<event>
 4    1  0.1977762E-002  0.9118800E+02  0.7818608E-02  0.1130116E+00
         25   -1    0    0    0    0  0.00000000000E+00  0.00000000000E+00  0.99999998245E-14  0.12500000000E+03  0.12500000000E+03 0.  0.
        -11    1    1    0    0    0  0.10389795866E+02 -0.31115423160E+01 -0.14219463678E+02  0.17883587483E+02  0.51100000000E-03 0.  1.
         11    1    1    0    0    0  0.13089301163E+02 -0.47930895583E+02  0.10683585556E+02  0.50821644571E+02  0.51100000000E-03 0. -1.
         22    1    1    0    0    0 -0.23479097029E+02  0.51042437899E+02  0.35358781219E+01  0.56294767946E+02  0.00000000000E+00 0. -1.
</event>
<event>
 4    1  0.1977762E-002  0.9118800E+02  0.7818608E-02  0.1130116E+00
         25   -1    0    0    0    0  0.00000000000E+00  0.00000000000E+00  0.99999998245E-14  0.12500000000E+03  0.12500000000E+03 0.  0.
        -11    1    1    0    0    0 -0.39168634475E+02  0.27784617177E+02  0.10788450468E+02  0.49219483358E+02  0.51100000000E-03 0.  1.
         11    1    1    0    0    0 -0.10572107859E+02  0.74966345785E+01  0.28988257245E+01  0.13280519019E+02  0.51100000000E-03 0. -1.
         22    1    1    0    0    0  0.49740742333E+02 -0.35281251755E+02 -0.13687276193E+02  0.62499997623E+02  0.00000000000E+00 0. -1.
</event>
<event>
 4    1  0.1977762E-002  0.9118800E+02  0.7818608E-02  0.1130116E+00
         25   -1    0    0    0    0  0.00000000000E+00  0.00000000000E+00  0.99999998245E-14  0.12500000000E+03  0.12500000000E+03 0.  0.
        -11    1    1    0    0    0 -0.16465983123E+02 -0.17480189674E+02 -0.55817890785E+02  0.60764484390E+02  0.51100000000E-03 0. -1.
         11    1    1    0    0    0 -0.46899432455E+00 -0.50104226375E+00 -0.15940569814E+01  0.17355163346E+01  0.51100000000E-03 0.  1.
         22    1    1    0    0    0  0.16934977447E+02  0.17981231937E+02  0.57411947766E+02  0.62499999276E+02  0.00000000000E+00 0. -1.
</event>
<event>
 4    1  0.1977762E-002  0.9118800E+02  0.7818608E-02  0.1130116E+00
         25   -1    0    0    0    0  0.00000000000E+00  0.00000000000E+00  0.99999998245E-14  0.12500000000E+03  0.12500000000E+03 0.  0.
        -11    1    1    0    0    0  0.82618443546E+00 -0.25796342458E+02  0.97193710875E+01  0.27578978217E+02  0.51100000000E-03 0. -1.
         11    1    1    0    0    0  0.15795812463E+01 -0.32445934938E+02  0.12820903051E+02  0.34922905467E+02  0.51100000000E-03 0.  1.
         22    1    1    0    0    0 -0.24057656817E+01  0.58242277396E+02 -0.22540274138E+02  0.62498116316E+02  0.00000000000E+00 0.  1.
</event>
<event>
 4    1  0.1977762E-002  0.9118800E+02  0.7818608E-02  0.1130116E+00
         25   -1    0    0    0    0  0.00000000000E+00  0.00000000000E+00  0.99999998245E-14  0.12500000000E+03  0.12500000000E+03 0.  0.
        -11    1    1    0    0    0 -0.25531066549E+02 -0.15394897696E+02 -0.66785783641E+01  0.30552277222E+02  0.51100000000E-03 0.  1.
         11    1    1    0    0    0  0.79857327502E+01  0.20359910715E+02 -0.39305546191E+02  0.44980260710E+02  0.51100000000E-03 0. -1.
         22    1    1    0    0    0  0.17545333799E+02 -0.49650130190E+01  0.45984124555E+02  0.49467462068E+02  0.00000000000E+00 0.  1.
</event>
<event>
 4    1  0.1977762E-002  0.9118800E+02  0.7818608E-02  0.1130116E+00
         25   -1    0    0    0    0  0.00000000000E+00  0.00000000000E+00  0.99999998245E-14  0.12500000000E+03  0.12500000000E+03 0.  0.
        -11    1    1    0    0    0  0.89213509749E+00 -0.13911501032E+02 -0.32879370690E+02  0.35712445775E+02  0.51100000000E-03 0.  1.
         11    1    1    0    0    0  0.10740648835E+01 -0.10155364393E+02 -0.24766110818E+02  0.26788902303E+02  0.51100000000E-03 0. -1.
         22    1    1    0    0    0 -0.19661999810E+01  0.24066865424E+02  0.57645481508E+02  0.62498651922E+02  0.00000000000E+00 0. -1.
</event>
<event>
 4    1  0.1977762E-002  0.9118800E+02  0.7818608E-02  0.1130116E+00
         25   -1    0    0    0    0  0.00000000000E+00  0.00000000000E+00  0.99999998245E-14  0.12500000000E+03  0.12500000000E+03 0.  0.
        -11    1    1    0    0    0  0.40492800864E+02 -0.36715288447E+02  0.29259770984E+02  0.61998496158E+02  0.51100000000E-03 0.  1.
         11    1    1    0    0    0  0.33165061266E+00 -0.31893328204E+00  0.20162473896E+00  0.50235780451E+00  0.51100000000E-03 0. -1.
         22    1    1    0    0    0 -0.40824451477E+02  0.37034221729E+02 -0.29461395723E+02  0.62499146037E+02  0.00000000000E+00 0.  1.
</event>
<event>
 4    1  0.1977762E-002  0.9118800E+02  0.7818608E-02  0.1130116E+00
         25   -1    0    0    0    0  0.00000000000E+00  0.00000000000E+00  0.99999998245E-14  0.12500000000E+03  0.12500000000E+03 0.  0.
        -11    1    1    0    0    0 -0.10347184659E+02 -0.33117873726E+02  0.42975751825E+02  0.55233803379E+02  0.51100000000E-03 0.  1.
         11    1    1    0    0    0 -0.13748100854E+01 -0.43737346157E+01  0.56372230322E+01  0.72662191706E+01  0.51100000000E-03 0. -1.
         22    1    1    0    0    0  0.11721994745E+02  0.37491608341E+02 -0.48612974858E+02  0.62499977451E+02  0.00000000000E+00 0.  1.
</event>
<event>
 4    1  0.1977762E-002  0.9118800E+02  0.7818608E-02  0.1130116E+00
         25   -1    0    0    0    0  0.00000000000E+00  0.00000000000E+00  0.99999998245E-14  0.12500000000E+03  0.12500000000E+03 0.  0.
        -11    1    1    0    0    0 -0.22552912656E+02  0.32885866800E+02 -0.42633289389E+02  0.58375606796E+02  0.51100000000E-03 0. -1.
         11    1    1    0    0    0 -0.15917370099E+01  0.23176880409E+01 -0.30175064129E+01  0.41243968985E+01  0.51100000000E-03 0.  1.
         22    1    1    0    0    0  0.24144649666E+02 -0.35203554840E+02  0.45650795801E+02  0.62499996306E+02  0.00000000000E+00 0. -1.
</event>
<event>
 4    1  0.1977762E-002  0.9118800E+02  0.7818608E-02  0.1130116E+00
         25   -1    0    0    0    0  0.00000000000E+00  0.00000000000E+00  0.99999998245E-14  0.12500000000E+03  0.12500000000E+03 0.  0.
        -11    1    1    0    0    0  0.11166254541E+02 -0.40774120019E+02 -0.43611234765E+02  0.60738405493E+02  0.51100000000E-03 0. -1.
         11    1    1    0    0    0 -0.87722929759E+01  0.41806186718E+01  0.14426407975E+02  0.17394020348E+02  0.51100000000E-03 0.  1.
         22    1    1    0    0    0 -0.23939615655E+01  0.36593501347E+02  0.29184826790E+02  0.46867574159E+02  0.00000000000E+00 0. -1.
</event>
<event>
 4    1  0.1977762E-002  0.9118800E+02  0.7818608E-02  0.1130116E+00
         25   -1    0    0    0    0  0.00000000000E+00  0.00000000000E+00  0.99999998245E-14  0.12500000000E+03  0.12500000000E+03 0.  0.
        -11    1    1    0    0    0  0.76300650454E+00 -0.78847951919E-01 -0.62372840150E+02  0.62377556737E+02  0.51100000000E-03 0. -1.
         11    1    1    0    0    0 -0.12615681890E-01 -0.22733757329E-01 -0.12112780393E+00  0.12388779261E+00  0.51100000000E-03 0.  1.
         22    1    1    0    0    0 -0.75039082265E+00  0.10158170925E+00  0.62493967954E+02  0.62498555470E+02  0.00000000000E+00 0. -1.
</event>
<event>
 4    1  0.1977762E-002  0.9118800E+02  0.7818608E-02  0.1130116E+00
         25   -1    0    0    0    0  0.00000000000E+00  0.00000000000E+00  0.99999998245E-14  0.12500000000E+03  0.12500000000E+03 0.  0.
        -11    1    1    0    0    0  0.46364564692E+00 -0.19132344745E+01 -0.29677248184E+01  0.35612953120E+01  0.51100000000E-03 0.  1.
         11    1    1    0    0    0  0.78974638662E+01 -0.31799788203E+02 -0.48991599719E+02  0.58938725034E+02  0.51100000000E-03 0. -1.
         22    1    1    0    0    0 -0.83611095131E+01  0.33713022678E+02  0.51959324538E+02  0.62499979654E+02  0.00000000000E+00 0. -1.
</event>
<event>
 4    1  0.1977762E-002  0.9118800E+02  0.7818608E-02  0.1130116E+00
         25   -1    0    0    0    0  0.00000000000E+00  0.00000000000E+00  0.99999998245E-14  0.12500000000E+03  0.12500000000E+03 0.  0.
        -11    1    1    0    0    0  0.49715094216E+02  0.10787927017E+00 -0.16241911215E+02  0.52301069884E+02  0.51100000000E-03 0. -1.
         11    1    1    0    0    0  0.95666562304E+01  0.21478394607E+00 -0.35400353846E+01  0.10202886570E+02  0.51100000000E-03 0.  1.
         22    1    1    0    0    0 -0.59281750447E+02 -0.32266321624E+00  0.19781946600E+02  0.62496043546E+02  0.00000000000E+00 0. -1.
</event>
<event>
 4    1  0.1977762E-002  0.9118800E+02  0.7818608E-02  0.1130116E+00
         25   -1    0    0    0    0  0.00000000000E+00  0.00000000000E+00  0.99999998245E-14  0.12500000000E+03  0.12500000000E+03 0.  0.
        -11    1    1    0    0    0  0.85311864840E+01 -0.34996685987E+01  0.11892280467E+01  0.92974774393E+01  0.51100000000E-03 0.  1.
         11    1    1    0    0    0  0.51115077052E+02 -0.12766569428E+02  0.76905298257E+01  0.53243597232E+02  0.51100000000E-03 0. -1.
         22    1    1    0    0    0 -0.59646263536E+02  0.16266238026E+02 -0.88797578724E+01  0.62458925328E+02  0.00000000000E+00 0.  1.
</event>
<event>
 4    1  0.1977762E-002  0.9118800E+02  0.7818608E-02  0.1130116E+00
         25   -1    0    0    0    0  0.00000000000E+00  0.00000000000E+00  0.99999998245E-14  0.12500000000E+03  0.12500000000E+03 0.  0.
        -11    1    1    0    0    0 -0.99374376747E+00 -0.83413710261E+00 -0.21274591845E+00  0.13147518657E+01  0.51100000000E-03 0. -1.
         11    1    1    0    0    0 -0.45839313026E+02 -0.38714231608E+02 -0.11985316596E+02  0.61185636892E+02  0.51100000000E-03 0.  1.
         22    1    1    0    0    0  0.46833056793E+02  0.39548368711E+02  0.12198062515E+02  0.62499611242E+02  0.00000000000E+00 0.  1.
</event>
<event>
 4    1  0.1977762E-002  0.9118800E+02  0.7818608E-02  0.1130116E+00
         25   -1    0    0    0    0  0.00000000000E+00  0.00000000000E+00  0.99999998245E-14  0.12500000000E+03  0.12500000000E+03 0.  0.
        -11    1    1    0    0    0  0.14607679291E+02 -0.41446228464E+02  0.19256460273E+02  0.47979010106E+02  0.51100000000E-03 0.  1.
         11    1    1    0    0    0  0.44305618303E+01 -0.12544433494E+02  0.58194948536E+01  0.14520992061E+02  0.51100000000E-03 0. -1.
         22    1    1    0    0    0 -0.19038241121E+02  0.53990661958E+02 -0.25075955127E+02  0.62499997834E+02  0.00000000000E+00 0.  1.
</event>
<event>
 4    1  0.1977762E-002  0.9118800E+02  0.7818608E-02  0.1130116E+00
         25   -1    0    0    0    0  0.00000000000E+00  0.00000000000E+00  0.99999998245E-14  0.12500000000E+03  0.12500000000E+03 0.  0.
        -11    1    1    0    0    0 -0.10000089955E+02  0.83293018831E+01 -0.29843155993E+02  0.32557534133E+02  0.51100000000E-03 0.  1.
         11    1    1    0    0    0 -0.92283393062E+01  0.76338254445E+01 -0.27442925642E+02  0.29942473267E+02  0.51100000000E-03 0. -1.
         22    1    1    0    0    0  0.19228429261E+02 -0.15963127328E+02  0.57286081635E+02  0.62499992600E+02  0.00000000000E+00 0.  1.
</event>
<event>
 4    1  0.1977762E-002  0.9118800E+02  0.7818608E-02  0.1130116E+00
         25   -1    0    0    0    0  0.00000000000E+00  0.00000000000E+00  0.99999998245E-14  0.12500000000E+03  0.12500000000E+03 0.  0.
        -11    1    1    0    0    0  0.30228768710E+01 -0.99428221478E+01 -0.37562173525E+02  0.38973252071E+02  0.51100000000E-03 0.  1.
         11    1    1    0    0    0  0.20350096001E+01 -0.60836352185E+01 -0.22635642611E+02  0.23527094980E+02  0.51100000000E-03 0. -1.
         22    1    1    0    0    0 -0.50578864710E+01  0.16026457366E+02  0.60197816135E+02  0.62499652949E+02  0.00000000000E+00 0. -1.
</event>
<event>
 4    1  0.1977762E-002  0.9118800E+02  0.7818608E-02  0.1130116E+00
         25   -1    0    0    0    0  0.00000000000E+00  0.00000000000E+00  0.99999998245E-14  0.12500000000E+03  0.12500000000E+03 0.  0.
        -11    1    1    0    0    0  0.35614914027E+01  0.18773585255E+01  0.95774709720E+00  0.41383542391E+01  0.51100000000E-03 0.  1.
         11    1    1    0    0    0  0.50238345214E+02  0.26456848697E+02  0.13499094164E+02  0.58361645936E+02  0.51100000000E-03 0. -1.
         22    1    1    0    0    0 -0.53799836617E+02 -0.28334207223E+02 -0.14456841261E+02  0.62499999825E+02  0.00000000000E+00 0. -1.
</event>
<event>
 4    1  0.1977762E-002  0.9118800E+02  0.7818608E-02  0.1130116E+00
         25   -1    0    0    0    0  0.00000000000E+00  0.00000000000E+00  0.99999998245E-14  0.12500000000E+03  0.12500000000E+03 0.  0.
        -11    1    1    0    0    0 -0.43809177818E+02  0.52591015466E+01 -0.14474643572E+02  0.46437242779E+02  0.51100000000E-03 0. -1.
         11    1    1    0    0    0 -0.15157640529E+02  0.18156436962E+01 -0.49961578738E+01  0.16062758860E+02  0.51100000000E-03 0.  1.
         22    1    1    0    0    0  0.58966818347E+02 -0.70747452428E+01  0.19470801446E+02  0.62499998361E+02  0.00000000000E+00 0. -1.
</event>
<event>
 4    1  0.1977762E-002  0.9118800E+02  0.7818608E-02  0.1130116E+00
         25   -1    0    0    0    0  0.00000000000E+00  0.00000000000E+00  0.99999998245E-14  0.12500000000E+03  0.12500000000E+03 0.  0.
        -11    1    1    0    0    0 -0.38851116394E+02 -0.18348551927E+01  0.46939736522E+02  0.60959944256E+02  0.51100000000E-03 0.  1.
         11    1    1    0    0    0 -0.98197979947E+00 -0.43354419871E-01  0.11855851585E+01  0.15400572591E+01  0.51100000000E-03 0. -1.
         22    1    1    0    0    0  0.39833096194E+02  0.18782096125E+01 -0.48125321681E+02  0.62499998485E+02  0.00000000000E+00 0.  1.
</event>
<event>
 4    1  0.1977762E-002  0.9118800E+02  0.7818608E-02  0.1130116E+00
         25   -1    0    0    0    0  0.00000000000E+00  0.00000000000E+00  0.99999998245E-14  0.12500000000E+03  0.12500000000E+03 0.  0.
        -11    1    1    0    0    0 -0.22010941692E+02 -0.37093556146E+01 -0.32699064252E+02  0.39591282834E+02  0.51100000000E-03 0.  1.
         11    1    1    0    0    0 -0.12744785963E+02 -0.21563488379E+01 -0.18913751156E+02  0.22908718703E+02  0.51100000000E-03 0. -1.
         22    1    1    0    0    0  0.34755727655E+02  0.58657044525E+01  0.51612815408E+02  0.62499998463E+02  0.00000000000E+00 0.  1.
</event>
<event>
 4    1  0.1977762E-002  0.9118800E+02  0.7818608E-02  0.1130116E+00
         25   -1    0    0    0    0  0.00000000000E+00  0.00000000000E+00  0.99999998245E-14  0.12500000000E+03  0.12500000000E+03 0.  0.
        -11    1    1    0    0    0  0.22718847162E+01  0.15573637922E+01 -0.27969453398E+01  0.39255248872E+01  0.51100000000E-03 0. -1.
         11    1    1    0    0    0  0.33932453266E+02  0.23262981091E+02 -0.41694023156E+02  0.58574476021E+02  0.51100000000E-03 0.  1.
         22    1    1    0    0    0 -0.36204337982E+02 -0.24820344884E+02  0.44490968495E+02  0.62499999092E+02  0.00000000000E+00 0.  1.
</event>
<event>
 4    1  0.1977762E-002  0.9118800E+02  0.7818608E-02  0.1130116E+00
         25   -1    0    0    0    0  0.00000000000E+00  0.00000000000E+00  0.99999998245E-14  0.12500000000E+03  0.12500000000E+03 0.  0.
        -11    1    1    0    0    0  0.14046628127E+02 -0.25130626588E+01 -0.85203847577E+01  0.16619873716E+02  0.51100000000E-03 0.  1.
         11    1    1    0    0    0  0.38775597874E+02 -0.69378094436E+01 -0.23522453064E+02  0.45880126294E+02  0.51100000000E-03 0. -1.
         22    1    1    0    0    0 -0.52822226000E+02  0.94508721024E+01  0.32042837821E+02  0.62499999990E+02  0.00000000000E+00 0. -1.
</event>
<event>
 4    1  0.1977762E-002  0.9118800E+02  0.7818608E-02  0.1130116E+00
         25   -1    0    0    0    0  0.00000000000E+00  0.00000000000E+00  0.99999998245E-14  0.12500000000E+03  0.12500000000E+03 0.  0.
        -11    1    1    0    0    0  0.13079992667E+02  0.50331627946E+02 -0.69361246067E+01  0.52463976257E+02  0.51100000000E-03 0.  1.
         11    1    1    0    0    0  0.26251008959E+01  0.95797326115E+01 -0.14394421291E+01  0.10036654100E+02  0.51100000000E-03 0. -1.
         22    1    1    0    0    0 -0.15705093563E+02 -0.59911360557E+02  0.83755667357E+01  0.62499369643E+02  0.00000000000E+00 0.  1.
</event>
<event>
 4    1  0.1977762E-002  0.9118800E+02  0.7818608E-02  0.1130116E+00
         25   -1    0    0    0    0  0.00000000000E+00  0.00000000000E+00  0.99999998245E-14  0.12500000000E+03  0.12500000000E+03 0.  0.
        -11    1    1    0    0    0 -0.15860645999E+02  0.19354618988E+02 -0.16469368342E+02  0.29956659719E+02  0.51100000000E-03 0.  1.
         11    1    1    0    0    0 -0.17235798688E+02  0.21025120126E+02 -0.17886882811E+02  0.32543340481E+02  0.51100000000E-03 0. -1.
         22    1    1    0    0    0  0.33096444687E+02 -0.40379739113E+02  0.34356251153E+02  0.62499999800E+02  0.00000000000E+00 0.  1.
</event>
<event>
 4    1  0.1977762E-002  0.9118800E+02  0.7818608E-02  0.1130116E+00
         25   -1    0    0    0    0  0.00000000000E+00  0.00000000000E+00  0.99999998245E-14  0.12500000000E+03  0.12500000000E+03 0.  0.
        -11    1    1    0    0    0 -0.21893398467E+02 -0.35547565959E+02  0.14332858408E+02  0.44140470913E+02  0.51100000000E-03 0.  1.
         11    1    1    0    0    0 -0.10576724390E+02 -0.13494244429E+02  0.66818607572E+01  0.18401331337E+02  0.51100000000E-03 0. -1.
         22    1    1    0    0    0  0.32470122857E+02  0.49041810389E+02 -0.21014719166E+02  0.62458197749E+02  0.00000000000E+00 0.  1.
</event>
<event>
 4    1  0.1977762E-002  0.9118800E+02  0.7818608E-02  0.1130116E+00
         25   -1    0    0    0    0  0.00000000000E+00  0.00000000000E+00  0.99999998245E-14  0.12500000000E+03  0.12500000000E+03 0.  0.
        -11    1    1    0    0    0 -0.48552208069E+00 -0.90856955859E+00  0.34123785197E-01  0.10307254860E+01  0.51100000000E-03 0.  1.
         11    1    1    0    0    0 -0.27280311944E+02 -0.54977066624E+02  0.34384579646E+01  0.61469636958E+02  0.51100000000E-03 0. -1.
         22    1    1    0    0    0  0.27765834025E+02  0.55885636182E+02 -0.34725817498E+01  0.62499637556E+02  0.00000000000E+00 0. -1.
</event>
<event>
 4    1  0.1977762E-002  0.9118800E+02  0.7818608E-02  0.1130116E+00
         25   -1    0    0    0    0  0.00000000000E+00  0.00000000000E+00  0.99999998245E-14  0.12500000000E+03  0.12500000000E+03 0.  0.
        -11    1    1    0    0    0 -0.15820043790E+00 -0.71744834360E-01  0.34171623725E+00  0.38333398979E+00  0.51100000000E-03 0. -1.
         11    1    1    0    0    0  0.15535535188E+01 -0.39608816862E+02  0.47875364864E+02  0.62155630983E+02  0.51100000000E-03 0.  1.
         22    1    1    0    0    0 -0.13953530809E+01  0.39680561696E+02 -0.48217081102E+02  0.62461035027E+02  0.00000000000E+00 0.  1.
</event>
<event>
 4    1  0.1977762E-002  0.9118800E+02  0.7818608E-02  0.1130116E+00
         25   -1    0    0    0    0  0.00000000000E+00  0.00000000000E+00  0.99999998245E-14  0.12500000000E+03  0.12500000000E+03 0.  0.
        -11    1    1    0    0    0  0.85611818122E+01  0.12056501021E+02 -0.59311398966E+02  0.61126877055E+02  0.51100000000E-03 0. -1.
         11    1    1    0    0    0 -0.23195038061E+01 -0.11728234838E+02  0.15284794161E+02  0.19405064368E+02  0.51100000000E-03 0.  1.
         22    1    1    0    0    0 -0.62416780061E+01 -0.32826618330E+00  0.44026604805E+02  0.44468058578E+02  0.00000000000E+00 0. -1.
</event>
<event>
 4    1  0.1977762E-002  0.9118800E+02  0.7818608E-02  0.1130116E+00
         25   -1    0    0    0    0  0.00000000000E+00  0.00000000000E+00  0.99999998245E-14  0.12500000000E+03  0.12500000000E+03 0.  0.
        -11    1    1    0    0    0  0.44777551723E+02 -0.23897782106E+02  0.36104557507E+02  0.62287014705E+02  0.51100000000E-03 0. -1.
         11    1    1    0    0    0  0.15778435125E+00 -0.61293406710E-01  0.13019730564E+00  0.21355182678E+00  0.51100000000E-03 0.  1.
         22    1    1    0    0    0 -0.44935336074E+02  0.23959075512E+02 -0.36234754812E+02  0.62499433468E+02  0.00000000000E+00 0. -1.
</event>
<event>
 4    1  0.1977762E-002  0.9118800E+02  0.7818608E-02  0.1130116E+00
         25   -1    0    0    0    0  0.00000000000E+00  0.00000000000E+00  0.99999998245E-14  0.12500000000E+03  0.12500000000E+03 0.  0.
        -11    1    1    0    0    0  0.12337579586E+02  0.24592568860E+02  0.64281629771E+01  0.28254762301E+02  0.51100000000E-03 0.  1.
         11    1    1    0    0    0  0.14941651335E+02  0.29808913439E+02  0.78046213178E+01  0.34245238781E+02  0.51100000000E-03 0. -1.
         22    1    1    0    0    0 -0.27279230920E+02 -0.54401482299E+02 -0.14232784295E+02  0.62499998918E+02  0.00000000000E+00 0. -1.
</event>
<event>
 4    1  0.1977762E-002  0.9118800E+02  0.7818608E-02  0.1130116E+00
         25   -1    0    0    0    0  0.00000000000E+00  0.00000000000E+00  0.99999998245E-14  0.12500000000E+03  0.12500000000E+03 0.  0.
        -11    1    1    0    0    0  0.65815941919E+01  0.29102733618E+02  0.51566222386E+02  0.59576520355E+02  0.51100000000E-03 0. -1.
         11    1    1    0    0    0  0.34375730794E+01  0.41151475450E+01 -0.48333786108E+01  0.72189263087E+01  0.51100000000E-03 0.  1.
         22    1    1    0    0    0 -0.10019167271E+02 -0.33217881163E+02 -0.46732843776E+02  0.58204553336E+02  0.00000000000E+00 0. -1.
</event>
<event>
 4    1  0.1977762E-002  0.9118800E+02  0.7818608E-02  0.1130116E+00
         25   -1    0    0    0    0  0.00000000000E+00  0.00000000000E+00  0.99999998245E-14  0.12500000000E+03  0.12500000000E+03 0.  0.
        -11    1    1    0    0    0  0.12625587789E+02  0.31675582202E+02 -0.32687017973E+02  0.47235464633E+02  0.51100000000E-03 0. -1.
         11    1    1    0    0    0  0.40781616702E+01  0.10238318018E+02 -0.10561793649E+02  0.15264535492E+02  0.51100000000E-03 0.  1.
         22    1    1    0    0    0 -0.16703749459E+02 -0.41913900220E+02  0.43248811622E+02  0.62499999875E+02  0.00000000000E+00 0. -1.
</event>
<event>
 4    1  0.1977762E-002  0.9118800E+02  0.7818608E-02  0.1130116E+00
         25   -1    0    0    0    0  0.00000000000E+00  0.00000000000E+00  0.99999998245E-14  0.12500000000E+03  0.12500000000E+03 0.  0.
        -11    1    1    0    0    0 -0.22533660696E+01 -0.39004492550E+02  0.24480341944E+02  0.46105479497E+02  0.51100000000E-03 0. -1.
         11    1    1    0    0    0 -0.83435460328E+00 -0.13887729824E+02  0.86727171911E+01  0.16394548210E+02  0.51100000000E-03 0.  1.
         22    1    1    0    0    0  0.30877206728E+01  0.52892222374E+02 -0.33153059135E+02  0.62499972293E+02  0.00000000000E+00 0.  1.
</event>
<event>
 4    1  0.1977762E-002  0.9118800E+02  0.7818608E-02  0.1130116E+00
         25   -1    0    0    0    0  0.00000000000E+00  0.00000000000E+00  0.99999998245E-14  0.12500000000E+03  0.12500000000E+03 0.  0.
        -11    1    1    0    0    0  0.51893925521E+01  0.41656813018E+01  0.10211345162E+02  0.12188283966E+02  0.51100000000E-03 0.  1.
         11    1    1    0    0    0  0.21428423422E+02  0.17220318635E+02  0.42137301180E+02  0.50311716879E+02  0.51100000000E-03 0. -1.
         22    1    1    0    0    0 -0.26617815974E+02 -0.21385999937E+02 -0.52348646342E+02  0.62499999155E+02  0.00000000000E+00 0. -1.
</event>
<event>
 4    1  0.1977762E-002  0.9118800E+02  0.7818608E-02  0.1130116E+00
         25   -1    0    0    0    0  0.00000000000E+00  0.00000000000E+00  0.99999998245E-14  0.12500000000E+03  0.12500000000E+03 0.  0.
        -11    1    1    0    0    0 -0.56728986104E+01  0.86375668016E+01  0.91659078551E+01  0.13813153368E+02  0.51100000000E-03 0.  1.
         11    1    1    0    0    0 -0.22703805713E+02  0.28619425478E+02  0.32203337421E+02  0.48698965593E+02  0.51100000000E-03 0. -1.
         22    1    1    0    0    0  0.28376704324E+02 -0.37256992280E+02 -0.41369245276E+02  0.62487881039E+02  0.00000000000E+00 0. -1.
</event>
<event>
 4    1  0.1977762E-002  0.9118800E+02  0.7818608E-02  0.1130116E+00
         25   -1    0    0    0    0  0.00000000000E+00  0.00000000000E+00  0.99999998245E-14  0.12500000000E+03  0.12500000000E+03 0.  0.
        -11    1    1    0    0    0 -0.77700039668E+01  0.48557127240E+01  0.60325068358E+00  0.91823101315E+01  0.51100000000E-03 0.  1.
         11    1    1    0    0    0 -0.44976959343E+02  0.28375342083E+02  0.38341935576E+01  0.53317801442E+02  0.51100000000E-03 0. -1.
         22    1    1    0    0    0  0.52746963310E+02 -0.33231054807E+02 -0.44374442412E+01  0.62499888427E+02  0.00000000000E+00 0. -1.
</event>
<event>
 4    1  0.1977762E-002  0.9118800E+02  0.7818608E-02  0.1130116E+00
         25   -1    0    0    0    0  0.00000000000E+00  0.00000000000E+00  0.99999998245E-14  0.12500000000E+03  0.12500000000E+03 0.  0.
        -11    1    1    0    0    0  0.46829332795E+02 -0.15368028504E+02  0.13092347150E+02  0.50995806340E+02  0.51100000000E-03 0.  1.
         11    1    1    0    0    0  0.10483200587E+02 -0.35324119334E+01  0.31611818037E+01  0.11505150988E+02  0.51100000000E-03 0. -1.
         22    1    1    0    0    0 -0.57312533382E+02  0.18900440438E+02 -0.16253528953E+02  0.62499042671E+02  0.00000000000E+00 0.  1.
</event>
<event>
 4    1  0.1977762E-002  0.9118800E+02  0.7818608E-02  0.1130116E+00
         25   -1    0    0    0    0  0.00000000000E+00  0.00000000000E+00  0.99999998245E-14  0.12500000000E+03  0.12500000000E+03 0.  0.
        -11    1    1    0    0    0 -0.23859269576E+02  0.17214367894E+01 -0.40828360940E+02  0.47320007889E+02  0.51100000000E-03 0.  1.
         11    1    1    0    0    0 -0.75882037200E+01  0.15448312588E+01 -0.13070570243E+02  0.15192338400E+02  0.51100000000E-03 0. -1.
         22    1    1    0    0    0  0.31447473296E+02 -0.32662680482E+01  0.53898931183E+02  0.62487653711E+02  0.00000000000E+00 0.  1.
</event>
<event>
 4    1  0.1977762E-002  0.9118800E+02  0.7818608E-02  0.1130116E+00
         25   -1    0    0    0    0  0.00000000000E+00  0.00000000000E+00  0.99999998245E-14  0.12500000000E+03  0.12500000000E+03 0.  0.
        -11    1    1    0    0    0  0.14712788382E+01 -0.32617009402E+01 -0.64188139254E+01  0.73487772393E+01  0.51100000000E-03 0. -1.
         11    1    1    0    0    0 -0.29448427559E+02  0.38503063816E+00  0.54500022892E+02  0.61948451391E+02  0.51100000000E-03 0.  1.
         22    1    1    0    0    0  0.27977148721E+02  0.28766703020E+01 -0.48081208967E+02  0.55702771370E+02  0.00000000000E+00 0.  1.
</event>
<event>
 4    1  0.1977762E-002  0.9118800E+02  0.7818608E-02  0.1130116E+00
         25   -1    0    0    0    0  0.00000000000E+00  0.00000000000E+00  0.99999998245E-14  0.12500000000E+03  0.12500000000E+03 0.  0.
        -11    1    1    0    0    0 -0.20148427090E+02  0.96266537363E+01  0.19327312478E+02  0.29532635917E+02  0.51100000000E-03 0.  1.
         11    1    1    0    0    0  0.38096558302E+00  0.16921233675E+02  0.30948467779E+02  0.35274366642E+02  0.51100000000E-03 0. -1.
         22    1    1    0    0    0  0.19767461507E+02 -0.26547887411E+02 -0.50275780257E+02  0.60192997441E+02  0.00000000000E+00 0. -1.
</event>
<event>
 4    1  0.1977762E-002  0.9118800E+02  0.7818608E-02  0.1130116E+00
         25   -1    0    0    0    0  0.00000000000E+00  0.00000000000E+00  0.99999998245E-14  0.12500000000E+03  0.12500000000E+03 0.  0.
        -11    1    1    0    0    0  0.44554661537E+01  0.20343633888E+02  0.10870139506E+02  0.23492010377E+02  0.51100000000E-03 0.  1.
         11    1    1    0    0    0  0.73924779985E+01  0.33779363826E+02  0.18053506921E+02  0.39007989744E+02  0.51100000000E-03 0. -1.
         22    1    1    0    0    0 -0.11847944152E+02 -0.54122997714E+02 -0.28923646428E+02  0.62499999879E+02  0.00000000000E+00 0.  1.
</event>
<event>
 4    1  0.1977762E-002  0.9118800E+02  0.7818608E-02  0.1130116E+00
         25   -1    0    0    0    0  0.00000000000E+00  0.00000000000E+00  0.99999998245E-14  0.12500000000E+03  0.12500000000E+03 0.  0.
        -11    1    1    0    0    0  0.58668264536E+02  0.45850778264E+01 -0.17659814317E+01  0.58873651942E+02  0.51100000000E-03 0. -1.
         11    1    1    0    0    0  0.24927070839E+01  0.26512690419E+01  0.27006181261E+01  0.45316834248E+01  0.51100000000E-03 0.  1.
         22    1    1    0    0    0 -0.61160971620E+02 -0.72363468682E+01 -0.93463669442E+00  0.61594664633E+02  0.00000000000E+00 0. -1.
</event>
<event>
 4    1  0.1977762E-002  0.9118800E+02  0.7818608E-02  0.1130116E+00
         25   -1    0    0    0    0  0.00000000000E+00  0.00000000000E+00  0.99999998245E-14  0.12500000000E+03  0.12500000000E+03 0.  0.
        -11    1    1    0    0    0 -0.31531777739E+02  0.26641556174E+02  0.41032490812E+02  0.58203872940E+02  0.51100000000E-03 0. -1.
         11    1    1    0    0    0 -0.23245621417E+01  0.19686019336E+01  0.30294770325E+01  0.42961278002E+01  0.51100000000E-03 0.  1.
         22    1    1    0    0    0  0.33856339881E+02 -0.28610158108E+02 -0.44061967845E+02  0.62499999259E+02  0.00000000000E+00 0. -1.
</event>
<event>
 4    1  0.1977762E-002  0.9118800E+02  0.7818608E-02  0.1130116E+00
         25   -1    0    0    0    0  0.00000000000E+00  0.00000000000E+00  0.99999998245E-14  0.12500000000E+03  0.12500000000E+03 0.  0.
        -11    1    1    0    0    0 -0.16534502770E+02  0.38844423340E+02 -0.36072411808E+02  0.55529252654E+02  0.51100000000E-03 0. -1.
         11    1    1    0    0    0 -0.14995040016E+01  0.49861678633E+01 -0.46519477813E+01  0.69821916783E+01  0.51100000000E-03 0.  1.
         22    1    1    0    0    0  0.18034006771E+02 -0.43830591203E+02  0.40724359589E+02  0.62488555667E+02  0.00000000000E+00 0. -1.
</event>
<event>
 4    1  0.1977762E-002  0.9118800E+02  0.7818608E-02  0.1130116E+00
         25   -1    0    0    0    0  0.00000000000E+00  0.00000000000E+00  0.99999998245E-14  0.12500000000E+03  0.12500000000E+03 0.  0.
        -11    1    1    0    0    0 -0.18038982175E+02 -0.24483678804E+02  0.33839097649E+02  0.45496592572E+02  0.51100000000E-03 0.  1.
         11    1    1    0    0    0  0.47360664746E+01 -0.15270212428E+02  0.99914852578E+01  0.18853102959E+02  0.51100000000E-03 0. -1.
         22    1    1    0    0    0  0.13302915701E+02  0.39753891232E+02 -0.43830582907E+02  0.60650304469E+02  0.00000000000E+00 0.  1.
</event>
<event>
 4    1  0.1977762E-002  0.9118800E+02  0.7818608E-02  0.1130116E+00
         25   -1    0    0    0    0  0.00000000000E+00  0.00000000000E+00  0.99999998245E-14  0.12500000000E+03  0.12500000000E+03 0.  0.
        -11    1    1    0    0    0  0.55882800221E+00 -0.10306383240E+02  0.16689498580E+01  0.10455583107E+02  0.51100000000E-03 0. -1.
         11    1    1    0    0    0  0.27457677887E+01 -0.51299855680E+02  0.83310894507E+01  0.52044418387E+02  0.51100000000E-03 0.  1.
         22    1    1    0    0    0 -0.33045957909E+01  0.61606238919E+02 -0.10000039309E+02  0.62499998506E+02  0.00000000000E+00 0.  1.
</event>
<event>
 4    1  0.1977762E-002  0.9118800E+02  0.7818608E-02  0.1130116E+00
         25   -1    0    0    0    0  0.00000000000E+00  0.00000000000E+00  0.99999998245E-14  0.12500000000E+03  0.12500000000E+03 0.  0.
        -11    1    1    0    0    0 -0.14699058120E+02 -0.13393200746E+02  0.31824459430E+02  0.37526475375E+02  0.51100000000E-03 0. -1.
         11    1    1    0    0    0 -0.10597015157E+02 -0.96088538264E+01  0.20482685987E+02  0.24983339000E+02  0.51100000000E-03 0.  1.
         22    1    1    0    0    0  0.25296073277E+02  0.23002054572E+02 -0.52307145417E+02  0.62490185625E+02  0.00000000000E+00 0. -1.
</event>
<event>
 4    1  0.1977762E-002  0.9118800E+02  0.7818608E-02  0.1130116E+00
         25   -1    0    0    0    0  0.00000000000E+00  0.00000000000E+00  0.99999998245E-14  0.12500000000E+03  0.12500000000E+03 0.  0.
        -11    1    1    0    0    0  0.57049365200E+02 -0.81050899696E+01 -0.13748514082E+02  0.59239718035E+02  0.51100000000E-03 0.  1.
         11    1    1    0    0    0  0.31380519812E+01 -0.43238336001E+00 -0.77156215291E+00  0.32603119519E+01  0.51100000000E-03 0. -1.
         22    1    1    0    0    0 -0.60187417181E+02  0.85374733296E+01  0.14520076235E+02  0.62499970013E+02  0.00000000000E+00 0.  1.
</event>
<event>
 4    1  0.1977762E-002  0.9118800E+02  0.7818608E-02  0.1130116E+00
         25   -1    0    0    0    0  0.00000000000E+00  0.00000000000E+00  0.99999998245E-14  0.12500000000E+03  0.12500000000E+03 0.  0.
        -11    1    1    0    0    0 -0.21738973645E+02  0.21188185630E+01 -0.11749456940E+02  0.24801655305E+02  0.51100000000E-03 0. -1.
         11    1    1    0    0    0 -0.33031157630E+02  0.32544885844E+01 -0.17875022490E+02  0.37698348765E+02  0.51100000000E-03 0.  1.
         22    1    1    0    0    0  0.54770131275E+02 -0.53733071474E+01  0.29624479430E+02  0.62499995929E+02  0.00000000000E+00 0.  1.
</event>
<event>
 4    1  0.1977762E-002  0.9118800E+02  0.7818608E-02  0.1130116E+00
         25   -1    0    0    0    0  0.00000000000E+00  0.00000000000E+00  0.99999998245E-14  0.12500000000E+03  0.12500000000E+03 0.  0.
        -11    1    1    0    0    0 -0.20180213760E+02  0.43589744296E+01  0.84567342592E+01  0.22310491704E+02  0.51100000000E-03 0. -1.
         11    1    1    0    0    0 -0.36351516796E+02  0.78492079511E+01  0.15236592185E+02  0.40189508339E+02  0.51100000000E-03 0.  1.
         22    1    1    0    0    0  0.56531730556E+02 -0.12208182381E+02 -0.23693326445E+02  0.62499999957E+02  0.00000000000E+00 0.  1.
</event>
<event>
 4    1  0.1977762E-002  0.9118800E+02  0.7818608E-02  0.1130116E+00
         25   -1    0    0    0    0  0.00000000000E+00  0.00000000000E+00  0.99999998245E-14  0.12500000000E+03  0.12500000000E+03 0.  0.
        -11    1    1    0    0    0 -0.15011707208E+01  0.47157544326E+01  0.37389661187E+01  0.62025576418E+01  0.51100000000E-03 0.  1.
         11    1    1    0    0    0 -0.13719390881E+02  0.42939846571E+02  0.33724672166E+02  0.56297474390E+02  0.51100000000E-03 0. -1.
         22    1    1    0    0    0  0.15220561602E+02 -0.47655601004E+02 -0.37463638285E+02  0.62499967968E+02  0.00000000000E+00 0. -1.
</event>
<event>
 4    1  0.1977762E-002  0.9118800E+02  0.7818608E-02  0.1130116E+00
         25   -1    0    0    0    0  0.00000000000E+00  0.00000000000E+00  0.99999998245E-14  0.12500000000E+03  0.12500000000E+03 0.  0.
        -11    1    1    0    0    0  0.29603849127E+01 -0.14489717116E+02 -0.13197314072E+02  0.19821323869E+02  0.51100000000E-03 0. -1.
         11    1    1    0    0    0  0.14638292488E+02  0.55391599796E+02 -0.40306132325E+01  0.57434787179E+02  0.51100000000E-03 0.  1.
         22    1    1    0    0    0 -0.17598677401E+02 -0.40901882680E+02  0.17227927305E+02  0.47743888952E+02  0.00000000000E+00 0.  1.
</event>
<event>
 4    1  0.1977762E-002  0.9118800E+02  0.7818608E-02  0.1130116E+00
         25   -1    0    0    0    0  0.00000000000E+00  0.00000000000E+00  0.99999998245E-14  0.12500000000E+03  0.12500000000E+03 0.  0.
        -11    1    1    0    0    0 -0.35944076630E+02  0.17573278888E+00  0.26845402266E+02  0.44862937375E+02  0.51100000000E-03 0. -1.
         11    1    1    0    0    0 -0.23573719515E+01  0.15293019392E+02  0.14848675869E+02  0.21445671357E+02  0.51100000000E-03 0.  1.
         22    1    1    0    0    0  0.38301448581E+02 -0.15468752181E+02 -0.41694078135E+02  0.58691391268E+02  0.00000000000E+00 0.  1.
</event>
<event>
 4    1  0.1977762E-002  0.9118800E+02  0.7818608E-02  0.1130116E+00
         25   -1    0    0    0    0  0.00000000000E+00  0.00000000000E+00  0.99999998245E-14  0.12500000000E+03  0.12500000000E+03 0.  0.
        -11    1    1    0    0    0 -0.31652964928E+02 -0.19078526162E+02  0.83914472173E+01  0.37898769583E+02  0.51100000000E-03 0. -1.
         11    1    1    0    0    0 -0.20493646768E+02 -0.12349467660E+02  0.57223972988E+01  0.24601722306E+02  0.51100000000E-03 0.  1.
         22    1    1    0    0    0  0.52146611696E+02  0.31427993822E+02 -0.14113844516E+02  0.62499508111E+02  0.00000000000E+00 0. -1.
</event>
<event>
 4    1  0.1977762E-002  0.9118800E+02  0.7818608E-02  0.1130116E+00
         25   -1    0    0    0    0  0.00000000000E+00  0.00000000000E+00  0.99999998245E-14  0.12500000000E+03  0.12500000000E+03 0.  0.
        -11    1    1    0    0    0  0.24824250559E+01 -0.67351333432E+01 -0.94412246876E+01  0.11860066575E+02  0.51100000000E-03 0.  1.
         11    1    1    0    0    0  0.10524561437E+02 -0.28830253103E+02 -0.40279698387E+02  0.50639944608E+02  0.51100000000E-03 0. -1.
         22    1    1    0    0    0 -0.13006986493E+02  0.35565386446E+02  0.49720923075E+02  0.62499988817E+02  0.00000000000E+00 0.  1.
</event>
<event>
 4    1  0.1977762E-002  0.9118800E+02  0.7818608E-02  0.1130116E+00
         25   -1    0    0    0    0  0.00000000000E+00  0.00000000000E+00  0.99999998245E-14  0.12500000000E+03  0.12500000000E+03 0.  0.
        -11    1    1    0    0    0  0.27294203042E+01 -0.14664341401E+01 -0.45857509059E+01  0.55343722242E+01  0.51100000000E-03 0.  1.
         11    1    1    0    0    0  0.28086492691E+02 -0.15080056995E+02 -0.47210418059E+02  0.56965627919E+02  0.51100000000E-03 0. -1.
         22    1    1    0    0    0 -0.30815912996E+02  0.16546491135E+02  0.51796168965E+02  0.62499999857E+02  0.00000000000E+00 0. -1.
</event>
<event>
 4    1  0.1977762E-002  0.9118800E+02  0.7818608E-02  0.1130116E+00
         25   -1    0    0    0    0  0.00000000000E+00  0.00000000000E+00  0.99999998245E-14  0.12500000000E+03  0.12500000000E+03 0.  0.
        -11    1    1    0    0    0  0.39973035268E+01  0.10679231432E+02  0.12698637584E+02  0.17066921696E+02  0.51100000000E-03 0. -1.
         11    1    1    0    0    0  0.23232967565E+02  0.41418737755E+02  0.12868839515E+01  0.47507248812E+02  0.51100000000E-03 0.  1.
         22    1    1    0    0    0 -0.27230271092E+02 -0.52097969187E+02 -0.13985521535E+02  0.60425829492E+02  0.00000000000E+00 0.  1.
</event>
<event>
 4    1  0.1977762E-002  0.9118800E+02  0.7818608E-02  0.1130116E+00
         25   -1    0    0    0    0  0.00000000000E+00  0.00000000000E+00  0.99999998245E-14  0.12500000000E+03  0.12500000000E+03 0.  0.
        -11    1    1    0    0    0  0.12740612335E+02  0.42530980505E+01  0.23061882646E+01  0.13628299611E+02  0.51100000000E-03 0. -1.
         11    1    1    0    0    0  0.45725003959E+02  0.15114765678E+02  0.83194609072E+01  0.48871725554E+02  0.51100000000E-03 0.  1.
         22    1    1    0    0    0 -0.58465616295E+02 -0.19367863728E+02 -0.10625649172E+02  0.62499974835E+02  0.00000000000E+00 0.  1.
</event>
<event>
 4    1  0.1977762E-002  0.9118800E+02  0.7818608E-02  0.1130116E+00
         25   -1    0    0    0    0  0.00000000000E+00  0.00000000000E+00  0.99999998245E-14  0.12500000000E+03  0.12500000000E+03 0.  0.
        -11    1    1    0    0    0  0.29176354207E+02  0.28245762802E+01  0.21552632188E+02  0.36383427965E+02  0.51100000000E-03 0.  1.
         11    1    1    0    0    0  0.20960530841E+02  0.20048835045E+01  0.15450316578E+02  0.26116578904E+02  0.51100000000E-03 0. -1.
         22    1    1    0    0    0 -0.50136885048E+02 -0.48294597847E+01 -0.37002948766E+02  0.62499993132E+02  0.00000000000E+00 0.  1.
</event>
<event>
 4    1  0.1977762E-002  0.9118800E+02  0.7818608E-02  0.1130116E+00
         25   -1    0    0    0    0  0.00000000000E+00  0.00000000000E+00  0.99999998245E-14  0.12500000000E+03  0.12500000000E+03 0.  0.
        -11    1    1    0    0    0  0.38525085421E+02 -0.30117624726E+02  0.98027519322E+00  0.48910269530E+02  0.51100000000E-03 0. -1.
         11    1    1    0    0    0  0.10703941024E+02 -0.83685306558E+01  0.27224150888E+00  0.13589730479E+02  0.51100000000E-03 0. -1.
         22    1    1    0    0    0 -0.49229026445E+02  0.38486155382E+02 -0.12525167021E+01  0.62499999991E+02  0.00000000000E+00 0. -1.
</event>
<event>
 4    1  0.1977762E-002  0.9118800E+02  0.7818608E-02  0.1130116E+00
         25   -1    0    0    0    0  0.00000000000E+00  0.00000000000E+00  0.99999998245E-14  0.12500000000E+03  0.12500000000E+03 0.  0.
        -11    1    1    0    0    0  0.22634768472E+02  0.30683115758E+02 -0.34705401847E+02  0.51558231681E+02  0.51100000000E-03 0.  1.
         11    1    1    0    0    0  0.47846930628E+01  0.65183944259E+01 -0.73715481992E+01  0.10941776671E+02  0.51100000000E-03 0. -1.
         22    1    1    0    0    0 -0.27419461535E+02 -0.37201510184E+02  0.42076950047E+02  0.62499991648E+02  0.00000000000E+00 0.  1.
</event>
<event>
 4    1  0.1977762E-002  0.9118800E+02  0.7818608E-02  0.1130116E+00
         25   -1    0    0    0    0  0.00000000000E+00  0.00000000000E+00  0.99999998245E-14  0.12500000000E+03  0.12500000000E+03 0.  0.
        -11    1    1    0    0    0 -0.95083466955E+01  0.99201806490E+01 -0.37979716877E+02  0.40389076930E+02  0.51100000000E-03 0. -1.
         11    1    1    0    0    0 -0.52694576835E+01  0.60980314102E+01 -0.20593631194E+02  0.22114493379E+02  0.51100000000E-03 0.  1.
         22    1    1    0    0    0  0.14777804379E+02 -0.16018212059E+02  0.58573348071E+02  0.62496429691E+02  0.00000000000E+00 0.  1.
</event>
<event>
 4    1  0.1977762E-002  0.9118800E+02  0.7818608E-02  0.1130116E+00
         25   -1    0    0    0    0  0.00000000000E+00  0.00000000000E+00  0.99999998245E-14  0.12500000000E+03  0.12500000000E+03 0.  0.
        -11    1    1    0    0    0 -0.19226640759E+01 -0.10636619853E+01  0.17169781839E+01  0.27885530859E+01  0.51100000000E-03 0. -1.
         11    1    1    0    0    0 -0.40487137054E+02 -0.21831489503E+02  0.38074968819E+02  0.59712020998E+02  0.51100000000E-03 0.  1.
         22    1    1    0    0    0  0.42409801130E+02  0.22895151488E+02 -0.39791947003E+02  0.62499425916E+02  0.00000000000E+00 0.  1.
</event>
<event>
 4    1  0.1977762E-002  0.9118800E+02  0.7818608E-02  0.1130116E+00
         25   -1    0    0    0    0  0.00000000000E+00  0.00000000000E+00  0.99999998245E-14  0.12500000000E+03  0.12500000000E+03 0.  0.
        -11    1    1    0    0    0 -0.28008782127E+02 -0.34830085917E+02  0.16089928627E-02  0.44694818090E+02  0.51100000000E-03 0.  1.
         11    1    1    0    0    0 -0.11158203932E+02 -0.13875121131E+02  0.12632885973E-02  0.17805181921E+02  0.51100000000E-03 0.  1.
         22    1    1    0    0    0  0.39166986059E+02  0.48705207047E+02 -0.28722814600E-02  0.62499999990E+02  0.00000000000E+00 0.  1.
</event>
<event>
 4    1  0.1977762E-002  0.9118800E+02  0.7818608E-02  0.1130116E+00
         25   -1    0    0    0    0  0.00000000000E+00  0.00000000000E+00  0.99999998245E-14  0.12500000000E+03  0.12500000000E+03 0.  0.
        -11    1    1    0    0    0  0.30859357686E+02  0.23011946591E+02  0.43038140155E+02  0.57741935809E+02  0.51100000000E-03 0.  1.
         11    1    1    0    0    0  0.37626407807E+01  0.43907063238E+00  0.31686778681E+01  0.49387010800E+01  0.51100000000E-03 0. -1.
         22    1    1    0    0    0 -0.34621998467E+02 -0.23451017223E+02 -0.46206818023E+02  0.62319363111E+02  0.00000000000E+00 0.  1.
</event>
<event>
 4    1  0.1977762E-002  0.9118800E+02  0.7818608E-02  0.1130116E+00
         25   -1    0    0    0    0  0.00000000000E+00  0.00000000000E+00  0.99999998245E-14  0.12500000000E+03  0.12500000000E+03 0.  0.
        -11    1    1    0    0    0  0.21797160282E+02 -0.53126934919E+01 -0.14665029563E+02  0.26803059543E+02  0.51100000000E-03 0. -1.
         11    1    1    0    0    0  0.29193273908E+02  0.25426108108E+01 -0.20877088105E+02  0.35980062801E+02  0.51100000000E-03 0.  1.
         22    1    1    0    0    0 -0.50990434190E+02  0.27700826811E+01  0.35542117668E+02  0.62216877656E+02  0.00000000000E+00 0.  1.
</event>
<event>
 4    1  0.1977762E-002  0.9118800E+02  0.7818608E-02  0.1130116E+00
         25   -1    0    0    0    0  0.00000000000E+00  0.00000000000E+00  0.99999998245E-14  0.12500000000E+03  0.12500000000E+03 0.  0.
        -11    1    1    0    0    0  0.11677869016E+01 -0.31806502308E+01  0.29814141894E+01  0.45132131534E+01  0.51100000000E-03 0. -1.
         11    1    1    0    0    0  0.15007466409E+02 -0.40865029415E+02  0.38305257781E+02  0.57986786866E+02  0.51100000000E-03 0. -1.
         22    1    1    0    0    0 -0.16175253311E+02  0.44045679646E+02 -0.41286671970E+02  0.62499999980E+02  0.00000000000E+00 0. -1.
</event>
<event>
 4    1  0.1977762E-002  0.9118800E+02  0.7818608E-02  0.1130116E+00
         25   -1    0    0    0    0  0.00000000000E+00  0.00000000000E+00  0.99999998245E-14  0.12500000000E+03  0.12500000000E+03 0.  0.
        -11    1    1    0    0    0 -0.10996551769E+01  0.46810883467E+02  0.94625941591E+01  0.47770375139E+02  0.51100000000E-03 0. -1.
         11    1    1    0    0    0  0.98392203073E+00  0.14282075723E+02  0.35868327340E+01  0.14758426706E+02  0.51100000000E-03 0.  1.
         22    1    1    0    0    0  0.11573314617E+00 -0.61092959189E+02 -0.13049426893E+02  0.62471198155E+02  0.00000000000E+00 0. -1.
</event>
<event>
 4    1  0.1977762E-002  0.9118800E+02  0.7818608E-02  0.1130116E+00
         25   -1    0    0    0    0  0.00000000000E+00  0.00000000000E+00  0.99999998245E-14  0.12500000000E+03  0.12500000000E+03 0.  0.
        -11    1    1    0    0    0  0.43391323542E+02 -0.22586726673E+02 -0.11000572943E+02  0.50139602969E+02  0.51100000000E-03 0.  1.
         11    1    1    0    0    0  0.10754561494E+02 -0.64629417099E+01  0.79534644820E+00  0.12572302283E+02  0.51100000000E-03 0. -1.
         22    1    1    0    0    0 -0.54145885036E+02  0.29049668383E+02  0.10205226495E+02  0.62288094748E+02  0.00000000000E+00 0.  1.
</event>
<event>
 4    1  0.1977762E-002  0.9118800E+02  0.7818608E-02  0.1130116E+00
         25   -1    0    0    0    0  0.00000000000E+00  0.00000000000E+00  0.99999998245E-14  0.12500000000E+03  0.12500000000E+03 0.  0.
        -11    1    1    0    0    0  0.10912578424E+02 -0.19029249080E+02 -0.43786449301E+02  0.48973970955E+02  0.51100000000E-03 0. -1.
         11    1    1    0    0    0  0.29932615631E+01 -0.49339630521E+01 -0.12235131819E+02  0.13527825290E+02  0.51100000000E-03 0.  1.
         22    1    1    0    0    0 -0.13905839987E+02  0.23963212132E+02  0.56021581120E+02  0.62498203755E+02  0.00000000000E+00 0. -1.
</event>
<event>
 4    1  0.1977762E-002  0.9118800E+02  0.7818608E-02  0.1130116E+00
         25   -1    0    0    0    0  0.00000000000E+00  0.00000000000E+00  0.99999998245E-14  0.12500000000E+03  0.12500000000E+03 0.  0.
        -11    1    1    0    0    0  0.11571975012E+02 -0.72571111029E+01  0.47222994535E+01  0.14452556162E+02  0.51100000000E-03 0.  1.
         11    1    1    0    0    0  0.37610882317E+02 -0.23254154615E+02  0.18828935059E+02  0.48061033813E+02  0.51100000000E-03 0. -1.
         22    1    1    0    0    0 -0.49182857328E+02  0.30511265718E+02 -0.23551234512E+02  0.62486410024E+02  0.00000000000E+00 0.  1.
</event>
<event>
 4    1  0.1977762E-002  0.9118800E+02  0.7818608E-02  0.1130116E+00
         25   -1    0    0    0    0  0.00000000000E+00  0.00000000000E+00  0.99999998245E-14  0.12500000000E+03  0.12500000000E+03 0.  0.
        -11    1    1    0    0    0 -0.15789244036E+01 -0.19601314131E+01 -0.52556012172E+00  0.25712508885E+01  0.51100000000E-03 0. -1.
         11    1    1    0    0    0 -0.38678904251E+02 -0.44844026962E+02 -0.92026450483E+01  0.59931069274E+02  0.51100000000E-03 0.  1.
         22    1    1    0    0    0  0.40257828654E+02  0.46804158375E+02  0.97282051700E+01  0.62497679837E+02  0.00000000000E+00 0.  1.
</event>
<event>
 4    1  0.1977762E-002  0.9118800E+02  0.7818608E-02  0.1130116E+00
         25   -1    0    0    0    0  0.00000000000E+00  0.00000000000E+00  0.99999998245E-14  0.12500000000E+03  0.12500000000E+03 0.  0.
        -11    1    1    0    0    0 -0.41005774207E+02  0.39009306140E+01 -0.37675816318E+02  0.55822557389E+02  0.51100000000E-03 0. -1.
         11    1    1    0    0    0 -0.49049677072E+01  0.47036389375E+00 -0.45064726324E+01  0.66774430921E+01  0.51100000000E-03 0.  1.
         22    1    1    0    0    0  0.45910741914E+02 -0.43712945078E+01  0.42182288950E+02  0.62499999519E+02  0.00000000000E+00 0. -1.
</event>
<event>
 4    1  0.1977762E-002  0.9118800E+02  0.7818608E-02  0.1130116E+00
         25   -1    0    0    0    0  0.00000000000E+00  0.00000000000E+00  0.99999998245E-14  0.12500000000E+03  0.12500000000E+03 0.  0.
        -11    1    1    0    0    0 -0.34235204912E+02 -0.35950640068E+02 -0.33040598537E+02  0.59633706313E+02  0.51100000000E-03 0.  1.
         11    1    1    0    0    0 -0.16921665274E+01 -0.17338122592E+01 -0.15325256227E+01  0.28667346497E+01  0.51100000000E-03 0. -1.
         22    1    1    0    0    0  0.35927371439E+02  0.37684452327E+02  0.34573124160E+02  0.62499559038E+02  0.00000000000E+00 0.  1.
</event>
<event>
 4    1  0.1977762E-002  0.9118800E+02  0.7818608E-02  0.1130116E+00
         25   -1    0    0    0    0  0.00000000000E+00  0.00000000000E+00  0.99999998245E-14  0.12500000000E+03  0.12500000000E+03 0.  0.
        -11    1    1    0    0    0 -0.24646431511E+02  0.24224242443E+02 -0.63837327982E+00  0.34563970096E+02  0.51100000000E-03 0.  1.
         11    1    1    0    0    0 -0.19923170373E+02  0.19576138053E+02 -0.51368672375E+00  0.27936030017E+02  0.51100000000E-03 0. -1.
         22    1    1    0    0    0  0.44569601883E+02 -0.43800380496E+02  0.11520600036E+01  0.62499999887E+02  0.00000000000E+00 0. -1.
</event>
<event>
 4    1  0.1977762E-002  0.9118800E+02  0.7818608E-02  0.1130116E+00
         25   -1    0    0    0    0  0.00000000000E+00  0.00000000000E+00  0.99999998245E-14  0.12500000000E+03  0.12500000000E+03 0.  0.
        -11    1    1    0    0    0  0.51517601047E+00 -0.38148973421E+00  0.22280301200E+00  0.67866205312E+00  0.51100000000E-03 0. -1.
         11    1    1    0    0    0  0.46887335719E+02 -0.34789800291E+02  0.20325486574E+02  0.61821338225E+02  0.51100000000E-03 0. -1.
         22    1    1    0    0    0 -0.47402511730E+02  0.35171290025E+02 -0.20548289586E+02  0.62499999722E+02  0.00000000000E+00 0. -1.
</event>
<event>
 4    1  0.1977762E-002  0.9118800E+02  0.7818608E-02  0.1130116E+00
         25   -1    0    0    0    0  0.00000000000E+00  0.00000000000E+00  0.99999998245E-14  0.12500000000E+03  0.12500000000E+03 0.  0.
        -11    1    1    0    0    0 -0.36719494622E+02 -0.18894396284E+02  0.86230227871E+01  0.42186206495E+02  0.51100000000E-03 0.  1.
         11    1    1    0    0    0 -0.17691019955E+02 -0.90821795750E+01  0.41463432708E+01  0.20313796682E+02  0.51100000000E-03 0. -1.
         22    1    1    0    0    0  0.54410514577E+02  0.27976575859E+02 -0.12769366058E+02  0.62499996822E+02  0.00000000000E+00 0.  1.
</event>
<event>
 4    1  0.1977762E-002  0.9118800E+02  0.7818608E-02  0.1130116E+00
         25   -1    0    0    0    0  0.00000000000E+00  0.00000000000E+00  0.99999998245E-14  0.12500000000E+03  0.12500000000E+03 0.  0.
        -11    1    1    0    0    0  0.10912112448E+02 -0.19807975865E+01 -0.51972777306E+02  0.53142895465E+02  0.51100000000E-03 0. -1.
         11    1    1    0    0    0  0.19149979270E+01 -0.33650297797E+00 -0.91528703861E+01  0.93571089489E+01  0.51100000000E-03 0.  1.
         22    1    1    0    0    0 -0.12827110375E+02  0.23173005645E+01  0.61125647693E+02  0.62499995587E+02  0.00000000000E+00 0. -1.
</event>
<event>
 4    1  0.1977762E-002  0.9118800E+02  0.7818608E-02  0.1130116E+00
         25   -1    0    0    0    0  0.00000000000E+00  0.00000000000E+00  0.99999998245E-14  0.12500000000E+03  0.12500000000E+03 0.  0.
        -11    1    1    0    0    0 -0.45686533776E+01  0.10882934297E+02 -0.73645984368E+01  0.13912158819E+02  0.51100000000E-03 0. -1.
         11    1    1    0    0    0 -0.94458549945E+01  0.40940112707E+02 -0.24521379659E+02  0.48647868048E+02  0.51100000000E-03 0.  1.
         22    1    1    0    0    0  0.14014508372E+02 -0.51823047004E+02  0.31885978095E+02  0.62439973133E+02  0.00000000000E+00 0.  1.
</event>
<event>
 4    1  0.1977762E-002  0.9118800E+02  0.7818608E-02  0.1130116E+00
         25   -1    0    0    0    0  0.00000000000E+00  0.00000000000E+00  0.99999998245E-14  0.12500000000E+03  0.12500000000E+03 0.  0.
        -11    1    1    0    0    0  0.22759173286E+02  0.51096075209E+02 -0.21965521915E+02  0.60093868436E+02  0.51100000000E-03 0.  1.
         11    1    1    0    0    0  0.91097277523E+00  0.20461266164E+01 -0.87918346670E+00  0.24061316167E+01  0.51100000000E-03 0.  1.
         22    1    1    0    0    0 -0.23670146062E+02 -0.53142201825E+02  0.22844705381E+02  0.62499999947E+02  0.00000000000E+00 0.  1.
</event>
<event>
 4    1  0.1977762E-002  0.9118800E+02  0.7818608E-02  0.1130116E+00
         25   -1    0    0    0    0  0.00000000000E+00  0.00000000000E+00  0.99999998245E-14  0.12500000000E+03  0.12500000000E+03 0.  0.
        -11    1    1    0    0    0 -0.24260125800E+01  0.26080703850E-01 -0.19925947423E+01  0.31395304282E+01  0.51100000000E-03 0.  1.
         11    1    1    0    0    0 -0.33716533624E+02 -0.74094275506E+01  0.50344679734E+02  0.61043353726E+02  0.51100000000E-03 0. -1.
         22    1    1    0    0    0  0.36142546204E+02  0.73833468468E+01 -0.48352084992E+02  0.60817115846E+02  0.00000000000E+00 0. -1.
</event>
<event>
 4    1  0.1977762E-002  0.9118800E+02  0.7818608E-02  0.1130116E+00
         25   -1    0    0    0    0  0.00000000000E+00  0.00000000000E+00  0.99999998245E-14  0.12500000000E+03  0.12500000000E+03 0.  0.
        -11    1    1    0    0    0 -0.70858203608E+01  0.13072690594E+02  0.52902713516E+01  0.15782618946E+02  0.51100000000E-03 0.  1.
         11    1    1    0    0    0 -0.21405897130E+02  0.38094807328E+02  0.16530329466E+02  0.46719145646E+02  0.51100000000E-03 0. -1.
         22    1    1    0    0    0  0.28491717491E+02 -0.51167497922E+02 -0.21820600818E+02  0.62498235409E+02  0.00000000000E+00 0. -1.
</event>
<event>
 4    1  0.1977762E-002  0.9118800E+02  0.7818608E-02  0.1130116E+00
         25   -1    0    0    0    0  0.00000000000E+00  0.00000000000E+00  0.99999998245E-14  0.12500000000E+03  0.12500000000E+03 0.  0.
        -11    1    1    0    0    0  0.32759854861E+01 -0.41984810964E+01  0.45671641971E+02  0.45981063548E+02  0.51100000000E-03 0. -1.
         11    1    1    0    0    0 -0.76438210645E+01 -0.90101852905E+01  0.13669743171E+02  0.18068572663E+02  0.51100000000E-03 0.  1.
         22    1    1    0    0    0  0.43678355783E+01  0.13208666387E+02 -0.59341385143E+02  0.60950363789E+02  0.00000000000E+00 0. -1.
</event>
<event>
 4    1  0.1977762E-002  0.9118800E+02  0.7818608E-02  0.1130116E+00
         25   -1    0    0    0    0  0.00000000000E+00  0.00000000000E+00  0.99999998245E-14  0.12500000000E+03  0.12500000000E+03 0.  0.
        -11    1    1    0    0    0  0.23769846554E+02 -0.64345021991E+01  0.33318660475E+02  0.41431166528E+02  0.51100000000E-03 0. -1.
         11    1    1    0    0    0  0.11378413359E+02 -0.29649219127E+01  0.17490971214E+02  0.21075889703E+02  0.51100000000E-03 0.  1.
         22    1    1    0    0    0 -0.35148259913E+02  0.93994241118E+01 -0.50809631689E+02  0.62492943769E+02  0.00000000000E+00 0. -1.
</event>
<event>
 4    1  0.1977762E-002  0.9118800E+02  0.7818608E-02  0.1130116E+00
         25   -1    0    0    0    0  0.00000000000E+00  0.00000000000E+00  0.99999998245E-14  0.12500000000E+03  0.12500000000E+03 0.  0.
        -11    1    1    0    0    0 -0.27401910129E+02 -0.38453982830E+01  0.61507542780E+00  0.27677248504E+02  0.51100000000E-03 0. -1.
         11    1    1    0    0    0 -0.34475552966E+02 -0.48454169980E+01  0.76304736850E+00  0.34822752042E+02  0.51100000000E-03 0.  1.
         22    1    1    0    0    0  0.61877463096E+02  0.86908152810E+01 -0.13781227963E+01  0.62499999455E+02  0.00000000000E+00 0.  1.
</event>
<event>
 4    1  0.1977762E-002  0.9118800E+02  0.7818608E-02  0.1130116E+00
         25   -1    0    0    0    0  0.00000000000E+00  0.00000000000E+00  0.99999998245E-14  0.12500000000E+03  0.12500000000E+03 0.  0.
        -11    1    1    0    0    0  0.91455435540E+01  0.12083329614E+02 -0.11288539636E+02  0.18896532720E+02  0.51100000000E-03 0. -1.
         11    1    1    0    0    0  0.23135646622E+02  0.26768953352E+02 -0.25500676929E+02  0.43613295362E+02  0.51100000000E-03 0.  1.
         22    1    1    0    0    0 -0.32281190176E+02 -0.38852282967E+02  0.36789216565E+02  0.62490171918E+02  0.00000000000E+00 0.  1.
</event>
<event>
 4    1  0.1977762E-002  0.9118800E+02  0.7818608E-02  0.1130116E+00
         25   -1    0    0    0    0  0.00000000000E+00  0.00000000000E+00  0.99999998245E-14  0.12500000000E+03  0.12500000000E+03 0.  0.
        -11    1    1    0    0    0 -0.44396960475E+01  0.15582532687E+02 -0.24479556891E+02  0.29356003334E+02  0.51100000000E-03 0. -1.
         11    1    1    0    0    0 -0.49092142305E+01  0.17634272456E+02 -0.27630770589E+02  0.33144040687E+02  0.51100000000E-03 0.  1.
         22    1    1    0    0    0  0.93489102781E+01 -0.33216805144E+02  0.52110327480E+02  0.62499955979E+02  0.00000000000E+00 0.  1.
</event>
<event>
 4    1  0.1977762E-002  0.9118800E+02  0.7818608E-02  0.1130116E+00
         25   -1    0    0    0    0  0.00000000000E+00  0.00000000000E+00  0.99999998245E-14  0.12500000000E+03  0.12500000000E+03 0.  0.
        -11    1    1    0    0    0 -0.58132635335E+02  0.16761043582E+02  0.15027842950E+01  0.60519370733E+02  0.51100000000E-03 0. -1.
         11    1    1    0    0    0 -0.19043202502E+01  0.53984674475E+00  0.73047882835E-01  0.19807085544E+01  0.51100000000E-03 0.  1.
         22    1    1    0    0    0  0.60036955586E+02 -0.17300890327E+02 -0.15758321778E+01  0.62499920713E+02  0.00000000000E+00 0. -1.
</event>
<event>
 4    1  0.1977762E-002  0.9118800E+02  0.7818608E-02  0.1130116E+00
         25   -1    0    0    0    0  0.00000000000E+00  0.00000000000E+00  0.99999998245E-14  0.12500000000E+03  0.12500000000E+03 0.  0.
        -11    1    1    0    0    0  0.14999746447E+02 -0.47072670779E+02 -0.93331961615E+01  0.50278596625E+02  0.51100000000E-03 0.  1.
         11    1    1    0    0    0  0.30203624243E+01 -0.11976441372E+02  0.56501495387E+00  0.12364343059E+02  0.51100000000E-03 0. -1.
         22    1    1    0    0    0 -0.18020108871E+02  0.59049112151E+02  0.87681812077E+01  0.62357060316E+02  0.00000000000E+00 0.  1.
</event>
<event>
 4    1  0.1977762E-002  0.9118800E+02  0.7818608E-02  0.1130116E+00
         25   -1    0    0    0    0  0.00000000000E+00  0.00000000000E+00  0.99999998245E-14  0.12500000000E+03  0.12500000000E+03 0.  0.
        -11    1    1    0    0    0 -0.52926812663E+01  0.13153037627E+02  0.12965435150E+02  0.19212427819E+02  0.51100000000E-03 0.  1.
         11    1    1    0    0    0 -0.11751005940E+02  0.29752594891E+02  0.29163641735E+02  0.43287654624E+02  0.51100000000E-03 0. -1.
         22    1    1    0    0    0  0.17043687206E+02 -0.42905632518E+02 -0.42129076885E+02  0.62499917557E+02  0.00000000000E+00 0. -1.
</event>
<event>
 4    1  0.1977762E-002  0.9118800E+02  0.7818608E-02  0.1130116E+00
         25   -1    0    0    0    0  0.00000000000E+00  0.00000000000E+00  0.99999998245E-14  0.12500000000E+03  0.12500000000E+03 0.  0.
        -11    1    1    0    0    0  0.10730089452E+02 -0.40023468794E+01 -0.68675649584E+00  0.11472804145E+02  0.51100000000E-03 0.  1.
         11    1    1    0    0    0  0.47728287480E+02 -0.17789761660E+02 -0.30511778367E+01  0.51027196005E+02  0.51100000000E-03 0. -1.
         22    1    1    0    0    0 -0.58458376932E+02  0.21792108539E+02  0.37379343325E+01  0.62499999850E+02  0.00000000000E+00 0. -1.
</event>
<event>
 4    1  0.1977762E-002  0.9118800E+02  0.7818608E-02  0.1130116E+00
         25   -1    0    0    0    0  0.00000000000E+00  0.00000000000E+00  0.99999998245E-14  0.12500000000E+03  0.12500000000E+03 0.  0.
        -11    1    1    0    0    0 -0.48082794155E+02  0.11831019021E+02 -0.13470409655E+02  0.51316469495E+02  0.51100000000E-03 0. -1.
         11    1    1    0    0    0 -0.10467912858E+02  0.25936337492E+01 -0.29610180090E+01  0.11183548790E+02  0.51100000000E-03 0.  1.
         22    1    1    0    0    0  0.58550707014E+02 -0.14424652770E+02  0.16431427664E+02  0.62499981715E+02  0.00000000000E+00 0. -1.
</event>
<event>
 4    1  0.1977762E-002  0.9118800E+02  0.7818608E-02  0.1130116E+00
         25   -1    0    0    0    0  0.00000000000E+00  0.00000000000E+00  0.99999998245E-14  0.12500000000E+03  0.12500000000E+03 0.  0.
        -11    1    1    0    0    0  0.17054572713E+02 -0.11249997732E+02  0.16672866552E+01  0.20498798610E+02  0.51100000000E-03 0.  1.
         11    1    1    0    0    0  0.32491744896E+02 -0.26396013727E+02 -0.51495333539E+01  0.42177964877E+02  0.51100000000E-03 0. -1.
         22    1    1    0    0    0 -0.49546317610E+02  0.37646011459E+02  0.34822466988E+01  0.62323236514E+02  0.00000000000E+00 0. -1.
</event>
<event>
 4    1  0.1977762E-002  0.9118800E+02  0.7818608E-02  0.1130116E+00
         25   -1    0    0    0    0  0.00000000000E+00  0.00000000000E+00  0.99999998245E-14  0.12500000000E+03  0.12500000000E+03 0.  0.
        -11    1    1    0    0    0 -0.16844607686E+01 -0.48172786377E+01 -0.52996340112E+01  0.73572890706E+01  0.51100000000E-03 0.  1.
         11    1    1    0    0    0 -0.12621333148E+02 -0.36125292122E+02 -0.39703700447E+02  0.55142711311E+02  0.51100000000E-03 0. -1.
         22    1    1    0    0    0  0.14305793917E+02  0.40942570759E+02  0.45003334458E+02  0.62499999618E+02  0.00000000000E+00 0. -1.
</event>
<event>
 4    1  0.1977762E-002  0.9118800E+02  0.7818608E-02  0.1130116E+00
         25   -1    0    0    0    0  0.00000000000E+00  0.00000000000E+00  0.99999998245E-14  0.12500000000E+03  0.12500000000E+03 0.  0.
        -11    1    1    0    0    0 -0.14464062186E+02 -0.70852306809E+01 -0.90944962063E+01  0.18496471291E+02  0.51100000000E-03 0. -1.
         11    1    1    0    0    0 -0.40834051757E+02 -0.80727845959E+01 -0.15088039502E+02  0.44274581538E+02  0.51100000000E-03 0.  1.
         22    1    1    0    0    0  0.55298113943E+02  0.15158015277E+02  0.24182535709E+02  0.62228947171E+02  0.00000000000E+00 0.  1.
</event>
<event>
 4    1  0.1977762E-002  0.9118800E+02  0.7818608E-02  0.1130116E+00
         25   -1    0    0    0    0  0.00000000000E+00  0.00000000000E+00  0.99999998245E-14  0.12500000000E+03  0.12500000000E+03 0.  0.
        -11    1    1    0    0    0  0.55630060716E+00  0.43124404393E+00 -0.20439866397E+01  0.21617870930E+01  0.51100000000E-03 0.  1.
         11    1    1    0    0    0  0.16313639138E+02  0.12096351905E+02 -0.56817735665E+02  0.60338309868E+02  0.51100000000E-03 0. -1.
         22    1    1    0    0    0 -0.16869939745E+02 -0.12527595949E+02  0.58861722305E+02  0.62499903039E+02  0.00000000000E+00 0. -1.
</event>
<event>
 4    1  0.1977762E-002  0.9118800E+02  0.7818608E-02  0.1130116E+00
         25   -1    0    0    0    0  0.00000000000E+00  0.00000000000E+00  0.99999998245E-14  0.12500000000E+03  0.12500000000E+03 0.  0.
        -11    1    1    0    0    0  0.24348133826E+02  0.24517907876E+01 -0.32306708574E+02  0.40528586430E+02  0.51100000000E-03 0. -1.
         11    1    1    0    0    0  0.13204435302E+02  0.13281962802E+01 -0.17510619892E+02  0.21971413843E+02  0.51100000000E-03 0.  1.
         22    1    1    0    0    0 -0.37552569128E+02 -0.37799870678E+01  0.49817328466E+02  0.62499999727E+02  0.00000000000E+00 0. -1.
</event>
<event>
 4    1  0.1977762E-002  0.9118800E+02  0.7818608E-02  0.1130116E+00
         25   -1    0    0    0    0  0.00000000000E+00  0.00000000000E+00  0.99999998245E-14  0.12500000000E+03  0.12500000000E+03 0.  0.
        -11    1    1    0    0    0 -0.57152580666E+00  0.27571806464E+00 -0.62954023987E+01  0.63273022546E+01  0.51100000000E-03 0.  1.
         11    1    1    0    0    0 -0.51546059075E+01  0.24431310506E+01 -0.55882317910E+02  0.56172700724E+02  0.51100000000E-03 0. -1.
         22    1    1    0    0    0  0.57261317142E+01 -0.27188491153E+01  0.62177720308E+02  0.62499997021E+02  0.00000000000E+00 0. -1.
</event>
<event>
 4    1  0.1977762E-002  0.9118800E+02  0.7818608E-02  0.1130116E+00
         25   -1    0    0    0    0  0.00000000000E+00  0.00000000000E+00  0.99999998245E-14  0.12500000000E+03  0.12500000000E+03 0.  0.
        -11    1    1    0    0    0  0.12956303411E+02 -0.50553392248E+01 -0.51291398983E+01  0.14823303583E+02  0.51100000000E-03 0. -1.
         11    1    1    0    0    0  0.42699354010E+02 -0.15825051344E+02 -0.14149262174E+02  0.47685099384E+02  0.51100000000E-03 0.  1.
         22    1    1    0    0    0 -0.55655657421E+02  0.20880390569E+02  0.19278402072E+02  0.62491597033E+02  0.00000000000E+00 0. -1.
</event>
<event>
 4    1  0.1977762E-002  0.9118800E+02  0.7818608E-02  0.1130116E+00
         25   -1    0    0    0    0  0.00000000000E+00  0.00000000000E+00  0.99999998245E-14  0.12500000000E+03  0.12500000000E+03 0.  0.
        -11    1    1    0    0    0 -0.18771060683E+01 -0.24185051815E+01  0.19407902095E+00  0.30676312412E+01  0.51100000000E-03 0.  1.
         11    1    1    0    0    0 -0.38644373321E+02 -0.44867789890E+02  0.50959193167E+01  0.59434624193E+02  0.51100000000E-03 0. -1.
         22    1    1    0    0    0  0.40521479389E+02  0.47286295071E+02 -0.52899983377E+01  0.62497744566E+02  0.00000000000E+00 0. -1.
</event>
<event>
 4    1  0.1977762E-002  0.9118800E+02  0.7818608E-02  0.1130116E+00
         25   -1    0    0    0    0  0.00000000000E+00  0.00000000000E+00  0.99999998245E-14  0.12500000000E+03  0.12500000000E+03 0.  0.
        -11    1    1    0    0    0  0.11177085191E+02  0.37985350113E+02 -0.29091546875E+02  0.49133818866E+02  0.51100000000E-03 0. -1.
         11    1    1    0    0    0  0.30389733000E+01  0.10339401732E+02 -0.79067216267E+01  0.13366182478E+02  0.51100000000E-03 0.  1.
         22    1    1    0    0    0 -0.14216058491E+02 -0.48324751845E+02  0.36998268501E+02  0.62499998656E+02  0.00000000000E+00 0. -1.
</event>
<event>
 4    1  0.1977762E-002  0.9118800E+02  0.7818608E-02  0.1130116E+00
         25   -1    0    0    0    0  0.00000000000E+00  0.00000000000E+00  0.99999998245E-14  0.12500000000E+03  0.12500000000E+03 0.  0.
        -11    1    1    0    0    0 -0.52300398004E+02  0.10049531440E+02  0.19812094379E+02  0.56822916130E+02  0.51100000000E-03 0. -1.
         11    1    1    0    0    0 -0.52322569328E+01  0.99551335111E+00  0.19651638813E+01  0.56770968624E+01  0.51100000000E-03 0.  1.
         22    1    1    0    0    0  0.57532654937E+02 -0.11045044792E+02 -0.21777258260E+02  0.62499987007E+02  0.00000000000E+00 0. -1.
</event>
<event>
 4    1  0.1977762E-002  0.9118800E+02  0.7818608E-02  0.1130116E+00
         25   -1    0    0    0    0  0.00000000000E+00  0.00000000000E+00  0.99999998245E-14  0.12500000000E+03  0.12500000000E+03 0.  0.
        -11    1    1    0    0    0  0.18834944035E+02  0.21680515730E+01  0.10476108693E+02  0.21661126887E+02  0.51100000000E-03 0. -1.
         11    1    1    0    0    0  0.35551503481E+02  0.42269078001E+01  0.19647974702E+02  0.40838940479E+02  0.51100000000E-03 0.  1.
         22    1    1    0    0    0 -0.54386447516E+02 -0.63949593731E+01 -0.30124083396E+02  0.62499932633E+02  0.00000000000E+00 0.  1.
</event>
<event>
 4    1  0.1977762E-002  0.9118800E+02  0.7818608E-02  0.1130116E+00
         25   -1    0    0    0    0  0.00000000000E+00  0.00000000000E+00  0.99999998245E-14  0.12500000000E+03  0.12500000000E+03 0.  0.
        -11    1    1    0    0    0 -0.30738742593E+01  0.93110852504E+01 -0.12108047562E+02  0.15580430916E+02  0.51100000000E-03 0.  1.
         11    1    1    0    0    0 -0.92702780276E+01  0.28017366191E+02 -0.36476502156E+02  0.46919570253E+02  0.51100000000E-03 0. -1.
         22    1    1    0    0    0  0.12344152287E+02 -0.37328451441E+02  0.48584549717E+02  0.62499998831E+02  0.00000000000E+00 0. -1.
</event>
<event>
 4    1  0.1977762E-002  0.9118800E+02  0.7818608E-02  0.1130116E+00
         25   -1    0    0    0    0  0.00000000000E+00  0.00000000000E+00  0.99999998245E-14  0.12500000000E+03  0.12500000000E+03 0.  0.
        -11    1    1    0    0    0 -0.68407254862E+01  0.51301579027E+02 -0.18984736896E+02  0.55127740486E+02  0.51100000000E-03 0. -1.
         11    1    1    0    0    0 -0.91505089883E+00  0.68605083038E+01 -0.25389600090E+01  0.73722595263E+01  0.51100000000E-03 0. -1.
         22    1    1    0    0    0  0.77557763850E+01 -0.58162087331E+02  0.21523696905E+02  0.62499999988E+02  0.00000000000E+00 0. -1.
</event>
<event>
 4    1  0.1977762E-002  0.9118800E+02  0.7818608E-02  0.1130116E+00
         25   -1    0    0    0    0  0.00000000000E+00  0.00000000000E+00  0.99999998245E-14  0.12500000000E+03  0.12500000000E+03 0.  0.
        -11    1    1    0    0    0  0.27702425987E+00  0.42059293413E+01 -0.46552061925E+00  0.42406713823E+01  0.51100000000E-03 0.  1.
         11    1    1    0    0    0  0.41209190114E+01  0.57715670267E+02 -0.67880447839E+01  0.58259403705E+02  0.51100000000E-03 0. -1.
         22    1    1    0    0    0 -0.43979432713E+01 -0.61921599608E+02  0.72535654031E+01  0.62499924913E+02  0.00000000000E+00 0. -1.
</event>
<event>
 4    1  0.1977762E-002  0.9118800E+02  0.7818608E-02  0.1130116E+00
         25   -1    0    0    0    0  0.00000000000E+00  0.00000000000E+00  0.99999998245E-14  0.12500000000E+03  0.12500000000E+03 0.  0.
        -11    1    1    0    0    0 -0.61859877558E+01 -0.30187710648E+02 -0.25979136806E+02  0.40304836783E+02  0.51100000000E-03 0. -1.
         11    1    1    0    0    0 -0.34044767629E+01 -0.16620005405E+02 -0.14311192907E+02  0.22195163535E+02  0.51100000000E-03 0.  1.
         22    1    1    0    0    0  0.95904645188E+01  0.46807716053E+02  0.40290329713E+02  0.62499999681E+02  0.00000000000E+00 0. -1.
</event>
<event>
 4    1  0.1977762E-002  0.9118800E+02  0.7818608E-02  0.1130116E+00
         25   -1    0    0    0    0  0.00000000000E+00  0.00000000000E+00  0.99999998245E-14  0.12500000000E+03  0.12500000000E+03 0.  0.
        -11    1    1    0    0    0 -0.19174042887E+02 -0.23769732269E+02 -0.29175956992E+02  0.42236010222E+02  0.51100000000E-03 0.  1.
         11    1    1    0    0    0 -0.89882873802E+01 -0.11362110877E+02 -0.14169261161E+02  0.20264620296E+02  0.51100000000E-03 0. -1.
         22    1    1    0    0    0  0.28162330268E+02  0.35131843146E+02  0.43345218153E+02  0.62499369482E+02  0.00000000000E+00 0.  1.
</event>
<event>
 4    1  0.1977762E-002  0.9118800E+02  0.7818608E-02  0.1130116E+00
         25   -1    0    0    0    0  0.00000000000E+00  0.00000000000E+00  0.99999998245E-14  0.12500000000E+03  0.12500000000E+03 0.  0.
        -11    1    1    0    0    0  0.17141199863E+01  0.14872454396E+02 -0.97722386029E+01  0.17878052318E+02  0.51100000000E-03 0.  1.
         11    1    1    0    0    0  0.44496487271E+01  0.37089529387E+02 -0.24406761845E+02  0.44621996682E+02  0.51100000000E-03 0. -1.
         22    1    1    0    0    0 -0.61637687134E+01 -0.51961983783E+02  0.34179000448E+02  0.62499951000E+02  0.00000000000E+00 0.  1.
</event>
<event>
 4    1  0.1977762E-002  0.9118800E+02  0.7818608E-02  0.1130116E+00
         25   -1    0    0    0    0  0.00000000000E+00  0.00000000000E+00  0.99999998245E-14  0.12500000000E+03  0.12500000000E+03 0.  0.
        -11    1    1    0    0    0 -0.94283406018E+01  0.36183956937E+02  0.20287991367E+02  0.42541449671E+02  0.51100000000E-03 0. -1.
         11    1    1    0    0    0 -0.46188719756E+01  0.17071753895E+02  0.92523064175E+01  0.19959557452E+02  0.51100000000E-03 0.  1.
         22    1    1    0    0    0  0.14047212577E+02 -0.53255710832E+02 -0.29540297785E+02  0.62498992877E+02  0.00000000000E+00 0.  1.
</event>
<event>
 4    1  0.1977762E-002  0.9118800E+02  0.7818608E-02  0.1130116E+00
         25   -1    0    0    0    0  0.00000000000E+00  0.00000000000E+00  0.99999998245E-14  0.12500000000E+03  0.12500000000E+03 0.  0.
        -11    1    1    0    0    0  0.20692334436E+02  0.24677945555E+02 -0.36998728887E+02  0.49051805683E+02  0.51100000000E-03 0.  1.
         11    1    1    0    0    0  0.56710802348E+01  0.67710947990E+01 -0.10141255812E+02  0.13448194880E+02  0.51100000000E-03 0. -1.
         22    1    1    0    0    0 -0.26363414670E+02 -0.31449040354E+02  0.47139984699E+02  0.62499999438E+02  0.00000000000E+00 0. -1.
</event>
<event>
 4    1  0.1977762E-002  0.9118800E+02  0.7818608E-02  0.1130116E+00
         25   -1    0    0    0    0  0.00000000000E+00  0.00000000000E+00  0.99999998245E-14  0.12500000000E+03  0.12500000000E+03 0.  0.
        -11    1    1    0    0    0 -0.13212875285E+02  0.35924720675E+02 -0.59499238375E+01  0.38737155585E+02  0.51100000000E-03 0.  1.
         11    1    1    0    0    0 -0.80204933171E+01  0.22069001727E+02 -0.36477608706E+01  0.23762897759E+02  0.51100000000E-03 0. -1.
         22    1    1    0    0    0  0.21233368603E+02 -0.57993722402E+02  0.95976847080E+01  0.62499946656E+02  0.00000000000E+00 0.  1.
</event>
<event>
 4    1  0.1977762E-002  0.9118800E+02  0.7818608E-02  0.1130116E+00
         25   -1    0    0    0    0  0.00000000000E+00  0.00000000000E+00  0.99999998245E-14  0.12500000000E+03  0.12500000000E+03 0.  0.
        -11    1    1    0    0    0  0.11649481143E+02  0.76517375395E+01 -0.15211176637E+02  0.20631029864E+02  0.51100000000E-03 0.  1.
         11    1    1    0    0    0  0.21414154623E+02  0.12763688551E+02 -0.33688668321E+02  0.41909475506E+02  0.51100000000E-03 0. -1.
         22    1    1    0    0    0 -0.33063635766E+02 -0.20415426091E+02  0.48899844958E+02  0.62459494631E+02  0.00000000000E+00 0. -1.
</event>
<event>
 4    1  0.1977762E-002  0.9118800E+02  0.7818608E-02  0.1130116E+00
         25   -1    0    0    0    0  0.00000000000E+00  0.00000000000E+00  0.99999998245E-14  0.12500000000E+03  0.12500000000E+03 0.  0.
        -11    1    1    0    0    0  0.50600295359E+01  0.50214105832E+01 -0.21664241094E+02  0.22806968356E+02  0.51100000000E-03 0.  1.
         11    1    1    0    0    0  0.88196324408E+01  0.87335521853E+01 -0.37702466090E+02  0.39693032130E+02  0.51100000000E-03 0. -1.
         22    1    1    0    0    0 -0.13879661977E+02 -0.13754962769E+02  0.59366707184E+02  0.62499999514E+02  0.00000000000E+00 0. -1.
</event>
<event>
 4    1  0.1977762E-002  0.9118800E+02  0.7818608E-02  0.1130116E+00
         25   -1    0    0    0    0  0.00000000000E+00  0.00000000000E+00  0.99999998245E-14  0.12500000000E+03  0.12500000000E+03 0.  0.
        -11    1    1    0    0    0  0.22197013081E+00  0.37958694940E+02 -0.20031324146E+02  0.42920458287E+02  0.51100000000E-03 0. -1.
         11    1    1    0    0    0  0.31271606647E+02 -0.64673233017E+01 -0.27547802717E+01  0.32051965113E+02  0.51100000000E-03 0.  1.
         22    1    1    0    0    0 -0.31493576778E+02 -0.31491371638E+02  0.22786104418E+02  0.50027576600E+02  0.00000000000E+00 0. -1.
</event>
<event>
 4    1  0.1977762E-002  0.9118800E+02  0.7818608E-02  0.1130116E+00
         25   -1    0    0    0    0  0.00000000000E+00  0.00000000000E+00  0.99999998245E-14  0.12500000000E+03  0.12500000000E+03 0.  0.
        -11    1    1    0    0    0  0.14116799908E+02  0.64722158981E+01 -0.20313845003E+02  0.25570019893E+02  0.51100000000E-03 0. -1.
         11    1    1    0    0    0  0.26038733247E+02 -0.27374992806E+02 -0.16357818184E+02  0.41170184311E+02  0.51100000000E-03 0.  1.
         22    1    1    0    0    0 -0.40155533155E+02  0.20902776908E+02  0.36671663186E+02  0.58259795796E+02  0.00000000000E+00 0. -1.
</event>
<event>
 4    1  0.1977762E-002  0.9118800E+02  0.7818608E-02  0.1130116E+00
         25   -1    0    0    0    0  0.00000000000E+00  0.00000000000E+00  0.99999998245E-14  0.12500000000E+03  0.12500000000E+03 0.  0.
        -11    1    1    0    0    0  0.83997076484E+01 -0.36173837075E+02 -0.86523466471E+01  0.38130888792E+02  0.51100000000E-03 0. -1.
         11    1    1    0    0    0  0.53997477395E+01 -0.23101714530E+02 -0.55684773531E+01  0.24369128630E+02  0.51100000000E-03 0.  1.
         22    1    1    0    0    0 -0.13799455388E+02  0.59275551605E+02  0.14220824000E+02  0.62499982578E+02  0.00000000000E+00 0.  1.
</event>
<event>
 4    1  0.1977762E-002  0.9118800E+02  0.7818608E-02  0.1130116E+00
         25   -1    0    0    0    0  0.00000000000E+00  0.00000000000E+00  0.99999998245E-14  0.12500000000E+03  0.12500000000E+03 0.  0.
        -11    1    1    0    0    0 -0.10763097710E+02 -0.25831796082E+01 -0.13974424078E+02  0.17826991271E+02  0.51100000000E-03 0. -1.
         11    1    1    0    0    0 -0.28637744415E+02 -0.51024666790E+01 -0.33916947208E+02  0.44682377730E+02  0.51100000000E-03 0.  1.
         22    1    1    0    0    0  0.39400842126E+02  0.76856462872E+01  0.47891371286E+02  0.62490630999E+02  0.00000000000E+00 0. -1.
</event>
<event>
 4    1  0.1977762E-002  0.9118800E+02  0.7818608E-02  0.1130116E+00
         25   -1    0    0    0    0  0.00000000000E+00  0.00000000000E+00  0.99999998245E-14  0.12500000000E+03  0.12500000000E+03 0.  0.
        -11    1    1    0    0    0 -0.11719675122E+01 -0.37543966524E+00 -0.65415076212E+00  0.13936915988E+01  0.51100000000E-03 0.  1.
         11    1    1    0    0    0 -0.48334740069E+02 -0.28450464993E+02 -0.24294568761E+02  0.61122026532E+02  0.51100000000E-03 0. -1.
         22    1    1    0    0    0  0.49506707581E+02  0.28825904658E+02  0.24948719523E+02  0.62484281869E+02  0.00000000000E+00 0. -1.
</event>
<event>
 4    1  0.1977762E-002  0.9118800E+02  0.7818608E-02  0.1130116E+00
         25   -1    0    0    0    0  0.00000000000E+00  0.00000000000E+00  0.99999998245E-14  0.12500000000E+03  0.12500000000E+03 0.  0.
        -11    1    1    0    0    0 -0.32110586076E+02  0.35306983365E+02 -0.22448445777E+02  0.52740928419E+02  0.51100000000E-03 0. -1.
         11    1    1    0    0    0  0.27559270127E+01  0.89156162973E+01 -0.69012250526E+01  0.11606474708E+02  0.51100000000E-03 0.  1.
         22    1    1    0    0    0  0.29354659063E+02 -0.44222599662E+02  0.29349670829E+02  0.60652596873E+02  0.00000000000E+00 0. -1.
</event>
<event>
 4    1  0.1977762E-002  0.9118800E+02  0.7818608E-02  0.1130116E+00
         25   -1    0    0    0    0  0.00000000000E+00  0.00000000000E+00  0.99999998245E-14  0.12500000000E+03  0.12500000000E+03 0.  0.
        -11    1    1    0    0    0  0.25688770042E+02  0.13978635710E+02 -0.42965947619E+02  0.51974876793E+02  0.51100000000E-03 0.  1.
         11    1    1    0    0    0  0.52015209361E+01  0.28306762166E+01 -0.87011304275E+01  0.10525123223E+02  0.51100000000E-03 0. -1.
         22    1    1    0    0    0 -0.30890290978E+02 -0.16809311927E+02  0.51667078046E+02  0.62499999984E+02  0.00000000000E+00 0.  1.
</event>
<event>
 4    1  0.1977762E-002  0.9118800E+02  0.7818608E-02  0.1130116E+00
         25   -1    0    0    0    0  0.00000000000E+00  0.00000000000E+00  0.99999998245E-14  0.12500000000E+03  0.12500000000E+03 0.  0.
        -11    1    1    0    0    0 -0.28453633249E+01  0.31898428687E+01  0.47751810125E+01  0.64088644813E+01  0.51100000000E-03 0. -1.
         11    1    1    0    0    0 -0.23946779243E+02  0.28033892841E+02  0.42272064489E+02  0.56091664446E+02  0.51100000000E-03 0.  1.
         22    1    1    0    0    0  0.26792142568E+02 -0.31223735709E+02 -0.47047245502E+02  0.62499471072E+02  0.00000000000E+00 0.  1.
</event>
<event>
 4    1  0.1977762E-002  0.9118800E+02  0.7818608E-02  0.1130116E+00
         25   -1    0    0    0    0  0.00000000000E+00  0.00000000000E+00  0.99999998245E-14  0.12500000000E+03  0.12500000000E+03 0.  0.
        -11    1    1    0    0    0  0.73100434143E+01  0.33307257737E+02  0.27995998327E+02  0.44120132313E+02  0.51100000000E-03 0. -1.
         11    1    1    0    0    0  0.12352999375E+02  0.14681764619E+02 -0.21170149149E+02  0.28571419655E+02  0.51100000000E-03 0.  1.
         22    1    1    0    0    0 -0.19663042789E+02 -0.47989022357E+02 -0.68258491787E+01  0.52308448032E+02  0.00000000000E+00 0. -1.
</event>
<event>
 4    1  0.1977762E-002  0.9118800E+02  0.7818608E-02  0.1130116E+00
         25   -1    0    0    0    0  0.00000000000E+00  0.00000000000E+00  0.99999998245E-14  0.12500000000E+03  0.12500000000E+03 0.  0.
        -11    1    1    0    0    0  0.37542045690E+02 -0.10928314787E+01  0.46842643422E+02  0.60040259146E+02  0.51100000000E-03 0.  1.
         11    1    1    0    0    0  0.15360646580E+01 -0.43854767948E-01  0.19206536779E+01  0.24597415893E+01  0.51100000000E-03 0. -1.
         22    1    1    0    0    0 -0.39078110348E+02  0.11366862466E+01 -0.48763297100E+02  0.62499999265E+02  0.00000000000E+00 0.  1.
</event>
<event>
 4    1  0.1977762E-002  0.9118800E+02  0.7818608E-02  0.1130116E+00
         25   -1    0    0    0    0  0.00000000000E+00  0.00000000000E+00  0.99999998245E-14  0.12500000000E+03  0.12500000000E+03 0.  0.
        -11    1    1    0    0    0 -0.87597664446E+01  0.42942918294E+02 -0.14009089272E+02  0.46011762868E+02  0.51100000000E-03 0.  1.
         11    1    1    0    0    0 -0.29459319024E+01  0.15462576885E+02 -0.49104318751E+01  0.16488848964E+02  0.51100000000E-03 0. -1.
         22    1    1    0    0    0  0.11705698347E+02 -0.58405495179E+02  0.18919521147E+02  0.62499388168E+02  0.00000000000E+00 0.  1.
</event>
<event>
 4    1  0.1977762E-002  0.9118800E+02  0.7818608E-02  0.1130116E+00
         25   -1    0    0    0    0  0.00000000000E+00  0.00000000000E+00  0.99999998245E-14  0.12500000000E+03  0.12500000000E+03 0.  0.
        -11    1    1    0    0    0 -0.21255988084E+01 -0.16826087552E+01  0.20261626644E+00  0.27185283022E+01  0.51100000000E-03 0. -1.
         11    1    1    0    0    0 -0.59209825048E+02 -0.86140144377E+01 -0.40410522017E+01  0.59969448306E+02  0.51100000000E-03 0.  1.
         22    1    1    0    0    0  0.61335423856E+02  0.10296623193E+02  0.38384359352E+01  0.62312023392E+02  0.00000000000E+00 0.  1.
</event>
<event>
 4    1  0.1977762E-002  0.9118800E+02  0.7818608E-02  0.1130116E+00
         25   -1    0    0    0    0  0.00000000000E+00  0.00000000000E+00  0.99999998245E-14  0.12500000000E+03  0.12500000000E+03 0.  0.
        -11    1    1    0    0    0 -0.29672166235E+02 -0.13147494112E+02 -0.14581823642E+02  0.35579820566E+02  0.51100000000E-03 0.  1.
         11    1    1    0    0    0 -0.22453306809E+02 -0.99428692737E+01 -0.11031066780E+02  0.26920179617E+02  0.51100000000E-03 0. -1.
         22    1    1    0    0    0  0.52125473044E+02  0.23090363386E+02  0.25612890422E+02  0.62499999817E+02  0.00000000000E+00 0.  1.
</event>
<event>
 4    1  0.1977762E-002  0.9118800E+02  0.7818608E-02  0.1130116E+00
         25   -1    0    0    0    0  0.00000000000E+00  0.00000000000E+00  0.99999998245E-14  0.12500000000E+03  0.12500000000E+03 0.  0.
        -11    1    1    0    0    0  0.32437566839E+01 -0.12311055528E+02  0.10168782882E+02  0.16293808370E+02  0.51100000000E-03 0.  1.
         11    1    1    0    0    0  0.46165423842E+01 -0.43240909761E+02  0.16593440815E+02  0.46544935481E+02  0.51100000000E-03 0. -1.
         22    1    1    0    0    0 -0.78602990681E+01  0.55551965289E+02 -0.26762223697E+02  0.62161256150E+02  0.00000000000E+00 0. -1.
</event>
<event>
 4    1  0.1977762E-002  0.9118800E+02  0.7818608E-02  0.1130116E+00
         25   -1    0    0    0    0  0.00000000000E+00  0.00000000000E+00  0.99999998245E-14  0.12500000000E+03  0.12500000000E+03 0.  0.
        -11    1    1    0    0    0 -0.30303429810E+01  0.35508288851E+02  0.46312299298E+01  0.35937026124E+02  0.51100000000E-03 0.  1.
         11    1    1    0    0    0 -0.22378887666E+01  0.26246075368E+02  0.34244655584E+01  0.26562973910E+02  0.51100000000E-03 0. -1.
         22    1    1    0    0    0  0.52682317475E+01 -0.61754364219E+02 -0.80556954882E+01  0.62499999965E+02  0.00000000000E+00 0. -1.
</event>
<event>
 4    1  0.1977762E-002  0.9118800E+02  0.7818608E-02  0.1130116E+00
         25   -1    0    0    0    0  0.00000000000E+00  0.00000000000E+00  0.99999998245E-14  0.12500000000E+03  0.12500000000E+03 0.  0.
        -11    1    1    0    0    0 -0.86070791088E+00  0.14149173851E+02  0.21672915185E+02  0.25897011250E+02  0.51100000000E-03 0. -1.
         11    1    1    0    0    0 -0.11175378762E+01  0.19791079145E+02  0.30771057781E+02  0.36603192509E+02  0.51100000000E-03 0.  1.
         22    1    1    0    0    0  0.19782457871E+01 -0.33940252996E+02 -0.52443972966E+02  0.62499796242E+02  0.00000000000E+00 0.  1.
</event>
<event>
 4    1  0.1977762E-002  0.9118800E+02  0.7818608E-02  0.1130116E+00
         25   -1    0    0    0    0  0.00000000000E+00  0.00000000000E+00  0.99999998245E-14  0.12500000000E+03  0.12500000000E+03 0.  0.
        -11    1    1    0    0    0  0.22277139134E+02  0.31752299361E+01  0.48582602467E+02  0.53540846799E+02  0.51100000000E-03 0.  1.
         11    1    1    0    0    0  0.36670871570E+01  0.45947393165E+00  0.81616180241E+01  0.89593891278E+01  0.51100000000E-03 0. -1.
         22    1    1    0    0    0 -0.25944226291E+02 -0.36347038678E+01 -0.56744220492E+02  0.62499764074E+02  0.00000000000E+00 0.  1.
</event>
<event>
 4    1  0.1977762E-002  0.9118800E+02  0.7818608E-02  0.1130116E+00
         25   -1    0    0    0    0  0.00000000000E+00  0.00000000000E+00  0.99999998245E-14  0.12500000000E+03  0.12500000000E+03 0.  0.
        -11    1    1    0    0    0  0.20259052005E+02 -0.78297225194E+01 -0.46593983366E+02  0.51407519188E+02  0.51100000000E-03 0. -1.
         11    1    1    0    0    0  0.44000690158E+01 -0.16348299315E+01 -0.10050443985E+02  0.11092551591E+02  0.51100000000E-03 0.  1.
         22    1    1    0    0    0 -0.24659121021E+02  0.94645524509E+01  0.56644427351E+02  0.62499929221E+02  0.00000000000E+00 0. -1.
</event>
<event>
 4    1  0.1977762E-002  0.9118800E+02  0.7818608E-02  0.1130116E+00
         25   -1    0    0    0    0  0.00000000000E+00  0.00000000000E+00  0.99999998245E-14  0.12500000000E+03  0.12500000000E+03 0.  0.
        -11    1    1    0    0    0 -0.11209581830E+02  0.40710026841E+02  0.21154615169E+02  0.47227944624E+02  0.51100000000E-03 0. -1.
         11    1    1    0    0    0 -0.10107268530E+02  0.12570207344E+02  0.12253278575E+01  0.16176168224E+02  0.51100000000E-03 0.  1.
         22    1    1    0    0    0  0.21316850360E+02 -0.53280234185E+02 -0.22379943027E+02  0.61595887151E+02  0.00000000000E+00 0. -1.
</event>
<event>
 4    1  0.1977762E-002  0.9118800E+02  0.7818608E-02  0.1130116E+00
         25   -1    0    0    0    0  0.00000000000E+00  0.00000000000E+00  0.99999998245E-14  0.12500000000E+03  0.12500000000E+03 0.  0.
        -11    1    1    0    0    0 -0.15409011600E+01 -0.94403585987E-01 -0.10513286930E+00  0.15473660211E+01  0.51100000000E-03 0.  1.
         11    1    1    0    0    0 -0.60700342631E+02 -0.37017054975E+01 -0.41218179443E+01  0.60952634091E+02  0.51100000000E-03 0.  1.
         22    1    1    0    0    0  0.62241243791E+02  0.37961090835E+01  0.42269508136E+01  0.62499999888E+02  0.00000000000E+00 0.  1.
</event>
<event>
 4    1  0.1977762E-002  0.9118800E+02  0.7818608E-02  0.1130116E+00
         25   -1    0    0    0    0  0.00000000000E+00  0.00000000000E+00  0.99999998245E-14  0.12500000000E+03  0.12500000000E+03 0.  0.
        -11    1    1    0    0    0  0.15878863988E+02  0.10084503634E+02  0.67990596572E+01  0.20001568628E+02  0.51100000000E-03 0.  1.
         11    1    1    0    0    0  0.33948751751E+02  0.21256535474E+02  0.14204916928E+02  0.42498678933E+02  0.51100000000E-03 0. -1.
         22    1    1    0    0    0 -0.49827615739E+02 -0.31341039108E+02 -0.21003976585E+02  0.62499752440E+02  0.00000000000E+00 0. -1.
</event>
<event>
 4    1  0.1977762E-002  0.9118800E+02  0.7818608E-02  0.1130116E+00
         25   -1    0    0    0    0  0.00000000000E+00  0.00000000000E+00  0.99999998245E-14  0.12500000000E+03  0.12500000000E+03 0.  0.
        -11    1    1    0    0    0  0.93087885588E+00  0.13325887246E+01  0.49603638329E+01  0.52199174101E+01  0.51100000000E-03 0.  1.
         11    1    1    0    0    0  0.11873569640E+02  0.15620098171E+02  0.53816456300E+02  0.57281585975E+02  0.51100000000E-03 0. -1.
         22    1    1    0    0    0 -0.12804448496E+02 -0.16952686895E+02 -0.58776820133E+02  0.62498496615E+02  0.00000000000E+00 0. -1.
</event>
<event>
 4    1  0.1977762E-002  0.9118800E+02  0.7818608E-02  0.1130116E+00
         25   -1    0    0    0    0  0.00000000000E+00  0.00000000000E+00  0.99999998245E-14  0.12500000000E+03  0.12500000000E+03 0.  0.
        -11    1    1    0    0    0  0.38703657120E+01 -0.77426808320E+00  0.12070403759E+01  0.41274893749E+01  0.51100000000E-03 0.  1.
         11    1    1    0    0    0  0.54545982425E+02 -0.11971091853E+02  0.16994545368E+02  0.58372817401E+02  0.51100000000E-03 0. -1.
         22    1    1    0    0    0 -0.58416348137E+02  0.12745359937E+02 -0.18201585743E+02  0.62499693224E+02  0.00000000000E+00 0. -1.
</event>
<event>
 4    1  0.1977762E-002  0.9118800E+02  0.7818608E-02  0.1130116E+00
         25   -1    0    0    0    0  0.00000000000E+00  0.00000000000E+00  0.99999998245E-14  0.12500000000E+03  0.12500000000E+03 0.  0.
        -11    1    1    0    0    0 -0.44580129310E+02  0.24164303465E+02 -0.78650715328E-01  0.50708063239E+02  0.51100000000E-03 0.  1.
         11    1    1    0    0    0 -0.10368071079E+02  0.56171634997E+01 -0.18741932565E-01  0.11791936873E+02  0.51100000000E-03 0. -1.
         22    1    1    0    0    0  0.54948200390E+02 -0.29781466965E+02  0.97392647893E-01  0.62499999888E+02  0.00000000000E+00 0.  1.
</event>
<event>
 4    1  0.1977762E-002  0.9118800E+02  0.7818608E-02  0.1130116E+00
         25   -1    0    0    0    0  0.00000000000E+00  0.00000000000E+00  0.99999998245E-14  0.12500000000E+03  0.12500000000E+03 0.  0.
        -11    1    1    0    0    0 -0.34581987672E+02 -0.23759750035E+02 -0.27061517405E+02  0.49927600759E+02  0.51100000000E-03 0.  1.
         11    1    1    0    0    0 -0.86377480471E+01 -0.62532497681E+01 -0.66627131296E+01  0.12574003758E+02  0.51100000000E-03 0. -1.
         22    1    1    0    0    0  0.43219735719E+02  0.30012999803E+02  0.33724230535E+02  0.62498395483E+02  0.00000000000E+00 0.  1.
</event>
<event>
 4    1  0.1977762E-002  0.9118800E+02  0.7818608E-02  0.1130116E+00
         25   -1    0    0    0    0  0.00000000000E+00  0.00000000000E+00  0.99999998245E-14  0.12500000000E+03  0.12500000000E+03 0.  0.
        -11    1    1    0    0    0  0.20736048138E+02  0.39065161692E+00  0.55883487229E+01  0.21479430690E+02  0.51100000000E-03 0. -1.
         11    1    1    0    0    0  0.41290252527E+02 -0.15689247117E+01 -0.30094941820E+01  0.41429500770E+02  0.51100000000E-03 0.  1.
         22    1    1    0    0    0 -0.62026300665E+02  0.11782730948E+01 -0.25788545409E+01  0.62091068540E+02  0.00000000000E+00 0.  1.
</event>
<event>
 4    1  0.1977762E-002  0.9118800E+02  0.7818608E-02  0.1130116E+00
         25   -1    0    0    0    0  0.00000000000E+00  0.00000000000E+00  0.99999998245E-14  0.12500000000E+03  0.12500000000E+03 0.  0.
        -11    1    1    0    0    0 -0.75140704061E+01  0.29192496620E+01 -0.10087456544E+01  0.81240901468E+01  0.51100000000E-03 0. -1.
         11    1    1    0    0    0 -0.49975580855E+02  0.16795208826E+02 -0.13435091564E+02  0.54407163194E+02  0.51100000000E-03 0.  1.
         22    1    1    0    0    0  0.57489651261E+02 -0.19714458488E+02  0.14443837218E+02  0.62468746659E+02  0.00000000000E+00 0.  1.
</event>
<event>
 4    1  0.1977762E-002  0.9118800E+02  0.7818608E-02  0.1130116E+00
         25   -1    0    0    0    0  0.00000000000E+00  0.00000000000E+00  0.99999998245E-14  0.12500000000E+03  0.12500000000E+03 0.  0.
        -11    1    1    0    0    0 -0.50445371915E+02 -0.87530048970E+01 -0.81622702673E+01  0.51845668079E+02  0.51100000000E-03 0. -1.
         11    1    1    0    0    0 -0.10365367192E+02 -0.18016197727E+01 -0.16817043803E+01  0.10654332486E+02  0.51100000000E-03 0.  1.
         22    1    1    0    0    0  0.60810739107E+02  0.10554624670E+02  0.98439746476E+01  0.62499999436E+02  0.00000000000E+00 0. -1.
</event>
<event>
 4    1  0.1977762E-002  0.9118800E+02  0.7818608E-02  0.1130116E+00
         25   -1    0    0    0    0  0.00000000000E+00  0.00000000000E+00  0.99999998245E-14  0.12500000000E+03  0.12500000000E+03 0.  0.
        -11    1    1    0    0    0 -0.27997792363E+02  0.42551485010E+01 -0.19542644256E+02  0.34407813223E+02  0.51100000000E-03 0. -1.
         11    1    1    0    0    0 -0.22858586847E+02  0.34752498302E+01 -0.15955519555E+02  0.28092186788E+02  0.51100000000E-03 0. -1.
         22    1    1    0    0    0  0.50856379210E+02 -0.77303983312E+01  0.35498163811E+02  0.62499999989E+02  0.00000000000E+00 0. -1.
</event>
<event>
 4    1  0.1977762E-002  0.9118800E+02  0.7818608E-02  0.1130116E+00
         25   -1    0    0    0    0  0.00000000000E+00  0.00000000000E+00  0.99999998245E-14  0.12500000000E+03  0.12500000000E+03 0.  0.
        -11    1    1    0    0    0 -0.44134944577E+01  0.54910365086E+01  0.49177782571E+02  0.49679822001E+02  0.51100000000E-03 0. -1.
         11    1    1    0    0    0 -0.11817128408E+01  0.14768837567E+01  0.12679965736E+02  0.12820263734E+02  0.51100000000E-03 0.  1.
         22    1    1    0    0    0  0.55952072984E+01 -0.69679202653E+01 -0.61857748307E+02  0.62499914265E+02  0.00000000000E+00 0. -1.
</event>
<event>
 4    1  0.1977762E-002  0.9118800E+02  0.7818608E-02  0.1130116E+00
         25   -1    0    0    0    0  0.00000000000E+00  0.00000000000E+00  0.99999998245E-14  0.12500000000E+03  0.12500000000E+03 0.  0.
        -11    1    1    0    0    0 -0.15832211033E+02  0.14422492248E+02 -0.11916299174E+02  0.24508475577E+02  0.51100000000E-03 0. -1.
         11    1    1    0    0    0 -0.24553886822E+02  0.22340608755E+02 -0.18475926296E+02  0.37991525508E+02  0.51100000000E-03 0.  1.
         22    1    1    0    0    0  0.40386097855E+02 -0.36763101003E+02  0.30392225470E+02  0.62499998915E+02  0.00000000000E+00 0. -1.
</event>
<event>
 4    1  0.1977762E-002  0.9118800E+02  0.7818608E-02  0.1130116E+00
         25   -1    0    0    0    0  0.00000000000E+00  0.00000000000E+00  0.99999998245E-14  0.12500000000E+03  0.12500000000E+03 0.  0.
        -11    1    1    0    0    0  0.89121158972E+00 -0.13294866018E+01  0.17382621937E+01  0.23629110092E+01  0.51100000000E-03 0.  1.
         11    1    1    0    0    0 -0.44074318085E+02 -0.27816712154E+02  0.31443597993E+02  0.60868833115E+02  0.51100000000E-03 0. -1.
         22    1    1    0    0    0  0.43183106495E+02  0.29146198756E+02 -0.33181860187E+02  0.61768255876E+02  0.00000000000E+00 0. -1.
</event>
<event>
 4    1  0.1977762E-002  0.9118800E+02  0.7818608E-02  0.1130116E+00
         25   -1    0    0    0    0  0.00000000000E+00  0.00000000000E+00  0.99999998245E-14  0.12500000000E+03  0.12500000000E+03 0.  0.
        -11    1    1    0    0    0  0.69085935624E+00  0.99217636001E+01 -0.41930754721E+02  0.43094162845E+02  0.51100000000E-03 0. -1.
         11    1    1    0    0    0 -0.23555538024E+01 -0.13863431017E+02 -0.17427634708E+02  0.22393432185E+02  0.51100000000E-03 0.  1.
         22    1    1    0    0    0  0.16646944462E+01  0.39416674165E+01  0.59358389429E+02  0.59512404969E+02  0.00000000000E+00 0. -1.
</event>
<event>
 4    1  0.1977762E-002  0.9118800E+02  0.7818608E-02  0.1130116E+00
         25   -1    0    0    0    0  0.00000000000E+00  0.00000000000E+00  0.99999998245E-14  0.12500000000E+03  0.12500000000E+03 0.  0.
        -11    1    1    0    0    0 -0.10203246629E+02  0.57058871395E+01 -0.14343336897E+01  0.11777975344E+02  0.51100000000E-03 0.  1.
         11    1    1    0    0    0 -0.49092479382E+02  0.17964927910E+01 -0.14766699890E+02  0.51296728396E+02  0.51100000000E-03 0. -1.
         22    1    1    0    0    0  0.59295726011E+02 -0.75023799304E+01  0.16201033579E+02  0.61925296260E+02  0.00000000000E+00 0. -1.
</event>
<event>
 4    1  0.1977762E-002  0.9118800E+02  0.7818608E-02  0.1130116E+00
         25   -1    0    0    0    0  0.00000000000E+00  0.00000000000E+00  0.99999998245E-14  0.12500000000E+03  0.12500000000E+03 0.  0.
        -11    1    1    0    0    0 -0.49433119894E+02 -0.10102190760E+02  0.21509962662E+00  0.50455266016E+02  0.51100000000E-03 0.  1.
         11    1    1    0    0    0 -0.11743008933E+02 -0.26685322279E+01 -0.41468349224E+00  0.12049534668E+02  0.51100000000E-03 0. -1.
         22    1    1    0    0    0  0.61176128827E+02  0.12770722988E+02  0.19958386562E+00  0.62495199316E+02  0.00000000000E+00 0.  1.
</event>
<event>
 4    1  0.1977762E-002  0.9118800E+02  0.7818608E-02  0.1130116E+00
         25   -1    0    0    0    0  0.00000000000E+00  0.00000000000E+00  0.99999998245E-14  0.12500000000E+03  0.12500000000E+03 0.  0.
        -11    1    1    0    0    0  0.13613827882E+02  0.30757031292E+01 -0.17064828880E+02  0.22045513020E+02  0.51100000000E-03 0. -1.
         11    1    1    0    0    0  0.24976907353E+02  0.57380861878E+01 -0.31301686486E+02  0.40454506686E+02  0.51100000000E-03 0.  1.
         22    1    1    0    0    0 -0.38590735236E+02 -0.88137893170E+01  0.48366515366E+02  0.62499980294E+02  0.00000000000E+00 0.  1.
</event>
<event>
 4    1  0.1977762E-002  0.9118800E+02  0.7818608E-02  0.1130116E+00
         25   -1    0    0    0    0  0.00000000000E+00  0.00000000000E+00  0.99999998245E-14  0.12500000000E+03  0.12500000000E+03 0.  0.
        -11    1    1    0    0    0  0.79180773402E+01  0.70502066584E+00  0.53312002980E+02  0.53901416168E+02  0.51100000000E-03 0. -1.
         11    1    1    0    0    0  0.12699335177E+01  0.12344463424E+00  0.85033961809E+01  0.85985880578E+01  0.51100000000E-03 0.  1.
         22    1    1    0    0    0 -0.91880108579E+01 -0.82846530008E+00 -0.61815399161E+02  0.62499995774E+02  0.00000000000E+00 0. -1.
</event>
<event>
 4    1  0.1977762E-002  0.9118800E+02  0.7818608E-02  0.1130116E+00
         25   -1    0    0    0    0  0.00000000000E+00  0.00000000000E+00  0.99999998245E-14  0.12500000000E+03  0.12500000000E+03 0.  0.
        -11    1    1    0    0    0  0.28688315021E+02  0.32361892067E+02 -0.41157880097E+02  0.59701612802E+02  0.51100000000E-03 0.  1.
         11    1    1    0    0    0 -0.20038946459E+02 -0.33735388298E+01  0.14336589535E+02  0.24869216698E+02  0.51100000000E-03 0. -1.
         22    1    1    0    0    0 -0.86493685625E+01 -0.28988353237E+02  0.26821290562E+02  0.40429170500E+02  0.00000000000E+00 0. -1.
</event>
<event>
 4    1  0.1977762E-002  0.9118800E+02  0.7818608E-02  0.1130116E+00
         25   -1    0    0    0    0  0.00000000000E+00  0.00000000000E+00  0.99999998245E-14  0.12500000000E+03  0.12500000000E+03 0.  0.
        -11    1    1    0    0    0  0.61142490791E+01  0.22492580112E+02  0.15019034649E+01  0.23357138442E+02  0.51100000000E-03 0.  1.
         11    1    1    0    0    0  0.10292773886E+02  0.37684310048E+02  0.24730488433E+01  0.39142871495E+02  0.51100000000E-03 0. -1.
         22    1    1    0    0    0 -0.16407022965E+02 -0.60176890161E+02 -0.39749523082E+01  0.62499990063E+02  0.00000000000E+00 0. -1.
</event>
<event>
 4    1  0.1977762E-002  0.9118800E+02  0.7818608E-02  0.1130116E+00
         25   -1    0    0    0    0  0.00000000000E+00  0.00000000000E+00  0.99999998245E-14  0.12500000000E+03  0.12500000000E+03 0.  0.
        -11    1    1    0    0    0 -0.36029659707E+02 -0.48216013400E+02 -0.16662723345E+02  0.62454516861E+02  0.51100000000E-03 0.  1.
         11    1    1    0    0    0  0.23906824571E+01  0.41309273591E+01  0.20825239173E+01  0.52073822199E+01  0.51100000000E-03 0. -1.
         22    1    1    0    0    0  0.33638977250E+02  0.44085086041E+02  0.14580199428E+02  0.57338100919E+02  0.00000000000E+00 0.  1.
</event>
<event>
 4    1  0.1977762E-002  0.9118800E+02  0.7818608E-02  0.1130116E+00
         25   -1    0    0    0    0  0.00000000000E+00  0.00000000000E+00  0.99999998245E-14  0.12500000000E+03  0.12500000000E+03 0.  0.
        -11    1    1    0    0    0 -0.22177370000E+02 -0.46308269127E+01 -0.14927446593E+02  0.27131328019E+02  0.51100000000E-03 0. -1.
         11    1    1    0    0    0 -0.28894902846E+02 -0.60539009897E+01 -0.19477628658E+02  0.35368674645E+02  0.51100000000E-03 0.  1.
         22    1    1    0    0    0  0.51072272846E+02  0.10684727902E+02  0.34405075251E+02  0.62499997337E+02  0.00000000000E+00 0.  1.
</event>
<event>
 4    1  0.1977762E-002  0.9118800E+02  0.7818608E-02  0.1130116E+00
         25   -1    0    0    0    0  0.00000000000E+00  0.00000000000E+00  0.99999998245E-14  0.12500000000E+03  0.12500000000E+03 0.  0.
        -11    1    1    0    0    0  0.40349988185E+00  0.41849195704E+00 -0.50206084057E+01  0.50541524213E+01  0.51100000000E-03 0. -1.
         11    1    1    0    0    0  0.71125900006E+01 -0.16660531517E+02 -0.54689323884E+02  0.57611495330E+02  0.51100000000E-03 0.  1.
         22    1    1    0    0    0 -0.75160898825E+01  0.16242039560E+02  0.59709932290E+02  0.62334352249E+02  0.00000000000E+00 0.  1.
</event>
<event>
 4    1  0.1977762E-002  0.9118800E+02  0.7818608E-02  0.1130116E+00
         25   -1    0    0    0    0  0.00000000000E+00  0.00000000000E+00  0.99999998245E-14  0.12500000000E+03  0.12500000000E+03 0.  0.
        -11    1    1    0    0    0 -0.69143360666E+00  0.10598765471E+01 -0.44211715720E+00  0.13404799773E+01  0.51100000000E-03 0.  1.
         11    1    1    0    0    0 -0.17557916846E+02  0.53718651041E+02 -0.23431477913E+02  0.61180128074E+02  0.51100000000E-03 0. -1.
         22    1    1    0    0    0  0.18249350453E+02 -0.54778527588E+02  0.23873595071E+02  0.62479391949E+02  0.00000000000E+00 0. -1.
</event>
<event>
 4    1  0.1977762E-002  0.9118800E+02  0.7818608E-02  0.1130116E+00
         25   -1    0    0    0    0  0.00000000000E+00  0.00000000000E+00  0.99999998245E-14  0.12500000000E+03  0.12500000000E+03 0.  0.
        -11    1    1    0    0    0 -0.28977539655E+02  0.95642172600E+01  0.30890693343E+02  0.43421273493E+02  0.51100000000E-03 0.  1.
         11    1    1    0    0    0  0.32363137660E+02 -0.35008670328E+01  0.14517562423E+02  0.35642507883E+02  0.51100000000E-03 0. -1.
         22    1    1    0    0    0 -0.33855980050E+01 -0.60633502272E+01 -0.45408255766E+02  0.45936218625E+02  0.00000000000E+00 0.  1.
</event>
<event>
 4    1  0.1977762E-002  0.9118800E+02  0.7818608E-02  0.1130116E+00
         25   -1    0    0    0    0  0.00000000000E+00  0.00000000000E+00  0.99999998245E-14  0.12500000000E+03  0.12500000000E+03 0.  0.
        -11    1    1    0    0    0  0.14068771962E+02 -0.23056077616E+01 -0.12642129217E+02  0.19054385403E+02  0.51100000000E-03 0.  1.
         11    1    1    0    0    0  0.32808339559E+02 -0.59581158719E+01 -0.27855604084E+02  0.43449061768E+02  0.51100000000E-03 0. -1.
         22    1    1    0    0    0 -0.46877111522E+02  0.82637236335E+01  0.40497733302E+02  0.62496552829E+02  0.00000000000E+00 0. -1.
</event>
<event>
 4    1  0.1977762E-002  0.9118800E+02  0.7818608E-02  0.1130116E+00
         25   -1    0    0    0    0  0.00000000000E+00  0.00000000000E+00  0.99999998245E-14  0.12500000000E+03  0.12500000000E+03 0.  0.
        -11    1    1    0    0    0 -0.41880230741E+02 -0.32122263876E+02 -0.20486715467E+02  0.56617127041E+02  0.51100000000E-03 0.  1.
         11    1    1    0    0    0 -0.44143526350E+01 -0.32635304609E+01 -0.21155158235E+01  0.58832429591E+01  0.51100000000E-03 0. -1.
         22    1    1    0    0    0  0.46294583376E+02  0.35385794337E+02  0.22602231290E+02  0.62499630000E+02  0.00000000000E+00 0.  1.
</event>
<event>
 4    1  0.1977762E-002  0.9118800E+02  0.7818608E-02  0.1130116E+00
         25   -1    0    0    0    0  0.00000000000E+00  0.00000000000E+00  0.99999998245E-14  0.12500000000E+03  0.12500000000E+03 0.  0.
        -11    1    1    0    0    0  0.24407456147E+02  0.26731374395E+01 -0.25998630012E+02  0.35760290017E+02  0.51100000000E-03 0. -1.
         11    1    1    0    0    0  0.18249045189E+02  0.20011609101E+01 -0.19441702534E+02  0.26739710039E+02  0.51100000000E-03 0.  1.
         22    1    1    0    0    0 -0.42656501335E+02 -0.46742983496E+01  0.45440332546E+02  0.62499999945E+02  0.00000000000E+00 0. -1.
</event>
<event>
 4    1  0.1977762E-002  0.9118800E+02  0.7818608E-02  0.1130116E+00
         25   -1    0    0    0    0  0.00000000000E+00  0.00000000000E+00  0.99999998245E-14  0.12500000000E+03  0.12500000000E+03 0.  0.
        -11    1    1    0    0    0 -0.68820636846E+01  0.11459167449E+02 -0.61392926414E+01  0.14709392699E+02  0.51100000000E-03 0. -1.
         11    1    1    0    0    0 -0.27071051817E+02  0.30564117775E+02 -0.25057172809E+02  0.47904791527E+02  0.51100000000E-03 0.  1.
         22    1    1    0    0    0  0.33953115501E+02 -0.42023285224E+02  0.31196465450E+02  0.62385815774E+02  0.00000000000E+00 0.  1.
</event>
<event>
 4    1  0.1977762E-002  0.9118800E+02  0.7818608E-02  0.1130116E+00
         25   -1    0    0    0    0  0.00000000000E+00  0.00000000000E+00  0.99999998245E-14  0.12500000000E+03  0.12500000000E+03 0.  0.
        -11    1    1    0    0    0  0.10959245623E+02 -0.37285935602E+02  0.32030099098E+02  0.50361426775E+02  0.51100000000E-03 0.  1.
         11    1    1    0    0    0  0.36480998921E+01 -0.85376259438E+01  0.78512436279E+01  0.12159017902E+02  0.51100000000E-03 0. -1.
         22    1    1    0    0    0 -0.14607345515E+02  0.45823561546E+02 -0.39881342726E+02  0.62479555323E+02  0.00000000000E+00 0.  1.
</event>
<event>
 4    1  0.1977762E-002  0.9118800E+02  0.7818608E-02  0.1130116E+00
         25   -1    0    0    0    0  0.00000000000E+00  0.00000000000E+00  0.99999998245E-14  0.12500000000E+03  0.12500000000E+03 0.  0.
        -11    1    1    0    0    0  0.30223348597E+02 -0.19942425011E+02  0.69135958124E+01  0.36863924412E+02  0.51100000000E-03 0.  1.
         11    1    1    0    0    0  0.20827140248E+02 -0.13816204636E+02  0.57282157590E+01  0.25641172701E+02  0.51100000000E-03 0. -1.
         22    1    1    0    0    0 -0.51050488845E+02  0.33758629647E+02 -0.12641811571E+02  0.62494902886E+02  0.00000000000E+00 0.  1.
</event>
<event>
 4    1  0.1977762E-002  0.9118800E+02  0.7818608E-02  0.1130116E+00
         25   -1    0    0    0    0  0.00000000000E+00  0.00000000000E+00  0.99999998245E-14  0.12500000000E+03  0.12500000000E+03 0.  0.
        -11    1    1    0    0    0  0.53879249674E+01 -0.81834400435E+01 -0.33071856741E+01  0.10340981759E+02  0.51100000000E-03 0. -1.
         11    1    1    0    0    0  0.26286391096E+02 -0.39483824651E+02 -0.21750266087E+02  0.52182572197E+02  0.51100000000E-03 0.  1.
         22    1    1    0    0    0 -0.31674316063E+02  0.47667264694E+02  0.25057451762E+02  0.62476446044E+02  0.00000000000E+00 0.  1.
</event>
<event>
 4    1  0.1977762E-002  0.9118800E+02  0.7818608E-02  0.1130116E+00
         25   -1    0    0    0    0  0.00000000000E+00  0.00000000000E+00  0.99999998245E-14  0.12500000000E+03  0.12500000000E+03 0.  0.
        -11    1    1    0    0    0 -0.75078723199E+01 -0.31766163836E+02  0.21980060705E+02  0.39352006054E+02  0.51100000000E-03 0. -1.
         11    1    1    0    0    0 -0.44155023065E+01 -0.18686107083E+02  0.12929128563E+02  0.23147993956E+02  0.51100000000E-03 0. -1.
         22    1    1    0    0    0  0.11923374626E+02  0.50452270919E+02 -0.34909189268E+02  0.62499999990E+02  0.00000000000E+00 0. -1.
</event>
<event>
 4    1  0.1977762E-002  0.9118800E+02  0.7818608E-02  0.1130116E+00
         25   -1    0    0    0    0  0.00000000000E+00  0.00000000000E+00  0.99999998245E-14  0.12500000000E+03  0.12500000000E+03 0.  0.
        -11    1    1    0    0    0  0.22873288633E+02  0.17343335010E+02 -0.10248251138E+02  0.30479587493E+02  0.51100000000E-03 0.  1.
         11    1    1    0    0    0  0.24189478295E+02  0.18170878187E+02 -0.10489075743E+02  0.32020811740E+02  0.51100000000E-03 0. -1.
         22    1    1    0    0    0 -0.47062766928E+02 -0.35514213196E+02  0.20737326881E+02  0.62499600767E+02  0.00000000000E+00 0.  1.
</event>
<event>
 4    1  0.1977762E-002  0.9118800E+02  0.7818608E-02  0.1130116E+00
         25   -1    0    0    0    0  0.00000000000E+00  0.00000000000E+00  0.99999998245E-14  0.12500000000E+03  0.12500000000E+03 0.  0.
        -11    1    1    0    0    0 -0.52317664470E+02 -0.20339256796E+02  0.22883865256E+02  0.60617610246E+02  0.51100000000E-03 0. -1.
         11    1    1    0    0    0 -0.16251052938E+01 -0.63022714978E+00  0.71080139313E+00  0.18823900653E+01  0.51100000000E-03 0.  1.
         22    1    1    0    0    0  0.53942769764E+02  0.20969483946E+02 -0.23594666649E+02  0.62499999689E+02  0.00000000000E+00 0. -1.
</event>
<event>
 4    1  0.1977762E-002  0.9118800E+02  0.7818608E-02  0.1130116E+00
         25   -1    0    0    0    0  0.00000000000E+00  0.00000000000E+00  0.99999998245E-14  0.12500000000E+03  0.12500000000E+03 0.  0.
        -11    1    1    0    0    0  0.59010438302E+01  0.58896609737E+01  0.12614065094E+02  0.15120352613E+02  0.51100000000E-03 0. -1.
         11    1    1    0    0    0  0.18078476141E+02  0.18410016005E+02  0.39737856546E+02  0.47379924357E+02  0.51100000000E-03 0.  1.
         22    1    1    0    0    0 -0.23979519972E+02 -0.24299676979E+02 -0.52351921641E+02  0.62499723030E+02  0.00000000000E+00 0.  1.
</event>
<event>
 4    1  0.1977762E-002  0.9118800E+02  0.7818608E-02  0.1130116E+00
         25   -1    0    0    0    0  0.00000000000E+00  0.00000000000E+00  0.99999998245E-14  0.12500000000E+03  0.12500000000E+03 0.  0.
        -11    1    1    0    0    0  0.24837358088E+02 -0.37874332330E+02 -0.80022756200E+01  0.45993432375E+02  0.51100000000E-03 0.  1.
         11    1    1    0    0    0  0.89983844432E+01 -0.13217694484E+02 -0.41800299217E+01  0.16527281098E+02  0.51100000000E-03 0. -1.
         22    1    1    0    0    0 -0.33835742532E+02  0.51092026814E+02  0.12182305542E+02  0.62479286528E+02  0.00000000000E+00 0.  1.
</event>
<event>
 4    1  0.1977762E-002  0.9118800E+02  0.7818608E-02  0.1130116E+00
         25   -1    0    0    0    0  0.00000000000E+00  0.00000000000E+00  0.99999998245E-14  0.12500000000E+03  0.12500000000E+03 0.  0.
        -11    1    1    0    0    0  0.53120475237E+01 -0.41981911042E+02  0.31879976460E+02  0.52981426962E+02  0.51100000000E-03 0.  1.
         11    1    1    0    0    0  0.20255166836E-02 -0.68748154882E+01  0.66542357370E+01  0.95677555156E+01  0.51100000000E-03 0. -1.
         22    1    1    0    0    0 -0.53140730404E+01  0.48856726530E+02 -0.38534212197E+02  0.62450817522E+02  0.00000000000E+00 0.  1.
</event>
<event>
 4    1  0.1977762E-002  0.9118800E+02  0.7818608E-02  0.1130116E+00
         25   -1    0    0    0    0  0.00000000000E+00  0.00000000000E+00  0.99999998245E-14  0.12500000000E+03  0.12500000000E+03 0.  0.
        -11    1    1    0    0    0  0.84218808823E+01  0.50280744437E+01 -0.10063286343E+01  0.98601373108E+01  0.51100000000E-03 0.  1.
         11    1    1    0    0    0  0.33086816564E+02 -0.14537224986E+02  0.42427918887E+02  0.55733263335E+02  0.51100000000E-03 0. -1.
         22    1    1    0    0    0 -0.41508697447E+02  0.95091505421E+01 -0.41421590253E+02  0.59406599354E+02  0.00000000000E+00 0. -1.
</event>
<event>
 4    1  0.1977762E-002  0.9118800E+02  0.7818608E-02  0.1130116E+00
         25   -1    0    0    0    0  0.00000000000E+00  0.00000000000E+00  0.99999998245E-14  0.12500000000E+03  0.12500000000E+03 0.  0.
        -11    1    1    0    0    0  0.31198985361E+02 -0.37198558035E+01  0.35630605829E+01  0.31621344306E+02  0.51100000000E-03 0.  1.
         11    1    1    0    0    0  0.30459904330E+02 -0.36916832813E+01  0.34724614880E+01  0.30878670410E+02  0.51100000000E-03 0. -1.
         22    1    1    0    0    0 -0.61658889692E+02  0.74115390849E+01 -0.70355220709E+01  0.62499985283E+02  0.00000000000E+00 0. -1.
</event>
<event>
 4    1  0.1977762E-002  0.9118800E+02  0.7818608E-02  0.1130116E+00
         25   -1    0    0    0    0  0.00000000000E+00  0.00000000000E+00  0.99999998245E-14  0.12500000000E+03  0.12500000000E+03 0.  0.
        -11    1    1    0    0    0  0.22413399089E+01  0.12667497859E+02  0.16342028508E+01  0.12967641490E+02  0.51100000000E-03 0. -1.
         11    1    1    0    0    0  0.85579081138E+01  0.48384096659E+02  0.62606689913E+01  0.49532358890E+02  0.51100000000E-03 0.  1.
         22    1    1    0    0    0 -0.10799248023E+02 -0.61051594518E+02 -0.78948718421E+01  0.62499999619E+02  0.00000000000E+00 0.  1.
</event>
<event>
 4    1  0.1977762E-002  0.9118800E+02  0.7818608E-02  0.1130116E+00
         25   -1    0    0    0    0  0.00000000000E+00  0.00000000000E+00  0.99999998245E-14  0.12500000000E+03  0.12500000000E+03 0.  0.
        -11    1    1    0    0    0  0.86787037272E+01  0.37182444773E+01  0.14797239607E+02  0.17552878414E+02  0.51100000000E-03 0.  1.
         11    1    1    0    0    0  0.21935610481E+02  0.95293188967E+01  0.38056277896E+02  0.44947293727E+02  0.51100000000E-03 0. -1.
         22    1    1    0    0    0 -0.30614314208E+02 -0.13247563374E+02 -0.52853517504E+02  0.62499827858E+02  0.00000000000E+00 0. -1.
</event>
<event>
 4    1  0.1977762E-002  0.9118800E+02  0.7818608E-02  0.1130116E+00
         25   -1    0    0    0    0  0.00000000000E+00  0.00000000000E+00  0.99999998245E-14  0.12500000000E+03  0.12500000000E+03 0.  0.
        -11    1    1    0    0    0 -0.17231834572E+02 -0.34849599858E+02 -0.37021125448E+02  0.53684210552E+02  0.51100000000E-03 0. -1.
         11    1    1    0    0    0 -0.28881541560E+01 -0.57684911048E+01 -0.60088037967E+01  0.88160448832E+01  0.51100000000E-03 0.  1.
         22    1    1    0    0    0  0.20119988728E+02  0.40618090963E+02  0.43029929244E+02  0.62499744564E+02  0.00000000000E+00 0. -1.
</event>
<event>
 4    1  0.1977762E-002  0.9118800E+02  0.7818608E-02  0.1130116E+00
         25   -1    0    0    0    0  0.00000000000E+00  0.00000000000E+00  0.99999998245E-14  0.12500000000E+03  0.12500000000E+03 0.  0.
        -11    1    1    0    0    0 -0.22098850348E+01 -0.46474871661E+02  0.22208709423E+01  0.46580355900E+02  0.51100000000E-03 0.  1.
         11    1    1    0    0    0 -0.62614067058E+00 -0.15311764593E+02  0.50659502049E+01  0.16140199467E+02  0.51100000000E-03 0. -1.
         22    1    1    0    0    0  0.28360257054E+01  0.61786636254E+02 -0.72868211472E+01  0.62279444633E+02  0.00000000000E+00 0.  1.
</event>
<event>
 4    1  0.1977762E-002  0.9118800E+02  0.7818608E-02  0.1130116E+00
         25   -1    0    0    0    0  0.00000000000E+00  0.00000000000E+00  0.99999998245E-14  0.12500000000E+03  0.12500000000E+03 0.  0.
        -11    1    1    0    0    0  0.35738920804E+02  0.37536553257E+02 -0.88458958092E+01  0.52578637902E+02  0.51100000000E-03 0.  1.
         11    1    1    0    0    0  0.67436269250E+01  0.70831345495E+01 -0.16691694497E+01  0.99213621073E+01  0.51100000000E-03 0.  1.
         22    1    1    0    0    0 -0.42482547729E+02 -0.44619687806E+02  0.10515065259E+02  0.62499999991E+02  0.00000000000E+00 0.  1.
</event>
<event>
 4    1  0.1977762E-002  0.9118800E+02  0.7818608E-02  0.1130116E+00
         25   -1    0    0    0    0  0.00000000000E+00  0.00000000000E+00  0.99999998245E-14  0.12500000000E+03  0.12500000000E+03 0.  0.
        -11    1    1    0    0    0  0.10882413607E+00  0.10534662516E+00 -0.24013526517E-01  0.15335421286E+00  0.51100000000E-03 0. -1.
         11    1    1    0    0    0  0.44632068651E+02  0.42612752455E+02 -0.89015292635E+01  0.62346655463E+02  0.51100000000E-03 0.  1.
         22    1    1    0    0    0 -0.44740892787E+02 -0.42718099081E+02  0.89255427900E+01  0.62499990324E+02  0.00000000000E+00 0.  1.
</event>
<event>
 4    1  0.1977762E-002  0.9118800E+02  0.7818608E-02  0.1130116E+00
         25   -1    0    0    0    0  0.00000000000E+00  0.00000000000E+00  0.99999998245E-14  0.12500000000E+03  0.12500000000E+03 0.  0.
        -11    1    1    0    0    0  0.17832956610E+02  0.33393582181E+02 -0.38362080870E+02  0.53896149411E+02  0.51100000000E-03 0.  1.
         11    1    1    0    0    0  0.29035069618E+01  0.52443176690E+01 -0.61724103668E+01  0.86041775021E+01  0.51100000000E-03 0. -1.
         22    1    1    0    0    0 -0.20736463572E+02 -0.38637899850E+02  0.44534491237E+02  0.62499673087E+02  0.00000000000E+00 0.  1.
</event>
<event>
 4    1  0.1977762E-002  0.9118800E+02  0.7818608E-02  0.1130116E+00
         25   -1    0    0    0    0  0.00000000000E+00  0.00000000000E+00  0.99999998245E-14  0.12500000000E+03  0.12500000000E+03 0.  0.
        -11    1    1    0    0    0 -0.67977364124E+01  0.30273153373E+02 -0.14884567804E+02  0.34412547050E+02  0.51100000000E-03 0. -1.
         11    1    1    0    0    0 -0.55432334434E+01  0.24710477845E+02 -0.12147833917E+02  0.28087453096E+02  0.51100000000E-03 0.  1.
         22    1    1    0    0    0  0.12340969856E+02 -0.54983631218E+02  0.27032401721E+02  0.62499999853E+02  0.00000000000E+00 0. -1.
</event>
<event>
 4    1  0.1977762E-002  0.9118800E+02  0.7818608E-02  0.1130116E+00
         25   -1    0    0    0    0  0.00000000000E+00  0.00000000000E+00  0.99999998245E-14  0.12500000000E+03  0.12500000000E+03 0.  0.
        -11    1    1    0    0    0  0.91260744976E+01  0.28910785696E+01  0.30140023115E+00  0.95778083814E+01  0.51100000000E-03 0.  1.
         11    1    1    0    0    0  0.50426158254E+02  0.15976991482E+02  0.16421677691E+01  0.52922192021E+02  0.51100000000E-03 0. -1.
         22    1    1    0    0    0 -0.59552232751E+02 -0.18868070052E+02 -0.19435680002E+01  0.62499999598E+02  0.00000000000E+00 0. -1.
</event>
<event>
 4    1  0.1977762E-002  0.9118800E+02  0.7818608E-02  0.1130116E+00
         25   -1    0    0    0    0  0.00000000000E+00  0.00000000000E+00  0.99999998245E-14  0.12500000000E+03  0.12500000000E+03 0.  0.
        -11    1    1    0    0    0  0.17211944319E+01  0.17661395644E+01  0.88664645335E+00  0.26206681262E+01  0.51100000000E-03 0.  1.
         11    1    1    0    0    0  0.39318158932E+02  0.40357687207E+02  0.20270023547E+02  0.59879331938E+02  0.51100000000E-03 0. -1.
         22    1    1    0    0    0 -0.41039353364E+02 -0.42123826771E+02 -0.21156670001E+02  0.62499999935E+02  0.00000000000E+00 0. -1.
</event>
<event>
 4    1  0.1977762E-002  0.9118800E+02  0.7818608E-02  0.1130116E+00
         25   -1    0    0    0    0  0.00000000000E+00  0.00000000000E+00  0.99999998245E-14  0.12500000000E+03  0.12500000000E+03 0.  0.
        -11    1    1    0    0    0 -0.16493733432E+02 -0.17104935085E+02 -0.13299952462E+02  0.27230695594E+02  0.51100000000E-03 0. -1.
         11    1    1    0    0    0 -0.21368277374E+02 -0.21954678591E+02 -0.17473829044E+02  0.35269617119E+02  0.51100000000E-03 0.  1.
         22    1    1    0    0    0  0.37862010806E+02  0.39059613676E+02  0.30773781506E+02  0.62499687287E+02  0.00000000000E+00 0. -1.
</event>
<event>
 4    1  0.1977762E-002  0.9118800E+02  0.7818608E-02  0.1130116E+00
         25   -1    0    0    0    0  0.00000000000E+00  0.00000000000E+00  0.99999998245E-14  0.12500000000E+03  0.12500000000E+03 0.  0.
        -11    1    1    0    0    0  0.10919747172E+02 -0.71632872166E+01 -0.38374983086E+02  0.40536315684E+02  0.51100000000E-03 0. -1.
         11    1    1    0    0    0  0.34933470142E+01 -0.18351628498E+02 -0.14743356108E+02  0.23798157312E+02  0.51100000000E-03 0.  1.
         22    1    1    0    0    0 -0.14413094187E+02  0.25514915714E+02  0.53118339194E+02  0.60665527004E+02  0.00000000000E+00 0.  1.
</event>
<event>
 4    1  0.1977762E-002  0.9118800E+02  0.7818608E-02  0.1130116E+00
         25   -1    0    0    0    0  0.00000000000E+00  0.00000000000E+00  0.99999998245E-14  0.12500000000E+03  0.12500000000E+03 0.  0.
        -11    1    1    0    0    0  0.53388741394E+01 -0.20511548672E+02  0.17263470712E+02  0.27335958503E+02  0.51100000000E-03 0. -1.
         11    1    1    0    0    0  0.36698053277E+01 -0.28183889998E+02  0.20786953798E+02  0.35212165157E+02  0.51100000000E-03 0.  1.
         22    1    1    0    0    0 -0.90086794671E+01  0.48695438670E+02 -0.38050424509E+02  0.62451876340E+02  0.00000000000E+00 0.  1.
</event>
<event>
 4    1  0.1977762E-002  0.9118800E+02  0.7818608E-02  0.1130116E+00
         25   -1    0    0    0    0  0.00000000000E+00  0.00000000000E+00  0.99999998245E-14  0.12500000000E+03  0.12500000000E+03 0.  0.
        -11    1    1    0    0    0 -0.37284793310E+01  0.41795555494E+01 -0.73586266951E+01  0.92476824022E+01  0.51100000000E-03 0. -1.
         11    1    1    0    0    0 -0.21404286819E+02  0.24139371417E+02 -0.42366936270E+02  0.53252324229E+02  0.51100000000E-03 0.  1.
         22    1    1    0    0    0  0.25132766150E+02 -0.28318926967E+02  0.49725562965E+02  0.62499993369E+02  0.00000000000E+00 0.  1.
</event>
<event>
 4    1  0.1977762E-002  0.9118800E+02  0.7818608E-02  0.1130116E+00
         25   -1    0    0    0    0  0.00000000000E+00  0.00000000000E+00  0.99999998245E-14  0.12500000000E+03  0.12500000000E+03 0.  0.
        -11    1    1    0    0    0  0.35700816746E+02 -0.16229690780E+01  0.53915198153E+01  0.36142092235E+02  0.51100000000E-03 0. -1.
         11    1    1    0    0    0  0.26037391651E+02 -0.11823214128E+01  0.39237321921E+01  0.26357908159E+02  0.51100000000E-03 0.  1.
         22    1    1    0    0    0 -0.61738208397E+02  0.28052904908E+01 -0.93152520074E+01  0.62499999606E+02  0.00000000000E+00 0.  1.
</event>
<event>
 4    1  0.1977762E-002  0.9118800E+02  0.7818608E-02  0.1130116E+00
         25   -1    0    0    0    0  0.00000000000E+00  0.00000000000E+00  0.99999998245E-14  0.12500000000E+03  0.12500000000E+03 0.  0.
        -11    1    1    0    0    0  0.16834505191E-01  0.36856612206E-01  0.93068886835E-01  0.10150807478E+00  0.51100000000E-03 0. -1.
         11    1    1    0    0    0  0.78843767275E+01  0.29149345843E+02  0.54605574750E+02  0.62398850579E+02  0.51100000000E-03 0.  1.
         22    1    1    0    0    0 -0.79012112327E+01 -0.29186202456E+02 -0.54698643637E+02  0.62499641347E+02  0.00000000000E+00 0.  1.
</event>
<event>
 4    1  0.1977762E-002  0.9118800E+02  0.7818608E-02  0.1130116E+00
         25   -1    0    0    0    0  0.00000000000E+00  0.00000000000E+00  0.99999998245E-14  0.12500000000E+03  0.12500000000E+03 0.  0.
        -11    1    1    0    0    0  0.30280414642E+01  0.19139455475E+01 -0.10713599850E+02  0.11296612088E+02  0.51100000000E-03 0. -1.
         11    1    1    0    0    0  0.13727853569E+02  0.86740575976E+01 -0.48560206921E+02  0.51203387927E+02  0.51100000000E-03 0.  1.
         22    1    1    0    0    0 -0.16755895033E+02 -0.10588003145E+02  0.59273806771E+02  0.62499999984E+02  0.00000000000E+00 0.  1.
</event>
<event>
 4    1  0.1977762E-002  0.9118800E+02  0.7818608E-02  0.1130116E+00
         25   -1    0    0    0    0  0.00000000000E+00  0.00000000000E+00  0.99999998245E-14  0.12500000000E+03  0.12500000000E+03 0.  0.
        -11    1    1    0    0    0  0.45218683657E+01 -0.23078304829E+02  0.68885520289E+01  0.24505256510E+02  0.51100000000E-03 0. -1.
         11    1    1    0    0    0  0.70289833686E+01 -0.35779041499E+02  0.10679615187E+02  0.37994744355E+02  0.51100000000E-03 0.  1.
         22    1    1    0    0    0 -0.11550851734E+02  0.58857346328E+02 -0.17568167216E+02  0.62499999135E+02  0.00000000000E+00 0. -1.
</event>
<event>
 4    1  0.1977762E-002  0.9118800E+02  0.7818608E-02  0.1130116E+00
         25   -1    0    0    0    0  0.00000000000E+00  0.00000000000E+00  0.99999998245E-14  0.12500000000E+03  0.12500000000E+03 0.  0.
        -11    1    1    0    0    0 -0.25820565442E+02  0.28560918739E+00 -0.13300046779E+02  0.29046074036E+02  0.51100000000E-03 0.  1.
         11    1    1    0    0    0 -0.29740228713E+02  0.86614699496E-01 -0.15319598673E+02  0.33454129936E+02  0.51100000000E-03 0. -1.
         22    1    1    0    0    0  0.55560794155E+02 -0.37222388689E+00  0.28619645452E+02  0.62499796028E+02  0.00000000000E+00 0.  1.
</event>
<event>
 4    1  0.1977762E-002  0.9118800E+02  0.7818608E-02  0.1130116E+00
         25   -1    0    0    0    0  0.00000000000E+00  0.00000000000E+00  0.99999998245E-14  0.12500000000E+03  0.12500000000E+03 0.  0.
        -11    1    1    0    0    0 -0.50069073889E+02 -0.19285004690E+02 -0.30108050844E+02  0.61524940405E+02  0.51100000000E-03 0.  1.
         11    1    1    0    0    0  0.30899036487E+02  0.65833139469E+01  0.10613432071E+02  0.33327697474E+02  0.51100000000E-03 0. -1.
         22    1    1    0    0    0  0.19170037402E+02  0.12701690743E+02  0.19494618773E+02  0.30147362121E+02  0.00000000000E+00 0.  1.
</event>
<event>
 4    1  0.1977762E-002  0.9118800E+02  0.7818608E-02  0.1130116E+00
         25   -1    0    0    0    0  0.00000000000E+00  0.00000000000E+00  0.99999998245E-14  0.12500000000E+03  0.12500000000E+03 0.  0.
        -11    1    1    0    0    0 -0.26537347946E+02  0.10578552668E+02  0.51108252669E+01  0.29021666867E+02  0.51100000000E-03 0.  1.
         11    1    1    0    0    0 -0.30614642339E+02  0.12197933002E+02  0.58951591536E+01  0.33478333244E+02  0.51100000000E-03 0. -1.
         22    1    1    0    0    0  0.57151990286E+02 -0.22776485670E+02 -0.11005984420E+02  0.62499999889E+02  0.00000000000E+00 0. -1.
</event>
<event>
 4    1  0.1977762E-002  0.9118800E+02  0.7818608E-02  0.1130116E+00
         25   -1    0    0    0    0  0.00000000000E+00  0.00000000000E+00  0.99999998245E-14  0.12500000000E+03  0.12500000000E+03 0.  0.
        -11    1    1    0    0    0 -0.71277056518E+00  0.12876708331E+01  0.13433277130E+02  0.13513662448E+02  0.51100000000E-03 0.  1.
         11    1    1    0    0    0 -0.25803292350E+01  0.46527159562E+01  0.48696564852E+02  0.48986337823E+02  0.51100000000E-03 0. -1.
         22    1    1    0    0    0  0.32930998002E+01 -0.59403867892E+01 -0.62129841981E+02  0.62499999729E+02  0.00000000000E+00 0. -1.
</event>
<event>
 4    1  0.1977762E-002  0.9118800E+02  0.7818608E-02  0.1130116E+00
         25   -1    0    0    0    0  0.00000000000E+00  0.00000000000E+00  0.99999998245E-14  0.12500000000E+03  0.12500000000E+03 0.  0.
        -11    1    1    0    0    0  0.11755125750E+01 -0.16576358628E+02 -0.93128154054E+01  0.19049567612E+02  0.51100000000E-03 0.  1.
         11    1    1    0    0    0 -0.34568644872E+02  0.32868372864E+02 -0.26311596846E+02  0.54475877890E+02  0.51100000000E-03 0. -1.
         22    1    1    0    0    0  0.33393132297E+02 -0.16292014236E+02  0.35624412252E+02  0.51474554498E+02  0.00000000000E+00 0. -1.
</event>
<event>
 4    1  0.1977762E-002  0.9118800E+02  0.7818608E-02  0.1130116E+00
         25   -1    0    0    0    0  0.00000000000E+00  0.00000000000E+00  0.99999998245E-14  0.12500000000E+03  0.12500000000E+03 0.  0.
        -11    1    1    0    0    0  0.21974740414E+02 -0.11435479577E+01 -0.16967770515E+02  0.27786726232E+02  0.51100000000E-03 0.  1.
         11    1    1    0    0    0  0.27455794860E+02 -0.14158785482E+01 -0.21194009373E+02  0.34713274363E+02  0.51100000000E-03 0. -1.
         22    1    1    0    0    0 -0.49430535274E+02  0.25594265059E+01  0.38161779887E+02  0.62499999405E+02  0.00000000000E+00 0. -1.
</event>
<event>
 4    1  0.1977762E-002  0.9118800E+02  0.7818608E-02  0.1130116E+00
         25   -1    0    0    0    0  0.00000000000E+00  0.00000000000E+00  0.99999998245E-14  0.12500000000E+03  0.12500000000E+03 0.  0.
        -11    1    1    0    0    0  0.16509991578E+02 -0.87586529623E+01  0.17674448118E+02  0.25723140169E+02  0.51100000000E-03 0. -1.
         11    1    1    0    0    0  0.23481921926E+02 -0.12456743197E+02  0.25416032667E+02  0.36776974118E+02  0.51100000000E-03 0.  1.
         22    1    1    0    0    0 -0.39991913505E+02  0.21215396159E+02 -0.43090480785E+02  0.62499885714E+02  0.00000000000E+00 0. -1.
</event>
<event>
 4    1  0.1977762E-002  0.9118800E+02  0.7818608E-02  0.1130116E+00
         25   -1    0    0    0    0  0.00000000000E+00  0.00000000000E+00  0.99999998245E-14  0.12500000000E+03  0.12500000000E+03 0.  0.
        -11    1    1    0    0    0 -0.52636331366E+02  0.12206464078E+02  0.14671402201E+02  0.55989563204E+02  0.51100000000E-03 0.  1.
         11    1    1    0    0    0 -0.50869886822E+01  0.47854364324E+01 -0.34919249559E+01  0.78084182688E+01  0.51100000000E-03 0. -1.
         22    1    1    0    0    0  0.57723320048E+02 -0.16991900510E+02 -0.11179477245E+02  0.61202018527E+02  0.00000000000E+00 0.  1.
</event>
<event>
 4    1  0.1977762E-002  0.9118800E+02  0.7818608E-02  0.1130116E+00
         25   -1    0    0    0    0  0.00000000000E+00  0.00000000000E+00  0.99999998245E-14  0.12500000000E+03  0.12500000000E+03 0.  0.
        -11    1    1    0    0    0  0.19434545359E+02 -0.11710424115E+02 -0.14819590674E+02  0.27100846006E+02  0.51100000000E-03 0. -1.
         11    1    1    0    0    0  0.25385269876E+02 -0.15295750157E+02 -0.19357897719E+02  0.35399153999E+02  0.51100000000E-03 0. -1.
         22    1    1    0    0    0 -0.44819815234E+02  0.27006174272E+02  0.34177488393E+02  0.62499999994E+02  0.00000000000E+00 0. -1.
</event>
<event>
 4    1  0.1977762E-002  0.9118800E+02  0.7818608E-02  0.1130116E+00
         25   -1    0    0    0    0  0.00000000000E+00  0.00000000000E+00  0.99999998245E-14  0.12500000000E+03  0.12500000000E+03 0.  0.
        -11    1    1    0    0    0  0.23511836399E+02  0.98222529081E+01  0.35446144879E+01  0.25726394912E+02  0.51100000000E-03 0. -1.
         11    1    1    0    0    0  0.34172464680E+02  0.11195952869E+02 -0.10564193871E+02  0.37479446305E+02  0.51100000000E-03 0.  1.
         22    1    1    0    0    0 -0.57684301078E+02 -0.21018205777E+02  0.70195793830E+01  0.61794158783E+02  0.00000000000E+00 0.  1.
</event>
<event>
 4    1  0.1977762E-002  0.9118800E+02  0.7818608E-02  0.1130116E+00
         25   -1    0    0    0    0  0.00000000000E+00  0.00000000000E+00  0.99999998245E-14  0.12500000000E+03  0.12500000000E+03 0.  0.
        -11    1    1    0    0    0  0.18430842937E+02  0.21102230155E+02 -0.21481908004E+02  0.35305416874E+02  0.51100000000E-03 0. -1.
         11    1    1    0    0    0  0.32520305567E+02 -0.23329108966E+01  0.52646264958E+01  0.33026187182E+02  0.51100000000E-03 0.  1.
         22    1    1    0    0    0 -0.50951148504E+02 -0.18769319259E+02  0.16217281508E+02  0.56668395944E+02  0.00000000000E+00 0. -1.
</event>
<event>
 4    1  0.1977762E-002  0.9118800E+02  0.7818608E-02  0.1130116E+00
         25   -1    0    0    0    0  0.00000000000E+00  0.00000000000E+00  0.99999998245E-14  0.12500000000E+03  0.12500000000E+03 0.  0.
        -11    1    1    0    0    0 -0.33413819904E+01  0.17473468306E+02  0.26605038774E+01  0.17987918428E+02  0.51100000000E-03 0. -1.
         11    1    1    0    0    0 -0.82782978609E+01  0.43237698455E+02  0.65800181543E+01  0.44512081757E+02  0.51100000000E-03 0. -1.
         22    1    1    0    0    0  0.11619679851E+02 -0.60711166761E+02 -0.92405220317E+01  0.62499999814E+02  0.00000000000E+00 0. -1.
</event>
<event>
 4    1  0.1977762E-002  0.9118800E+02  0.7818608E-02  0.1130116E+00
         25   -1    0    0    0    0  0.00000000000E+00  0.00000000000E+00  0.99999998245E-14  0.12500000000E+03  0.12500000000E+03 0.  0.
        -11    1    1    0    0    0  0.95673079067E+01 -0.37377321216E+02 -0.17230657731E+02  0.42255095408E+02  0.51100000000E-03 0.  1.
         11    1    1    0    0    0  0.45769617069E+01 -0.17917946592E+02 -0.82374105592E+01  0.20244908533E+02  0.51100000000E-03 0. -1.
         22    1    1    0    0    0 -0.14144269614E+02  0.55295267808E+02  0.25468068290E+02  0.62499996058E+02  0.00000000000E+00 0.  1.
</event>
<event>
 4    1  0.1977762E-002  0.9118800E+02  0.7818608E-02  0.1130116E+00
         25   -1    0    0    0    0  0.00000000000E+00  0.00000000000E+00  0.99999998245E-14  0.12500000000E+03  0.12500000000E+03 0.  0.
        -11    1    1    0    0    0  0.20406596701E+01 -0.69906905479E+01  0.20668999293E+01  0.75700807000E+01  0.51100000000E-03 0. -1.
         11    1    1    0    0    0  0.11981711563E+02 -0.51343070228E+02  0.15431844365E+02  0.54934634733E+02  0.51100000000E-03 0.  1.
         22    1    1    0    0    0 -0.14022371233E+02  0.58333760776E+02 -0.17498744295E+02  0.62495284567E+02  0.00000000000E+00 0.  1.
</event>
<event>
 4    1  0.1977762E-002  0.9118800E+02  0.7818608E-02  0.1130116E+00
         25   -1    0    0    0    0  0.00000000000E+00  0.00000000000E+00  0.99999998245E-14  0.12500000000E+03  0.12500000000E+03 0.  0.
        -11    1    1    0    0    0 -0.51832661872E+00  0.55592200258E+02  0.19689970330E+02  0.58978439483E+02  0.51100000000E-03 0.  1.
         11    1    1    0    0    0 -0.46748597835E+01  0.13989662924E+01  0.13271781119E+01  0.50569578488E+01  0.51100000000E-03 0. -1.
         22    1    1    0    0    0  0.51931864023E+01 -0.56991166551E+02 -0.21017148442E+02  0.60964602668E+02  0.00000000000E+00 0.  1.
</event>
<event>
 4    1  0.1977762E-002  0.9118800E+02  0.7818608E-02  0.1130116E+00
         25   -1    0    0    0    0  0.00000000000E+00  0.00000000000E+00  0.99999998245E-14  0.12500000000E+03  0.12500000000E+03 0.  0.
        -11    1    1    0    0    0 -0.50147499748E+02  0.48996521878E+01  0.21211760623E+02  0.54669160516E+02  0.51100000000E-03 0.  1.
         11    1    1    0    0    0 -0.71817354034E+01  0.69969333175E+00  0.30422297908E+01  0.78308400906E+01  0.51100000000E-03 0. -1.
         22    1    1    0    0    0  0.57329235151E+02 -0.55993455196E+01 -0.24253990414E+02  0.62499999394E+02  0.00000000000E+00 0.  1.
</event>
<event>
 4    1  0.1977762E-002  0.9118800E+02  0.7818608E-02  0.1130116E+00
         25   -1    0    0    0    0  0.00000000000E+00  0.00000000000E+00  0.99999998245E-14  0.12500000000E+03  0.12500000000E+03 0.  0.
        -11    1    1    0    0    0 -0.38539763625E+01  0.77572917461E+01 -0.27483008467E+01  0.90874565661E+01  0.51100000000E-03 0.  1.
         11    1    1    0    0    0 -0.22470279992E+02  0.45915552486E+02 -0.15485177627E+02  0.53412940093E+02  0.51100000000E-03 0. -1.
         22    1    1    0    0    0  0.26324256355E+02 -0.53672844232E+02  0.18233478473E+02  0.62499603341E+02  0.00000000000E+00 0. -1.
</event>
<event>
 4    1  0.1977762E-002  0.9118800E+02  0.7818608E-02  0.1130116E+00
         25   -1    0    0    0    0  0.00000000000E+00  0.00000000000E+00  0.99999998245E-14  0.12500000000E+03  0.12500000000E+03 0.  0.
        -11    1    1    0    0    0  0.45225490737E+01  0.16591581538E+02  0.16708462400E+02  0.23977213018E+02  0.51100000000E-03 0.  1.
         11    1    1    0    0    0  0.72996347511E+01  0.26663007430E+02  0.26829177260E+02  0.38522790468E+02  0.51100000000E-03 0. -1.
         22    1    1    0    0    0 -0.11822183825E+02 -0.43254588968E+02 -0.43537639660E+02  0.62499996515E+02  0.00000000000E+00 0. -1.
</event>
<event>
 4    1  0.1977762E-002  0.9118800E+02  0.7818608E-02  0.1130116E+00
         25   -1    0    0    0    0  0.00000000000E+00  0.00000000000E+00  0.99999998245E-14  0.12500000000E+03  0.12500000000E+03 0.  0.
        -11    1    1    0    0    0  0.58179214061E+01  0.11484292195E+02 -0.56079464642E+01  0.14042301824E+02  0.51100000000E-03 0. -1.
         11    1    1    0    0    0  0.20083874631E+02  0.39600541328E+02 -0.19405773592E+02  0.48457702614E+02  0.51100000000E-03 0.  1.
         22    1    1    0    0    0 -0.25901796037E+02 -0.51084833524E+02  0.25013720057E+02  0.62499995561E+02  0.00000000000E+00 0.  1.
</event>
<event>
 4    1  0.1977762E-002  0.9118800E+02  0.7818608E-02  0.1130116E+00
         25   -1    0    0    0    0  0.00000000000E+00  0.00000000000E+00  0.99999998245E-14  0.12500000000E+03  0.12500000000E+03 0.  0.
        -11    1    1    0    0    0  0.20110712274E+01 -0.97137050729E+01  0.27519300677E+02  0.29252562003E+02  0.51100000000E-03 0.  1.
         11    1    1    0    0    0  0.15477474109E+02  0.18731198183E+02  0.27865317201E+02  0.36971419950E+02  0.51100000000E-03 0. -1.
         22    1    1    0    0    0 -0.17488545336E+02 -0.90174931105E+01 -0.55384617878E+02  0.58776018047E+02  0.00000000000E+00 0.  1.
</event>
<event>
 4    1  0.1977762E-002  0.9118800E+02  0.7818608E-02  0.1130116E+00
         25   -1    0    0    0    0  0.00000000000E+00  0.00000000000E+00  0.99999998245E-14  0.12500000000E+03  0.12500000000E+03 0.  0.
        -11    1    1    0    0    0 -0.20326154203E+01 -0.11816755306E+00 -0.17494480223E+01  0.26844101142E+01  0.51100000000E-03 0. -1.
         11    1    1    0    0    0 -0.41662151267E+02 -0.13451268692E+02 -0.40793389048E+02  0.59839552705E+02  0.51100000000E-03 0.  1.
         22    1    1    0    0    0  0.43694766687E+02  0.13569436245E+02  0.42542837070E+02  0.62476037181E+02  0.00000000000E+00 0.  1.
</event>
<event>
 4    1  0.1977762E-002  0.9118800E+02  0.7818608E-02  0.1130116E+00
         25   -1    0    0    0    0  0.00000000000E+00  0.00000000000E+00  0.99999998245E-14  0.12500000000E+03  0.12500000000E+03 0.  0.
        -11    1    1    0    0    0  0.60379875550E+02 -0.15946825176E+01 -0.12391817652E+02  0.61658977682E+02  0.51100000000E-03 0. -1.
         11    1    1    0    0    0  0.82788923703E+00 -0.14398989389E-01 -0.14819050558E+00  0.84117097356E+00  0.51100000000E-03 0.  1.
         22    1    1    0    0    0 -0.61207764787E+02  0.16090815070E+01  0.12540008158E+02  0.62499851345E+02  0.00000000000E+00 0. -1.
</event>
<event>
 4    1  0.1977762E-002  0.9118800E+02  0.7818608E-02  0.1130116E+00
         25   -1    0    0    0    0  0.00000000000E+00  0.00000000000E+00  0.99999998245E-14  0.12500000000E+03  0.12500000000E+03 0.  0.
        -11    1    1    0    0    0 -0.40051317547E+01  0.54992240254E+02  0.27084371256E+02  0.61430861422E+02  0.51100000000E-03 0. -1.
         11    1    1    0    0    0 -0.22907326166E-01  0.96268493975E+00  0.46570140460E+00  0.10696565328E+01  0.51100000000E-03 0.  1.
         22    1    1    0    0    0  0.40280390809E+01 -0.55954925193E+02 -0.27550072661E+02  0.62499482045E+02  0.00000000000E+00 0. -1.
</event>
<event>
 4    1  0.1977762E-002  0.9118800E+02  0.7818608E-02  0.1130116E+00
         25   -1    0    0    0    0  0.00000000000E+00  0.00000000000E+00  0.99999998245E-14  0.12500000000E+03  0.12500000000E+03 0.  0.
        -11    1    1    0    0    0 -0.35875561077E+02 -0.14648545781E+02  0.31859654669E+02  0.50166456642E+02  0.51100000000E-03 0. -1.
         11    1    1    0    0    0 -0.88097331446E+01 -0.35971542214E+01  0.78463685563E+01  0.12333548409E+02  0.51100000000E-03 0.  1.
         22    1    1    0    0    0  0.44685294221E+02  0.18245700003E+02 -0.39706023226E+02  0.62499994949E+02  0.00000000000E+00 0. -1.
</event>
<event>
 4    1  0.1977762E-002  0.9118800E+02  0.7818608E-02  0.1130116E+00
         25   -1    0    0    0    0  0.00000000000E+00  0.00000000000E+00  0.99999998245E-14  0.12500000000E+03  0.12500000000E+03 0.  0.
        -11    1    1    0    0    0 -0.16354603130E+02 -0.55396034794E+02  0.17713585834E+02  0.60414938863E+02  0.51100000000E-03 0. -1.
         11    1    1    0    0    0 -0.56404737373E+00 -0.19119910730E+01  0.61124512621E+00  0.20850611906E+01  0.51100000000E-03 0. -1.
         22    1    1    0    0    0  0.16918650504E+02  0.57308025867E+02 -0.18324830961E+02  0.62499999947E+02  0.00000000000E+00 0. -1.
</event>
<event>
 4    1  0.1977762E-002  0.9118800E+02  0.7818608E-02  0.1130116E+00
         25   -1    0    0    0    0  0.00000000000E+00  0.00000000000E+00  0.99999998245E-14  0.12500000000E+03  0.12500000000E+03 0.  0.
        -11    1    1    0    0    0 -0.76821861352E+00  0.11242276469E+01 -0.50955744076E+00  0.14538557998E+01  0.51100000000E-03 0. -1.
         11    1    1    0    0    0 -0.35500524202E+02  0.46904692218E+02 -0.16331445342E+02  0.61049598507E+02  0.51100000000E-03 0.  1.
         22    1    1    0    0    0  0.36268742816E+02 -0.48028919865E+02  0.16841002782E+02  0.62496545693E+02  0.00000000000E+00 0.  1.
</event>
<event>
 4    1  0.1977762E-002  0.9118800E+02  0.7818608E-02  0.1130116E+00
         25   -1    0    0    0    0  0.00000000000E+00  0.00000000000E+00  0.99999998245E-14  0.12500000000E+03  0.12500000000E+03 0.  0.
        -11    1    1    0    0    0 -0.48273687557E+02  0.21839728082E+02  0.15207661738E+02  0.55123457881E+02  0.51100000000E-03 0.  1.
         11    1    1    0    0    0 -0.64702085591E+01  0.29007526136E+01  0.20336337809E+01  0.73765595734E+01  0.51100000000E-03 0. -1.
         22    1    1    0    0    0  0.54743896116E+02 -0.24740480695E+02 -0.17241295519E+02  0.62499982545E+02  0.00000000000E+00 0.  1.
</event>
<event>
 4    1  0.1977762E-002  0.9118800E+02  0.7818608E-02  0.1130116E+00
         25   -1    0    0    0    0  0.00000000000E+00  0.00000000000E+00  0.99999998245E-14  0.12500000000E+03  0.12500000000E+03 0.  0.
        -11    1    1    0    0    0  0.52633391171E+02  0.59127995796E+00  0.29557132487E+02  0.60367603558E+02  0.51100000000E-03 0.  1.
         11    1    1    0    0    0  0.20070045158E+01  0.97008894270E-01  0.75130665668E+00  0.21452132308E+01  0.51100000000E-03 0. -1.
         22    1    1    0    0    0 -0.54640395687E+02 -0.68828885223E+00 -0.30308439144E+02  0.62487183212E+02  0.00000000000E+00 0.  1.
</event>
<event>
 4    1  0.1977762E-002  0.9118800E+02  0.7818608E-02  0.1130116E+00
         25   -1    0    0    0    0  0.00000000000E+00  0.00000000000E+00  0.99999998245E-14  0.12500000000E+03  0.12500000000E+03 0.  0.
        -11    1    1    0    0    0 -0.39194811096E+01  0.12719410701E+02  0.22576909878E+02  0.26208063657E+02  0.51100000000E-03 0. -1.
         11    1    1    0    0    0 -0.54273283155E+01  0.17613758256E+02  0.31263465436E+02  0.36291936348E+02  0.51100000000E-03 0.  1.
         22    1    1    0    0    0  0.93468094252E+01 -0.30333168957E+02 -0.53840375314E+02  0.62499999995E+02  0.00000000000E+00 0.  1.
</event>
<event>
 4    1  0.1977762E-002  0.9118800E+02  0.7818608E-02  0.1130116E+00
         25   -1    0    0    0    0  0.00000000000E+00  0.00000000000E+00  0.99999998245E-14  0.12500000000E+03  0.12500000000E+03 0.  0.
        -11    1    1    0    0    0 -0.42529093963E+01 -0.24763303957E+02  0.31512404881E+02  0.40303103142E+02  0.51100000000E-03 0. -1.
         11    1    1    0    0    0 -0.20851913765E+01 -0.13645368577E+02  0.17383316763E+02  0.22197382922E+02  0.51100000000E-03 0.  1.
         22    1    1    0    0    0  0.63381007728E+01  0.38408672533E+02 -0.48895721644E+02  0.62499513936E+02  0.00000000000E+00 0.  1.
</event>
<event>
 4    1  0.1977762E-002  0.9118800E+02  0.7818608E-02  0.1130116E+00
         25   -1    0    0    0    0  0.00000000000E+00  0.00000000000E+00  0.99999998245E-14  0.12500000000E+03  0.12500000000E+03 0.  0.
        -11    1    1    0    0    0  0.41732913502E+02 -0.39560328160E+02  0.15322483565E+01  0.57523937789E+02  0.51100000000E-03 0. -1.
         11    1    1    0    0    0  0.36097909591E+01 -0.34223995261E+01  0.13336452883E+00  0.49760622628E+01  0.51100000000E-03 0.  1.
         22    1    1    0    0    0 -0.45342704461E+02  0.42982727687E+02 -0.16656128854E+01  0.62499999948E+02  0.00000000000E+00 0. -1.
</event>
<event>
 4    1  0.1977762E-002  0.9118800E+02  0.7818608E-02  0.1130116E+00
         25   -1    0    0    0    0  0.00000000000E+00  0.00000000000E+00  0.99999998245E-14  0.12500000000E+03  0.12500000000E+03 0.  0.
        -11    1    1    0    0    0  0.34212125480E+02 -0.75204142288E+01 -0.32068472921E+02  0.47491189876E+02  0.51100000000E-03 0.  1.
         11    1    1    0    0    0  0.10673573411E+02 -0.21568824604E+01 -0.10330893036E+02  0.15010151981E+02  0.51100000000E-03 0. -1.
         22    1    1    0    0    0 -0.44885698891E+02  0.96772966892E+01  0.42399365957E+02  0.62498658143E+02  0.00000000000E+00 0.  1.
</event>
<event>
 4    1  0.1977762E-002  0.9118800E+02  0.7818608E-02  0.1130116E+00
         25   -1    0    0    0    0  0.00000000000E+00  0.00000000000E+00  0.99999998245E-14  0.12500000000E+03  0.12500000000E+03 0.  0.
        -11    1    1    0    0    0 -0.15065800742E+02  0.25344906774E+02 -0.43214914960E+02  0.52315117573E+02  0.51100000000E-03 0.  1.
         11    1    1    0    0    0 -0.29333780850E+01  0.49348623890E+01 -0.84127436945E+01  0.10184882450E+02  0.51100000000E-03 0. -1.
         22    1    1    0    0    0  0.17999178827E+02 -0.30279769163E+02  0.51627658655E+02  0.62499999977E+02  0.00000000000E+00 0.  1.
</event>
<event>
 4    1  0.1977762E-002  0.9118800E+02  0.7818608E-02  0.1130116E+00
         25   -1    0    0    0    0  0.00000000000E+00  0.00000000000E+00  0.99999998245E-14  0.12500000000E+03  0.12500000000E+03 0.  0.
        -11    1    1    0    0    0  0.21658761219E+02 -0.19288960809E+02 -0.35571389238E+02  0.45896510534E+02  0.51100000000E-03 0. -1.
         11    1    1    0    0    0  0.10183340395E+02 -0.67702938728E+00 -0.13731498727E+02  0.17108852912E+02  0.51100000000E-03 0.  1.
         22    1    1    0    0    0 -0.31842101614E+02  0.19965990196E+02  0.49302887965E+02  0.61994636554E+02  0.00000000000E+00 0. -1.
</event>
<event>
 4    1  0.1977762E-002  0.9118800E+02  0.7818608E-02  0.1130116E+00
         25   -1    0    0    0    0  0.00000000000E+00  0.00000000000E+00  0.99999998245E-14  0.12500000000E+03  0.12500000000E+03 0.  0.
        -11    1    1    0    0    0  0.55756228926E+01  0.44083361654E+02  0.41324541343E+02  0.60680705853E+02  0.51100000000E-03 0.  1.
         11    1    1    0    0    0  0.97700986552E+00  0.90860345349E+00  0.13962014381E+01  0.19311880359E+01  0.51100000000E-03 0. -1.
         22    1    1    0    0    0 -0.65526327581E+01 -0.44991965108E+02 -0.42720742781E+02  0.62388106111E+02  0.00000000000E+00 0.  1.
</event>
<event>
 4    1  0.1977762E-002  0.9118800E+02  0.7818608E-02  0.1130116E+00
         25   -1    0    0    0    0  0.00000000000E+00  0.00000000000E+00  0.99999998245E-14  0.12500000000E+03  0.12500000000E+03 0.  0.
        -11    1    1    0    0    0 -0.17019552079E+02  0.47040567301E+02 -0.36882759598E+02  0.62151573438E+02  0.51100000000E-03 0. -1.
         11    1    1    0    0    0 -0.91032333744E-01  0.26053522632E+00 -0.21276250202E+00  0.34847328926E+00  0.51100000000E-03 0.  1.
         22    1    1    0    0    0  0.17110584412E+02 -0.47301102527E+02  0.37095522100E+02  0.62499953273E+02  0.00000000000E+00 0. -1.
</event>
<event>
 4    1  0.1977762E-002  0.9118800E+02  0.7818608E-02  0.1130116E+00
         25   -1    0    0    0    0  0.00000000000E+00  0.00000000000E+00  0.99999998245E-14  0.12500000000E+03  0.12500000000E+03 0.  0.
        -11    1    1    0    0    0 -0.17264376326E+02  0.16080555229E+02 -0.16344305087E+02  0.28701554931E+02  0.51100000000E-03 0. -1.
         11    1    1    0    0    0 -0.18990514493E+02  0.22481514451E+02 -0.16762914618E+02  0.33868177387E+02  0.51100000000E-03 0.  1.
         22    1    1    0    0    0  0.36254890820E+02 -0.38562069680E+02  0.33107219705E+02  0.62430267683E+02  0.00000000000E+00 0. -1.
</event>
<event>
 4    1  0.1977762E-002  0.9118800E+02  0.7818608E-02  0.1130116E+00
         25   -1    0    0    0    0  0.00000000000E+00  0.00000000000E+00  0.99999998245E-14  0.12500000000E+03  0.12500000000E+03 0.  0.
        -11    1    1    0    0    0  0.44068314323E+00  0.27745994853E+01  0.71295126859E+00  0.28984312496E+01  0.51100000000E-03 0. -1.
         11    1    1    0    0    0  0.91244708107E+01  0.57121698924E+02  0.14359834146E+02  0.59601588003E+02  0.51100000000E-03 0.  1.
         22    1    1    0    0    0 -0.95651539539E+01 -0.59896298409E+02 -0.15072785414E+02  0.62499980747E+02  0.00000000000E+00 0.  1.
</event>
<event>
 4    1  0.1977762E-002  0.9118800E+02  0.7818608E-02  0.1130116E+00
         25   -1    0    0    0    0  0.00000000000E+00  0.00000000000E+00  0.99999998245E-14  0.12500000000E+03  0.12500000000E+03 0.  0.
        -11    1    1    0    0    0 -0.79134198608E+01 -0.16632951993E+02  0.48699211741E+00  0.18425918362E+02  0.51100000000E-03 0. -1.
         11    1    1    0    0    0 -0.18894435122E+02 -0.39800039972E+02  0.12175487123E+01  0.44074088595E+02  0.51100000000E-03 0.  1.
         22    1    1    0    0    0  0.26807854983E+02  0.56432991965E+02 -0.17045408297E+01  0.62499993043E+02  0.00000000000E+00 0. -1.
</event>
<event>
 4    1  0.1977762E-002  0.9118800E+02  0.7818608E-02  0.1130116E+00
         25   -1    0    0    0    0  0.00000000000E+00  0.00000000000E+00  0.99999998245E-14  0.12500000000E+03  0.12500000000E+03 0.  0.
        -11    1    1    0    0    0 -0.13933780087E+02 -0.11331366096E+02 -0.29396917931E+02  0.34448931322E+02  0.51100000000E-03 0.  1.
         11    1    1    0    0    0 -0.11317235941E+02 -0.92508252937E+01 -0.23941705181E+02  0.28051075651E+02  0.51100000000E-03 0. -1.
         22    1    1    0    0    0  0.25251016028E+02  0.20582191390E+02  0.53338623112E+02  0.62499993027E+02  0.00000000000E+00 0.  1.
</event>
<event>
 4    1  0.1977762E-002  0.9118800E+02  0.7818608E-02  0.1130116E+00
         25   -1    0    0    0    0  0.00000000000E+00  0.00000000000E+00  0.99999998245E-14  0.12500000000E+03  0.12500000000E+03 0.  0.
        -11    1    1    0    0    0 -0.45051195504E+01  0.23636131160E+02 -0.34747917639E+02  0.42265595688E+02  0.51100000000E-03 0. -1.
         11    1    1    0    0    0 -0.21423534348E+01  0.11308380768E+02 -0.16642177385E+02  0.20234406891E+02  0.51100000000E-03 0.  1.
         22    1    1    0    0    0  0.66474729852E+01 -0.34944511928E+02  0.51390095024E+02  0.62499997421E+02  0.00000000000E+00 0.  1.
</event>
<event>
 4    1  0.1977762E-002  0.9118800E+02  0.7818608E-02  0.1130116E+00
         25   -1    0    0    0    0  0.00000000000E+00  0.00000000000E+00  0.99999998245E-14  0.12500000000E+03  0.12500000000E+03 0.  0.
        -11    1    1    0    0    0 -0.28413419013E+01  0.35589681969E+02  0.75619397689E+00  0.35710929924E+02  0.51100000000E-03 0.  1.
         11    1    1    0    0    0 -0.27554107313E+01  0.26650377706E+02  0.62782842896E-01  0.26792515039E+02  0.51100000000E-03 0. -1.
         22    1    1    0    0    0  0.55967526326E+01 -0.62240059675E+02 -0.81897681979E+00  0.62496555037E+02  0.00000000000E+00 0. -1.
</event>
<event>
 4    1  0.1977762E-002  0.9118800E+02  0.7818608E-02  0.1130116E+00
         25   -1    0    0    0    0  0.00000000000E+00  0.00000000000E+00  0.99999998245E-14  0.12500000000E+03  0.12500000000E+03 0.  0.
        -11    1    1    0    0    0 -0.27693085877E+02 -0.18772768242E+02  0.29211754820E+02  0.44414529748E+02  0.51100000000E-03 0.  1.
         11    1    1    0    0    0 -0.11259302703E+02 -0.76595781806E+01  0.11901403412E+02  0.18085475905E+02  0.51100000000E-03 0. -1.
         22    1    1    0    0    0  0.38952388580E+02  0.26432346423E+02 -0.41113158232E+02  0.62499994347E+02  0.00000000000E+00 0.  1.
</event>
<event>
 4    1  0.1977762E-002  0.9118800E+02  0.7818608E-02  0.1130116E+00
         25   -1    0    0    0    0  0.00000000000E+00  0.00000000000E+00  0.99999998245E-14  0.12500000000E+03  0.12500000000E+03 0.  0.
        -11    1    1    0    0    0  0.14805947850E+02 -0.42226283784E+02  0.23034834471E+02  0.50327713373E+02  0.51100000000E-03 0.  1.
         11    1    1    0    0    0  0.37308169718E+01 -0.10265042792E+02  0.53758686578E+01  0.12173334091E+02  0.51100000000E-03 0. -1.
         22    1    1    0    0    0 -0.18536764822E+02  0.52491326577E+02 -0.28410703129E+02  0.62498952536E+02  0.00000000000E+00 0.  1.
</event>
<event>
 4    1  0.1977762E-002  0.9118800E+02  0.7818608E-02  0.1130116E+00
         25   -1    0    0    0    0  0.00000000000E+00  0.00000000000E+00  0.99999998245E-14  0.12500000000E+03  0.12500000000E+03 0.  0.
        -11    1    1    0    0    0 -0.59837511399E+01 -0.41540493611E+02  0.41755045649E+02  0.59202210470E+02  0.51100000000E-03 0. -1.
         11    1    1    0    0    0 -0.34120527673E+00 -0.23146554257E+01  0.23240903911E+01  0.32977942913E+01  0.51100000000E-03 0.  1.
         22    1    1    0    0    0  0.63249564166E+01  0.43855149037E+02 -0.44079136040E+02  0.62499995238E+02  0.00000000000E+00 0. -1.
</event>
<event>
 4    1  0.1977762E-002  0.9118800E+02  0.7818608E-02  0.1130116E+00
         25   -1    0    0    0    0  0.00000000000E+00  0.00000000000E+00  0.99999998245E-14  0.12500000000E+03  0.12500000000E+03 0.  0.
        -11    1    1    0    0    0  0.49905520072E+01 -0.89143254664E+01  0.89202141310E+01  0.13562486065E+02  0.51100000000E-03 0. -1.
         11    1    1    0    0    0  0.18007605738E+02 -0.32159877152E+02  0.32192370439E+02  0.48937514011E+02  0.51100000000E-03 0.  1.
         22    1    1    0    0    0 -0.22998157745E+02  0.41074202618E+02 -0.41112584570E+02  0.62499999924E+02  0.00000000000E+00 0.  1.
</event>
<event>
 4    1  0.1977762E-002  0.9118800E+02  0.7818608E-02  0.1130116E+00
         25   -1    0    0    0    0  0.00000000000E+00  0.00000000000E+00  0.99999998245E-14  0.12500000000E+03  0.12500000000E+03 0.  0.
        -11    1    1    0    0    0 -0.14580783821E+02  0.10246353214E+02  0.19801181913E+02  0.26639703760E+02  0.51100000000E-03 0.  1.
         11    1    1    0    0    0 -0.19625327839E+02  0.13793065147E+02  0.26656307116E+02  0.35860296265E+02  0.51100000000E-03 0. -1.
         22    1    1    0    0    0  0.34206111660E+02 -0.24039418361E+02 -0.46457489029E+02  0.62499999975E+02  0.00000000000E+00 0. -1.
</event>
<event>
 4    1  0.1977762E-002  0.9118800E+02  0.7818608E-02  0.1130116E+00
         25   -1    0    0    0    0  0.00000000000E+00  0.00000000000E+00  0.99999998245E-14  0.12500000000E+03  0.12500000000E+03 0.  0.
        -11    1    1    0    0    0 -0.46185006818E+02  0.45069691569E+01 -0.19158907563E+02  0.50203897906E+02  0.51100000000E-03 0. -1.
         11    1    1    0    0    0 -0.11309385367E+02  0.11015565898E+01 -0.46987788585E+01  0.12296102932E+02  0.51100000000E-03 0.  1.
         22    1    1    0    0    0  0.57494392185E+02 -0.56085257468E+01  0.23857686421E+02  0.62499999161E+02  0.00000000000E+00 0. -1.
</event>
<event>
 4    1  0.1977762E-002  0.9118800E+02  0.7818608E-02  0.1130116E+00
         25   -1    0    0    0    0  0.00000000000E+00  0.00000000000E+00  0.99999998245E-14  0.12500000000E+03  0.12500000000E+03 0.  0.
        -11    1    1    0    0    0  0.44427313749E+00 -0.10366690717E+01 -0.29556026885E+00  0.11659406153E+01  0.51100000000E-03 0. -1.
         11    1    1    0    0    0  0.26133860287E+02 -0.55474982920E+02 -0.18044289171E+01  0.61349069654E+02  0.51100000000E-03 0.  1.
         22    1    1    0    0    0 -0.26578133424E+02  0.56511651991E+02  0.20999891860E+01  0.62484989731E+02  0.00000000000E+00 0.  1.
</event>
<event>
 4    1  0.1977762E-002  0.9118800E+02  0.7818608E-02  0.1130116E+00
         25   -1    0    0    0    0  0.00000000000E+00  0.00000000000E+00  0.99999998245E-14  0.12500000000E+03  0.12500000000E+03 0.  0.
        -11    1    1    0    0    0 -0.51471081916E+02  0.49939030339E+01 -0.15934012837E+02  0.54111958997E+02  0.51100000000E-03 0.  1.
         11    1    1    0    0    0 -0.80963150187E+01  0.20933107041E+00 -0.22216925656E+01  0.83982173404E+01  0.51100000000E-03 0. -1.
         22    1    1    0    0    0  0.59567396935E+02 -0.52032341043E+01  0.18155705402E+02  0.62489823663E+02  0.00000000000E+00 0.  1.
</event>
<event>
 4    1  0.1977762E-002  0.9118800E+02  0.7818608E-02  0.1130116E+00
         25   -1    0    0    0    0  0.00000000000E+00  0.00000000000E+00  0.99999998245E-14  0.12500000000E+03  0.12500000000E+03 0.  0.
        -11    1    1    0    0    0  0.24588262460E+01 -0.34352979379E+02 -0.16792472787E+02  0.38316578152E+02  0.51100000000E-03 0.  1.
         11    1    1    0    0    0  0.54595131308E+00 -0.20048437971E+02 -0.13660396408E+02  0.24266115433E+02  0.51100000000E-03 0. -1.
         22    1    1    0    0    0 -0.30047775591E+01  0.54401417350E+02  0.30452869195E+02  0.62417306415E+02  0.00000000000E+00 0.  1.
</event>
<event>
 4    1  0.1977762E-002  0.9118800E+02  0.7818608E-02  0.1130116E+00
         25   -1    0    0    0    0  0.00000000000E+00  0.00000000000E+00  0.99999998245E-14  0.12500000000E+03  0.12500000000E+03 0.  0.
        -11    1    1    0    0    0  0.31585175274E+02 -0.27993829959E+02  0.35096145803E+02  0.54890957938E+02  0.51100000000E-03 0.  1.
         11    1    1    0    0    0  0.43468203034E+01 -0.38958340069E+01  0.48811684478E+01  0.76090850328E+01  0.51100000000E-03 0. -1.
         22    1    1    0    0    0 -0.35931995577E+02  0.31889663965E+02 -0.39977314251E+02  0.62499957030E+02  0.00000000000E+00 0.  1.
</event>
<event>
 4    1  0.1977762E-002  0.9118800E+02  0.7818608E-02  0.1130116E+00
         25   -1    0    0    0    0  0.00000000000E+00  0.00000000000E+00  0.99999998245E-14  0.12500000000E+03  0.12500000000E+03 0.  0.
        -11    1    1    0    0    0 -0.61821725780E+01 -0.11727062095E+01  0.45976733672E+02  0.46405328757E+02  0.51100000000E-03 0. -1.
         11    1    1    0    0    0 -0.21452459190E+01 -0.40582143723E+00  0.15945898281E+02  0.16094671272E+02  0.51100000000E-03 0.  1.
         22    1    1    0    0    0  0.83274184970E+01  0.15785276467E+01 -0.61922631953E+02  0.62499999971E+02  0.00000000000E+00 0. -1.
</event>
<event>
 4    1  0.1977762E-002  0.9118800E+02  0.7818608E-02  0.1130116E+00
         25   -1    0    0    0    0  0.00000000000E+00  0.00000000000E+00  0.99999998245E-14  0.12500000000E+03  0.12500000000E+03 0.  0.
        -11    1    1    0    0    0  0.18793447415E+02 -0.86453371779E+01 -0.18410596676E+02  0.27692699234E+02  0.51100000000E-03 0.  1.
         11    1    1    0    0    0  0.23637571636E+02 -0.10789599798E+02 -0.23160297499E+02  0.34807321602E+02  0.51100000000E-03 0. -1.
         22    1    1    0    0    0 -0.42431019051E+02  0.19434936976E+02  0.41570894174E+02  0.62499979163E+02  0.00000000000E+00 0. -1.
</event>
<event>
 4    1  0.1977762E-002  0.9118800E+02  0.7818608E-02  0.1130116E+00
         25   -1    0    0    0    0  0.00000000000E+00  0.00000000000E+00  0.99999998245E-14  0.12500000000E+03  0.12500000000E+03 0.  0.
        -11    1    1    0    0    0 -0.48505910967E+01 -0.31139519799E+01 -0.10249193597E+02  0.11758864766E+02  0.51100000000E-03 0. -1.
         11    1    1    0    0    0 -0.20913479987E+02 -0.13427110932E+02 -0.44238014224E+02  0.50741135737E+02  0.51100000000E-03 0.  1.
         22    1    1    0    0    0  0.25764071084E+02  0.16541062912E+02  0.54487207821E+02  0.62499999498E+02  0.00000000000E+00 0.  1.
</event>
<event>
 4    1  0.1977762E-002  0.9118800E+02  0.7818608E-02  0.1130116E+00
         25   -1    0    0    0    0  0.00000000000E+00  0.00000000000E+00  0.99999998245E-14  0.12500000000E+03  0.12500000000E+03 0.  0.
        -11    1    1    0    0    0  0.60059104664E+00 -0.42027512840E+01  0.32474505806E+01  0.53450690823E+01  0.51100000000E-03 0.  1.
         11    1    1    0    0    0  0.74518888690E+01 -0.45601358576E+02  0.33642023951E+02  0.57155929942E+02  0.51100000000E-03 0. -1.
         22    1    1    0    0    0 -0.80524799157E+01  0.49804109860E+02 -0.36889474532E+02  0.62499000976E+02  0.00000000000E+00 0. -1.
</event>
<event>
 4    1  0.1977762E-002  0.9118800E+02  0.7818608E-02  0.1130116E+00
         25   -1    0    0    0    0  0.00000000000E+00  0.00000000000E+00  0.99999998245E-14  0.12500000000E+03  0.12500000000E+03 0.  0.
        -11    1    1    0    0    0  0.10838541541E+02 -0.35946697210E+02 -0.25916324954E+02  0.45621211321E+02  0.51100000000E-03 0.  1.
         11    1    1    0    0    0  0.40109351616E+01 -0.13291764376E+02 -0.95986960737E+01  0.16878790468E+02  0.51100000000E-03 0. -1.
         22    1    1    0    0    0 -0.14849476703E+02  0.49238461586E+02  0.35515021027E+02  0.62499998210E+02  0.00000000000E+00 0.  1.
</event>
<event>
 4    1  0.1977762E-002  0.9118800E+02  0.7818608E-02  0.1130116E+00
         25   -1    0    0    0    0  0.00000000000E+00  0.00000000000E+00  0.99999998245E-14  0.12500000000E+03  0.12500000000E+03 0.  0.
        -11    1    1    0    0    0  0.64602988373E+01 -0.94960105425E+01 -0.99427602911E+01  0.15191055255E+02  0.51100000000E-03 0. -1.
         11    1    1    0    0    0 -0.16358471290E+02 -0.28608475679E+02 -0.36332968320E+02  0.49052309333E+02  0.51100000000E-03 0.  1.
         22    1    1    0    0    0  0.98981724530E+01  0.38104486222E+02  0.46275728612E+02  0.60756635412E+02  0.00000000000E+00 0.  1.
</event>
<event>
 4    1  0.1977762E-002  0.9118800E+02  0.7818608E-02  0.1130116E+00
         25   -1    0    0    0    0  0.00000000000E+00  0.00000000000E+00  0.99999998245E-14  0.12500000000E+03  0.12500000000E+03 0.  0.
        -11    1    1    0    0    0 -0.53821687300E+01  0.28022015110E+02  0.86770065327E+01  0.29824344313E+02  0.51100000000E-03 0. -1.
         11    1    1    0    0    0 -0.54651801325E+01  0.30804498636E+02  0.94319383850E+01  0.32676395029E+02  0.51100000000E-03 0.  1.
         22    1    1    0    0    0  0.10847348862E+02 -0.58826513746E+02 -0.18108944918E+02  0.62499260659E+02  0.00000000000E+00 0.  1.
</event>
<event>
 4    1  0.1977762E-002  0.9118800E+02  0.7818608E-02  0.1130116E+00
         25   -1    0    0    0    0  0.00000000000E+00  0.00000000000E+00  0.99999998245E-14  0.12500000000E+03  0.12500000000E+03 0.  0.
        -11    1    1    0    0    0 -0.24897087245E+02  0.39467455026E+01 -0.56227307205E+02  0.61619411139E+02  0.51100000000E-03 0.  1.
         11    1    1    0    0    0 -0.26311917812E+00 -0.14775142299E+00 -0.84262291436E+00  0.89502839162E+00  0.51100000000E-03 0. -1.
         22    1    1    0    0    0  0.25160206423E+02 -0.37989940796E+01  0.57069930120E+02  0.62485560469E+02  0.00000000000E+00 0.  1.
</event>
<event>
 4    1  0.1977762E-002  0.9118800E+02  0.7818608E-02  0.1130116E+00
         25   -1    0    0    0    0  0.00000000000E+00  0.00000000000E+00  0.99999998245E-14  0.12500000000E+03  0.12500000000E+03 0.  0.
        -11    1    1    0    0    0 -0.23700538306E+02  0.11723581777E+02  0.15564420489E+02  0.30682390245E+02  0.51100000000E-03 0.  1.
         11    1    1    0    0    0 -0.24576661940E+02  0.12159103319E+02  0.16140142064E+02  0.31817609774E+02  0.51100000000E-03 0. -1.
         22    1    1    0    0    0  0.48277200246E+02 -0.23882685096E+02 -0.31704562553E+02  0.62499999981E+02  0.00000000000E+00 0. -1.
</event>
<event>
 4    1  0.1977762E-002  0.9118800E+02  0.7818608E-02  0.1130116E+00
         25   -1    0    0    0    0  0.00000000000E+00  0.00000000000E+00  0.99999998245E-14  0.12500000000E+03  0.12500000000E+03 0.  0.
        -11    1    1    0    0    0 -0.22954026269E+02  0.24419249730E+02  0.85959157724E+01  0.34598798355E+02  0.51100000000E-03 0.  1.
         11    1    1    0    0    0 -0.18510574852E+02  0.19692125397E+02  0.69322340741E+01  0.27901201650E+02  0.51100000000E-03 0.  1.
         22    1    1    0    0    0  0.41464601121E+02 -0.44111375128E+02 -0.15528149846E+02  0.62499999995E+02  0.00000000000E+00 0.  1.
</event>
<event>
 4    1  0.1977762E-002  0.9118800E+02  0.7818608E-02  0.1130116E+00
         25   -1    0    0    0    0  0.00000000000E+00  0.00000000000E+00  0.99999998245E-14  0.12500000000E+03  0.12500000000E+03 0.  0.
        -11    1    1    0    0    0 -0.46688923399E+01  0.12784370964E+01 -0.18253164580E+00  0.48442001563E+01  0.51100000000E-03 0. -1.
         11    1    1    0    0    0 -0.55291856353E+02  0.16280267564E+02 -0.14224783304E+01  0.57656395445E+02  0.51100000000E-03 0.  1.
         22    1    1    0    0    0  0.59960748693E+02 -0.17558704661E+02  0.16050099762E+01  0.62499404398E+02  0.00000000000E+00 0.  1.
</event>
<event>
 4    1  0.1977762E-002  0.9118800E+02  0.7818608E-02  0.1130116E+00
         25   -1    0    0    0    0  0.00000000000E+00  0.00000000000E+00  0.99999998245E-14  0.12500000000E+03  0.12500000000E+03 0.  0.
        -11    1    1    0    0    0 -0.12412165378E+02 -0.38616726358E+02 -0.36010961750E+02  0.54241153845E+02  0.51100000000E-03 0. -1.
         11    1    1    0    0    0 -0.21042044124E+01 -0.59338554785E+01 -0.53478367077E+01  0.82606098299E+01  0.51100000000E-03 0.  1.
         22    1    1    0    0    0  0.14516369790E+02  0.44550581837E+02  0.41358798458E+02  0.62498236325E+02  0.00000000000E+00 0. -1.
</event>
<event>
 4    1  0.1977762E-002  0.9118800E+02  0.7818608E-02  0.1130116E+00
         25   -1    0    0    0    0  0.00000000000E+00  0.00000000000E+00  0.99999998245E-14  0.12500000000E+03  0.12500000000E+03 0.  0.
        -11    1    1    0    0    0  0.53844776728E+02  0.19708290306E+02 -0.21125529389E+02  0.61106175464E+02  0.51100000000E-03 0.  1.
         11    1    1    0    0    0  0.12255282567E+01  0.44707474916E+00 -0.49091527720E+00  0.13938412427E+01  0.51100000000E-03 0. -1.
         22    1    1    0    0    0 -0.55070304985E+02 -0.20155365055E+02  0.21616444666E+02  0.62499983293E+02  0.00000000000E+00 0.  1.
</event>
<event>
 4    1  0.1977762E-002  0.9118800E+02  0.7818608E-02  0.1130116E+00
         25   -1    0    0    0    0  0.00000000000E+00  0.00000000000E+00  0.99999998245E-14  0.12500000000E+03  0.12500000000E+03 0.  0.
        -11    1    1    0    0    0 -0.14735202155E+01  0.95867307454E+00 -0.13621761857E+01  0.22239244842E+01  0.51100000000E-03 0.  1.
         11    1    1    0    0    0 -0.40261851869E+02  0.25885995104E+02 -0.36634782777E+02  0.60276104451E+02  0.51100000000E-03 0. -1.
         22    1    1    0    0    0  0.41735372084E+02 -0.26844668178E+02  0.37996958963E+02  0.62499971064E+02  0.00000000000E+00 0. -1.
</event>
<event>
 4    1  0.1977762E-002  0.9118800E+02  0.7818608E-02  0.1130116E+00
         25   -1    0    0    0    0  0.00000000000E+00  0.00000000000E+00  0.99999998245E-14  0.12500000000E+03  0.12500000000E+03 0.  0.
        -11    1    1    0    0    0 -0.17991848115E+02  0.19698710112E+02  0.72981132326E+00  0.26688544424E+02  0.51100000000E-03 0. -1.
         11    1    1    0    0    0 -0.22181401340E+02  0.27776523877E+02 -0.53577792760E+01  0.35947957426E+02  0.51100000000E-03 0.  1.
         22    1    1    0    0    0  0.40173249455E+02 -0.47475233989E+02  0.46279679527E+01  0.62363498149E+02  0.00000000000E+00 0.  1.
</event>
<event>
 4    1  0.1977762E-002  0.9118800E+02  0.7818608E-02  0.1130116E+00
         25   -1    0    0    0    0  0.00000000000E+00  0.00000000000E+00  0.99999998245E-14  0.12500000000E+03  0.12500000000E+03 0.  0.
        -11    1    1    0    0    0 -0.11116239746E+01 -0.31610731953E+01  0.51576412601E+01  0.61505573110E+01  0.51100000000E-03 0.  1.
         11    1    1    0    0    0  0.57305453678E+02  0.97706818931E+01  0.12726308771E+02  0.59509160480E+02  0.51100000000E-03 0. -1.
         22    1    1    0    0    0 -0.56193829703E+02 -0.66096086978E+01 -0.17883950031E+02  0.59340282209E+02  0.00000000000E+00 0. -1.
</event>
<event>
 4    1  0.1977762E-002  0.9118800E+02  0.7818608E-02  0.1130116E+00
         25   -1    0    0    0    0  0.00000000000E+00  0.00000000000E+00  0.99999998245E-14  0.12500000000E+03  0.12500000000E+03 0.  0.
        -11    1    1    0    0    0  0.42961490069E+02 -0.14153765339E+02 -0.23946968809E+02  0.51180816891E+02  0.51100000000E-03 0. -1.
         11    1    1    0    0    0  0.95015056583E+01 -0.31294194318E+01 -0.52964167822E+01  0.11319183131E+02  0.51100000000E-03 0.  1.
         22    1    1    0    0    0 -0.52462995727E+02  0.17283184771E+02  0.29243385591E+02  0.62499999979E+02  0.00000000000E+00 0. -1.
</event>
<event>
 4    1  0.1977762E-002  0.9118800E+02  0.7818608E-02  0.1130116E+00
         25   -1    0    0    0    0  0.00000000000E+00  0.00000000000E+00  0.99999998245E-14  0.12500000000E+03  0.12500000000E+03 0.  0.
        -11    1    1    0    0    0  0.40591985091E+02  0.18514563385E+02 -0.11147574511E+01  0.44628925546E+02  0.51100000000E-03 0. -1.
         11    1    1    0    0    0  0.16254372157E+02  0.74142944745E+01 -0.44601052766E+00  0.17871074462E+02  0.51100000000E-03 0. -1.
         22    1    1    0    0    0 -0.56846357248E+02 -0.25928857860E+02  0.15607679788E+01  0.62499999992E+02  0.00000000000E+00 0. -1.
</event>
<event>
 4    1  0.1977762E-002  0.9118800E+02  0.7818608E-02  0.1130116E+00
         25   -1    0    0    0    0  0.00000000000E+00  0.00000000000E+00  0.99999998245E-14  0.12500000000E+03  0.12500000000E+03 0.  0.
        -11    1    1    0    0    0  0.46696712971E+01  0.29508801252E+01  0.45623924557E+01  0.71644224273E+01  0.51100000000E-03 0.  1.
         11    1    1    0    0    0  0.36006851763E+02  0.22993637638E+02  0.35168568729E+02  0.55335603118E+02  0.51100000000E-03 0. -1.
         22    1    1    0    0    0 -0.40676523060E+02 -0.25944517763E+02 -0.39730961185E+02  0.62499974455E+02  0.00000000000E+00 0. -1.
</event>
<event>
 4    1  0.1977762E-002  0.9118800E+02  0.7818608E-02  0.1130116E+00
         25   -1    0    0    0    0  0.00000000000E+00  0.00000000000E+00  0.99999998245E-14  0.12500000000E+03  0.12500000000E+03 0.  0.
        -11    1    1    0    0    0 -0.87634607313E-01  0.22535841573E-01  0.18168695950E-02  0.90505528508E-01  0.51100000000E-03 0.  1.
         11    1    1    0    0    0 -0.17570223053E+02 -0.55196284223E+02  0.23343319329E+02  0.62452006275E+02  0.51100000000E-03 0. -1.
         22    1    1    0    0    0  0.17657857661E+02  0.55173748382E+02 -0.23345136199E+02  0.62457488196E+02  0.00000000000E+00 0. -1.
</event>
<event>
 4    1  0.1977762E-002  0.9118800E+02  0.7818608E-02  0.1130116E+00
         25   -1    0    0    0    0  0.00000000000E+00  0.00000000000E+00  0.99999998245E-14  0.12500000000E+03  0.12500000000E+03 0.  0.
        -11    1    1    0    0    0 -0.14840716683E+02  0.32377260621E+02  0.15715660409E+02  0.38929627012E+02  0.51100000000E-03 0.  1.
         11    1    1    0    0    0 -0.89860350122E+01  0.19597907714E+02  0.95255295160E+01  0.23570373879E+02  0.51100000000E-03 0. -1.
         22    1    1    0    0    0  0.23826751695E+02 -0.51975168334E+02 -0.25241189925E+02  0.62499999108E+02  0.00000000000E+00 0.  1.
</event>
<event>
 4    1  0.1977762E-002  0.9118800E+02  0.7818608E-02  0.1130116E+00
         25   -1    0    0    0    0  0.00000000000E+00  0.00000000000E+00  0.99999998245E-14  0.12500000000E+03  0.12500000000E+03 0.  0.
        -11    1    1    0    0    0  0.57229722872E+01 -0.19088964859E+02  0.10104721386E+02  0.22343822093E+02  0.51100000000E-03 0.  1.
         11    1    1    0    0    0  0.12867833490E+02 -0.35200922130E+02  0.14543306686E+02  0.40201913228E+02  0.51100000000E-03 0. -1.
         22    1    1    0    0    0 -0.18590805777E+02  0.54289886989E+02 -0.24648028072E+02  0.62454264679E+02  0.00000000000E+00 0.  1.
</event>
<event>
 4    1  0.1977762E-002  0.9118800E+02  0.7818608E-02  0.1130116E+00
         25   -1    0    0    0    0  0.00000000000E+00  0.00000000000E+00  0.99999998245E-14  0.12500000000E+03  0.12500000000E+03 0.  0.
        -11    1    1    0    0    0 -0.22304363426E+01  0.30164914701E+01 -0.41310408785E+00  0.37742181066E+01  0.51100000000E-03 0.  1.
         11    1    1    0    0    0 -0.40184910470E+02  0.40386497994E+02 -0.14385274682E+02  0.58760806476E+02  0.51100000000E-03 0. -1.
         22    1    1    0    0    0  0.42415346813E+02 -0.43402989464E+02  0.14798378770E+02  0.62464975418E+02  0.00000000000E+00 0. -1.
</event>
<event>
 4    1  0.1977762E-002  0.9118800E+02  0.7818608E-02  0.1130116E+00
         25   -1    0    0    0    0  0.00000000000E+00  0.00000000000E+00  0.99999998245E-14  0.12500000000E+03  0.12500000000E+03 0.  0.
        -11    1    1    0    0    0  0.27579398402E+02  0.34662655275E+01 -0.27469275956E+02  0.39079397830E+02  0.51100000000E-03 0.  1.
         11    1    1    0    0    0  0.17518839495E+01  0.18391779752E+02 -0.19185754689E+02  0.26634936513E+02  0.51100000000E-03 0. -1.
         22    1    1    0    0    0 -0.29331282352E+02 -0.21858045279E+02  0.46655030645E+02  0.59285665657E+02  0.00000000000E+00 0.  1.
</event>
<event>
 4    1  0.1977762E-002  0.9118800E+02  0.7818608E-02  0.1130116E+00
         25   -1    0    0    0    0  0.00000000000E+00  0.00000000000E+00  0.99999998245E-14  0.12500000000E+03  0.12500000000E+03 0.  0.
        -11    1    1    0    0    0  0.30376072266E+01  0.87354859899E+01  0.30136297576E+01  0.97271649375E+01  0.51100000000E-03 0.  1.
         11    1    1    0    0    0  0.16479434043E+02  0.47392427174E+02  0.16351092363E+02  0.52772835072E+02  0.51100000000E-03 0.  1.
         22    1    1    0    0    0 -0.19517041269E+02 -0.56127913164E+02 -0.19364722121E+02  0.62499999991E+02  0.00000000000E+00 0.  1.
</event>
<event>
 4    1  0.1977762E-002  0.9118800E+02  0.7818608E-02  0.1130116E+00
         25   -1    0    0    0    0  0.00000000000E+00  0.00000000000E+00  0.99999998245E-14  0.12500000000E+03  0.12500000000E+03 0.  0.
        -11    1    1    0    0    0  0.14357596765E+02  0.86109149378E+01 -0.56429507085E+02  0.58860663528E+02  0.51100000000E-03 0.  1.
         11    1    1    0    0    0 -0.38195319139E+00 -0.23610101465E+01 -0.35256944335E+01  0.42603730649E+01  0.51100000000E-03 0. -1.
         22    1    1    0    0    0 -0.13975643574E+02 -0.62499047913E+01  0.59955201518E+02  0.61878963407E+02  0.00000000000E+00 0.  1.
</event>
<event>
 4    1  0.1977762E-002  0.9118800E+02  0.7818608E-02  0.1130116E+00
         25   -1    0    0    0    0  0.00000000000E+00  0.00000000000E+00  0.99999998245E-14  0.12500000000E+03  0.12500000000E+03 0.  0.
        -11    1    1    0    0    0  0.45007783533E+02 -0.31481387630E+02 -0.98128147102E+01  0.55794889358E+02  0.51100000000E-03 0.  1.
         11    1    1    0    0    0  0.51437792336E+01 -0.43080054280E+01 -0.53182778871E+00  0.67305435612E+01  0.51100000000E-03 0. -1.
         22    1    1    0    0    0 -0.50151562767E+02  0.35789393058E+02  0.10344642499E+02  0.62474567080E+02  0.00000000000E+00 0.  1.
</event>
<event>
 4    1  0.1977762E-002  0.9118800E+02  0.7818608E-02  0.1130116E+00
         25   -1    0    0    0    0  0.00000000000E+00  0.00000000000E+00  0.99999998245E-14  0.12500000000E+03  0.12500000000E+03 0.  0.
        -11    1    1    0    0    0  0.32920130137E+01  0.18775524588E+02 -0.16685390956E+02  0.25332981366E+02  0.51100000000E-03 0. -1.
         11    1    1    0    0    0  0.56763901182E+01  0.29575808981E+02 -0.21836533159E+02  0.37199248142E+02  0.51100000000E-03 0.  1.
         22    1    1    0    0    0 -0.89684031318E+01 -0.48351333570E+02  0.38521924115E+02  0.62467770492E+02  0.00000000000E+00 0.  1.
</event>
<event>
 4    1  0.1977762E-002  0.9118800E+02  0.7818608E-02  0.1130116E+00
         25   -1    0    0    0    0  0.00000000000E+00  0.00000000000E+00  0.99999998245E-14  0.12500000000E+03  0.12500000000E+03 0.  0.
        -11    1    1    0    0    0  0.28433848816E+00  0.78681863642E+01  0.75621651011E+01  0.10916755302E+02  0.51100000000E-03 0. -1.
         11    1    1    0    0    0  0.72639568859E+01  0.36521085497E+02  0.35740398800E+02  0.51613281838E+02  0.51100000000E-03 0.  1.
         22    1    1    0    0    0 -0.75482953740E+01 -0.44389271861E+02 -0.43302563901E+02  0.62469962860E+02  0.00000000000E+00 0.  1.
</event>
<event>
 4    1  0.1977762E-002  0.9118800E+02  0.7818608E-02  0.1130116E+00
         25   -1    0    0    0    0  0.00000000000E+00  0.00000000000E+00  0.99999998245E-14  0.12500000000E+03  0.12500000000E+03 0.  0.
        -11    1    1    0    0    0 -0.48965295129E+02  0.35583435029E+02 -0.50547732009E+00  0.60531285160E+02  0.51100000000E-03 0. -1.
         11    1    1    0    0    0 -0.15590024466E+01  0.12017282870E+01 -0.60226002789E-01  0.19693315965E+01  0.51100000000E-03 0.  1.
         22    1    1    0    0    0  0.50524297575E+02 -0.36785163316E+02  0.56570332287E+00  0.62499383244E+02  0.00000000000E+00 0. -1.
</event>
<event>
 4    1  0.1977762E-002  0.9118800E+02  0.7818608E-02  0.1130116E+00
         25   -1    0    0    0    0  0.00000000000E+00  0.00000000000E+00  0.99999998245E-14  0.12500000000E+03  0.12500000000E+03 0.  0.
        -11    1    1    0    0    0 -0.17616465059E+02  0.14586604111E+02 -0.46557114238E+02  0.51871704687E+02  0.51100000000E-03 0. -1.
         11    1    1    0    0    0 -0.38288497060E+01  0.30306008072E+01 -0.94414350614E+01  0.10629455659E+02  0.51100000000E-03 0.  1.
         22    1    1    0    0    0  0.21445314765E+02 -0.17617204919E+02  0.55998549299E+02  0.62498839654E+02  0.00000000000E+00 0. -1.
</event>
<event>
 4    1  0.1977762E-002  0.9118800E+02  0.7818608E-02  0.1130116E+00
         25   -1    0    0    0    0  0.00000000000E+00  0.00000000000E+00  0.99999998245E-14  0.12500000000E+03  0.12500000000E+03 0.  0.
        -11    1    1    0    0    0  0.22375466546E+02 -0.23744590279E+02 -0.51754753911E+02  0.61180238831E+02  0.51100000000E-03 0. -1.
         11    1    1    0    0    0 -0.15427439973E+01  0.11542003579E+02  0.26159600700E+02  0.28634290888E+02  0.51100000000E-03 0.  1.
         22    1    1    0    0    0 -0.20832722549E+02  0.12202586701E+02  0.25595153212E+02  0.35185470281E+02  0.00000000000E+00 0. -1.
</event>
<event>
 4    1  0.1977762E-002  0.9118800E+02  0.7818608E-02  0.1130116E+00
         25   -1    0    0    0    0  0.00000000000E+00  0.00000000000E+00  0.99999998245E-14  0.12500000000E+03  0.12500000000E+03 0.  0.
        -11    1    1    0    0    0 -0.13600772832E+02 -0.19111437619E+02  0.21675853434E+01  0.23556877890E+02  0.51100000000E-03 0.  1.
         11    1    1    0    0    0 -0.84003489330E+01 -0.38599072930E+02 -0.35838433813E+01  0.39664823545E+02  0.51100000000E-03 0. -1.
         22    1    1    0    0    0  0.22001121765E+02  0.57710510548E+02  0.14162580379E+01  0.61778298564E+02  0.00000000000E+00 0. -1.
</event>
<event>
 4    1  0.1977762E-002  0.9118800E+02  0.7818608E-02  0.1130116E+00
         25   -1    0    0    0    0  0.00000000000E+00  0.00000000000E+00  0.99999998245E-14  0.12500000000E+03  0.12500000000E+03 0.  0.
        -11    1    1    0    0    0 -0.37845681511E+01  0.37632554780E+02 -0.12090496921E+02  0.39707836146E+02  0.51100000000E-03 0. -1.
         11    1    1    0    0    0 -0.21439365321E+01  0.21614971346E+02 -0.69050696499E+01  0.22792179301E+02  0.51100000000E-03 0.  1.
         22    1    1    0    0    0  0.59285046832E+01 -0.59247526126E+02  0.18995566571E+02  0.62499984553E+02  0.00000000000E+00 0. -1.
</event>
<event>
 4    1  0.1977762E-002  0.9118800E+02  0.7818608E-02  0.1130116E+00
         25   -1    0    0    0    0  0.00000000000E+00  0.00000000000E+00  0.99999998245E-14  0.12500000000E+03  0.12500000000E+03 0.  0.
        -11    1    1    0    0    0  0.22510700726E+02 -0.24749262563E+02  0.20877335307E+01  0.33520385979E+02  0.51100000000E-03 0. -1.
         11    1    1    0    0    0  0.19461004603E+02 -0.21396964167E+02  0.18047861816E+01  0.28979614027E+02  0.51100000000E-03 0. -1.
         22    1    1    0    0    0 -0.41971705329E+02  0.46146226730E+02 -0.38925197123E+01  0.62499999995E+02  0.00000000000E+00 0. -1.
</event>
<event>
 4    1  0.1977762E-002  0.9118800E+02  0.7818608E-02  0.1130116E+00
         25   -1    0    0    0    0  0.00000000000E+00  0.00000000000E+00  0.99999998245E-14  0.12500000000E+03  0.12500000000E+03 0.  0.
        -11    1    1    0    0    0 -0.69620383595E+01  0.26927695985E+02  0.50846350406E+01  0.28274092433E+02  0.51100000000E-03 0.  1.
         11    1    1    0    0    0 -0.84274046450E+01  0.32596433632E+02  0.61533823906E+01  0.34225907580E+02  0.51100000000E-03 0. -1.
         22    1    1    0    0    0  0.15389443005E+02 -0.59524129616E+02 -0.11238017431E+02  0.62499999987E+02  0.00000000000E+00 0. -1.
</event>
<event>
 4    1  0.1977762E-002  0.9118800E+02  0.7818608E-02  0.1130116E+00
         25   -1    0    0    0    0  0.00000000000E+00  0.00000000000E+00  0.99999998245E-14  0.12500000000E+03  0.12500000000E+03 0.  0.
        -11    1    1    0    0    0  0.32115865382E+01  0.21999421335E+01  0.40799256965E+01  0.56391335712E+01  0.51100000000E-03 0.  1.
         11    1    1    0    0    0  0.32390379337E+02  0.22183670710E+02  0.41132787609E+02  0.56860866477E+02  0.51100000000E-03 0. -1.
         22    1    1    0    0    0 -0.35601965876E+02 -0.24383612843E+02 -0.45212713306E+02  0.62499999952E+02  0.00000000000E+00 0. -1.
</event>
<event>
 4    1  0.1977762E-002  0.9118800E+02  0.7818608E-02  0.1130116E+00
         25   -1    0    0    0    0  0.00000000000E+00  0.00000000000E+00  0.99999998245E-14  0.12500000000E+03  0.12500000000E+03 0.  0.
        -11    1    1    0    0    0 -0.23385353395E+01  0.18303890110E+01 -0.20421600999E+01  0.36040934506E+01  0.51100000000E-03 0.  1.
         11    1    1    0    0    0 -0.38218596787E+02  0.29903400694E+02 -0.33374440807E+02  0.58895906588E+02  0.51100000000E-03 0. -1.
         22    1    1    0    0    0  0.40557132126E+02 -0.31733789705E+02  0.35416600907E+02  0.62499999961E+02  0.00000000000E+00 0. -1.
</event>
<event>
 4    1  0.1977762E-002  0.9118800E+02  0.7818608E-02  0.1130116E+00
         25   -1    0    0    0    0  0.00000000000E+00  0.00000000000E+00  0.99999998245E-14  0.12500000000E+03  0.12500000000E+03 0.  0.
        -11    1    1    0    0    0 -0.91019516171E+01  0.14711762160E+01  0.77866768786E+01  0.12068231841E+02  0.51100000000E-03 0. -1.
         11    1    1    0    0    0 -0.37919489082E+02  0.61510288722E+01  0.32674814579E+02  0.50431798664E+02  0.51100000000E-03 0.  1.
         22    1    1    0    0    0  0.47021440699E+02 -0.76222050882E+01 -0.40461491458E+02  0.62499969495E+02  0.00000000000E+00 0.  1.
</event>
<event>
 4    1  0.1977762E-002  0.9118800E+02  0.7818608E-02  0.1130116E+00
         25   -1    0    0    0    0  0.00000000000E+00  0.00000000000E+00  0.99999998245E-14  0.12500000000E+03  0.12500000000E+03 0.  0.
        -11    1    1    0    0    0 -0.73351724873E+01 -0.48036089972E+01 -0.29975494847E+01  0.92663217077E+01  0.51100000000E-03 0. -1.
         11    1    1    0    0    0 -0.42312559901E+02 -0.27611530755E+02 -0.16765819738E+02  0.53233843256E+02  0.51100000000E-03 0.  1.
         22    1    1    0    0    0  0.49647732389E+02  0.32415139752E+02  0.19763369223E+02  0.62499835036E+02  0.00000000000E+00 0.  1.
</event>
<event>
 4    1  0.1977762E-002  0.9118800E+02  0.7818608E-02  0.1130116E+00
         25   -1    0    0    0    0  0.00000000000E+00  0.00000000000E+00  0.99999998245E-14  0.12500000000E+03  0.12500000000E+03 0.  0.
        -11    1    1    0    0    0  0.32419658877E+02 -0.18243959913E+02  0.31806381793E+02  0.48944072961E+02  0.51100000000E-03 0. -1.
         11    1    1    0    0    0  0.65148184559E+01  0.27411199467E+02 -0.71495600437E+01  0.29067729956E+02  0.51100000000E-03 0.  1.
         22    1    1    0    0    0 -0.38934477333E+02 -0.91672395544E+01 -0.24656821749E+02  0.46988197082E+02  0.00000000000E+00 0. -1.
</event>
<event>
 4    1  0.1977762E-002  0.9118800E+02  0.7818608E-02  0.1130116E+00
         25   -1    0    0    0    0  0.00000000000E+00  0.00000000000E+00  0.99999998245E-14  0.12500000000E+03  0.12500000000E+03 0.  0.
        -11    1    1    0    0    0 -0.21761623375E+01  0.13063143760E+01 -0.20444523079E+01  0.32591295262E+01  0.51100000000E-03 0. -1.
         11    1    1    0    0    0 -0.40870762653E+02  0.23330750713E+02 -0.35983653309E+02  0.59241594125E+02  0.51100000000E-03 0.  1.
         22    1    1    0    0    0  0.43046924991E+02 -0.24637065089E+02  0.38028105617E+02  0.62499276349E+02  0.00000000000E+00 0.  1.
</event>
<event>
 4    1  0.1977762E-002  0.9118800E+02  0.7818608E-02  0.1130116E+00
         25   -1    0    0    0    0  0.00000000000E+00  0.00000000000E+00  0.99999998245E-14  0.12500000000E+03  0.12500000000E+03 0.  0.
        -11    1    1    0    0    0 -0.12058734676E+02  0.14138529541E+02  0.55870868601E+01  0.19404294355E+02  0.51100000000E-03 0.  1.
         11    1    1    0    0    0 -0.26779551921E+02  0.31402411895E+02  0.12409027863E+02  0.43095705664E+02  0.51100000000E-03 0. -1.
         22    1    1    0    0    0  0.38838286597E+02 -0.45540941436E+02 -0.17996114723E+02  0.62499999982E+02  0.00000000000E+00 0. -1.
</event>
<event>
 4    1  0.1977762E-002  0.9118800E+02  0.7818608E-02  0.1130116E+00
         25   -1    0    0    0    0  0.00000000000E+00  0.00000000000E+00  0.99999998245E-14  0.12500000000E+03  0.12500000000E+03 0.  0.
        -11    1    1    0    0    0  0.48278775683E+01 -0.42390363546E+02  0.30046784440E+02  0.52182952952E+02  0.51100000000E-03 0. -1.
         11    1    1    0    0    0  0.22015604505E+02  0.16662915417E+02 -0.51956505371E+01  0.28095095242E+02  0.51100000000E-03 0.  1.
         22    1    1    0    0    0 -0.26843482073E+02  0.25727448129E+02 -0.24851133903E+02  0.44721951805E+02  0.00000000000E+00 0. -1.
</event>
<event>
 4    1  0.1977762E-002  0.9118800E+02  0.7818608E-02  0.1130116E+00
         25   -1    0    0    0    0  0.00000000000E+00  0.00000000000E+00  0.99999998245E-14  0.12500000000E+03  0.12500000000E+03 0.  0.
        -11    1    1    0    0    0  0.45020116788E+01 -0.10851215396E+02  0.51618214811E+01  0.12832045277E+02  0.51100000000E-03 0. -1.
         11    1    1    0    0    0  0.80959664722E+01 -0.38899790607E+02  0.30145268156E+02  0.49874598493E+02  0.51100000000E-03 0.  1.
         22    1    1    0    0    0 -0.12597978151E+02  0.49751006003E+02 -0.35307089637E+02  0.62293356230E+02  0.00000000000E+00 0.  1.
</event>
<event>
 4    1  0.1977762E-002  0.9118800E+02  0.7818608E-02  0.1130116E+00
         25   -1    0    0    0    0  0.00000000000E+00  0.00000000000E+00  0.99999998245E-14  0.12500000000E+03  0.12500000000E+03 0.  0.
        -11    1    1    0    0    0  0.20960032142E+02 -0.42973231447E+02  0.16655253811E+02  0.50630218725E+02  0.51100000000E-03 0.  1.
         11    1    1    0    0    0  0.37230139434E+01 -0.10747358899E+02  0.35136166372E+01  0.11904287390E+02  0.51100000000E-03 0. -1.
         22    1    1    0    0    0 -0.24683046085E+02  0.53720590346E+02 -0.20168870448E+02  0.62465493885E+02  0.00000000000E+00 0.  1.
</event>
<event>
 4    1  0.1977762E-002  0.9118800E+02  0.7818608E-02  0.1130116E+00
         25   -1    0    0    0    0  0.00000000000E+00  0.00000000000E+00  0.99999998245E-14  0.12500000000E+03  0.12500000000E+03 0.  0.
        -11    1    1    0    0    0  0.12853065882E+02  0.37289511805E+01  0.27139770863E+02  0.30260098186E+02  0.51100000000E-03 0. -1.
         11    1    1    0    0    0  0.13692511935E+02  0.39726148636E+01  0.28916167065E+02  0.32239901829E+02  0.51100000000E-03 0.  1.
         22    1    1    0    0    0 -0.26545577817E+02 -0.77015660440E+01 -0.56055937928E+02  0.62499999985E+02  0.00000000000E+00 0. -1.
</event>
<event>
 4    1  0.1977762E-002  0.9118800E+02  0.7818608E-02  0.1130116E+00
         25   -1    0    0    0    0  0.00000000000E+00  0.00000000000E+00  0.99999998245E-14  0.12500000000E+03  0.12500000000E+03 0.  0.
        -11    1    1    0    0    0 -0.11552883380E+02 -0.52191944924E+01  0.77508064459E+01  0.14858805685E+02  0.51100000000E-03 0. -1.
         11    1    1    0    0    0 -0.37039541551E+02 -0.16754161969E+02  0.24840569157E+02  0.47641194967E+02  0.51100000000E-03 0.  1.
         22    1    1    0    0    0  0.48592424931E+02  0.21973356461E+02 -0.32591375603E+02  0.62499999348E+02  0.00000000000E+00 0.  1.
</event>
<event>
 4    1  0.1977762E-002  0.9118800E+02  0.7818608E-02  0.1130116E+00
         25   -1    0    0    0    0  0.00000000000E+00  0.00000000000E+00  0.99999998245E-14  0.12500000000E+03  0.12500000000E+03 0.  0.
        -11    1    1    0    0    0 -0.10633361248E+02  0.58217388076E+01 -0.10140372523E+02  0.15804688208E+02  0.51100000000E-03 0. -1.
         11    1    1    0    0    0 -0.31409989831E+02  0.17213951839E+02 -0.29959048267E+02  0.46695312103E+02  0.51100000000E-03 0.  1.
         22    1    1    0    0    0  0.42043351079E+02 -0.23035690646E+02  0.40099420790E+02  0.62499999689E+02  0.00000000000E+00 0.  1.
</event>
<event>
 4    1  0.1977762E-002  0.9118800E+02  0.7818608E-02  0.1130116E+00
         25   -1    0    0    0    0  0.00000000000E+00  0.00000000000E+00  0.99999998245E-14  0.12500000000E+03  0.12500000000E+03 0.  0.
        -11    1    1    0    0    0  0.18485592881E+01 -0.18796377750E+02  0.11464559984E+02  0.22094278080E+02  0.51100000000E-03 0. -1.
         11    1    1    0    0    0  0.32853093634E+01 -0.34353985782E+02  0.21015110518E+02  0.40405747946E+02  0.51100000000E-03 0.  1.
         22    1    1    0    0    0 -0.51338686514E+01  0.53150363532E+02 -0.32479670502E+02  0.62499973975E+02  0.00000000000E+00 0.  1.
</event>
<event>
 4    1  0.1977762E-002  0.9118800E+02  0.7818608E-02  0.1130116E+00
         25   -1    0    0    0    0  0.00000000000E+00  0.00000000000E+00  0.99999998245E-14  0.12500000000E+03  0.12500000000E+03 0.  0.
        -11    1    1    0    0    0  0.16661043354E+02  0.14465226378E+02  0.18958078409E+02  0.29090236799E+02  0.51100000000E-03 0. -1.
         11    1    1    0    0    0  0.20092644209E+02  0.16415710568E+02  0.21056222175E+02  0.33414882871E+02  0.51100000000E-03 0.  1.
         22    1    1    0    0    0 -0.36753687563E+02 -0.30880936946E+02 -0.40014300584E+02  0.62494880329E+02  0.00000000000E+00 0.  1.
</event>
<event>
 4    1  0.1977762E-002  0.9118800E+02  0.7818608E-02  0.1130116E+00
         25   -1    0    0    0    0  0.00000000000E+00  0.00000000000E+00  0.99999998245E-14  0.12500000000E+03  0.12500000000E+03 0.  0.
        -11    1    1    0    0    0  0.31757212748E+02 -0.53005501323E+01  0.33051494274E+02  0.46141279427E+02  0.51100000000E-03 0.  1.
         11    1    1    0    0    0  0.11403189976E+02 -0.12982171170E+01  0.11662891452E+02  0.16362797639E+02  0.51100000000E-03 0. -1.
         22    1    1    0    0    0 -0.43160402723E+02  0.65987672493E+01 -0.44714385726E+02  0.62495922933E+02  0.00000000000E+00 0. -1.
</event>
<event>
 4    1  0.1977762E-002  0.9118800E+02  0.7818608E-02  0.1130116E+00
         25   -1    0    0    0    0  0.00000000000E+00  0.00000000000E+00  0.99999998245E-14  0.12500000000E+03  0.12500000000E+03 0.  0.
        -11    1    1    0    0    0 -0.19548226503E+01  0.68562637809E+00  0.11739922594E+01  0.23811075596E+01  0.51100000000E-03 0. -1.
         11    1    1    0    0    0 -0.45623942045E+02  0.37892226107E+02  0.10591464142E+02  0.60245696942E+02  0.51100000000E-03 0.  1.
         22    1    1    0    0    0  0.47578764696E+02 -0.38577852485E+02 -0.11765456401E+02  0.62373195498E+02  0.00000000000E+00 0.  1.
</event>
<event>
 4    1  0.1977762E-002  0.9118800E+02  0.7818608E-02  0.1130116E+00
         25   -1    0    0    0    0  0.00000000000E+00  0.00000000000E+00  0.99999998245E-14  0.12500000000E+03  0.12500000000E+03 0.  0.
        -11    1    1    0    0    0  0.90562399850E+00  0.26219186103E+01 -0.42053747815E+01  0.50378357794E+01  0.51100000000E-03 0.  1.
         11    1    1    0    0    0  0.91938903727E+01  0.28375940394E+02 -0.49115967285E+02  0.57463900460E+02  0.51100000000E-03 0. -1.
         22    1    1    0    0    0 -0.10099514371E+02 -0.30997859004E+02  0.53321342067E+02  0.62498263761E+02  0.00000000000E+00 0. -1.
</event>
<event>
 4    1  0.1977762E-002  0.9118800E+02  0.7818608E-02  0.1130116E+00
         25   -1    0    0    0    0  0.00000000000E+00  0.00000000000E+00  0.99999998245E-14  0.12500000000E+03  0.12500000000E+03 0.  0.
        -11    1    1    0    0    0 -0.14389360582E+02 -0.19467571895E+02 -0.46636016318E+02  0.52544819647E+02  0.51100000000E-03 0. -1.
         11    1    1    0    0    0 -0.27286350248E+01 -0.36412399199E+01 -0.88545255423E+01  0.99552348085E+01  0.51100000000E-03 0.  1.
         22    1    1    0    0    0  0.17117995607E+02  0.23108811815E+02  0.55490541861E+02  0.62499945544E+02  0.00000000000E+00 0. -1.
</event>
<event>
 4    1  0.1977762E-002  0.9118800E+02  0.7818608E-02  0.1130116E+00
         25   -1    0    0    0    0  0.00000000000E+00  0.00000000000E+00  0.99999998245E-14  0.12500000000E+03  0.12500000000E+03 0.  0.
        -11    1    1    0    0    0 -0.21804323287E+02  0.12451847243E+02 -0.61284777159E+01  0.25846377950E+02  0.51100000000E-03 0.  1.
         11    1    1    0    0    0 -0.30921300190E+02  0.17658009515E+02 -0.86922899393E+01  0.36653622060E+02  0.51100000000E-03 0.  1.
         22    1    1    0    0    0  0.52725623476E+02 -0.30109856758E+02  0.14820767655E+02  0.62499999991E+02  0.00000000000E+00 0.  1.
</event>
<event>
 4    1  0.1977762E-002  0.9118800E+02  0.7818608E-02  0.1130116E+00
         25   -1    0    0    0    0  0.00000000000E+00  0.00000000000E+00  0.99999998245E-14  0.12500000000E+03  0.12500000000E+03 0.  0.
        -11    1    1    0    0    0  0.11075272540E+02  0.82699818157E+01  0.66599921680E+00  0.13838273602E+02  0.51100000000E-03 0.  1.
         11    1    1    0    0    0  0.47839871609E+02  0.10416012116E+02 -0.49248107800E+01  0.49207726888E+02  0.51100000000E-03 0. -1.
         22    1    1    0    0    0 -0.58915144149E+02 -0.18685993931E+02  0.42588115632E+01  0.61953999510E+02  0.00000000000E+00 0. -1.
</event>
<event>
 4    1  0.1977762E-002  0.9118800E+02  0.7818608E-02  0.1130116E+00
         25   -1    0    0    0    0  0.00000000000E+00  0.00000000000E+00  0.99999998245E-14  0.12500000000E+03  0.12500000000E+03 0.  0.
        -11    1    1    0    0    0 -0.16311456241E+01  0.18305323498E+01 -0.61321445596E-01  0.24525997047E+01  0.51100000000E-03 0.  1.
         11    1    1    0    0    0 -0.39915374451E+02  0.44849881334E+02 -0.97304529850E+00  0.60047446163E+02  0.51100000000E-03 0. -1.
         22    1    1    0    0    0  0.41546520075E+02 -0.46680413684E+02  0.10343667441E+01  0.62499954133E+02  0.00000000000E+00 0. -1.
</event>
<event>
 4    1  0.1977762E-002  0.9118800E+02  0.7818608E-02  0.1130116E+00
         25   -1    0    0    0    0  0.00000000000E+00  0.00000000000E+00  0.99999998245E-14  0.12500000000E+03  0.12500000000E+03 0.  0.
        -11    1    1    0    0    0 -0.54467725633E+01  0.86743866058E+01 -0.47877695469E+01  0.11306416401E+02  0.51100000000E-03 0.  1.
         11    1    1    0    0    0 -0.26394542619E+02  0.37906602641E+02 -0.22082947692E+02  0.51198036904E+02  0.51100000000E-03 0. -1.
         22    1    1    0    0    0  0.31841315182E+02 -0.46580989246E+02  0.26870717239E+02  0.62495546695E+02  0.00000000000E+00 0. -1.
</event>
<event>
 4    1  0.1977762E-002  0.9118800E+02  0.7818608E-02  0.1130116E+00
         25   -1    0    0    0    0  0.00000000000E+00  0.00000000000E+00  0.99999998245E-14  0.12500000000E+03  0.12500000000E+03 0.  0.
        -11    1    1    0    0    0 -0.59763543567E+00 -0.99717174207E+01 -0.16556710293E+02  0.19336932860E+02  0.51100000000E-03 0. -1.
         11    1    1    0    0    0 -0.11944009206E+02 -0.27451193122E+02 -0.31513033290E+02  0.43466062936E+02  0.51100000000E-03 0.  1.
         22    1    1    0    0    0  0.12541644642E+02  0.37422910543E+02  0.48069743583E+02  0.62197004204E+02  0.00000000000E+00 0.  1.
</event>
<event>
 4    1  0.1977762E-002  0.9118800E+02  0.7818608E-02  0.1130116E+00
         25   -1    0    0    0    0  0.00000000000E+00  0.00000000000E+00  0.99999998245E-14  0.12500000000E+03  0.12500000000E+03 0.  0.
        -11    1    1    0    0    0 -0.11321920656E+01  0.86941338735E+01  0.28109497401E+02  0.29445095807E+02  0.51100000000E-03 0. -1.
         11    1    1    0    0    0 -0.40707231365E+01  0.11373112444E+02  0.30810704244E+02  0.33094077564E+02  0.51100000000E-03 0.  1.
         22    1    1    0    0    0  0.52029152021E+01 -0.20067246317E+02 -0.58920201645E+02  0.62460826629E+02  0.00000000000E+00 0.  1.
</event>
<event>
 4    1  0.1977762E-002  0.9118800E+02  0.7818608E-02  0.1130116E+00
         25   -1    0    0    0    0  0.00000000000E+00  0.00000000000E+00  0.99999998245E-14  0.12500000000E+03  0.12500000000E+03 0.  0.
        -11    1    1    0    0    0 -0.15785787022E+02  0.28460894851E+02 -0.13358229458E+02  0.35180334026E+02  0.51100000000E-03 0. -1.
         11    1    1    0    0    0 -0.16804659641E+02  0.17447571824E+02 -0.13180590500E+02  0.27577931656E+02  0.51100000000E-03 0.  1.
         22    1    1    0    0    0  0.32590446663E+02 -0.45908466675E+02  0.26538819959E+02  0.62241734319E+02  0.00000000000E+00 0. -1.
</event>
<event>
 4    1  0.1977762E-002  0.9118800E+02  0.7818608E-02  0.1130116E+00
         25   -1    0    0    0    0  0.00000000000E+00  0.00000000000E+00  0.99999998245E-14  0.12500000000E+03  0.12500000000E+03 0.  0.
        -11    1    1    0    0    0  0.90085827370E+01 -0.26642479591E+02 -0.13524477943E+02  0.31207175226E+02  0.51100000000E-03 0. -1.
         11    1    1    0    0    0 -0.84116087720E+01  0.30625980429E+02 -0.33751759745E+02  0.46345303166E+02  0.51100000000E-03 0.  1.
         22    1    1    0    0    0 -0.59697396501E+00 -0.39835008386E+01  0.47276237688E+02  0.47447521609E+02  0.00000000000E+00 0.  1.
</event>
<event>
 4    1  0.1977762E-002  0.9118800E+02  0.7818608E-02  0.1130116E+00
         25   -1    0    0    0    0  0.00000000000E+00  0.00000000000E+00  0.99999998245E-14  0.12500000000E+03  0.12500000000E+03 0.  0.
        -11    1    1    0    0    0 -0.26146509696E+02  0.34563764778E+01  0.19815311918E+02  0.32988378170E+02  0.51100000000E-03 0. -1.
         11    1    1    0    0    0 -0.21377588437E+02  0.18800138223E+01  0.20338629204E+02  0.29566798567E+02  0.51100000000E-03 0.  1.
         22    1    1    0    0    0  0.47524098132E+02 -0.53363903000E+01 -0.40153941122E+02  0.62444823263E+02  0.00000000000E+00 0.  1.
</event>
<event>
 4    1  0.1977762E-002  0.9118800E+02  0.7818608E-02  0.1130116E+00
         25   -1    0    0    0    0  0.00000000000E+00  0.00000000000E+00  0.99999998245E-14  0.12500000000E+03  0.12500000000E+03 0.  0.
        -11    1    1    0    0    0 -0.34636772465E+01 -0.10424589876E+02 -0.21520516458E+02  0.24161990047E+02  0.51100000000E-03 0.  1.
         11    1    1    0    0    0 -0.54071875943E+01 -0.16620104270E+02 -0.34122431240E+02  0.38338047128E+02  0.51100000000E-03 0. -1.
         22    1    1    0    0    0  0.88708648408E+01  0.27044694145E+02  0.55642947699E+02  0.62499962824E+02  0.00000000000E+00 0. -1.
</event>
<event>
 4    1  0.1977762E-002  0.9118800E+02  0.7818608E-02  0.1130116E+00
         25   -1    0    0    0    0  0.00000000000E+00  0.00000000000E+00  0.99999998245E-14  0.12500000000E+03  0.12500000000E+03 0.  0.
        -11    1    1    0    0    0 -0.54613587707E+01  0.14067638379E+02 -0.15810732072E+02  0.21856443857E+02  0.51100000000E-03 0.  1.
         11    1    1    0    0    0 -0.98473860315E+01  0.25862487611E+02 -0.29767682970E+02  0.40644239773E+02  0.51100000000E-03 0. -1.
         22    1    1    0    0    0  0.15308744802E+02 -0.39930125990E+02  0.45578415042E+02  0.62499316370E+02  0.00000000000E+00 0. -1.
</event>
<event>
 4    1  0.1977762E-002  0.9118800E+02  0.7818608E-02  0.1130116E+00
         25   -1    0    0    0    0  0.00000000000E+00  0.00000000000E+00  0.99999998245E-14  0.12500000000E+03  0.12500000000E+03 0.  0.
        -11    1    1    0    0    0  0.27293133184E+02  0.19427854861E+02 -0.50443302480E+02  0.60554796910E+02  0.51100000000E-03 0.  1.
         11    1    1    0    0    0  0.83707534658E+00  0.70445858343E+00 -0.16095982896E+01  0.19462178569E+01  0.51100000000E-03 0. -1.
         22    1    1    0    0    0 -0.28130208530E+02 -0.20132313444E+02  0.52052900770E+02  0.62498985233E+02  0.00000000000E+00 0.  1.
</event>
<event>
 4    1  0.1977762E-002  0.9118800E+02  0.7818608E-02  0.1130116E+00
         25   -1    0    0    0    0  0.00000000000E+00  0.00000000000E+00  0.99999998245E-14  0.12500000000E+03  0.12500000000E+03 0.  0.
        -11    1    1    0    0    0 -0.56919812623E+01  0.67148491476E+01 -0.13216494095E+02  0.15879658881E+02  0.51100000000E-03 0.  1.
         11    1    1    0    0    0 -0.16549975452E+02  0.18812844525E+02 -0.39316300088E+02  0.46621843158E+02  0.51100000000E-03 0. -1.
         22    1    1    0    0    0  0.22241956714E+02 -0.25527693673E+02  0.52532794183E+02  0.62498497961E+02  0.00000000000E+00 0.  1.
</event>
<event>
 4    1  0.1977762E-002  0.9118800E+02  0.7818608E-02  0.1130116E+00
         25   -1    0    0    0    0  0.00000000000E+00  0.00000000000E+00  0.99999998245E-14  0.12500000000E+03  0.12500000000E+03 0.  0.
        -11    1    1    0    0    0  0.51117531716E+00 -0.20195434598E+01 -0.18166265366E+01  0.27640528623E+01  0.51100000000E-03 0.  1.
         11    1    1    0    0    0  0.11090855811E+02 -0.43662442125E+02 -0.39229676484E+02  0.59735947738E+02  0.51100000000E-03 0. -1.
         22    1    1    0    0    0 -0.11602031128E+02  0.45681985585E+02  0.41046303020E+02  0.62499999399E+02  0.00000000000E+00 0. -1.
</event>
<event>
 4    1  0.1977762E-002  0.9118800E+02  0.7818608E-02  0.1130116E+00
         25   -1    0    0    0    0  0.00000000000E+00  0.00000000000E+00  0.99999998245E-14  0.12500000000E+03  0.12500000000E+03 0.  0.
        -11    1    1    0    0    0  0.38263251899E+02  0.19930913901E+02 -0.23211107220E+02  0.48990542694E+02  0.51100000000E-03 0.  1.
         11    1    1    0    0    0  0.10551727351E+02  0.54962511000E+01 -0.63998211445E+01  0.13509457324E+02  0.51100000000E-03 0.  1.
         22    1    1    0    0    0 -0.48814979250E+02 -0.25427165001E+02  0.29610928364E+02  0.62499999982E+02  0.00000000000E+00 0.  1.
</event>
<event>
 4    1  0.1977762E-002  0.9118800E+02  0.7818608E-02  0.1130116E+00
         25   -1    0    0    0    0  0.00000000000E+00  0.00000000000E+00  0.99999998245E-14  0.12500000000E+03  0.12500000000E+03 0.  0.
        -11    1    1    0    0    0  0.10329992486E+02 -0.27649922267E+02 -0.18518377757E+02  0.34844759450E+02  0.51100000000E-03 0. -1.
         11    1    1    0    0    0  0.31694397947E+02 -0.84693393374E+01  0.76332460166E+01  0.33682799988E+02  0.51100000000E-03 0.  1.
         22    1    1    0    0    0 -0.42024390432E+02  0.36119261604E+02  0.10885131741E+02  0.56472440562E+02  0.00000000000E+00 0.  1.
</event>
<event>
 4    1  0.1977762E-002  0.9118800E+02  0.7818608E-02  0.1130116E+00
         25   -1    0    0    0    0  0.00000000000E+00  0.00000000000E+00  0.99999998245E-14  0.12500000000E+03  0.12500000000E+03 0.  0.
        -11    1    1    0    0    0 -0.14404252686E+02  0.63732748085E+01 -0.53427503234E+01  0.16632681939E+02  0.51100000000E-03 0. -1.
         11    1    1    0    0    0 -0.39898386511E+02  0.17156656323E+02 -0.14751483618E+02  0.45867617897E+02  0.51100000000E-03 0.  1.
         22    1    1    0    0    0  0.54302639197E+02 -0.23529931131E+02  0.20094233942E+02  0.62499700163E+02  0.00000000000E+00 0.  1.
</event>
<event>
 4    1  0.1977762E-002  0.9118800E+02  0.7818608E-02  0.1130116E+00
         25   -1    0    0    0    0  0.00000000000E+00  0.00000000000E+00  0.99999998245E-14  0.12500000000E+03  0.12500000000E+03 0.  0.
        -11    1    1    0    0    0  0.13786268397E+02 -0.80310944489E+01 -0.21877777425E+02  0.27077607348E+02  0.51100000000E-03 0.  1.
         11    1    1    0    0    0  0.18043891476E+02 -0.10494759216E+02 -0.28618594594E+02  0.35422393304E+02  0.51100000000E-03 0. -1.
         22    1    1    0    0    0 -0.31830159872E+02  0.18525853665E+02  0.50496372019E+02  0.62499999349E+02  0.00000000000E+00 0.  1.
</event>
<event>
 4    1  0.1977762E-002  0.9118800E+02  0.7818608E-02  0.1130116E+00
         25   -1    0    0    0    0  0.00000000000E+00  0.00000000000E+00  0.99999998245E-14  0.12500000000E+03  0.12500000000E+03 0.  0.
        -11    1    1    0    0    0  0.10636596504E+02 -0.53309392092E+01  0.27167474259E+01  0.12203967178E+02  0.51100000000E-03 0. -1.
         11    1    1    0    0    0  0.44436505106E+02 -0.21019289807E+02  0.10650350645E+02  0.50297549633E+02  0.51100000000E-03 0.  1.
         22    1    1    0    0    0 -0.55073101610E+02  0.26350229016E+02 -0.13367098070E+02  0.62498483189E+02  0.00000000000E+00 0.  1.
</event>
<event>
 4    1  0.1977762E-002  0.9118800E+02  0.7818608E-02  0.1130116E+00
         25   -1    0    0    0    0  0.00000000000E+00  0.00000000000E+00  0.99999998245E-14  0.12500000000E+03  0.12500000000E+03 0.  0.
        -11    1    1    0    0    0  0.77472858667E+00 -0.86313656994E+00  0.24717923971E+00  0.11858781384E+01  0.51100000000E-03 0.  1.
         11    1    1    0    0    0  0.40102415545E+02 -0.44484778840E+02  0.13127209204E+02  0.61314132977E+02  0.51100000000E-03 0. -1.
         22    1    1    0    0    0 -0.40877144131E+02  0.45347915410E+02 -0.13374388444E+02  0.62499988885E+02  0.00000000000E+00 0. -1.
</event>
<event>
 4    1  0.1977762E-002  0.9118800E+02  0.7818608E-02  0.1130116E+00
         25   -1    0    0    0    0  0.00000000000E+00  0.00000000000E+00  0.99999998245E-14  0.12500000000E+03  0.12500000000E+03 0.  0.
        -11    1    1    0    0    0  0.30847884703E+02 -0.15271398338E+02 -0.46216521164E+02  0.57626160957E+02  0.51100000000E-03 0.  1.
         11    1    1    0    0    0  0.18576274929E+01 -0.10533640522E+01 -0.44278109933E+01  0.49158789837E+01  0.51100000000E-03 0. -1.
         22    1    1    0    0    0 -0.32705512196E+02  0.16324762390E+02  0.50644332157E+02  0.62457960059E+02  0.00000000000E+00 0.  1.
</event>
<event>
 4    1  0.1977762E-002  0.9118800E+02  0.7818608E-02  0.1130116E+00
         25   -1    0    0    0    0  0.00000000000E+00  0.00000000000E+00  0.99999998245E-14  0.12500000000E+03  0.12500000000E+03 0.  0.
        -11    1    1    0    0    0 -0.36357879007E+02  0.98930258989E-01 -0.14088347124E+02  0.38992136105E+02  0.51100000000E-03 0. -1.
         11    1    1    0    0    0 -0.21919718110E+02  0.59371603685E-01 -0.84936504430E+01  0.23507863900E+02  0.51100000000E-03 0. -1.
         22    1    1    0    0    0  0.58277597117E+02 -0.15830186267E+00  0.22581997567E+02  0.62499999995E+02  0.00000000000E+00 0. -1.
</event>
<event>
 4    1  0.1977762E-002  0.9118800E+02  0.7818608E-02  0.1130116E+00
         25   -1    0    0    0    0  0.00000000000E+00  0.00000000000E+00  0.99999998245E-14  0.12500000000E+03  0.12500000000E+03 0.  0.
        -11    1    1    0    0    0 -0.30109986673E+02  0.42079382390E+02  0.17986498327E+02  0.54779556790E+02  0.51100000000E-03 0.  1.
         11    1    1    0    0    0 -0.42450934884E+01  0.59295618694E+01  0.25347035274E+01  0.77204433112E+01  0.51100000000E-03 0. -1.
         22    1    1    0    0    0  0.34355080162E+02 -0.48008944259E+02 -0.20521201854E+02  0.62499999899E+02  0.00000000000E+00 0.  1.
</event>
<event>
 4    1  0.1977762E-002  0.9118800E+02  0.7818608E-02  0.1130116E+00
         25   -1    0    0    0    0  0.00000000000E+00  0.00000000000E+00  0.99999998245E-14  0.12500000000E+03  0.12500000000E+03 0.  0.
        -11    1    1    0    0    0  0.22601393409E+02 -0.14777480173E+02  0.90522265974E+00  0.27018814419E+02  0.51100000000E-03 0. -1.
         11    1    1    0    0    0  0.29683806004E+02 -0.19401555239E+02  0.11687339072E+01  0.35481186899E+02  0.51100000000E-03 0.  1.
         22    1    1    0    0    0 -0.52285199412E+02  0.34179035413E+02 -0.20739565669E+01  0.62499998682E+02  0.00000000000E+00 0.  1.
</event>
<event>
 4    1  0.1977762E-002  0.9118800E+02  0.7818608E-02  0.1130116E+00
         25   -1    0    0    0    0  0.00000000000E+00  0.00000000000E+00  0.99999998245E-14  0.12500000000E+03  0.12500000000E+03 0.  0.
        -11    1    1    0    0    0  0.35348101103E-01  0.99234733954E+00 -0.97889912444E+00  0.13943623946E+01  0.51100000000E-03 0.  1.
         11    1    1    0    0    0  0.18751580994E+01  0.43311391184E+02 -0.43063998509E+02  0.61105652701E+02  0.51100000000E-03 0. -1.
         22    1    1    0    0    0 -0.19105062006E+01 -0.44303738523E+02  0.44042897633E+02  0.62499984904E+02  0.00000000000E+00 0. -1.
</event>
<event>
 4    1  0.1977762E-002  0.9118800E+02  0.7818608E-02  0.1130116E+00
         25   -1    0    0    0    0  0.00000000000E+00  0.00000000000E+00  0.99999998245E-14  0.12500000000E+03  0.12500000000E+03 0.  0.
        -11    1    1    0    0    0  0.34497816103E+01 -0.39182351310E+01  0.84722371071E-01  0.52211816518E+01  0.51100000000E-03 0.  1.
         11    1    1    0    0    0  0.37866869686E+02 -0.42966235567E+02  0.93050915107E+00  0.57278818652E+02  0.51100000000E-03 0. -1.
         22    1    1    0    0    0 -0.41316651296E+02  0.46884470698E+02 -0.10152315221E+01  0.62499999696E+02  0.00000000000E+00 0. -1.
</event>
<event>
 4    1  0.1977762E-002  0.9118800E+02  0.7818608E-02  0.1130116E+00
         25   -1    0    0    0    0  0.00000000000E+00  0.00000000000E+00  0.99999998245E-14  0.12500000000E+03  0.12500000000E+03 0.  0.
        -11    1    1    0    0    0  0.10559734503E+02  0.14672504018E+02  0.93235396854E+01  0.20340077666E+02  0.51100000000E-03 0. -1.
         11    1    1    0    0    0  0.21927064348E+02  0.30460684592E+02  0.19204494347E+02  0.42159958018E+02  0.51100000000E-03 0.  1.
         22    1    1    0    0    0 -0.32486798851E+02 -0.45133188610E+02 -0.28528034032E+02  0.62499964316E+02  0.00000000000E+00 0.  1.
</event>
<event>
 4    1  0.1977762E-002  0.9118800E+02  0.7818608E-02  0.1130116E+00
         25   -1    0    0    0    0  0.00000000000E+00  0.00000000000E+00  0.99999998245E-14  0.12500000000E+03  0.12500000000E+03 0.  0.
        -11    1    1    0    0    0 -0.14756812272E+02  0.93092278705E+01 -0.20299863239E+02  0.26767698440E+02  0.51100000000E-03 0.  1.
         11    1    1    0    0    0 -0.12972799996E+02 -0.46940668378E+02  0.45797206828E+01  0.48915168703E+02  0.51100000000E-03 0. -1.
         22    1    1    0    0    0  0.27729612269E+02  0.37631440507E+02  0.15720142556E+02  0.49317132857E+02  0.00000000000E+00 0. -1.
</event>
<event>
 4    1  0.1977762E-002  0.9118800E+02  0.7818608E-02  0.1130116E+00
         25   -1    0    0    0    0  0.00000000000E+00  0.00000000000E+00  0.99999998245E-14  0.12500000000E+03  0.12500000000E+03 0.  0.
        -11    1    1    0    0    0 -0.18173548975E+02 -0.43510490284E+01  0.15202174666E+02  0.24089741070E+02  0.51100000000E-03 0.  1.
         11    1    1    0    0    0 -0.28972071974E+02 -0.69338850813E+01  0.24246407806E+02  0.38410259157E+02  0.51100000000E-03 0.  1.
         22    1    1    0    0    0  0.47145620949E+02  0.11284934110E+02 -0.39448582472E+02  0.62499999772E+02  0.00000000000E+00 0.  1.
</event>
<event>
 4    1  0.1977762E-002  0.9118800E+02  0.7818608E-02  0.1130116E+00
         25   -1    0    0    0    0  0.00000000000E+00  0.00000000000E+00  0.99999998245E-14  0.12500000000E+03  0.12500000000E+03 0.  0.
        -11    1    1    0    0    0  0.53980188971E+01  0.38204290728E+01 -0.98810143830E+01  0.11889858360E+02  0.51100000000E-03 0.  1.
         11    1    1    0    0    0  0.22983353420E+02  0.16234094139E+02 -0.42066687213E+02  0.50610142465E+02  0.51100000000E-03 0. -1.
         22    1    1    0    0    0 -0.28381372317E+02 -0.20054523212E+02  0.51947701596E+02  0.62499999176E+02  0.00000000000E+00 0. -1.
</event>
<event>
 4    1  0.1977762E-002  0.9118800E+02  0.7818608E-02  0.1130116E+00
         25   -1    0    0    0    0  0.00000000000E+00  0.00000000000E+00  0.99999998245E-14  0.12500000000E+03  0.12500000000E+03 0.  0.
        -11    1    1    0    0    0 -0.34999363639E+02  0.16189203786E+01 -0.38165790037E+02  0.51809303101E+02  0.51100000000E-03 0.  1.
         11    1    1    0    0    0 -0.72377015920E+01  0.31770452987E+00 -0.78616811447E+01  0.10690710509E+02  0.51100000000E-03 0. -1.
         22    1    1    0    0    0  0.42237065231E+02 -0.19366249085E+01  0.46027471182E+02  0.62499986390E+02  0.00000000000E+00 0.  1.
</event>
<event>
 4    1  0.1977762E-002  0.9118800E+02  0.7818608E-02  0.1130116E+00
         25   -1    0    0    0    0  0.00000000000E+00  0.00000000000E+00  0.99999998245E-14  0.12500000000E+03  0.12500000000E+03 0.  0.
        -11    1    1    0    0    0 -0.11521458200E+02 -0.12077196074E+02  0.45775966703E+02  0.48724139725E+02  0.51100000000E-03 0. -1.
         11    1    1    0    0    0 -0.31315261534E+01 -0.33438109556E+01  0.12992147784E+02  0.13776190767E+02  0.51100000000E-03 0.  1.
         22    1    1    0    0    0  0.14652984353E+02  0.15421007029E+02 -0.58768114487E+02  0.62499669508E+02  0.00000000000E+00 0. -1.
</event>
<event>
 4    1  0.1977762E-002  0.9118800E+02  0.7818608E-02  0.1130116E+00
         25   -1    0    0    0    0  0.00000000000E+00  0.00000000000E+00  0.99999998245E-14  0.12500000000E+03  0.12500000000E+03 0.  0.
        -11    1    1    0    0    0 -0.99080604611E+01  0.29212559983E+02  0.29936413039E+02  0.42985255015E+02  0.51100000000E-03 0. -1.
         11    1    1    0    0    0 -0.44881237528E+01  0.13266089394E+02  0.13590177669E+02  0.19514746013E+02  0.51100000000E-03 0.  1.
         22    1    1    0    0    0  0.14396184214E+02 -0.42478649377E+02 -0.43526590708E+02  0.62499998971E+02  0.00000000000E+00 0. -1.
</event>
<event>
 4    1  0.1977762E-002  0.9118800E+02  0.7818608E-02  0.1130116E+00
         25   -1    0    0    0    0  0.00000000000E+00  0.00000000000E+00  0.99999998245E-14  0.12500000000E+03  0.12500000000E+03 0.  0.
        -11    1    1    0    0    0 -0.18862862719E+02 -0.24732393148E+02  0.15577056964E+02  0.34787117798E+02  0.51100000000E-03 0. -1.
         11    1    1    0    0    0 -0.57923855267E+01  0.29928290446E+01  0.31848805612E+02  0.32509309050E+02  0.51100000000E-03 0.  1.
         22    1    1    0    0    0  0.24655248246E+02  0.21739564103E+02 -0.47425862575E+02  0.57703573152E+02  0.00000000000E+00 0. -1.
</event>
<event>
 4    1  0.1977762E-002  0.9118800E+02  0.7818608E-02  0.1130116E+00
         25   -1    0    0    0    0  0.00000000000E+00  0.00000000000E+00  0.99999998245E-14  0.12500000000E+03  0.12500000000E+03 0.  0.
        -11    1    1    0    0    0  0.20741569545E+00  0.22806226058E+02 -0.29431542080E+01  0.22996285031E+02  0.51100000000E-03 0.  1.
         11    1    1    0    0    0  0.34986648048E+00  0.39176726479E+02 -0.50601584351E+01  0.39503715114E+02  0.51100000000E-03 0. -1.
         22    1    1    0    0    0 -0.55728217593E+00 -0.61982952537E+02  0.80033126431E+01  0.62499999855E+02  0.00000000000E+00 0. -1.
</event>
<event>
 4    1  0.1977762E-002  0.9118800E+02  0.7818608E-02  0.1130116E+00
         25   -1    0    0    0    0  0.00000000000E+00  0.00000000000E+00  0.99999998245E-14  0.12500000000E+03  0.12500000000E+03 0.  0.
        -11    1    1    0    0    0  0.19289388185E+02  0.92201313655E+00 -0.15184161001E+02  0.24566020238E+02  0.51100000000E-03 0. -1.
         11    1    1    0    0    0  0.29280588612E+02  0.37313174935E+01 -0.23850368861E+02  0.37948856304E+02  0.51100000000E-03 0.  1.
         22    1    1    0    0    0 -0.48569976797E+02 -0.46533306301E+01  0.39034529862E+02  0.62485123458E+02  0.00000000000E+00 0.  1.
</event>
<event>
 4    1  0.1977762E-002  0.9118800E+02  0.7818608E-02  0.1130116E+00
         25   -1    0    0    0    0  0.00000000000E+00  0.00000000000E+00  0.99999998245E-14  0.12500000000E+03  0.12500000000E+03 0.  0.
        -11    1    1    0    0    0  0.39323032037E+01  0.31092003455E+00  0.36693193083E+00  0.39616056160E+01  0.51100000000E-03 0.  1.
         11    1    1    0    0    0  0.58297130220E+02  0.50061233708E+01  0.18791731589E+01  0.58541847896E+02  0.51100000000E-03 0. -1.
         22    1    1    0    0    0 -0.62229433424E+02 -0.53170434054E+01 -0.22461050898E+01  0.62496546488E+02  0.00000000000E+00 0. -1.
</event>
<event>
 4    1  0.1977762E-002  0.9118800E+02  0.7818608E-02  0.1130116E+00
         25   -1    0    0    0    0  0.00000000000E+00  0.00000000000E+00  0.99999998245E-14  0.12500000000E+03  0.12500000000E+03 0.  0.
        -11    1    1    0    0    0 -0.51837765053E+02 -0.92044402228E-01  0.68904020151E+01  0.52293785463E+02  0.51100000000E-03 0. -1.
         11    1    1    0    0    0 -0.10124419087E+02 -0.42099176332E-01  0.12894678556E+01  0.10206290305E+02  0.51100000000E-03 0.  1.
         22    1    1    0    0    0  0.61962184140E+02  0.13414357856E+00 -0.81798698707E+01  0.62499924232E+02  0.00000000000E+00 0. -1.
</event>
<event>
 4    1  0.1977762E-002  0.9118800E+02  0.7818608E-02  0.1130116E+00
         25   -1    0    0    0    0  0.00000000000E+00  0.00000000000E+00  0.99999998245E-14  0.12500000000E+03  0.12500000000E+03 0.  0.
        -11    1    1    0    0    0 -0.11893187680E+02  0.13145320288E+02  0.30316651559E+01  0.17984391915E+02  0.51100000000E-03 0.  1.
         11    1    1    0    0    0 -0.27554580074E+02  0.34498770292E+02  0.58050639091E+01  0.44532222064E+02  0.51100000000E-03 0. -1.
         22    1    1    0    0    0  0.39447767754E+02 -0.47644090580E+02 -0.88367290651E+01  0.62483386021E+02  0.00000000000E+00 0.  1.
</event>
<event>
 4    1  0.1977762E-002  0.9118800E+02  0.7818608E-02  0.1130116E+00
         25   -1    0    0    0    0  0.00000000000E+00  0.00000000000E+00  0.99999998245E-14  0.12500000000E+03  0.12500000000E+03 0.  0.
        -11    1    1    0    0    0 -0.39735231721E+02  0.13738458294E+02  0.38437426034E+02  0.56965512344E+02  0.51100000000E-03 0. -1.
         11    1    1    0    0    0 -0.22942544082E+01  0.13718716823E+00  0.53200009397E+01  0.57952423477E+01  0.51100000000E-03 0.  1.
         22    1    1    0    0    0  0.42029486129E+02 -0.13875645462E+02 -0.43757426974E+02  0.62239245309E+02  0.00000000000E+00 0. -1.
</event>
<event>
 4    1  0.1977762E-002  0.9118800E+02  0.7818608E-02  0.1130116E+00
         25   -1    0    0    0    0  0.00000000000E+00  0.00000000000E+00  0.99999998245E-14  0.12500000000E+03  0.12500000000E+03 0.  0.
        -11    1    1    0    0    0  0.20916213787E+02 -0.32139466012E+02 -0.29561127319E+02  0.48417904988E+02  0.51100000000E-03 0. -1.
         11    1    1    0    0    0  0.14657460588E+02 -0.80685582523E+01  0.97016876275E+01  0.19340773673E+02  0.51100000000E-03 0.  1.
         22    1    1    0    0    0 -0.35573674376E+02  0.40208024265E+02  0.19859439692E+02  0.57241321340E+02  0.00000000000E+00 0. -1.
</event>
